                         Program Version 5.0.0 -  RELEASE  -
|  1> !LC-PBE RIJCOSX def2-SVPD def2/J TightSCF xyzfile
|  2>
|  3> *xyzfile 0 1 D2.xyz
|  4>
|  5> %MaxCore 64000
|  6>
|  7> %pal nprocs 4
|  8> end
|  9>
| 10> %scf
| 11>   MaxIter 150
| 12> end
| 13>
| 14>
| 15>                          ****END OF INPUT****

CARTESIAN COORDINATES (ANGSTROEM)
---------------------------------
  C      3.488276    1.600919   -1.522040
  C      4.342970    1.313419   -2.756826
  N      2.810285    0.428783   -1.014196
  H      5.132033    0.604994   -2.484466
  C      3.535896    0.749253   -3.924604
  H      4.841247    2.242136   -3.054083
  H      2.991617   -0.132199   -3.574137
  H      4.225505    0.392784   -4.695962
  C      2.564776    1.750890   -4.544523
  H      1.918749    2.171679   -3.769419
  C      1.686235    1.161657   -5.650111
  H      3.132494    2.594775   -4.951604
  C      0.839616   -0.037582   -5.220473
  H      2.323886    0.866395   -6.490796
  H      1.029518    1.951850   -6.029329
  C     -0.151019    0.254955   -4.094256
  H      1.499442   -0.857141   -4.922958
  H      0.290097   -0.410143   -6.091131
  H      0.328265    0.833022   -3.299125
  C     -0.721843   -0.999513   -3.439309
  H     -0.957367    0.884951   -4.485450
  H     -1.083403   -1.697555   -4.205656
  H     -1.581056   -0.723848   -2.820490
  C      0.287250   -1.711771   -2.527405
  H      1.131780   -2.067380   -3.159396
  H     -0.204137   -2.637326   -2.170480
  F      0.710505   -0.927506   -1.481767
  H      2.714548    2.331455   -1.760302
  H      4.090991    2.063151   -0.733382
  C      3.290978   -0.418021   -0.129083
  C      2.517536   -1.432017    0.239360
  N      4.535490   -0.284410    0.395800
  H      5.043627    0.571888    0.222899
  H      4.723346   -0.733273    1.281800
  H      1.934787    0.102305   -1.403788
  H      1.674638   -1.505616   -0.316095
  H      2.928503   -2.218502    0.725494

 Total Charge           Charge          ....    0
 Multiplicity           Mult            ....    1
 Number of Electrons    NEL             ....  112
 Basis Dimension        Dim             ....  467

ORBITAL ENERGIES
----------------

  NO   OCC          E(Eh)            E(eV)
   0   2.0000     -24.523336      -667.3139
   1   2.0000     -14.213294      -386.7634
   2   2.0000     -14.202968      -386.4824
   3   2.0000     -10.220046      -278.1016
   4   2.0000     -10.157689      -276.4048
   5   2.0000     -10.154529      -276.3188
   6   2.0000     -10.142968      -276.0042
   7   2.0000     -10.132478      -275.7187
   8   2.0000     -10.128894      -275.6212
   9   2.0000     -10.126378      -275.5528
  10   2.0000     -10.123357      -275.4705
  11   2.0000     -10.121051      -275.4078
  12   2.0000     -10.119762      -275.3727
  13   2.0000     -10.006279      -272.2847
  14   2.0000      -1.375349       -37.4251
  15   2.0000      -1.122043       -30.5323
  16   2.0000      -1.031283       -28.0626
  17   2.0000      -1.004844       -27.3432
  18   2.0000      -0.973319       -26.4854
  19   2.0000      -0.944754       -25.7081
  20   2.0000      -0.894154       -24.3312
  21   2.0000      -0.869752       -23.6672
  22   2.0000      -0.831665       -22.6308
  23   2.0000      -0.803877       -21.8746
  24   2.0000      -0.768837       -20.9211
  25   2.0000      -0.754394       -20.5281
  26   2.0000      -0.730730       -19.8842
  27   2.0000      -0.712881       -19.3985
  28   2.0000      -0.690339       -18.7851
  29   2.0000      -0.674679       -18.3589
  30   2.0000      -0.660673       -17.9778
  31   2.0000      -0.648262       -17.6401
  32   2.0000      -0.633238       -17.2313
  33   2.0000      -0.621312       -16.9068
  34   2.0000      -0.613312       -16.6891
  35   2.0000      -0.597410       -16.2564
  36   2.0000      -0.581884       -15.8339
  37   2.0000      -0.574807       -15.6413
  38   2.0000      -0.570294       -15.5185
  39   2.0000      -0.553163       -15.0523
  40   2.0000      -0.536858       -14.6086
  41   2.0000      -0.517685       -14.0869
  42   2.0000      -0.510852       -13.9010
  43   2.0000      -0.505198       -13.7471
  44   2.0000      -0.502590       -13.6762
  45   2.0000      -0.493616       -13.4320
  46   2.0000      -0.478551       -13.0220
  47   2.0000      -0.472405       -12.8548
  48   2.0000      -0.468192       -12.7402
  49   2.0000      -0.456673       -12.4267
  50   2.0000      -0.449916       -12.2428
  51   2.0000      -0.442920       -12.0525
  52   2.0000      -0.438475       -11.9315
  53   2.0000      -0.435085       -11.8393
  54   2.0000      -0.371625       -10.1124
  55   2.0000      -0.259538        -7.0624
  56   0.0000       0.088127         2.3981
  57   0.0000       0.092382         2.5138
  58   0.0000       0.099246         2.7006
  59   0.0000       0.101801         2.7702
  60   0.0000       0.118309         3.2194

MULLIKEN ATOMIC CHARGES
-----------------------
   0 C :    0.892449
   1 C :    0.179190
   2 N :    0.279823
   3 H :    0.027426
   4 C :    0.208019
   5 H :   -0.051751
   6 H :   -0.298629
   7 H :   -0.065246
   8 C :   -0.200757
   9 H :    0.083387
  10 C :    0.444350
  11 H :   -0.116716
  12 C :   -0.133233
  13 H :    0.055268
  14 H :   -0.047990
  15 C :    0.081085
  16 H :    0.004169
  17 H :   -0.117747
  18 H :   -0.245979
  19 C :    0.090333
  20 H :   -0.017428
  21 H :    0.029294
  22 H :    0.043870
  23 C :    0.631953
  24 H :   -0.016050
  25 H :   -0.101155
  26 F :   -0.587700
  27 H :   -0.228727
  28 H :   -0.204398
  29 C :    0.514915
  30 C :    0.624334
  31 N :    0.060069
  32 H :   -0.096161
  33 H :   -0.100306
  34 H :   -0.854239
  35 H :   -0.517272
  36 H :   -0.248452
Sum of atomic charges:    0.0000000

LOEWDIN ATOMIC CHARGES
----------------------
   0 C :    0.037753
   1 C :   -0.043458
   2 N :   -0.001915
   3 H :    0.031616
   4 C :   -0.051649
   5 H :    0.033196
   6 H :    0.009869
   7 H :    0.039842
   8 C :   -0.058065
   9 H :    0.008421
  10 C :   -0.052074
  11 H :    0.038311
  12 C :   -0.056607
  13 H :    0.035927
  14 H :    0.035290
  15 C :   -0.047462
  16 H :    0.008710
  17 H :    0.036948
  18 H :    0.015390
  19 C :   -0.034967
  20 H :    0.042023
  21 H :    0.048391
  22 H :    0.041361
  23 C :    0.138156
  24 H :    0.047675
  25 H :    0.055064
  26 F :   -0.209828
  27 H :    0.022222
  28 H :    0.022597
  29 C :   -0.211209
  30 C :    0.130794
  31 N :    0.183327
  32 H :   -0.027724
  33 H :    0.010169
  34 H :   -0.045388
  35 H :   -0.148761
  36 H :   -0.083945

  Mayer bond orders larger than 0.100000
B(  0-C ,  1-C ) :   1.0718 B(  0-C ,  2-N ) :   1.0470 B(  0-C , 27-H ) :   0.7489
B(  0-C , 28-H ) :   0.8631 B(  0-C , 34-H ) :  -0.5856 B(  1-C ,  3-H ) :   0.8004
B(  1-C ,  4-C ) :   1.2289 B(  1-C ,  5-H ) :   0.9410 B(  2-N , 27-H ) :   0.1398
B(  2-N , 29-C ) :   1.0744 B(  2-N , 30-C ) :   0.2008 B(  2-N , 31-N ) :   0.1714
B(  2-N , 34-H ) :   1.0102 B(  3-H ,  4-C ) :   0.1706 B(  4-C ,  6-H ) :   0.8840
B(  4-C ,  7-H ) :   0.8308 B(  4-C ,  8-C ) :   1.1925 B(  4-C , 11-H ) :   0.1583
B(  6-H ,  8-C ) :   0.1462 B(  7-H ,  8-C ) :   0.1316 B(  8-C ,  9-H ) :   0.8702
B(  8-C , 10-C ) :   1.1845 B(  8-C , 11-H ) :   0.9616 B(  8-C , 14-H ) :   0.2489
B( 10-C , 12-C ) :   1.2109 B( 10-C , 13-H ) :   0.7640 B( 10-C , 14-H ) :   0.7588
B( 12-C , 13-H ) :   0.1971 B( 12-C , 14-H ) :   0.1071 B( 12-C , 15-C ) :   1.2195
B( 12-C , 16-H ) :   0.9104 B( 12-C , 17-H ) :   0.9158 B( 12-C , 18-H ) :   0.1314
B( 12-C , 20-H ) :   0.1776 B( 13-H , 14-H ) :  -0.1018 B( 15-C , 17-H ) :   0.2229
B( 15-C , 18-H ) :   0.9023 B( 15-C , 19-C ) :   1.1922 B( 15-C , 20-H ) :   0.8689
B( 15-C , 22-H ) :   0.1744 B( 18-H , 19-C ) :   0.1128 B( 19-C , 21-H ) :   0.8478
B( 19-C , 22-H ) :   0.7948 B( 19-C , 23-C ) :   1.2338 B( 19-C , 24-H ) :   0.1027
B( 19-C , 25-H ) :   0.1097 B( 21-H , 23-C ) :   0.1240 B( 22-H , 23-C ) :   0.1370
B( 23-C , 24-H ) :   0.8670 B( 23-C , 25-H ) :   0.9562 B( 23-C , 26-F ) :   0.6352
B( 24-H , 26-F ) :   0.1142 B( 26-F , 34-H ) :   0.1348 B( 26-F , 35-H ) :   0.1864
B( 27-H , 34-H ) :   0.1612 B( 29-C , 30-C ) :   1.8387 B( 29-C , 31-N ) :   0.8637
B( 29-C , 34-H ) :  -0.6115 B( 29-C , 35-H ) :   0.1980 B( 29-C , 36-H ) :   0.3616
B( 30-C , 31-N ) :   0.2375 B( 30-C , 35-H ) :   0.5237 B( 30-C , 36-H ) :   0.5122
B( 31-N , 32-H ) :   0.9865 B( 31-N , 33-H ) :   1.1818 B( 32-H , 33-H ) :  -0.1390
B( 35-H , 36-H ) :   0.1817

FINAL SINGLE POINT ENERGY      -639.832936820232

DIPOLE MOMENT
-------------
                                X             Y             Z
Electronic contribution:     -1.28934      -3.14771       9.38533
Nuclear contribution   :      1.09892       3.58083     -10.64472
                        -----------------------------------------
Total Dipole Moment    :     -0.19042       0.43312      -1.25939
                        -----------------------------------------
Magnitude (a.u.)       :      1.34533
Magnitude (Debye)      :      3.41956

Rotational constants in cm-1:     0.026768     0.016312     0.010954
Rotational constants in MHz :   802.489946   489.033275   328.388904

                             ****ORCA TERMINATED NORMALLY****
TOTAL RUN TIME: 0 days 0 hours 4 minutes 22 seconds 599 msec
