                         Program Version 5.0.0 -  RELEASE  -
|  1> !LC-PBE RIJCOSX def2-SVPD def2/J TightSCF xyzfile
|  2>
|  3> *xyzfile 0 1 D3.xyz
|  4>
|  5> %MaxCore 64000
|  6>
|  7> %pal nprocs 4
|  8> end
|  9>
| 10> %scf
| 11>   MaxIter 150
| 12> end
| 13>
| 14>
| 15>                          ****END OF INPUT****

CARTESIAN COORDINATES (ANGSTROEM)
---------------------------------
  C      3.488276    1.600919   -1.522040
  C      4.342970    1.313419   -2.756826
  N      2.810285    0.428783   -1.014196
  H      5.132033    0.604994   -2.484466
  C      3.535896    0.749253   -3.924604
  H      4.841247    2.242136   -3.054083
  H      2.991617   -0.132199   -3.574137
  H      4.225505    0.392784   -4.695962
  C      2.564776    1.750890   -4.544523
  H      1.918749    2.171679   -3.769419
  C      1.686235    1.161657   -5.650111
  H      3.132494    2.594775   -4.951604
  C      0.839616   -0.037582   -5.220473
  H      2.323886    0.866395   -6.490796
  H      1.029518    1.951850   -6.029329
  C     -0.151019    0.254955   -4.094256
  H      1.499442   -0.857141   -4.922958
  H      0.290097   -0.410143   -6.091131
  H      0.328265    0.833022   -3.299125
  C     -0.721843   -0.999513   -3.439309
  H     -0.957367    0.884951   -4.485450
  H     -1.083403   -1.697555   -4.205656
  H     -1.581056   -0.723848   -2.820490
  C      0.287250   -1.711771   -2.527405
  H      1.131780   -2.067380   -3.159396
  H     -0.204137   -2.637326   -2.170480
  F      0.710505   -0.927506   -1.481767
  H      2.714548    2.331455   -1.760302
  H      4.090991    2.063151   -0.733382
  C      3.290978   -0.418021   -0.129083
  N      2.517536   -1.432017    0.239360
  C      4.535490   -0.284410    0.395800
  H      5.043627    0.571888    0.222899
  H      4.723346   -0.733273    1.281800
  H      1.934787    0.102305   -1.403788
  H      1.674638   -1.505616   -0.316095
  H      2.928503   -2.218502    0.725494

 Total Charge           Charge          ....    0
 Multiplicity           Mult            ....    1
 Number of Electrons    NEL             ....  112
 Basis Dimension        Dim             ....  467

ORBITAL ENERGIES
----------------

  NO   OCC          E(Eh)            E(eV)
   0   2.0000     -24.553905      -668.1457
   1   2.0000     -14.207960      -386.6183
   2   2.0000     -14.201367      -386.4388
   3   2.0000     -10.238554      -278.6052
   4   2.0000     -10.161488      -276.5082
   5   2.0000     -10.155232      -276.3379
   6   2.0000     -10.146291      -276.0946
   7   2.0000     -10.140142      -275.9273
   8   2.0000     -10.134036      -275.7611
   9   2.0000     -10.128444      -275.6090
  10   2.0000     -10.122947      -275.4594
  11   2.0000     -10.118966      -275.3511
  12   2.0000     -10.112503      -275.1752
  13   2.0000     -10.017534      -272.5910
  14   2.0000      -1.404357       -38.2145
  15   2.0000      -1.128113       -30.6975
  16   2.0000      -1.033854       -28.1326
  17   2.0000      -1.010549       -27.4984
  18   2.0000      -0.977488       -26.5988
  19   2.0000      -0.939887       -25.5756
  20   2.0000      -0.893681       -24.3183
  21   2.0000      -0.860413       -23.4130
  22   2.0000      -0.851558       -23.1721
  23   2.0000      -0.816071       -22.2064
  24   2.0000      -0.779448       -21.2099
  25   2.0000      -0.751880       -20.4597
  26   2.0000      -0.730199       -19.8697
  27   2.0000      -0.716528       -19.4977
  28   2.0000      -0.710986       -19.3469
  29   2.0000      -0.676654       -18.4127
  30   2.0000      -0.672802       -18.3079
  31   2.0000      -0.660777       -17.9806
  32   2.0000      -0.640297       -17.4234
  33   2.0000      -0.627536       -17.0761
  34   2.0000      -0.610721       -16.6186
  35   2.0000      -0.599529       -16.3140
  36   2.0000      -0.585235       -15.9251
  37   2.0000      -0.579818       -15.7776
  38   2.0000      -0.572989       -15.5918
  39   2.0000      -0.549180       -14.9439
  40   2.0000      -0.544375       -14.8132
  41   2.0000      -0.521956       -14.2031
  42   2.0000      -0.516103       -14.0439
  43   2.0000      -0.508941       -13.8490
  44   2.0000      -0.505954       -13.7677
  45   2.0000      -0.494190       -13.4476
  46   2.0000      -0.483198       -13.1485
  47   2.0000      -0.481497       -13.1022
  48   2.0000      -0.471183       -12.8215
  49   2.0000      -0.466291       -12.6884
  50   2.0000      -0.458754       -12.4833
  51   2.0000      -0.442919       -12.0524
  52   2.0000      -0.440159       -11.9773
  53   2.0000      -0.433671       -11.8008
  54   2.0000      -0.360010        -9.7964
  55   2.0000      -0.264323        -7.1926
  56   0.0000       0.078738         2.1426
  57   0.0000       0.089854         2.4451
  58   0.0000       0.097734         2.6595
  59   0.0000       0.102226         2.7817
  60   0.0000       0.118008         3.2112

MULLIKEN ATOMIC CHARGES
-----------------------
   0 C :    0.858887
   1 C :    0.202203
   2 N :    0.271550
   3 H :    0.004313
   4 C :    0.173865
   5 H :   -0.035495
   6 H :   -0.305197
   7 H :   -0.057254
   8 C :   -0.202585
   9 H :    0.083966
  10 C :    0.448487
  11 H :   -0.111120
  12 C :   -0.136430
  13 H :    0.057967
  14 H :   -0.046113
  15 C :    0.075576
  16 H :    0.005017
  17 H :   -0.122737
  18 H :   -0.251283
  19 C :    0.095480
  20 H :   -0.016792
  21 H :    0.034026
  22 H :    0.049002
  23 C :    0.628417
  24 H :   -0.004475
  25 H :   -0.087167
  26 F :   -0.647940
  27 H :   -0.220299
  28 H :   -0.096359
  29 C :    0.596296
  30 N :    0.327174
  31 C :    0.396288
  32 H :   -0.012015
  33 H :   -0.524721
  34 H :   -1.040957
  35 H :   -0.306876
  36 H :   -0.082700
Sum of atomic charges:    0.0000000

LOEWDIN ATOMIC CHARGES
----------------------
   0 C :    0.045470
   1 C :   -0.035115
   2 N :   -0.001367
   3 H :    0.034225
   4 C :   -0.053927
   5 H :    0.035049
   6 H :    0.006357
   7 H :    0.039640
   8 C :   -0.058213
   9 H :    0.008018
  10 C :   -0.051757
  11 H :    0.039135
  12 C :   -0.056587
  13 H :    0.036479
  14 H :    0.035370
  15 C :   -0.046182
  16 H :    0.008338
  17 H :    0.037135
  18 H :    0.016021
  19 C :   -0.032452
  20 H :    0.043516
  21 H :    0.050596
  22 H :    0.042201
  23 C :    0.137709
  24 H :    0.049744
  25 H :    0.054703
  26 F :   -0.198147
  27 H :    0.021698
  28 H :    0.029652
  29 C :   -0.217813
  30 N :    0.191213
  31 C :    0.117990
  32 H :   -0.119431
  33 H :   -0.100077
  34 H :   -0.053321
  35 H :   -0.077437
  36 H :    0.021566

  Mayer bond orders larger than 0.100000
B(  0-C ,  1-C ) :   1.0604 B(  0-C ,  2-N ) :   1.0614 B(  0-C , 27-H ) :   0.7844
B(  0-C , 28-H ) :   0.8597 B(  0-C , 34-H ) :  -0.6215 B(  1-C ,  3-H ) :   0.8249
B(  1-C ,  4-C ) :   1.2256 B(  1-C ,  5-H ) :   0.9325 B(  1-C ,  6-H ) :   0.1006
B(  2-N , 27-H ) :   0.1827 B(  2-N , 29-C ) :   1.0181 B(  2-N , 31-C ) :   0.4460
B(  2-N , 34-H ) :   0.7998 B(  3-H ,  4-C ) :   0.1758 B(  4-C ,  6-H ) :   0.8835
B(  4-C ,  7-H ) :   0.8414 B(  4-C ,  8-C ) :   1.1938 B(  4-C , 11-H ) :   0.1609
B(  6-H ,  8-C ) :   0.1452 B(  7-H ,  8-C ) :   0.1357 B(  8-C ,  9-H ) :   0.8744
B(  8-C , 10-C ) :   1.1876 B(  8-C , 11-H ) :   0.9578 B(  8-C , 13-H ) :   0.1012
B(  8-C , 14-H ) :   0.2531 B( 10-C , 12-C ) :   1.2090 B( 10-C , 13-H ) :   0.7629
B( 10-C , 14-H ) :   0.7568 B( 12-C , 13-H ) :   0.1962 B( 12-C , 14-H ) :   0.1035
B( 12-C , 15-C ) :   1.2191 B( 12-C , 16-H ) :   0.9081 B( 12-C , 17-H ) :   0.9239
B( 12-C , 18-H ) :   0.1315 B( 12-C , 20-H ) :   0.1768 B( 13-H , 14-H ) :  -0.1008
B( 15-C , 17-H ) :   0.2187 B( 15-C , 18-H ) :   0.9051 B( 15-C , 19-C ) :   1.1963
B( 15-C , 20-H ) :   0.8719 B( 15-C , 22-H ) :   0.1739 B( 18-H , 19-C ) :   0.1111
B( 19-C , 21-H ) :   0.8407 B( 19-C , 22-H ) :   0.7932 B( 19-C , 23-C ) :   1.2314
B( 19-C , 24-H ) :   0.1030 B( 19-C , 25-H ) :   0.1098 B( 21-H , 23-C ) :   0.1304
B( 22-H , 23-C ) :   0.1263 B( 23-C , 24-H ) :   0.8637 B( 23-C , 25-H ) :   0.9401
B( 23-C , 26-F ) :   0.6149 B( 24-H , 26-F ) :   0.1244 B( 26-F , 34-H ) :   0.1958
B( 26-F , 35-H ) :   0.1794 B( 27-H , 28-H ) :  -0.1225 B( 29-C , 30-N ) :   0.8411
B( 29-C , 31-C ) :   1.7536 B( 29-C , 32-H ) :   0.3149 B( 29-C , 33-H ) :   0.3143
B( 29-C , 34-H ) :  -0.6463 B( 30-N , 31-C ) :   0.2320 B( 30-N , 35-H ) :   0.9969
B( 30-N , 36-H ) :   1.1813 B( 31-C , 32-H ) :   0.6246 B( 31-C , 33-H ) :   0.7009
B( 35-H , 36-H ) :  -0.1414

FINAL SINGLE POINT ENERGY      -639.845779307806

DIPOLE MOMENT
-------------
                                X             Y             Z
Electronic contribution:     -3.26332      -4.32458       9.01977
Nuclear contribution   :      1.49917       3.80845     -10.61369
                        -----------------------------------------
Total Dipole Moment    :     -1.76415      -0.51612      -1.59391
                        -----------------------------------------
Magnitude (a.u.)       :      2.43293
Magnitude (Debye)      :      6.18403

Rotational constants in cm-1:     0.026547     0.016542     0.011018
Rotational constants in MHz :   795.873737   495.912559   330.323979

                             ****ORCA TERMINATED NORMALLY****
TOTAL RUN TIME: 0 days 0 hours 4 minutes 9 seconds 898 msec
