                         Program Version 5.0.0 -  RELEASE  -
|  1> !TPSS D3BJ RIJCOSX def2-SVPD def2/J TightSCF
|  2> *xyz -1 1
|  3> C         -5.57236       -5.80780       -0.81644
|  4> S         -6.90318       -4.61903       -0.52846
|  5> O         -8.11485       -5.25093       -0.95701
|  6> O         -6.53271       -3.42684       -1.31485
|  7> O         -6.86563       -4.29496        0.91412
|  8> H         -5.55376       -6.07856       -1.85145
|  9> H         -5.73990       -6.68165       -0.22212
| 10> H         -4.63562       -5.36690       -0.54622
| 11> *
| 12> %MaxCore 64000
| 13>
| 14> %pal nprocs 4
| 15> end
| 16>
| 17> %scf
| 18>   MaxIter 150
| 19> end
| 20>
| 21>                          ****END OF INPUT****

CARTESIAN COORDINATES (ANGSTROEM)
---------------------------------
  C     -5.572360   -5.807800   -0.816440
  S     -6.903180   -4.619030   -0.528460
  O     -8.114850   -5.250930   -0.957010
  O     -6.532710   -3.426840   -1.314850
  O     -6.865630   -4.294960    0.914120
  H     -5.553760   -6.078560   -1.851450
  H     -5.739900   -6.681650   -0.222120
  H     -4.635620   -5.366900   -0.546220

 Total Charge           Charge          ....   -1
 Multiplicity           Mult            ....    1
 Number of Electrons    NEL             ....   50
 Basis Dimension        Dim             ....  140

ORBITAL ENERGIES
----------------

  NO   OCC          E(Eh)            E(eV)
   0   2.0000     -88.366474     -2404.5740
   1   2.0000     -18.681646      -508.3534
   2   2.0000     -18.669767      -508.0302
   3   2.0000     -18.668781      -508.0034
   4   2.0000      -9.855407      -268.1793
   5   2.0000      -7.726147      -210.2391
   6   2.0000      -5.712155      -155.4356
   7   2.0000      -5.711940      -155.4298
   8   2.0000      -5.711405      -155.4152
   9   2.0000      -0.849845       -23.1254
  10   2.0000      -0.716951       -19.5092
  11   2.0000      -0.694188       -18.8898
  12   2.0000      -0.523704       -14.2507
  13   2.0000      -0.336509        -9.1569
  14   2.0000      -0.251050        -6.8314
  15   2.0000      -0.247138        -6.7250
  16   2.0000      -0.246013        -6.6943
  17   2.0000      -0.201132        -5.4731
  18   2.0000      -0.199852        -5.4382
  19   2.0000      -0.103584        -2.8187
  20   2.0000      -0.102408        -2.7867
  21   2.0000      -0.073491        -1.9998
  22   2.0000      -0.065190        -1.7739
  23   2.0000      -0.056459        -1.5363
  24   2.0000      -0.018590        -0.5059
  25   0.0000       0.141726         3.8565
  26   0.0000       0.176038         4.7902
  27   0.0000       0.176211         4.7950
  28   0.0000       0.179663         4.8889
  29   0.0000       0.202525         5.5110

MULLIKEN ATOMIC CHARGES
-----------------------
   0 C :    0.427210
   1 S :    1.005454
   2 O :   -0.723545
   3 O :   -0.768936
   4 O :   -0.770345
   5 H :   -0.054455
   6 H :   -0.060332
   7 H :   -0.055051
Sum of atomic charges:   -1.0000000

LOEWDIN ATOMIC CHARGES
----------------------
   0 C :    0.063160
   1 S :    0.819357
   2 O :   -0.567785
   3 O :   -0.590085
   4 O :   -0.589238
   5 H :   -0.045363
   6 H :   -0.046132
   7 H :   -0.043913

  Mayer bond orders larger than 0.100000
B(  0-C ,  1-S ) :   0.9113 B(  0-C ,  5-H ) :   0.9321 B(  0-C ,  6-H ) :   0.9346
B(  0-C ,  7-H ) :   0.9366 B(  1-S ,  2-O ) :   1.3699 B(  1-S ,  3-O ) :   1.3361
B(  1-S ,  4-O ) :   1.3311 B(  1-S ,  5-H ) :   0.1087 B(  1-S ,  6-H ) :   0.1088
B(  1-S ,  7-H ) :   0.1165

Dispersion correction           -0.007862924
FINAL SINGLE POINT ENERGY      -663.552448797396

DIPOLE MOMENT
-------------
                                X             Y             Z
Electronic contribution:     -3.28987       2.77951       0.64740
Nuclear contribution   :      4.23639      -3.86101      -0.94151
                        -----------------------------------------
Total Dipole Moment    :      0.94651      -1.08149      -0.29411
                        -----------------------------------------
Magnitude (a.u.)       :      1.46698
Magnitude (Debye)      :      3.72876

Rotational constants in cm-1:     0.172406     0.155169     0.153146
Rotational constants in MHz :  5168.590738  4651.861875  4591.214998

                             ****ORCA TERMINATED NORMALLY****
TOTAL RUN TIME: 0 days 0 hours 0 minutes 6 seconds 152 msec
