                         Program Version 5.0.0 -  RELEASE  -
|  1> !TPSS D3BJ RIJCOSX def2-SVPD def2/J TightSCF
|  2> *xyz 1 1
|  3> C         -4.38262       -1.67089        1.21620
|  4> N         -5.76354       -1.91517        0.70501
|  5> H         -5.84081       -2.11520       -0.30065
|  6> H         -6.40882       -1.14866        0.93612
|  7> H         -6.17478       -2.79061        1.05143
|  8> H         -4.01369       -0.74796        0.81997
|  9> H         -3.74223       -2.47168        0.91037
| 10> H         -4.40201       -1.61791        2.28471
| 11> *
| 12> %MaxCore 64000
| 13>
| 14> %pal nprocs 4
| 15> end
| 16>
| 17> %scf
| 18>   MaxIter 150
| 19> end
| 20>
| 21>                          ****END OF INPUT****

CARTESIAN COORDINATES (ANGSTROEM)
---------------------------------
  C     -4.382620   -1.670890    1.216200
  N     -5.763540   -1.915170    0.705010
  H     -5.840810   -2.115200   -0.300650
  H     -6.408820   -1.148660    0.936120
  H     -6.174780   -2.790610    1.051430
  H     -4.013690   -0.747960    0.819970
  H     -3.742230   -2.471680    0.910370
  H     -4.402010   -1.617910    2.284710

 Total Charge           Charge          ....    1
 Multiplicity           Mult            ....    1
 Number of Electrons    NEL             ....   18
 Basis Dimension        Dim             ....   88

ORBITAL ENERGIES
----------------

  NO   OCC          E(Eh)            E(eV)
   0   2.0000     -14.467434      -393.6789
   1   2.0000     -10.263310      -279.2789
   2   2.0000      -1.157071       -31.4855
   3   2.0000      -0.888362       -24.1735
   4   2.0000      -0.771121       -20.9833
   5   2.0000      -0.747020       -20.3275
   6   2.0000      -0.679778       -18.4977
   7   2.0000      -0.591956       -16.1079
   8   2.0000      -0.588969       -16.0267
   9   0.0000      -0.218253        -5.9390
  10   0.0000      -0.154293        -4.1985
  11   0.0000      -0.150931        -4.1070
  12   0.0000      -0.144726        -3.9382
  13   0.0000      -0.095159        -2.5894

MULLIKEN ATOMIC CHARGES
-----------------------
   0 C :    0.921358
   1 N :   -0.893866
   2 H :    0.357488
   3 H :    0.390953
   4 H :    0.363777
   5 H :   -0.048979
   6 H :   -0.051943
   7 H :   -0.038787
Sum of atomic charges:    1.0000000

LOEWDIN ATOMIC CHARGES
----------------------
   0 C :    0.304056
   1 N :    0.311135
   2 H :    0.106455
   3 H :    0.109107
   4 H :    0.103849
   5 H :    0.021496
   6 H :    0.021471
   7 H :    0.022430

  Mayer bond orders larger than 0.100000
B(  0-C ,  1-N ) :   0.7270 B(  0-C ,  5-H ) :   0.9030 B(  0-C ,  6-H ) :   0.9043
B(  0-C ,  7-H ) :   0.8935 B(  1-N ,  2-H ) :   0.7865 B(  1-N ,  3-H ) :   0.7314
B(  1-N ,  4-H ) :   0.7866

Dispersion correction           -0.004000206
FINAL SINGLE POINT ENERGY       -96.166892080292

DIPOLE MOMENT
-------------
                                X             Y             Z
Electronic contribution:     -0.95178      -0.12997      -0.34999
Nuclear contribution   :      0.12888      -0.05969       0.04130
                        -----------------------------------------
Total Dipole Moment    :     -0.82290      -0.18966      -0.30870
                        -----------------------------------------
Magnitude (a.u.)       :      0.89913
Magnitude (Debye)      :      2.28541

Rotational constants in cm-1:     2.932748     0.676653     0.669753
Rotational constants in MHz : 87921.559023 20285.538082 20078.692306

                             ****ORCA TERMINATED NORMALLY****
TOTAL RUN TIME: 0 days 0 hours 0 minutes 3 seconds 196 msec
