                         Program Version 5.0.0 -  RELEASE  -
|  1> !TPSS D3BJ RIJCOSX def2-SVPD def2/J TightSCF xyzfile
|  2>
|  3> *xyzfile 0 1 B.xyz
|  4>
|  5> %MaxCore 64000
|  6>
|  7> %pal nprocs 4
|  8> end
|  9>
| 10> %scf
| 11>   MaxIter 150
| 12> end
| 13>
| 14>
| 15>                          ****END OF INPUT****

CARTESIAN COORDINATES (ANGSTROEM)
---------------------------------
  C     -4.382623   -1.670889    1.216201
  N     -5.763539   -1.915170    0.705012
  C     -3.281728   -2.191272    0.294361
  C     -5.572364   -5.807798   -0.816445
  S     -6.903179   -4.619033   -0.528458
  H     -5.840812   -2.115205   -0.300646
  H     -6.408823   -1.148656    0.936124
  H     -6.174781   -2.790606    1.051433
  O     -8.114853   -5.250932   -0.957007
  O     -6.532715   -3.426838   -1.314848
  H     -4.328618   -2.139223    2.198103
  H     -4.261583   -0.597399    1.357248
  O     -6.865632   -4.294957    0.914118
  C     -3.474641   -3.605898   -0.259608
  H     -2.354548   -2.127602    0.871433
  H     -3.166611   -1.499693   -0.545037
  C     -3.827078   -4.661097    0.786174
  H     -2.560559   -3.889391   -0.788050
  H     -4.255932   -3.570040   -1.019300
  C     -4.457800   -5.941875    0.229195
  H     -5.177347   -5.542575   -1.797714
  H     -6.074202   -6.768894   -0.921272
  H     -4.530506   -4.253640    1.511979
  H     -2.933400   -4.932302    1.356825
  H     -3.681064   -6.562236   -0.229885
  H     -4.843942   -6.512728    1.075805

 Total Charge           Charge          ....    0
 Multiplicity           Mult            ....    1
 Number of Electrons    NEL             ....   98
 Basis Dimension        Dim             ....  356

ORBITAL ENERGIES
----------------

  NO   OCC          E(Eh)            E(eV)
   0   2.0000     -88.537378     -2409.2245
   1   2.0000     -18.855798      -513.0924
   2   2.0000     -18.852301      -512.9972
   3   2.0000     -18.840645      -512.6800
   4   2.0000     -14.222186      -387.0053
   5   2.0000     -10.088608      -274.5250
   6   2.0000     -10.036461      -273.1060
   7   2.0000     -10.011259      -272.4202
   8   2.0000     -10.006912      -272.3019
   9   2.0000     -10.006506      -272.2909
  10   2.0000     -10.005385      -272.2604
  11   2.0000      -7.896557      -214.8762
  12   2.0000      -5.883417      -160.0959
  13   2.0000      -5.882435      -160.0692
  14   2.0000      -5.880838      -160.0257
  15   2.0000      -1.026338       -27.9281
  16   2.0000      -0.936230       -25.4761
  17   2.0000      -0.887716       -24.1560
  18   2.0000      -0.883012       -24.0280
  19   2.0000      -0.767952       -20.8970
  20   2.0000      -0.729859       -19.8605
  21   2.0000      -0.683358       -18.5951
  22   2.0000      -0.635363       -17.2891
  23   2.0000      -0.585349       -15.9282
  24   2.0000      -0.555204       -15.1079
  25   2.0000      -0.537640       -14.6299
  26   2.0000      -0.529108       -14.3978
  27   2.0000      -0.490361       -13.3434
  28   2.0000      -0.468494       -12.7484
  29   2.0000      -0.448202       -12.1962
  30   2.0000      -0.442740       -12.0476
  31   2.0000      -0.428069       -11.6483
  32   2.0000      -0.408900       -11.1267
  33   2.0000      -0.397950       -10.8288
  34   2.0000      -0.391263       -10.6468
  35   2.0000      -0.383143       -10.4258
  36   2.0000      -0.374697       -10.1960
  37   2.0000      -0.352282        -9.5861
  38   2.0000      -0.341460        -9.2916
  39   2.0000      -0.337087        -9.1726
  40   2.0000      -0.310475        -8.4484
  41   2.0000      -0.305135        -8.3032
  42   2.0000      -0.297056        -8.0833
  43   2.0000      -0.281375        -7.6566
  44   2.0000      -0.272658        -7.4194
  45   2.0000      -0.238708        -6.4956
  46   2.0000      -0.235129        -6.3982
  47   2.0000      -0.228842        -6.2271
  48   2.0000      -0.203623        -5.5409
  49   0.0000      -0.032692        -0.8896
  50   0.0000       0.003368         0.0917
  51   0.0000       0.010755         0.2927
  52   0.0000       0.013682         0.3723
  53   0.0000       0.027828         0.7572

MULLIKEN ATOMIC CHARGES
-----------------------
   0 C :    0.707339
   1 N :   -0.521612
   2 C :    0.194763
   3 C :    0.124324
   4 S :    1.316505
   5 H :    0.327802
   6 H :    0.300745
   7 H :    0.170155
   8 O :   -0.793582
   9 O :   -0.778248
  10 H :    0.182810
  11 H :   -0.361780
  12 O :   -0.838802
  13 C :    0.174225
  14 H :   -0.008679
  15 H :    0.006014
  16 C :   -0.044705
  17 H :   -0.248655
  18 H :   -0.045407
  19 C :    0.421877
  20 H :    0.149293
  21 H :   -0.250527
  22 H :    0.038901
  23 H :   -0.235743
  24 H :   -0.010105
  25 H :    0.023092
Sum of atomic charges:    0.0000000

LOEWDIN ATOMIC CHARGES
----------------------
   0 C :    0.102055
   1 N :    0.340963
   2 C :    0.001365
   3 C :   -0.045392
   4 S :    0.955297
   5 H :   -0.012977
   6 H :    0.095866
   7 H :   -0.064215
   8 O :   -0.485728
   9 O :   -0.530893
  10 H :    0.030584
  11 H :    0.024897
  12 O :   -0.510305
  13 C :    0.001039
  14 H :    0.026527
  15 H :    0.024897
  16 C :   -0.011936
  17 H :    0.026659
  18 H :   -0.019024
  19 C :   -0.016014
  20 H :    0.008585
  21 H :    0.006075
  22 H :   -0.017956
  23 H :    0.022443
  24 H :    0.021521
  25 H :    0.025667

  Mayer bond orders larger than 0.100000
B(  0-C ,  1-N ) :   0.6792 B(  0-C ,  2-C ) :   1.2066 B(  0-C , 10-H ) :   0.7132
B(  0-C , 11-H ) :   0.9855 B(  0-C , 14-H ) :   0.1345 B(  0-C , 15-H ) :   0.1303
B(  1-N ,  5-H ) :   0.6850 B(  1-N ,  6-H ) :   0.8431 B(  1-N ,  7-H ) :   1.1318
B(  1-N , 18-H ) :   0.1065 B(  2-C , 10-H ) :   0.1015 B(  2-C , 11-H ) :   0.1575
B(  2-C , 13-C ) :   1.2530 B(  2-C , 14-H ) :   0.8268 B(  2-C , 15-H ) :   0.7342
B(  2-C , 18-H ) :   0.1064 B(  3-C ,  4-S ) :   0.8789 B(  3-C ,  8-O ) :   0.1446
B(  3-C , 19-C ) :   1.2198 B(  3-C , 20-H ) :   0.8524 B(  3-C , 21-H ) :   0.9413
B(  3-C , 24-H ) :   0.1380 B(  3-C , 25-H ) :   0.1263 B(  4-S ,  8-O ) :   1.4459
B(  4-S ,  9-O ) :   1.1359 B(  4-S , 12-O ) :   1.1067 B(  5-H ,  9-O ) :   0.1742
B(  7-H , 12-O ) :   0.1445 B(  9-O , 12-O ) :   0.1539 B( 10-H , 11-H ) :  -0.1241
B( 13-C , 14-H ) :   0.1287 B( 13-C , 15-H ) :   0.1976 B( 13-C , 16-C ) :   1.1788
B( 13-C , 17-H ) :   0.8236 B( 13-C , 18-H ) :   0.8526 B( 13-C , 23-H ) :   0.1552
B( 16-C , 17-H ) :   0.1652 B( 16-C , 18-H ) :   0.1645 B( 16-C , 19-C ) :   1.2887
B( 16-C , 22-H ) :   0.8674 B( 16-C , 23-H ) :   0.8680 B( 16-C , 24-H ) :   0.1330
B( 16-C , 25-H ) :   0.2351 B( 19-C , 21-H ) :   0.1800 B( 19-C , 24-H ) :   0.7674
B( 19-C , 25-H ) :   0.6794

Dispersion correction           -0.038992160
FINAL SINGLE POINT ENERGY      -915.906585936318

DIPOLE MOMENT
-------------
                                X             Y             Z
Electronic contribution:    -13.56416      -2.96594      -3.69534
Nuclear contribution   :     16.18863       5.15617       4.97370
                        -----------------------------------------
Total Dipole Moment    :      2.62447       2.19022       1.27836
                        -----------------------------------------
Magnitude (a.u.)       :      3.64954
Magnitude (Debye)      :      9.27638

Rotational constants in cm-1:     0.048546     0.025588     0.020102
Rotational constants in MHz :  1455.374030   767.095631   602.645620

                             ****ORCA TERMINATED NORMALLY****
TOTAL RUN TIME: 0 days 0 hours 0 minutes 45 seconds 568 msec
