                         Program Version 5.0.0 -  RELEASE  -
|  1> !TPSS D3BJ RIJCOSX def2-SVPD def2/J TightSCF
|  2> *xyz 0 1
|  3> C         -5.57236       -5.80780       -0.81644
|  4> S         -6.90318       -4.61903       -0.52846
|  5> F         -8.11485       -5.25093       -0.95701
|  6> O         -6.53271       -3.42684       -1.31485
|  7> O         -6.86563       -4.29496        0.91412
|  8> H         -5.55376       -6.07856       -1.85145
|  9> H         -5.73990       -6.68165       -0.22212
| 10> H         -4.63562       -5.36690       -0.54622
| 11> *
| 12> %MaxCore 64000
| 13>
| 14> %pal nprocs 4
| 15> end
| 16>
| 17> %scf
| 18>   MaxIter 150
| 19> end
| 20>
| 21>                          ****END OF INPUT****

CARTESIAN COORDINATES (ANGSTROEM)
---------------------------------
  C     -5.572360   -5.807800   -0.816440
  S     -6.903180   -4.619030   -0.528460
  F     -8.114850   -5.250930   -0.957010
  O     -6.532710   -3.426840   -1.314850
  O     -6.865630   -4.294960    0.914120
  H     -5.553760   -6.078560   -1.851450
  H     -5.739900   -6.681650   -0.222120
  H     -4.635620   -5.366900   -0.546220

 Total Charge           Charge          ....    0
 Multiplicity           Mult            ....    1
 Number of Electrons    NEL             ....   50
 Basis Dimension        Dim             ....  140

ORBITAL ENERGIES
----------------

  NO   OCC          E(Eh)            E(eV)
   0   2.0000     -88.629686     -2411.7364
   1   2.0000     -24.550577      -668.0552
   2   2.0000     -18.907784      -514.5070
   3   2.0000     -18.906799      -514.4802
   4   2.0000     -10.065421      -273.8940
   5   2.0000      -7.990281      -217.4266
   6   2.0000      -5.980729      -162.7439
   7   2.0000      -5.973747      -162.5539
   8   2.0000      -5.972447      -162.5185
   9   2.0000      -1.305855       -35.5341
  10   2.0000      -1.026411       -27.9301
  11   2.0000      -0.929080       -25.2816
  12   2.0000      -0.745457       -20.2849
  13   2.0000      -0.667059       -18.1516
  14   2.0000      -0.557413       -15.1680
  15   2.0000      -0.538751       -14.6602
  16   2.0000      -0.509167       -13.8551
  17   2.0000      -0.439870       -11.9695
  18   2.0000      -0.434427       -11.8214
  19   2.0000      -0.424990       -11.5646
  20   2.0000      -0.393584       -10.7100
  21   2.0000      -0.339821        -9.2470
  22   2.0000      -0.294609        -8.0167
  23   2.0000      -0.287271        -7.8170
  24   2.0000      -0.261449        -7.1144
  25   0.0000      -0.027140        -0.7385
  26   0.0000       0.008312         0.2262
  27   0.0000       0.016954         0.4613
  28   0.0000       0.030059         0.8180
  29   0.0000       0.035315         0.9610

MULLIKEN ATOMIC CHARGES
-----------------------
   0 C :    0.418657
   1 S :    1.179701
   2 F :   -0.346834
   3 O :   -0.628623
   4 O :   -0.629309
   5 H :    0.006601
   6 H :    0.001958
   7 H :   -0.002152
Sum of atomic charges:   -0.0000000

LOEWDIN ATOMIC CHARGES
----------------------
   0 C :    0.133593
   1 S :    1.091037
   2 F :   -0.248873
   3 O :   -0.468645
   4 O :   -0.467226
   5 H :   -0.018194
   6 H :   -0.018529
   7 H :   -0.003164

  Mayer bond orders larger than 0.100000
B(  0-C ,  1-S ) :   0.9677 B(  0-C ,  5-H ) :   0.9178 B(  0-C ,  6-H ) :   0.9211
B(  0-C ,  7-H ) :   0.9259 B(  1-S ,  2-F ) :   0.7277 B(  1-S ,  3-O ) :   1.5341
B(  1-S ,  4-O ) :   1.5288 B(  1-S ,  7-H ) :   0.1120

Dispersion correction           -0.007372050
FINAL SINGLE POINT ENERGY      -688.036858298478

DIPOLE MOMENT
-------------
                                X             Y             Z
Electronic contribution:     -5.23081       1.68517      -0.06622
Nuclear contribution   :      5.53040      -3.27628      -0.52239
                        -----------------------------------------
Total Dipole Moment    :      0.29959      -1.59111      -0.58862
                        -----------------------------------------
Magnitude (a.u.)       :      1.72274
Magnitude (Debye)      :      4.37887

Rotational constants in cm-1:     0.163239     0.153903     0.144751
Rotational constants in MHz :  4893.777363  4613.882823  4339.513182

                             ****ORCA TERMINATED NORMALLY****
TOTAL RUN TIME: 0 days 0 hours 0 minutes 6 seconds 327 msec
