                         Program Version 5.0.0 -  RELEASE  -
|  1> !TPSS D3BJ RIJCOSX def2-SVPD def2/J TightSCF
|  2> *xyz 0 1
|  3> C         -4.38262       -1.67089        1.21620
|  4> C         -5.76354       -1.91517        0.70501
|  5> H         -5.84081       -2.11520       -0.30065
|  6> H         -6.40882       -1.14866        0.93612
|  7> H         -6.17478       -2.79061        1.05143
|  8> H         -4.01369       -0.74796        0.81997
|  9> H         -3.74223       -2.47168        0.91037
| 10> H         -4.40201       -1.61791        2.28471
| 11> *
| 12> %MaxCore 64000
| 13>
| 14> %pal nprocs 4
| 15> end
| 16>
| 17> %scf
| 18>   MaxIter 150
| 19> end
| 20>
| 21>                          ****END OF INPUT****

CARTESIAN COORDINATES (ANGSTROEM)
---------------------------------
  C     -4.382620   -1.670890    1.216200
  C     -5.763540   -1.915170    0.705010
  H     -5.840810   -2.115200   -0.300650
  H     -6.408820   -1.148660    0.936120
  H     -6.174780   -2.790610    1.051430
  H     -4.013690   -0.747960    0.819970
  H     -3.742230   -2.471680    0.910370
  H     -4.402010   -1.617910    2.284710

 Total Charge           Charge          ....    0
 Multiplicity           Mult            ....    1
 Number of Electrons    NEL             ....   18
 Basis Dimension        Dim             ....   88

ORBITAL ENERGIES
----------------

  NO   OCC          E(Eh)            E(eV)
   0   2.0000      -9.982209      -271.6297
   1   2.0000      -9.967003      -271.2159
   2   2.0000      -0.704526       -19.1711
   3   2.0000      -0.573510       -15.6060
   4   2.0000      -0.409474       -11.1423
   5   2.0000      -0.396712       -10.7951
   6   2.0000      -0.335886        -9.1399
   7   2.0000      -0.314847        -8.5674
   8   2.0000      -0.301954        -8.2166
   9   0.0000       0.019424         0.5285
  10   0.0000       0.049999         1.3606
  11   0.0000       0.090124         2.4524
  12   0.0000       0.093060         2.5323
  13   0.0000       0.114302         3.1103

MULLIKEN ATOMIC CHARGES
-----------------------
   0 C :    0.235282
   1 C :    0.470030
   2 H :   -0.211289
   3 H :   -0.168590
   4 H :   -0.200740
   5 H :   -0.048939
   6 H :   -0.035731
   7 H :   -0.040023
Sum of atomic charges:    0.0000000

LOEWDIN ATOMIC CHARGES
----------------------
   0 C :    0.096951
   1 C :    0.087849
   2 H :   -0.041686
   3 H :   -0.036750
   4 H :   -0.043215
   5 H :   -0.021748
   6 H :   -0.021067
   7 H :   -0.020334

  Mayer bond orders larger than 0.100000
B(  0-C ,  1-C ) :   1.4309 B(  0-C ,  2-H ) :   0.1289 B(  0-C ,  3-H ) :   0.1551
B(  0-C ,  4-H ) :   0.1414 B(  0-C ,  5-H ) :   0.8739 B(  0-C ,  6-H ) :   0.8823
B(  0-C ,  7-H ) :   0.8592 B(  1-C ,  2-H ) :   0.7772 B(  1-C ,  3-H ) :   0.8087
B(  1-C ,  4-H ) :   0.7700 B(  1-C ,  5-H ) :   0.1480 B(  1-C ,  6-H ) :   0.1458
B(  1-C ,  7-H ) :   0.1534 B(  2-H ,  4-H ) :   0.2489

Dispersion correction           -0.004010093
FINAL SINGLE POINT ENERGY       -79.775756010409

DIPOLE MOMENT
-------------
                                X             Y             Z
Electronic contribution:      0.08036       0.07778       0.03353
Nuclear contribution   :     -0.10782      -0.10031      -0.04623
                        -----------------------------------------
Total Dipole Moment    :     -0.02746      -0.02253      -0.01270
                        -----------------------------------------
Magnitude (a.u.)       :      0.03772
Magnitude (Debye)      :      0.09588

Rotational constants in cm-1:     2.932831     0.705715     0.698218
Rotational constants in MHz : 87924.050302 21156.813368 20932.044240

                             ****ORCA TERMINATED NORMALLY****
TOTAL RUN TIME: 0 days 0 hours 0 minutes 3 seconds 489 msec
