                         Program Version 5.0.0 -  RELEASE  -
|  1> !TPSS D3BJ RIJCOSX def2-SVPD def2/J TightSCF
|  2> *xyz 0 1
|  3> C         -5.57236       -5.80780       -0.81644
|  4> S         -6.90318       -4.61903       -0.52846
|  5> O         -8.11485       -5.25093       -0.95701
|  6> F         -6.53271       -3.42684       -1.31485
|  7> O         -6.86563       -4.29496        0.91412
|  8> H         -5.55376       -6.07856       -1.85145
|  9> H         -5.73990       -6.68165       -0.22212
| 10> H         -4.63562       -5.36690       -0.54622
| 11> *
| 12> %MaxCore 64000
| 13>
| 14> %pal nprocs 4
| 15> end
| 16>
| 17> %scf
| 18>   MaxIter 150
| 19> end
| 20>
| 21>                          ****END OF INPUT****

CARTESIAN COORDINATES (ANGSTROEM)
---------------------------------
  C     -5.572360   -5.807800   -0.816440
  S     -6.903180   -4.619030   -0.528460
  O     -8.114850   -5.250930   -0.957010
  F     -6.532710   -3.426840   -1.314850
  O     -6.865630   -4.294960    0.914120
  H     -5.553760   -6.078560   -1.851450
  H     -5.739900   -6.681650   -0.222120
  H     -4.635620   -5.366900   -0.546220

 Total Charge           Charge          ....    0
 Multiplicity           Mult            ....    1
 Number of Electrons    NEL             ....   50
 Basis Dimension        Dim             ....  140

ORBITAL ENERGIES
----------------

  NO   OCC          E(Eh)            E(eV)
   0   2.0000     -88.627239     -2411.6698
   1   2.0000     -24.530074      -667.4972
   2   2.0000     -18.919600      -514.8285
   3   2.0000     -18.907251      -514.4924
   4   2.0000     -10.064586      -273.8713
   5   2.0000      -7.987899      -217.3618
   6   2.0000      -5.978006      -162.6698
   7   2.0000      -5.971678      -162.4976
   8   2.0000      -5.970271      -162.4593
   9   2.0000      -1.269901       -34.5558
  10   2.0000      -1.042326       -28.3631
  11   2.0000      -0.944168       -25.6921
  12   2.0000      -0.743424       -20.2296
  13   2.0000      -0.650144       -17.6913
  14   2.0000      -0.542661       -14.7666
  15   2.0000      -0.514310       -13.9951
  16   2.0000      -0.503415       -13.6986
  17   2.0000      -0.439171       -11.9504
  18   2.0000      -0.435696       -11.8559
  19   2.0000      -0.424673       -11.5559
  20   2.0000      -0.399415       -10.8686
  21   2.0000      -0.348787        -9.4910
  22   2.0000      -0.305854        -8.3227
  23   2.0000      -0.292097        -7.9484
  24   2.0000      -0.273492        -7.4421
  25   0.0000      -0.026018        -0.7080
  26   0.0000       0.006907         0.1880
  27   0.0000       0.018034         0.4907
  28   0.0000       0.035497         0.9659
  29   0.0000       0.036084         0.9819

MULLIKEN ATOMIC CHARGES
-----------------------
   0 C :    0.416632
   1 S :    1.190469
   2 O :   -0.600255
   3 F :   -0.370353
   4 O :   -0.640855
   5 H :    0.006811
   6 H :   -0.005192
   7 H :    0.002744
Sum of atomic charges:   -0.0000000

LOEWDIN ATOMIC CHARGES
----------------------
   0 C :    0.134255
   1 S :    1.089346
   2 O :   -0.448833
   3 F :   -0.267075
   4 O :   -0.467892
   5 H :   -0.017881
   6 H :   -0.004577
   7 H :   -0.017344

  Mayer bond orders larger than 0.100000
B(  0-C ,  1-S ) :   0.9670 B(  0-C ,  5-H ) :   0.9196 B(  0-C ,  6-H ) :   0.9227
B(  0-C ,  7-H ) :   0.9241 B(  1-S ,  2-O ) :   1.5639 B(  1-S ,  3-F ) :   0.6795
B(  1-S ,  4-O ) :   1.5262 B(  1-S ,  6-H ) :   0.1061

Dispersion correction           -0.007372196
FINAL SINGLE POINT ENERGY      -688.054637385137

DIPOLE MOMENT
-------------
                                X             Y             Z
Electronic contribution:     -2.64599       4.66900      -0.66438
Nuclear contribution   :      3.94974      -5.09866      -0.16489
                        -----------------------------------------
Total Dipole Moment    :      1.30375      -0.42967      -0.82927
                        -----------------------------------------
Magnitude (a.u.)       :      1.60376
Magnitude (Debye)      :      4.07644

Rotational constants in cm-1:     0.163657     0.151977     0.145976
Rotational constants in MHz :  4906.325390  4556.144033  4376.262759

                             ****ORCA TERMINATED NORMALLY****
TOTAL RUN TIME: 0 days 0 hours 0 minutes 7 seconds 14 msec
