                         Program Version 5.0.0 -  RELEASE  -
|  1> !TPSS D3BJ RIJCOSX def2-SVPD def2/J TightSCF
|  2> *xyz 0 1
|  3> C         -5.57236       -5.80780       -0.81644
|  4> S         -6.90318       -4.61903       -0.52846
|  5> O         -8.11485       -5.25093       -0.95701
|  6> O         -6.53271       -3.42684       -1.31485
|  7> F         -6.86563       -4.29496        0.91412
|  8> H         -5.55376       -6.07856       -1.85145
|  9> H         -5.73990       -6.68165       -0.22212
| 10> H         -4.63562       -5.36690       -0.54622
| 11> *
| 12> %MaxCore 64000
| 13>
| 14> %pal nprocs 4
| 15> end
| 16>
| 17> %scf
| 18>   MaxIter 150
| 19> end
| 20>
| 21>                          ****END OF INPUT****

CARTESIAN COORDINATES (ANGSTROEM)
---------------------------------
  C     -5.572360   -5.807800   -0.816440
  S     -6.903180   -4.619030   -0.528460
  O     -8.114850   -5.250930   -0.957010
  O     -6.532710   -3.426840   -1.314850
  F     -6.865630   -4.294960    0.914120
  H     -5.553760   -6.078560   -1.851450
  H     -5.739900   -6.681650   -0.222120
  H     -4.635620   -5.366900   -0.546220

 Total Charge           Charge          ....    0
 Multiplicity           Mult            ....    1
 Number of Electrons    NEL             ....   50
 Basis Dimension        Dim             ....  140

ORBITAL ENERGIES
----------------

  NO   OCC          E(Eh)            E(eV)
   0   2.0000     -88.626946     -2411.6618
   1   2.0000     -24.529909      -667.4928
   2   2.0000     -18.919690      -514.8309
   3   2.0000     -18.906381      -514.4688
   4   2.0000     -10.064605      -273.8718
   5   2.0000      -7.987645      -217.3549
   6   2.0000      -5.977723      -162.6621
   7   2.0000      -5.971423      -162.4907
   8   2.0000      -5.970041      -162.4531
   9   2.0000      -1.267992       -34.5038
  10   2.0000      -1.043063       -28.3832
  11   2.0000      -0.944959       -25.7136
  12   2.0000      -0.742737       -20.2109
  13   2.0000      -0.649876       -17.6840
  14   2.0000      -0.542099       -14.7513
  15   2.0000      -0.513071       -13.9614
  16   2.0000      -0.502801       -13.6819
  17   2.0000      -0.438972       -11.9450
  18   2.0000      -0.435434       -11.8488
  19   2.0000      -0.425491       -11.5782
  20   2.0000      -0.399441       -10.8694
  21   2.0000      -0.348995        -9.4966
  22   2.0000      -0.305792        -8.3210
  23   2.0000      -0.291579        -7.9343
  24   2.0000      -0.273596        -7.4449
  25   0.0000      -0.028503        -0.7756
  26   0.0000       0.005176         0.1409
  27   0.0000       0.018244         0.4964
  28   0.0000       0.035406         0.9634
  29   0.0000       0.036064         0.9814

MULLIKEN ATOMIC CHARGES
-----------------------
   0 C :    0.417677
   1 S :    1.189929
   2 O :   -0.599967
   3 O :   -0.639934
   4 F :   -0.372307
   5 H :    0.000083
   6 H :    0.000320
   7 H :    0.004200
Sum of atomic charges:    0.0000000

LOEWDIN ATOMIC CHARGES
----------------------
   0 C :    0.134443
   1 S :    1.089635
   2 O :   -0.448612
   3 O :   -0.468888
   4 F :   -0.266680
   5 H :   -0.004064
   6 H :   -0.018933
   7 H :   -0.016901

  Mayer bond orders larger than 0.100000
B(  0-C ,  1-S ) :   0.9674 B(  0-C ,  5-H ) :   0.9204 B(  0-C ,  6-H ) :   0.9213
B(  0-C ,  7-H ) :   0.9247 B(  1-S ,  2-O ) :   1.5635 B(  1-S ,  3-O ) :   1.5304
B(  1-S ,  4-F ) :   0.6740 B(  1-S ,  5-H ) :   0.1055

Dispersion correction           -0.007373933
FINAL SINGLE POINT ENERGY      -688.054265899352

DIPOLE MOMENT
-------------
                                X             Y             Z
Electronic contribution:     -3.19259       3.23850       2.99819
Nuclear contribution   :      4.28235      -4.23136      -2.39177
                        -----------------------------------------
Total Dipole Moment    :      1.08976      -0.99286       0.60641
                        -----------------------------------------
Magnitude (a.u.)       :      1.59408
Magnitude (Debye)      :      4.05183

Rotational constants in cm-1:     0.164456     0.151338     0.145749
Rotational constants in MHz :  4930.268698  4537.002642  4369.437533

                             ****ORCA TERMINATED NORMALLY****
TOTAL RUN TIME: 0 days 0 hours 0 minutes 7 seconds 26 msec
