                         Program Version 5.0.0 -  RELEASE  -
|  1> !PBE0 D3BJ RIJCOSX def2-TZVPD def2/J TightSCF
|  2>
|  3> *xyz -1 1
|  4> C          2.95263        1.86308       -3.57485
|  5> C          4.12921        0.89839       -3.41895
|  6> H          3.73369       -0.10060       -3.23763
|  7> H          4.71910        0.86256       -4.33901
|  8> C          5.01734        1.31521       -2.22130
|  9> O          4.73706        0.85411       -1.12283
| 10> O          5.92815        2.16811       -2.49136
| 11> H          2.35067        1.56005       -4.40594
| 12> H          3.32277        2.85258       -3.74453
| 13> H          2.36134        1.85149       -2.68315
| 14> *
| 15> %MaxCore 64000
| 16>
| 17> %pal nprocs 4
| 18> end
| 19>
| 20> %scf
| 21>   MaxIter 150
| 22> end
| 23>
| 24>
| 25>                          ****END OF INPUT****

CARTESIAN COORDINATES (ANGSTROEM)
---------------------------------
  C      2.952630    1.863080   -3.574850
  C      4.129210    0.898390   -3.418950
  H      3.733690   -0.100600   -3.237630
  H      4.719100    0.862560   -4.339010
  C      5.017340    1.315210   -2.221300
  O      4.737060    0.854110   -1.122830
  O      5.928150    2.168110   -2.491360
  H      2.350670    1.560050   -4.405940
  H      3.322770    2.852580   -3.744530
  H      2.361340    1.851490   -2.683150

 Total Charge           Charge          ....   -1
 Multiplicity           Mult            ....    1
 Number of Electrons    NEL             ....   40
 Basis Dimension        Dim             ....  236

ORBITAL ENERGIES
----------------

  NO   OCC          E(Eh)            E(eV)
   0   2.0000     -18.945528      -515.5340
   1   2.0000     -18.935400      -515.2584
   2   2.0000     -10.100136      -274.8387
   3   2.0000     -10.056223      -273.6437
   4   2.0000     -10.043432      -273.2957
   5   2.0000      -0.854028       -23.2393
   6   2.0000      -0.756213       -20.5776
   7   2.0000      -0.627093       -17.0641
   8   2.0000      -0.488274       -13.2866
   9   2.0000      -0.336377        -9.1533
  10   2.0000      -0.303289        -8.2529
  11   2.0000      -0.275259        -7.4902
  12   2.0000      -0.243499        -6.6259
  13   2.0000      -0.224945        -6.1211
  14   2.0000      -0.223403        -6.0791
  15   2.0000      -0.189389        -5.1535
  16   2.0000      -0.179472        -4.8837
  17   2.0000      -0.061602        -1.6763
  18   2.0000      -0.051380        -1.3981
  19   2.0000      -0.041245        -1.1223
  20   0.0000       0.140848         3.8327
  21   0.0000       0.165876         4.5137
  22   0.0000       0.176422         4.8007
  23   0.0000       0.187050         5.0899
  24   0.0000       0.216050         5.8790

MULLIKEN ATOMIC CHARGES
-----------------------
   0 C :   -0.834845
   1 C :    0.104824
   2 H :    0.120023
   3 H :    0.129000
   4 C :    0.303100
   5 O :   -0.658449
   6 O :   -0.723918
   7 H :    0.149059
   8 H :    0.206619
   9 H :    0.204587
Sum of atomic charges:   -1.0000000

LOEWDIN ATOMIC CHARGES
----------------------
   0 C :   -0.134248
   1 C :   -0.214267
   2 H :    0.085048
   3 H :    0.088603
   4 C :   -0.785222
   5 O :   -0.070624
   6 O :   -0.132934
   7 H :    0.042407
   8 H :    0.060400
   9 H :    0.060837

  Mayer bond orders larger than 0.100000
B(  0-C ,  1-C ) :   0.7179 B(  0-C ,  4-C ) :   0.2472 B(  0-C ,  7-H ) :   0.9810
B(  0-C ,  8-H ) :   1.0066 B(  0-C ,  9-H ) :   1.0024 B(  1-C ,  2-H ) :   0.9847
B(  1-C ,  3-H ) :   0.9739 B(  1-C ,  4-C ) :   0.8682 B(  4-C ,  5-O ) :   1.5518
B(  4-C ,  6-O ) :   1.4518

Dispersion correction           -0.005476915
FINAL SINGLE POINT ENERGY      -267.647032609832

DIPOLE MOMENT
-------------
                                X             Y             Z
Electronic contribution:      4.43300      -0.20149       3.91605
Nuclear contribution   :     -5.85873      -0.10793      -5.24103
                        -----------------------------------------
Total Dipole Moment    :     -1.42573      -0.30942      -1.32498
                        -----------------------------------------
Magnitude (a.u.)       :      1.97079
Magnitude (Debye)      :      5.00936

Rotational constants in cm-1:     0.292505     0.135951     0.110253
Rotational constants in MHz :  8769.065873  4075.717001  3305.311891

                             ****ORCA TERMINATED NORMALLY****
TOTAL RUN TIME: 0 days 0 hours 0 minutes 38 seconds 760 msec
