                         Program Version 5.0.0 -  RELEASE  -
|  1> !PBE0 D3BJ RIJCOSX def2-TZVPD def2/J TightSCF
|  2>
|  3> *xyz 1 1
|  4> C          3.34350        3.35457       -3.59200
|  5> C          2.95263        1.86308       -3.57485
|  6> C          4.25587        3.70385       -4.72605
|  7> N          3.73403        4.29378       -5.80077
|  8> N          5.51504        3.40725       -4.63718
|  9> H          6.14919        3.60120       -5.39905
| 10> H          5.81358        2.89950       -3.80879
| 11> H          2.74138        4.51311       -5.82470
| 12> H          4.28755        4.52126       -6.61434
| 13> H          3.86125        3.59725       -2.66298
| 14> H          2.44649        3.97346       -3.65656
| 15> H          2.44395        1.61721       -4.48352
| 16> H          2.30781        1.67290       -2.74242
| 17> H          3.83491        1.26414       -3.48670
| 18> *
| 19> %MaxCore 64000
| 20>
| 21> %pal nprocs 4
| 22> end
| 23>
| 24> %scf
| 25>   MaxIter 150
| 26> end
| 27>
| 28>
| 29>                          ****END OF INPUT****

CARTESIAN COORDINATES (ANGSTROEM)
---------------------------------
  C      3.343500    3.354570   -3.592000
  C      2.952630    1.863080   -3.574850
  C      4.255870    3.703850   -4.726050
  N      3.734030    4.293780   -5.800770
  N      5.515040    3.407250   -4.637180
  H      6.149190    3.601200   -5.399050
  H      5.813580    2.899500   -3.808790
  H      2.741380    4.513110   -5.824700
  H      4.287550    4.521260   -6.614340
  H      3.861250    3.597250   -2.662980
  H      2.446490    3.973460   -3.656560
  H      2.443950    1.617210   -4.483520
  H      2.307810    1.672900   -2.742420
  H      3.834910    1.264140   -3.486700

 Total Charge           Charge          ....    1
 Multiplicity           Mult            ....    1
 Number of Electrons    NEL             ....   40
 Basis Dimension        Dim             ....  266

ORBITAL ENERGIES
----------------

  NO   OCC          E(Eh)            E(eV)
   0   2.0000     -14.631497      -398.1433
   1   2.0000     -14.627190      -398.0261
   2   2.0000     -10.543249      -286.8964
   3   2.0000     -10.420662      -283.5606
   4   2.0000     -10.375630      -282.3352
   5   2.0000      -1.232269       -33.5318
   6   2.0000      -1.135894       -30.9092
   7   2.0000      -0.991897       -26.9909
   8   2.0000      -0.881421       -23.9847
   9   2.0000      -0.834108       -22.6972
  10   2.0000      -0.794236       -21.6123
  11   2.0000      -0.767676       -20.8895
  12   2.0000      -0.717044       -19.5118
  13   2.0000      -0.662896       -18.0383
  14   2.0000      -0.638156       -17.3651
  15   2.0000      -0.626914       -17.0592
  16   2.0000      -0.557825       -15.1792
  17   2.0000      -0.548936       -14.9373
  18   2.0000      -0.541008       -14.7216
  19   2.0000      -0.505429       -13.7534
  20   0.0000      -0.204594        -5.5673
  21   0.0000      -0.160830        -4.3764
  22   0.0000      -0.118732        -3.2309
  23   0.0000      -0.114179        -3.1070
  24   0.0000      -0.089353        -2.4314

MULLIKEN ATOMIC CHARGES
-----------------------
   0 C :   -0.244738
   1 C :   -0.770233
   2 C :    0.571231
   3 N :   -0.235513
   4 N :   -0.226192
   5 H :    0.189994
   6 H :    0.230274
   7 H :    0.218631
   8 H :    0.172892
   9 H :    0.201502
  10 H :    0.177965
  11 H :    0.246431
  12 H :    0.214262
  13 H :    0.253493
Sum of atomic charges:    1.0000000

LOEWDIN ATOMIC CHARGES
----------------------
   0 C :   -0.148202
   1 C :   -0.052137
   2 C :   -0.366607
   3 N :    0.226156
   4 N :    0.236734
   5 H :    0.152257
   6 H :    0.156907
   7 H :    0.148384
   8 H :    0.142296
   9 H :    0.132589
  10 H :    0.127194
  11 H :    0.082555
  12 H :    0.086319
  13 H :    0.075554

  Mayer bond orders larger than 0.100000
B(  0-C ,  1-C ) :   0.7862 B(  0-C ,  2-C ) :   0.8554 B(  0-C ,  4-N ) :   0.1002
B(  0-C ,  9-H ) :   0.9472 B(  0-C , 10-H ) :   0.9782 B(  1-C ,  2-C ) :   0.1675
B(  1-C , 11-H ) :   0.9825 B(  1-C , 12-H ) :   1.0021 B(  1-C , 13-H ) :   0.9219
B(  2-C ,  3-N ) :   1.2122 B(  2-C ,  4-N ) :   1.3241 B(  3-N ,  7-H ) :   0.9467
B(  3-N ,  8-H ) :   1.0337 B(  4-N ,  5-H ) :   1.0034 B(  4-N ,  6-H ) :   0.9267

Dispersion correction           -0.008500282
FINAL SINGLE POINT ENERGY      -228.854645463386

DIPOLE MOMENT
-------------
                                X             Y             Z
Electronic contribution:      2.36583       2.56632      -2.27198
Nuclear contribution   :     -1.74195      -2.09431       1.58516
                        -----------------------------------------
Total Dipole Moment    :      0.62388       0.47202      -0.68682
                        -----------------------------------------
Magnitude (a.u.)       :      1.04104
Magnitude (Debye)      :      2.64610

Rotational constants in cm-1:     0.258965     0.126500     0.098780
Rotational constants in MHz :  7763.584551  3792.383135  2961.336502

                             ****ORCA TERMINATED NORMALLY****
TOTAL RUN TIME: 0 days 0 hours 0 minutes 45 seconds 113 msec
