                         Program Version 5.0.0 -  RELEASE  -
|  1> !PBE0 D3BJ RIJCOSX def2-TZVPD def2/J TightSCF xyzfile
|  2>
|  3> *xyzfile 0 1 B.xyz
|  4>
|  5> %MaxCore 64000
|  6>
|  7> %pal nprocs 4
|  8> end
|  9>
| 10> %scf
| 11>   MaxIter 150
| 12> end
| 13>
| 14>
| 15>                          ****END OF INPUT****

CARTESIAN COORDINATES (ANGSTROEM)
---------------------------------
  C      3.343500    3.354571   -3.591998
  C      2.952633    1.863077   -3.574849
  C      4.129209    0.898394   -3.418950
  H      3.733687   -0.100605   -3.237633
  H      4.719095    0.862556   -4.339005
  C      5.017344    1.315212   -2.221305
  C      4.255868    3.703851   -4.726054
  N      3.734032    4.293783   -5.800770
  N      5.515039    3.407255   -4.637185
  H      6.149187    3.601203   -5.399053
  H      5.813584    2.899504   -3.808785
  H      2.741380    4.513109   -5.824701
  H      4.287548    4.521260   -6.614341
  H      2.278938    1.735250   -2.725496
  H      2.377466    1.625787   -4.475869
  O      4.737055    0.854112   -1.122825
  O      5.928146    2.168108   -2.491365
  H      3.861246    3.597252   -2.662979
  H      2.446493    3.973461   -3.656556

 Total Charge           Charge          ....    0
 Multiplicity           Mult            ....    1
 Number of Electrons    NEL             ....   70
 Basis Dimension        Dim             ....  429

ORBITAL ENERGIES
----------------

  NO   OCC          E(Eh)            E(eV)
   0   2.0000     -19.116208      -520.1785
   1   2.0000     -19.102231      -519.7981
   2   2.0000     -14.481964      -394.0743
   3   2.0000     -14.442492      -393.0002
   4   2.0000     -10.383098      -282.5385
   5   2.0000     -10.266816      -279.3743
   6   2.0000     -10.266230      -279.3583
   7   2.0000     -10.242163      -278.7034
   8   2.0000     -10.200643      -277.5736
   9   2.0000      -1.072766       -29.1914
  10   2.0000      -1.022573       -27.8256
  11   2.0000      -0.976274       -26.5658
  12   2.0000      -0.932526       -25.3753
  13   2.0000      -0.847184       -23.0530
  14   2.0000      -0.760068       -20.6825
  15   2.0000      -0.696546       -18.9540
  16   2.0000      -0.650492       -17.7008
  17   2.0000      -0.635645       -17.2968
  18   2.0000      -0.604625       -16.4527
  19   2.0000      -0.559495       -15.2246
  20   2.0000      -0.515774       -14.0349
  21   2.0000      -0.500019       -13.6062
  22   2.0000      -0.476892       -12.9769
  23   2.0000      -0.464220       -12.6321
  24   2.0000      -0.438295       -11.9266
  25   2.0000      -0.414145       -11.2695
  26   2.0000      -0.392379       -10.6772
  27   2.0000      -0.386959       -10.5297
  28   2.0000      -0.381007       -10.3677
  29   2.0000      -0.352666        -9.5965
  30   2.0000      -0.342739        -9.3264
  31   2.0000      -0.341672        -9.2974
  32   2.0000      -0.233576        -6.3559
  33   2.0000      -0.227704        -6.1962
  34   2.0000      -0.205940        -5.6039
  35   0.0000      -0.049832        -1.3560
  36   0.0000      -0.036945        -1.0053
  37   0.0000       0.000138         0.0038
  38   0.0000       0.019097         0.5196
  39   0.0000       0.026236         0.7139

MULLIKEN ATOMIC CHARGES
-----------------------
   0 C :   -0.278711
   1 C :   -0.308889
   2 C :   -0.137179
   3 H :    0.085425
   4 H :    0.201497
   5 C :    0.356698
   6 C :    0.351958
   7 N :   -0.248419
   8 N :   -0.108691
   9 H :    0.164123
  10 H :    0.243055
  11 H :    0.208254
  12 H :    0.152646
  13 H :    0.186612
  14 H :    0.082436
  15 O :   -0.596386
  16 O :   -0.752085
  17 H :    0.257656
  18 H :    0.139999
Sum of atomic charges:    0.0000000

LOEWDIN ATOMIC CHARGES
----------------------
   0 C :   -0.106074
   1 C :   -0.176237
   2 C :   -0.128722
   3 H :    0.112385
   4 H :    0.103015
   5 C :   -0.697353
   6 C :   -0.364419
   7 N :    0.185053
   8 N :    0.232706
   9 H :    0.141013
  10 H :    0.023695
  11 H :    0.129985
  12 H :    0.125252
  13 H :    0.122106
  14 H :    0.110239
  15 O :    0.013557
  16 O :   -0.080570
  17 H :    0.135443
  18 H :    0.118927

  Mayer bond orders larger than 0.100000
B(  0-C ,  1-C ) :   0.8556 B(  0-C ,  6-C ) :   0.8179 B(  0-C , 17-H ) :   0.9113
B(  0-C , 18-H ) :   0.9837 B(  1-C ,  2-C ) :   0.9953 B(  1-C ,  5-C ) :   0.1691
B(  1-C ,  6-C ) :   0.2693 B(  1-C , 13-H ) :   0.9053 B(  1-C , 14-H ) :   0.9635
B(  2-C ,  3-H ) :   1.0023 B(  2-C ,  4-H ) :   0.9047 B(  2-C ,  5-C ) :   0.8898
B(  2-C ,  8-N ) :   0.1416 B(  5-C , 15-O ) :   1.6431 B(  5-C , 16-O ) :   1.3045
B(  6-C ,  7-N ) :   1.1372 B(  6-C ,  8-N ) :   1.4152 B(  7-N , 11-H ) :   0.9654
B(  7-N , 12-H ) :   1.0261 B(  8-N ,  9-H ) :   0.9886 B(  8-N , 10-H ) :   0.7803
B(  8-N , 16-O ) :  -0.1092 B( 10-H , 16-O ) :   0.1815

Dispersion correction           -0.016195194
FINAL SINGLE POINT ENERGY      -456.193621033419

DIPOLE MOMENT
-------------
                                X             Y             Z
Electronic contribution:      3.90512       0.00579       2.63799
Nuclear contribution   :     -5.42217       2.65262      -7.07590
                        -----------------------------------------
Total Dipole Moment    :     -1.51704       2.65841      -4.43791
                        -----------------------------------------
Magnitude (a.u.)       :      5.39107
Magnitude (Debye)      :     13.70301

Rotational constants in cm-1:     0.107541     0.035862     0.030371
Rotational constants in MHz :  3223.996852  1075.120464   910.508313

                             ****ORCA TERMINATED NORMALLY****
TOTAL RUN TIME: 0 days 0 hours 1 minutes 54 seconds 848 msec
