                         Program Version 5.0.0 -  RELEASE  -
|  1> !PBE0 D3BJ RIJCOSX def2-TZVPD def2/J TightSCF
|  2>
|  3> *xyz 0 1
|  4> C          2.95263        1.86308       -3.57485
|  5> C          4.12921        0.89839       -3.41895
|  6> H          3.73369       -0.10060       -3.23763
|  7> H          4.71910        0.86256       -4.33901
|  8> C          5.01734        1.31521       -2.22130
|  9> F          4.73706        0.85411       -1.12283
| 10> O          5.92815        2.16811       -2.49136
| 11> H          2.35067        1.56005       -4.40594
| 12> H          3.32277        2.85258       -3.74453
| 13> H          2.36134        1.85149       -2.68315
| 14> *
| 15> %MaxCore 64000
| 16>
| 17> %pal nprocs 4
| 18> end
| 19>
| 20> %scf
| 21>   MaxIter 150
| 22> end
| 23>
| 24>
| 25>                          ****END OF INPUT****

CARTESIAN COORDINATES (ANGSTROEM)
---------------------------------
  C      2.952630    1.863080   -3.574850
  C      4.129210    0.898390   -3.418950
  H      3.733690   -0.100600   -3.237630
  H      4.719100    0.862560   -4.339010
  C      5.017340    1.315210   -2.221300
  F      4.737060    0.854110   -1.122830
  O      5.928150    2.168110   -2.491360
  H      2.350670    1.560050   -4.405940
  H      3.322770    2.852580   -3.744530
  H      2.361340    1.851490   -2.683150

 Total Charge           Charge          ....    0
 Multiplicity           Mult            ....    1
 Number of Electrons    NEL             ....   40
 Basis Dimension        Dim             ....  236

ORBITAL ENERGIES
----------------

  NO   OCC          E(Eh)            E(eV)
   0   2.0000     -24.856078      -676.3683
   1   2.0000     -19.208652      -522.6940
   2   2.0000     -10.401794      -283.0472
   3   2.0000     -10.252371      -278.9812
   4   2.0000     -10.227445      -278.3029
   5   2.0000      -1.378455       -37.5097
   6   2.0000      -1.049137       -28.5485
   7   2.0000      -0.824903       -22.4468
   8   2.0000      -0.716022       -19.4840
   9   2.0000      -0.668560       -18.1924
  10   2.0000      -0.581542       -15.8246
  11   2.0000      -0.567960       -15.4550
  12   2.0000      -0.524724       -14.2785
  13   2.0000      -0.479533       -13.0487
  14   2.0000      -0.450403       -12.2561
  15   2.0000      -0.413912       -11.2631
  16   2.0000      -0.391579       -10.6554
  17   2.0000      -0.384786       -10.4706
  18   2.0000      -0.356943        -9.7129
  19   2.0000      -0.299014        -8.1366
  20   0.0000      -0.025909        -0.7050
  21   0.0000       0.008642         0.2352
  22   0.0000       0.035481         0.9655
  23   0.0000       0.044587         1.2133
  24   0.0000       0.054668         1.4876

MULLIKEN ATOMIC CHARGES
-----------------------
   0 C :   -0.852527
   1 C :    0.091552
   2 H :    0.157661
   3 H :    0.151585
   4 C :    0.429658
   5 F :   -0.155407
   6 O :   -0.475516
   7 H :    0.169869
   8 H :    0.238916
   9 H :    0.244207
Sum of atomic charges:    0.0000000

LOEWDIN ATOMIC CHARGES
----------------------
   0 C :   -0.092562
   1 C :   -0.156846
   2 H :    0.106598
   3 H :    0.118176
   4 C :   -0.499454
   5 F :    0.247462
   6 O :    0.056867
   7 H :    0.070010
   8 H :    0.076338
   9 H :    0.073412

  Mayer bond orders larger than 0.100000
B(  0-C ,  1-C ) :   0.7579 B(  0-C ,  4-C ) :   0.2378 B(  0-C ,  7-H ) :   0.9961
B(  0-C ,  8-H ) :   0.9956 B(  0-C ,  9-H ) :   0.9523 B(  1-C ,  2-H ) :   0.9618
B(  1-C ,  3-H ) :   0.9614 B(  1-C ,  4-C ) :   0.8683 B(  4-C ,  5-F ) :   1.0915
B(  4-C ,  6-O ) :   1.7743

Dispersion correction           -0.005174551
FINAL SINGLE POINT ENERGY      -292.191395212497

DIPOLE MOMENT
-------------
                                X             Y             Z
Electronic contribution:      5.05015      -1.17886       6.52192
Nuclear contribution   :     -6.06116       0.51860      -6.80802
                        -----------------------------------------
Total Dipole Moment    :     -1.01101      -0.66026      -0.28610
                        -----------------------------------------
Magnitude (a.u.)       :      1.24094
Magnitude (Debye)      :      3.15422

Rotational constants in cm-1:     0.276196     0.132056     0.105465
Rotational constants in MHz :  8280.156449  3958.940601  3161.775929

                             ****ORCA TERMINATED NORMALLY****
TOTAL RUN TIME: 0 days 0 hours 0 minutes 34 seconds 548 msec
