                         Program Version 5.0.0 -  RELEASE  -
|  1> !PBE0 D3BJ RIJCOSX def2-TZVPD def2/J TightSCF
|  2>
|  3> *xyz 0 1
|  4> C          3.34350        3.35457       -3.59200
|  5> C          2.95263        1.86308       -3.57485
|  6> C          4.25587        3.70385       -4.72605
|  7> C          3.73403        4.29378       -5.80077
|  8> N          5.51504        3.40725       -4.63718
|  9> H          6.14919        3.60120       -5.39905
| 10> H          5.81358        2.89950       -3.80879
| 11> H          2.74138        4.51311       -5.82470
| 12> H          4.28755        4.52126       -6.61434
| 13> H          3.86125        3.59725       -2.66298
| 14> H          2.44649        3.97346       -3.65656
| 15> H          2.44395        1.61721       -4.48352
| 16> H          2.30781        1.67290       -2.74242
| 17> H          3.83491        1.26414       -3.48670
| 18> *
| 19> %MaxCore 64000
| 20>
| 21> %pal nprocs 4
| 22> end
| 23>
| 24> %scf
| 25>   MaxIter 150
| 26> end
| 27>
| 28>
| 29>                          ****END OF INPUT****

CARTESIAN COORDINATES (ANGSTROEM)
---------------------------------
  C      3.343500    3.354570   -3.592000
  C      2.952630    1.863080   -3.574850
  C      4.255870    3.703850   -4.726050
  C      3.734030    4.293780   -5.800770
  N      5.515040    3.407250   -4.637180
  H      6.149190    3.601200   -5.399050
  H      5.813580    2.899500   -3.808790
  H      2.741380    4.513110   -5.824700
  H      4.287550    4.521260   -6.614340
  H      3.861250    3.597250   -2.662980
  H      2.446490    3.973460   -3.656560
  H      2.443950    1.617210   -4.483520
  H      2.307810    1.672900   -2.742420
  H      3.834910    1.264140   -3.486700

 Total Charge           Charge          ....    0
 Multiplicity           Mult            ....    1
 Number of Electrons    NEL             ....   40
 Basis Dimension        Dim             ....  266

ORBITAL ENERGIES
----------------

  NO   OCC          E(Eh)            E(eV)
   0   2.0000     -14.387366      -391.5001
   1   2.0000     -10.240693      -278.6634
   2   2.0000     -10.220775      -278.1214
   3   2.0000     -10.205310      -277.7006
   4   2.0000     -10.150799      -276.2173
   5   2.0000      -0.964935       -26.2572
   6   2.0000      -0.801344       -21.8057
   7   2.0000      -0.735748       -20.0207
   8   2.0000      -0.655512       -17.8374
   9   2.0000      -0.587410       -15.9842
  10   2.0000      -0.548278       -14.9194
  11   2.0000      -0.493967       -13.4415
  12   2.0000      -0.451115       -12.2755
  13   2.0000      -0.434520       -11.8239
  14   2.0000      -0.406395       -11.0586
  15   2.0000      -0.395104       -10.7513
  16   2.0000      -0.365605        -9.9486
  17   2.0000      -0.345807        -9.4099
  18   2.0000      -0.343531        -9.3479
  19   2.0000      -0.197861        -5.3841
  20   0.0000       0.007731         0.2104
  21   0.0000       0.034612         0.9419
  22   0.0000       0.042343         1.1522
  23   0.0000       0.046499         1.2653
  24   0.0000       0.058699         1.5973

MULLIKEN ATOMIC CHARGES
-----------------------
   0 C :   -0.262038
   1 C :   -0.727798
   2 C :    0.803137
   3 C :   -1.162456
   4 N :   -0.331622
   5 H :    0.155018
   6 H :    0.161294
   7 H :    0.203695
   8 H :    0.208203
   9 H :    0.188968
  10 H :    0.131073
  11 H :    0.228613
  12 H :    0.188556
  13 H :    0.215358
Sum of atomic charges:    0.0000000

LOEWDIN ATOMIC CHARGES
----------------------
   0 C :   -0.201929
   1 C :   -0.091142
   2 C :   -0.514263
   3 C :    0.021056
   4 N :    0.107352
   5 H :    0.118575
   6 H :    0.114509
   7 H :    0.019301
   8 H :    0.014209
   9 H :    0.108561
  10 H :    0.110335
  11 H :    0.070845
  12 H :    0.062033
  13 H :    0.060559

  Mayer bond orders larger than 0.100000
B(  0-C ,  1-C ) :   0.7753 B(  0-C ,  2-C ) :   0.8348 B(  0-C ,  4-N ) :   0.1248
B(  0-C ,  9-H ) :   0.9901 B(  0-C , 10-H ) :   0.9705 B(  1-C ,  2-C ) :   0.1275
B(  1-C , 11-H ) :   1.0101 B(  1-C , 12-H ) :   0.9963 B(  1-C , 13-H ) :   0.9524
B(  2-C ,  3-C ) :   1.2107 B(  2-C ,  4-N ) :   1.1075 B(  3-C ,  4-N ) :   0.1083
B(  3-C ,  7-H ) :   1.0090 B(  3-C ,  8-H ) :   1.0566 B(  4-N ,  5-H ) :   1.0048
B(  4-N ,  6-H ) :   1.0034

Dispersion correction           -0.008846317
FINAL SINGLE POINT ENERGY      -212.391442471816

DIPOLE MOMENT
-------------
                                X             Y             Z
Electronic contribution:      2.33174       1.47586      -0.85497
Nuclear contribution   :     -1.79713      -1.86925       1.28073
                        -----------------------------------------
Total Dipole Moment    :      0.53462      -0.39339       0.42576
                        -----------------------------------------
Magnitude (a.u.)       :      0.78857
Magnitude (Debye)      :      2.00438

Rotational constants in cm-1:     0.269040     0.129645     0.102087
Rotational constants in MHz :  8065.609820  3886.645139  3060.489045

                             ****ORCA TERMINATED NORMALLY****
TOTAL RUN TIME: 0 days 0 hours 0 minutes 47 seconds 122 msec
