                         Program Version 5.0.0 -  RELEASE  -
|  1> !PBE0 D3BJ RIJCOSX def2-TZVPD def2/J TightSCF
|  2>
|  3> *xyz 0 1
|  4> C          2.95263        1.86308       -3.57485
|  5> C          4.12921        0.89839       -3.41895
|  6> H          3.73369       -0.10060       -3.23763
|  7> H          4.71910        0.86256       -4.33901
|  8> C          5.01734        1.31521       -2.22130
|  9> O          4.73706        0.85411       -1.12283
| 10> F          5.92815        2.16811       -2.49136
| 11> H          2.35067        1.56005       -4.40594
| 12> H          3.32277        2.85258       -3.74453
| 13> H          2.36134        1.85149       -2.68315
| 14> *
| 15> %MaxCore 64000
| 16>
| 17> %pal nprocs 4
| 18> end
| 19>
| 20> %scf
| 21>   MaxIter 150
| 22> end
| 23>
| 24>
| 25>                          ****END OF INPUT****

CARTESIAN COORDINATES (ANGSTROEM)
---------------------------------
  C      2.952630    1.863080   -3.574850
  C      4.129210    0.898390   -3.418950
  H      3.733690   -0.100600   -3.237630
  H      4.719100    0.862560   -4.339010
  C      5.017340    1.315210   -2.221300
  O      4.737060    0.854110   -1.122830
  F      5.928150    2.168110   -2.491360
  H      2.350670    1.560050   -4.405940
  H      3.322770    2.852580   -3.744530
  H      2.361340    1.851490   -2.683150

 Total Charge           Charge          ....    0
 Multiplicity           Mult            ....    1
 Number of Electrons    NEL             ....   40
 Basis Dimension        Dim             ....  236

ORBITAL ENERGIES
----------------

  NO   OCC          E(Eh)            E(eV)
   0   2.0000     -24.835070      -675.7966
   1   2.0000     -19.217548      -522.9361
   2   2.0000     -10.397158      -282.9211
   3   2.0000     -10.251940      -278.9695
   4   2.0000     -10.227683      -278.3094
   5   2.0000      -1.337750       -36.4020
   6   2.0000      -1.083260       -29.4770
   7   2.0000      -0.824555       -22.4373
   8   2.0000      -0.704110       -19.1598
   9   2.0000      -0.655901       -17.8480
  10   2.0000      -0.560641       -15.2558
  11   2.0000      -0.547452       -14.8969
  12   2.0000      -0.524785       -14.2801
  13   2.0000      -0.478875       -13.0309
  14   2.0000      -0.453765       -12.3476
  15   2.0000      -0.418152       -11.3785
  16   2.0000      -0.399381       -10.8677
  17   2.0000      -0.384860       -10.4726
  18   2.0000      -0.373384       -10.1603
  19   2.0000      -0.309876        -8.4322
  20   0.0000      -0.020791        -0.5658
  21   0.0000       0.009596         0.2611
  22   0.0000       0.035734         0.9724
  23   0.0000       0.045669         1.2427
  24   0.0000       0.054463         1.4820

MULLIKEN ATOMIC CHARGES
-----------------------
   0 C :   -0.850935
   1 C :    0.090009
   2 H :    0.141272
   3 H :    0.168627
   4 C :    0.407045
   5 O :   -0.427356
   6 F :   -0.180039
   7 H :    0.168822
   8 H :    0.241360
   9 H :    0.241195
Sum of atomic charges:   -0.0000000

LOEWDIN ATOMIC CHARGES
----------------------
   0 C :   -0.092546
   1 C :   -0.154971
   2 H :    0.114677
   3 H :    0.110828
   4 C :   -0.493134
   5 O :    0.111859
   6 F :    0.183468
   7 H :    0.069996
   8 H :    0.073022
   9 H :    0.076802

  Mayer bond orders larger than 0.100000
B(  0-C ,  1-C ) :   0.7578 B(  0-C ,  4-C ) :   0.2342 B(  0-C ,  7-H ) :   0.9959
B(  0-C ,  8-H ) :   0.9562 B(  0-C ,  9-H ) :   0.9916 B(  1-C ,  2-H ) :   0.9672
B(  1-C ,  3-H ) :   0.9544 B(  1-C ,  4-C ) :   0.8651 B(  4-C ,  5-O ) :   1.8519
B(  4-C ,  6-F ) :   1.0240

Dispersion correction           -0.005174246
FINAL SINGLE POINT ENERGY      -292.207590469527

DIPOLE MOMENT
-------------
                                X             Y             Z
Electronic contribution:      7.03333       1.00958       4.23504
Nuclear contribution   :     -7.35982      -0.91407      -5.31589
                        -----------------------------------------
Total Dipole Moment    :     -0.32649       0.09551      -1.08086
                        -----------------------------------------
Magnitude (a.u.)       :      1.13312
Magnitude (Debye)      :      2.88016

Rotational constants in cm-1:     0.275433     0.132201     0.105422
Rotational constants in MHz :  8257.268192  3963.279062  3160.465566

                             ****ORCA TERMINATED NORMALLY****
TOTAL RUN TIME: 0 days 0 hours 0 minutes 34 seconds 413 msec
