                         Program Version 5.0.0 -  RELEASE  -
|  1> !PBE0 D3BJ RIJCOSX def2-TZVPD def2/J TightSCF
|  2>
|  3> *xyz 0 1
|  4> C          3.34350        3.35457       -3.59200
|  5> C          2.95263        1.86308       -3.57485
|  6> C          4.25587        3.70385       -4.72605
|  7> N          3.73403        4.29378       -5.80077
|  8> C          5.51504        3.40725       -4.63718
|  9> H          6.14919        3.60120       -5.39905
| 10> H          5.81358        2.89950       -3.80879
| 11> H          2.74138        4.51311       -5.82470
| 12> H          4.28755        4.52126       -6.61434
| 13> H          3.86125        3.59725       -2.66298
| 14> H          2.44649        3.97346       -3.65656
| 15> H          2.44395        1.61721       -4.48352
| 16> H          2.30781        1.67290       -2.74242
| 17> H          3.83491        1.26414       -3.48670
| 18> *
| 19> %MaxCore 64000
| 20>
| 21> %pal nprocs 4
| 22> end
| 23>
| 24> %scf
| 25>   MaxIter 150
| 26> end
| 27>
| 28>
| 29>                          ****END OF INPUT****

CARTESIAN COORDINATES (ANGSTROEM)
---------------------------------
  C      3.343500    3.354570   -3.592000
  C      2.952630    1.863080   -3.574850
  C      4.255870    3.703850   -4.726050
  N      3.734030    4.293780   -5.800770
  C      5.515040    3.407250   -4.637180
  H      6.149190    3.601200   -5.399050
  H      5.813580    2.899500   -3.808790
  H      2.741380    4.513110   -5.824700
  H      4.287550    4.521260   -6.614340
  H      3.861250    3.597250   -2.662980
  H      2.446490    3.973460   -3.656560
  H      2.443950    1.617210   -4.483520
  H      2.307810    1.672900   -2.742420
  H      3.834910    1.264140   -3.486700

 Total Charge           Charge          ....    0
 Multiplicity           Mult            ....    1
 Number of Electrons    NEL             ....   40
 Basis Dimension        Dim             ....  266

ORBITAL ENERGIES
----------------

  NO   OCC          E(Eh)            E(eV)
   0   2.0000     -14.383724      -391.4010
   1   2.0000     -10.238170      -278.5948
   2   2.0000     -10.220303      -278.1086
   3   2.0000     -10.203172      -277.6424
   4   2.0000     -10.148836      -276.1639
   5   2.0000      -0.949991       -25.8506
   6   2.0000      -0.803999       -21.8779
   7   2.0000      -0.739781       -20.1305
   8   2.0000      -0.656545       -17.8655
   9   2.0000      -0.580993       -15.8096
  10   2.0000      -0.535937       -14.5836
  11   2.0000      -0.497730       -13.5439
  12   2.0000      -0.452822       -12.3219
  13   2.0000      -0.427431       -11.6310
  14   2.0000      -0.406521       -11.0620
  15   2.0000      -0.395906       -10.7731
  16   2.0000      -0.361132        -9.8269
  17   2.0000      -0.349242        -9.5034
  18   2.0000      -0.340218        -9.2578
  19   2.0000      -0.202401        -5.5076
  20   0.0000       0.009508         0.2587
  21   0.0000       0.034210         0.9309
  22   0.0000       0.042080         1.1451
  23   0.0000       0.047482         1.2921
  24   0.0000       0.060105         1.6355

MULLIKEN ATOMIC CHARGES
-----------------------
   0 C :   -0.230094
   1 C :   -0.750788
   2 C :    0.799495
   3 N :   -0.326673
   4 C :   -1.144048
   5 H :    0.204474
   6 H :    0.217763
   7 H :    0.156211
   8 H :    0.129865
   9 H :    0.166298
  10 H :    0.152247
  11 H :    0.201966
  12 H :    0.188507
  13 H :    0.234776
Sum of atomic charges:   -0.0000000

LOEWDIN ATOMIC CHARGES
----------------------
   0 C :   -0.200734
   1 C :   -0.090110
   2 C :   -0.502216
   3 N :    0.099310
   4 C :    0.011933
   5 H :    0.025222
   6 H :    0.032613
   7 H :    0.103729
   8 H :    0.107528
   9 H :    0.112746
  10 H :    0.104370
  11 H :    0.068237
  12 H :    0.061407
  13 H :    0.065965

  Mayer bond orders larger than 0.100000
B(  0-C ,  1-C ) :   0.7506 B(  0-C ,  2-C ) :   0.7689 B(  0-C ,  9-H ) :   0.9473
B(  0-C , 10-H ) :   1.0471 B(  1-C ,  2-C ) :   0.1613 B(  1-C , 11-H ) :   0.9932
B(  1-C , 12-H ) :   0.9892 B(  1-C , 13-H ) :   0.9698 B(  2-C ,  3-N ) :   0.9915
B(  2-C ,  4-C ) :   1.3064 B(  3-N ,  4-C ) :   0.1064 B(  3-N ,  7-H ) :   1.0205
B(  3-N ,  8-H ) :   1.0468 B(  4-C ,  5-H ) :   1.0475 B(  4-C ,  6-H ) :   0.9788

Dispersion correction           -0.008854061
FINAL SINGLE POINT ENERGY      -212.391586436909

DIPOLE MOMENT
-------------
                                X             Y             Z
Electronic contribution:      0.78088       2.26571      -1.86113
Nuclear contribution   :     -1.38463      -2.07457       1.55023
                        -----------------------------------------
Total Dipole Moment    :     -0.60375       0.19114      -0.31090
                        -----------------------------------------
Magnitude (a.u.)       :      0.70548
Magnitude (Debye)      :      1.79319

Rotational constants in cm-1:     0.272312     0.128195     0.101724
Rotational constants in MHz :  8163.717141  3843.180148  3049.598073

                             ****ORCA TERMINATED NORMALLY****
TOTAL RUN TIME: 0 days 0 hours 0 minutes 43 seconds 791 msec
