                         Program Version 5.0.0 -  RELEASE  -
|  1> !PBE0 D3BJ RIJCOSX def2-TZVPD def2/J TightSCF xyzfile
|  2>
|  3> *xyzfile 0 1 D1.xyz
|  4>
|  5> %MaxCore 64000
|  6>
|  7> %pal nprocs 4
|  8> end
|  9>
| 10> %scf
| 11>   MaxIter 150
| 12> end
| 13>
| 14>
| 15>                          ****END OF INPUT****

CARTESIAN COORDINATES (ANGSTROEM)
---------------------------------
  C      3.343500    3.354571   -3.591998
  C      2.952633    1.863077   -3.574849
  C      4.129209    0.898394   -3.418950
  H      3.733687   -0.100605   -3.237633
  H      4.719095    0.862556   -4.339005
  C      5.017344    1.315212   -2.221305
  C      4.255868    3.703851   -4.726054
  C      3.734032    4.293783   -5.800770
  N      5.515039    3.407255   -4.637185
  H      6.149187    3.601203   -5.399053
  H      5.813584    2.899504   -3.808785
  H      2.741380    4.513109   -5.824701
  H      4.287548    4.521260   -6.614341
  H      2.278938    1.735250   -2.725496
  H      2.377466    1.625787   -4.475869
  F      4.737055    0.854112   -1.122825
  O      5.928146    2.168108   -2.491365
  H      3.861246    3.597252   -2.662979
  H      2.446493    3.973461   -3.656556

 Total Charge           Charge          ....    0
 Multiplicity           Mult            ....    1
 Number of Electrons    NEL             ....   70
 Basis Dimension        Dim             ....  429

ORBITAL ENERGIES
----------------

  NO   OCC          E(Eh)            E(eV)
   0   2.0000     -24.878646      -676.9824
   1   2.0000     -19.238162      -523.4970
   2   2.0000     -14.349998      -390.4833
   3   2.0000     -10.430659      -283.8327
   4   2.0000     -10.262203      -279.2487
   5   2.0000     -10.245559      -278.7958
   6   2.0000     -10.231220      -278.4056
   7   2.0000     -10.223760      -278.2026
   8   2.0000     -10.140981      -275.9501
   9   2.0000      -1.400291       -38.1038
  10   2.0000      -1.088774       -29.6271
  11   2.0000      -0.943707       -25.6796
  12   2.0000      -0.847773       -23.0691
  13   2.0000      -0.774568       -21.0771
  14   2.0000      -0.733990       -19.9729
  15   2.0000      -0.701554       -19.0903
  16   2.0000      -0.650885       -17.7115
  17   2.0000      -0.603770       -16.4294
  18   2.0000      -0.595550       -16.2057
  19   2.0000      -0.567112       -15.4319
  20   2.0000      -0.563512       -15.3339
  21   2.0000      -0.523434       -14.2434
  22   2.0000      -0.499508       -13.5923
  23   2.0000      -0.474649       -12.9159
  24   2.0000      -0.458795       -12.4845
  25   2.0000      -0.445896       -12.1334
  26   2.0000      -0.407829       -11.0976
  27   2.0000      -0.398202       -10.8356
  28   2.0000      -0.388830       -10.5806
  29   2.0000      -0.386185       -10.5086
  30   2.0000      -0.371016       -10.0958
  31   2.0000      -0.341279        -9.2867
  32   2.0000      -0.335911        -9.1406
  33   2.0000      -0.319098        -8.6831
  34   2.0000      -0.184033        -5.0078
  35   0.0000      -0.052084        -1.4173
  36   0.0000       0.002476         0.0674
  37   0.0000       0.025951         0.7062
  38   0.0000       0.031436         0.8554
  39   0.0000       0.033762         0.9187

MULLIKEN ATOMIC CHARGES
-----------------------
   0 C :   -0.228795
   1 C :   -0.294634
   2 C :   -0.076586
   3 H :    0.125080
   4 H :    0.225004
   5 C :    0.430522
   6 C :    0.600012
   7 C :   -1.251438
   8 N :   -0.230479
   9 H :    0.117273
  10 H :    0.226280
  11 H :    0.219438
  12 H :    0.215602
  13 H :    0.142910
  14 H :    0.143055
  15 F :   -0.172674
  16 O :   -0.540497
  17 H :    0.231412
  18 H :    0.118516
Sum of atomic charges:    0.0000000

LOEWDIN ATOMIC CHARGES
----------------------
   0 C :   -0.143193
   1 C :   -0.173935
   2 C :   -0.091422
   3 H :    0.114840
   4 H :    0.125766
   5 C :   -0.439769
   6 C :   -0.492913
   7 C :    0.016583
   8 N :    0.119091
   9 H :    0.122573
  10 H :    0.018117
  11 H :    0.014028
  12 H :    0.012786
  13 H :    0.112311
  14 H :    0.123667
  15 F :    0.271911
  16 O :    0.055353
  17 H :    0.115091
  18 H :    0.119117

  Mayer bond orders larger than 0.100000
B(  0-C ,  1-C ) :   0.8973 B(  0-C ,  6-C ) :   0.9029 B(  0-C , 17-H ) :   0.8616
B(  0-C , 18-H ) :   1.0014 B(  1-C ,  2-C ) :   0.9857 B(  1-C ,  5-C ) :   0.2039
B(  1-C ,  6-C ) :   0.2027 B(  1-C , 13-H ) :   0.9299 B(  1-C , 14-H ) :   0.9411
B(  2-C ,  3-H ) :   0.9833 B(  2-C ,  4-H ) :   0.9273 B(  2-C ,  5-C ) :   0.8726
B(  2-C ,  8-N ) :   0.1978 B(  5-C , 15-F ) :   1.1021 B(  5-C , 16-O ) :   1.6873
B(  6-C ,  7-C ) :   1.2630 B(  6-C ,  8-N ) :   1.1299 B(  7-C , 11-H ) :   1.0133
B(  7-C , 12-H ) :   1.0227 B(  8-N ,  9-H ) :   1.0033 B(  8-N , 10-H ) :   0.8822

Dispersion correction           -0.016203848
FINAL SINGLE POINT ENERGY      -464.107208559013

DIPOLE MOMENT
-------------
                                X             Y             Z
Electronic contribution:      5.54090      -5.95332      10.56175
Nuclear contribution   :     -5.86483       4.68058     -10.07545
                        -----------------------------------------
Total Dipole Moment    :     -0.32393      -1.27274       0.48630
                        -----------------------------------------
Magnitude (a.u.)       :      1.40046
Magnitude (Debye)      :      3.55968

Rotational constants in cm-1:     0.107256     0.035474     0.030113
Rotational constants in MHz :  3215.453922  1063.481574   902.777619

                             ****ORCA TERMINATED NORMALLY****
TOTAL RUN TIME: 0 days 0 hours 2 minutes 11 seconds 165 msec
