                         Program Version 5.0.0 -  RELEASE  -
|  1> !PBE0 D3BJ RIJCOSX def2-TZVPD def2/J TightSCF xyzfile
|  2>
|  3> *xyzfile 0 1 D2.xyz
|  4>
|  5> %MaxCore 64000
|  6>
|  7> %pal nprocs 4
|  8> end
|  9>
| 10> %scf
| 11>   MaxIter 150
| 12> end
| 13>
| 14>
| 15>                          ****END OF INPUT****

CARTESIAN COORDINATES (ANGSTROEM)
---------------------------------
  C      3.343500    3.354571   -3.591998
  C      2.952633    1.863077   -3.574849
  C      4.129209    0.898394   -3.418950
  H      3.733687   -0.100605   -3.237633
  H      4.719095    0.862556   -4.339005
  C      5.017344    1.315212   -2.221305
  C      4.255868    3.703851   -4.726054
  N      3.734032    4.293783   -5.800770
  C      5.515039    3.407255   -4.637185
  H      6.149187    3.601203   -5.399053
  H      5.813584    2.899504   -3.808785
  H      2.741380    4.513109   -5.824701
  H      4.287548    4.521260   -6.614341
  H      2.278938    1.735250   -2.725496
  H      2.377466    1.625787   -4.475869
  F      4.737055    0.854112   -1.122825
  O      5.928146    2.168108   -2.491365
  H      3.861246    3.597252   -2.662979
  H      2.446493    3.973461   -3.656556

 Total Charge           Charge          ....    0
 Multiplicity           Mult            ....    1
 Number of Electrons    NEL             ....   70
 Basis Dimension        Dim             ....  429

ORBITAL ENERGIES
----------------

  NO   OCC          E(Eh)            E(eV)
   0   2.0000     -24.860112      -676.4781
   1   2.0000     -19.212052      -522.7865
   2   2.0000     -14.374325      -391.1453
   3   2.0000     -10.408418      -283.2274
   4   2.0000     -10.249350      -278.8990
   5   2.0000     -10.241566      -278.6872
   6   2.0000     -10.225920      -278.2614
   7   2.0000     -10.223094      -278.1845
   8   2.0000     -10.118730      -275.3446
   9   2.0000      -1.382381       -37.6165
  10   2.0000      -1.063517       -28.9398
  11   2.0000      -0.941381       -25.6163
  12   2.0000      -0.841237       -22.8912
  13   2.0000      -0.772657       -21.0251
  14   2.0000      -0.723679       -19.6923
  15   2.0000      -0.700565       -19.0633
  16   2.0000      -0.640364       -17.4252
  17   2.0000      -0.591561       -16.0972
  18   2.0000      -0.580857       -15.8059
  19   2.0000      -0.563014       -15.3204
  20   2.0000      -0.545518       -14.8443
  21   2.0000      -0.515081       -14.0161
  22   2.0000      -0.493228       -13.4214
  23   2.0000      -0.479248       -13.0410
  24   2.0000      -0.462361       -12.5815
  25   2.0000      -0.430984       -11.7277
  26   2.0000      -0.404482       -11.0065
  27   2.0000      -0.403402       -10.9771
  28   2.0000      -0.375679       -10.2228
  29   2.0000      -0.367602       -10.0030
  30   2.0000      -0.362376        -9.8608
  31   2.0000      -0.338162        -9.2018
  32   2.0000      -0.331249        -9.0137
  33   2.0000      -0.280897        -7.6436
  34   2.0000      -0.189600        -5.1593
  35   0.0000      -0.033283        -0.9057
  36   0.0000       0.005785         0.1574
  37   0.0000       0.022723         0.6183
  38   0.0000       0.030136         0.8201
  39   0.0000       0.036191         0.9848

MULLIKEN ATOMIC CHARGES
-----------------------
   0 C :   -0.315310
   1 C :   -0.259309
   2 C :   -0.136523
   3 H :    0.119708
   4 H :    0.301936
   5 C :    0.392741
   6 C :    0.676372
   7 N :   -0.328341
   8 C :   -1.417953
   9 H :    0.144754
  10 H :    0.611322
  11 H :    0.156842
  12 H :    0.128384
  13 H :    0.136170
  14 H :    0.103647
  15 F :   -0.187391
  16 O :   -0.475743
  17 H :    0.200724
  18 H :    0.147971
Sum of atomic charges:    0.0000000

LOEWDIN ATOMIC CHARGES
----------------------
   0 C :   -0.140633
   1 C :   -0.176014
   2 C :   -0.092691
   3 H :    0.112935
   4 H :    0.123873
   5 C :   -0.449090
   6 C :   -0.473984
   7 N :    0.093199
   8 C :    0.028348
   9 H :    0.037260
  10 H :   -0.038336
  11 H :    0.099077
  12 H :    0.105863
  13 H :    0.111559
  14 H :    0.119966
  15 F :    0.261356
  16 O :    0.046568
  17 H :    0.117772
  18 H :    0.112970

  Mayer bond orders larger than 0.100000
B(  0-C ,  1-C ) :   0.9052 B(  0-C ,  6-C ) :   0.8170 B(  0-C ,  7-N ) :   0.1178
B(  0-C , 17-H ) :   0.8760 B(  0-C , 18-H ) :   1.0397 B(  1-C ,  2-C ) :   0.9692
B(  1-C ,  5-C ) :   0.2100 B(  1-C ,  6-C ) :   0.1868 B(  1-C , 13-H ) :   0.9231
B(  1-C , 14-H ) :   0.9521 B(  2-C ,  3-H ) :   0.9807 B(  2-C ,  4-H ) :   0.8943
B(  2-C ,  5-C ) :   0.8705 B(  2-C ,  8-C ) :   0.1874 B(  5-C , 15-F ) :   1.0901
B(  5-C , 16-O ) :   1.7567 B(  6-C ,  7-N ) :   0.9411 B(  6-C ,  8-C ) :   1.1215
B(  6-C ,  9-H ) :  -0.1386 B(  7-N ,  8-C ) :   0.1049 B(  7-N , 11-H ) :   1.0313
B(  7-N , 12-H ) :   1.0441 B(  8-C ,  9-H ) :   1.1609 B(  8-C , 10-H ) :   0.7942
B( 10-H , 16-O ) :  -0.2497

Dispersion correction           -0.016295065
FINAL SINGLE POINT ENERGY      -464.082421404016

DIPOLE MOMENT
-------------
                                X             Y             Z
Electronic contribution:      4.30564      -5.13833       9.56851
Nuclear contribution   :     -5.64491       4.57111      -9.93176
                        -----------------------------------------
Total Dipole Moment    :     -1.33926      -0.56722      -0.36325
                        -----------------------------------------
Magnitude (a.u.)       :      1.49910
Magnitude (Debye)      :      3.81042

Rotational constants in cm-1:     0.109825     0.034347     0.029470
Rotational constants in MHz :  3292.465653  1029.684117   883.494260

                             ****ORCA TERMINATED NORMALLY****
TOTAL RUN TIME: 0 days 0 hours 2 minutes 3 seconds 539 msec
