                         Program Version 5.0.0 -  RELEASE  -
|  1> !PBE0 D3BJ RIJCOSX def2-TZVPD def2/J TightSCF xyzfile
|  2>
|  3> *xyzfile 0 1 D3.xyz
|  4>
|  5> %MaxCore 64000
|  6>
|  7> %pal nprocs 4
|  8> end
|  9>
| 10> %scf
| 11>   MaxIter 150
| 12> end
| 13>
| 14>
| 15>                          ****END OF INPUT****

CARTESIAN COORDINATES (ANGSTROEM)
---------------------------------
  C      3.343500    3.354571   -3.591998
  C      2.952633    1.863077   -3.574849
  C      4.129209    0.898394   -3.418950
  H      3.733687   -0.100605   -3.237633
  H      4.719095    0.862556   -4.339005
  C      5.017344    1.315212   -2.221305
  C      4.255868    3.703851   -4.726054
  C      3.734032    4.293783   -5.800770
  N      5.515039    3.407255   -4.637185
  H      6.149187    3.601203   -5.399053
  H      5.813584    2.899504   -3.808785
  H      2.741380    4.513109   -5.824701
  H      4.287548    4.521260   -6.614341
  H      2.278938    1.735250   -2.725496
  H      2.377466    1.625787   -4.475869
  O      4.737055    0.854112   -1.122825
  F      5.928146    2.168108   -2.491365
  H      3.861246    3.597252   -2.662979
  H      2.446493    3.973461   -3.656556

 Total Charge           Charge          ....    0
 Multiplicity           Mult            ....    1
 Number of Electrons    NEL             ....   70
 Basis Dimension        Dim             ....  429

ORBITAL ENERGIES
----------------

  NO   OCC          E(Eh)            E(eV)
   0   2.0000     -24.866992      -676.6653
   1   2.0000     -19.234825      -523.4062
   2   2.0000     -14.377109      -391.2210
   3   2.0000     -10.414973      -283.4058
   4   2.0000     -10.258255      -279.1413
   5   2.0000     -10.244904      -278.7780
   6   2.0000     -10.244412      -278.7646
   7   2.0000     -10.232711      -278.4462
   8   2.0000     -10.154576      -276.3201
   9   2.0000      -1.375446       -37.4278
  10   2.0000      -1.100260       -29.9396
  11   2.0000      -0.965953       -26.2849
  12   2.0000      -0.847934       -23.0734
  13   2.0000      -0.780794       -21.2465
  14   2.0000      -0.740446       -20.1486
  15   2.0000      -0.701673       -19.0935
  16   2.0000      -0.658944       -17.9308
  17   2.0000      -0.606424       -16.5016
  18   2.0000      -0.589451       -16.0398
  19   2.0000      -0.571715       -15.5572
  20   2.0000      -0.543755       -14.7963
  21   2.0000      -0.525758       -14.3066
  22   2.0000      -0.501626       -13.6499
  23   2.0000      -0.484132       -13.1739
  24   2.0000      -0.463043       -12.6001
  25   2.0000      -0.441013       -12.0006
  26   2.0000      -0.416510       -11.3338
  27   2.0000      -0.409274       -11.1369
  28   2.0000      -0.399857       -10.8807
  29   2.0000      -0.392986       -10.6937
  30   2.0000      -0.373380       -10.1602
  31   2.0000      -0.350067        -9.5258
  32   2.0000      -0.347199        -9.4478
  33   2.0000      -0.323225        -8.7954
  34   2.0000      -0.200059        -5.4439
  35   0.0000      -0.037377        -1.0171
  36   0.0000       0.005246         0.1428
  37   0.0000       0.022925         0.6238
  38   0.0000       0.030083         0.8186
  39   0.0000       0.031031         0.8444

MULLIKEN ATOMIC CHARGES
-----------------------
   0 C :   -0.281429
   1 C :   -0.262108
   2 C :   -0.076394
   3 H :    0.083998
   4 H :    0.248323
   5 C :    0.364397
   6 C :    0.644967
   7 C :   -1.230914
   8 N :   -0.263292
   9 H :    0.122487
  10 H :    0.272999
  11 H :    0.219726
  12 H :    0.211323
  13 H :    0.156885
  14 H :    0.145390
  15 O :   -0.431840
  16 F :   -0.259803
  17 H :    0.220731
  18 H :    0.114554
Sum of atomic charges:    0.0000000

LOEWDIN ATOMIC CHARGES
----------------------
   0 C :   -0.141219
   1 C :   -0.173251
   2 C :   -0.098370
   3 H :    0.121721
   4 H :    0.117451
   5 C :   -0.468940
   6 C :   -0.491072
   7 C :    0.025769
   8 N :    0.121863
   9 H :    0.125932
  10 H :    0.051810
  11 H :    0.018895
  12 H :    0.015653
  13 H :    0.116743
  14 H :    0.122746
  15 O :    0.134799
  16 F :    0.161770
  17 H :    0.116917
  18 H :    0.120780

  Mayer bond orders larger than 0.100000
B(  0-C ,  1-C ) :   0.8862 B(  0-C ,  5-C ) :   0.1027 B(  0-C ,  6-C ) :   0.8665
B(  0-C , 17-H ) :   0.8891 B(  0-C , 18-H ) :   0.9946 B(  1-C ,  2-C ) :   0.9691
B(  1-C ,  5-C ) :   0.2065 B(  1-C ,  6-C ) :   0.1919 B(  1-C , 13-H ) :   0.9313
B(  1-C , 14-H ) :   0.9409 B(  2-C ,  3-H ) :   0.9857 B(  2-C ,  4-H ) :   0.9229
B(  2-C ,  5-C ) :   0.8502 B(  2-C ,  8-N ) :   0.2038 B(  5-C , 15-O ) :   1.8669
B(  5-C , 16-F ) :   0.9481 B(  6-C ,  7-C ) :   1.2426 B(  6-C ,  8-N ) :   1.1067
B(  7-C , 11-H ) :   1.0083 B(  7-C , 12-H ) :   1.0299 B(  8-N ,  9-H ) :   1.0063
B(  8-N , 10-H ) :   0.9020

Dispersion correction           -0.016062711
FINAL SINGLE POINT ENERGY      -464.112314241070

DIPOLE MOMENT
-------------
                                X             Y             Z
Electronic contribution:      7.45010      -3.58418       8.05155
Nuclear contribution   :     -7.21688       3.18902      -8.52197
                        -----------------------------------------
Total Dipole Moment    :      0.23322      -0.39516      -0.47043
                        -----------------------------------------
Magnitude (a.u.)       :      0.65715
Magnitude (Debye)      :      1.67034

Rotational constants in cm-1:     0.103917     0.036987     0.030872
Rotational constants in MHz :  3115.342573  1108.839114   925.506342

                             ****ORCA TERMINATED NORMALLY****
TOTAL RUN TIME: 0 days 0 hours 1 minutes 55 seconds 279 msec
