                         Program Version 5.0.0 -  RELEASE  -
|  1> !PBE0 D3BJ RIJCOSX def2-TZVPD def2/J TightSCF xyzfile
|  2>
|  3> *xyzfile 0 1 D4.xyz
|  4>
|  5> %MaxCore 64000
|  6>
|  7> %pal nprocs 4
|  8> end
|  9>
| 10> %scf
| 11>   MaxIter 150
| 12> end
| 13>
| 14>
| 15>                          ****END OF INPUT****

CARTESIAN COORDINATES (ANGSTROEM)
---------------------------------
  C      3.343500    3.354571   -3.591998
  C      2.952633    1.863077   -3.574849
  C      4.129209    0.898394   -3.418950
  H      3.733687   -0.100605   -3.237633
  H      4.719095    0.862556   -4.339005
  C      5.017344    1.315212   -2.221305
  C      4.255868    3.703851   -4.726054
  N      3.734032    4.293783   -5.800770
  C      5.515039    3.407255   -4.637185
  H      6.149187    3.601203   -5.399053
  H      5.813584    2.899504   -3.808785
  H      2.741380    4.513109   -5.824701
  H      4.287548    4.521260   -6.614341
  H      2.278938    1.735250   -2.725496
  H      2.377466    1.625787   -4.475869
  O      4.737055    0.854112   -1.122825
  F      5.928146    2.168108   -2.491365
  H      3.861246    3.597252   -2.662979
  H      2.446493    3.973461   -3.656556

 Total Charge           Charge          ....    0
 Multiplicity           Mult            ....    1
 Number of Electrons    NEL             ....   70
 Basis Dimension        Dim             ....  429

ORBITAL ENERGIES
----------------

  NO   OCC          E(Eh)            E(eV)
   0   2.0000     -24.838156      -675.8806
   1   2.0000     -19.219368      -522.9856
   2   2.0000     -14.387357      -391.4999
   3   2.0000     -10.398986      -282.9708
   4   2.0000     -10.246617      -278.8246
   5   2.0000     -10.242129      -278.7025
   6   2.0000     -10.241825      -278.6942
   7   2.0000     -10.232517      -278.4409
   8   2.0000     -10.141509      -275.9645
   9   2.0000      -1.348615       -36.6977
  10   2.0000      -1.085236       -29.5308
  11   2.0000      -0.954663       -25.9777
  12   2.0000      -0.844534       -22.9809
  13   2.0000      -0.778430       -21.1822
  14   2.0000      -0.732840       -19.9416
  15   2.0000      -0.696363       -18.9490
  16   2.0000      -0.639413       -17.3993
  17   2.0000      -0.603087       -16.4108
  18   2.0000      -0.562768       -15.3137
  19   2.0000      -0.553497       -15.0614
  20   2.0000      -0.541133       -14.7250
  21   2.0000      -0.524252       -14.2656
  22   2.0000      -0.498483       -13.5644
  23   2.0000      -0.478400       -13.0179
  24   2.0000      -0.461740       -12.5646
  25   2.0000      -0.435346       -11.8464
  26   2.0000      -0.411775       -11.2050
  27   2.0000      -0.398258       -10.8372
  28   2.0000      -0.389562       -10.6005
  29   2.0000      -0.380778       -10.3615
  30   2.0000      -0.365162        -9.9366
  31   2.0000      -0.346299        -9.4233
  32   2.0000      -0.341886        -9.3032
  33   2.0000      -0.310135        -8.4392
  34   2.0000      -0.205787        -5.5997
  35   0.0000      -0.023216        -0.6317
  36   0.0000       0.004761         0.1296
  37   0.0000       0.025134         0.6839
  38   0.0000       0.025892         0.7045
  39   0.0000       0.034556         0.9403

MULLIKEN ATOMIC CHARGES
-----------------------
   0 C :   -0.360855
   1 C :   -0.236268
   2 C :   -0.118510
   3 H :    0.076197
   4 H :    0.327652
   5 C :    0.337185
   6 C :    0.726034
   7 N :   -0.320192
   8 C :   -1.547390
   9 H :    0.145880
  10 H :    0.713360
  11 H :    0.161222
  12 H :    0.130263
  13 H :    0.154405
  14 H :    0.106196
  15 O :   -0.449434
  16 F :   -0.185643
  17 H :    0.197320
  18 H :    0.142577
Sum of atomic charges:   -0.0000000

LOEWDIN ATOMIC CHARGES
----------------------
   0 C :   -0.137862
   1 C :   -0.174596
   2 C :   -0.098382
   3 H :    0.120175
   4 H :    0.116580
   5 C :   -0.471081
   6 C :   -0.471645
   7 N :    0.101563
   8 C :    0.028900
   9 H :    0.038366
  10 H :   -0.009881
  11 H :    0.103283
  12 H :    0.108386
  13 H :    0.116208
  14 H :    0.119327
  15 O :    0.125460
  16 F :    0.150076
  17 H :    0.120239
  18 H :    0.114883

  Mayer bond orders larger than 0.100000
B(  0-C ,  1-C ) :   0.9014 B(  0-C ,  5-C ) :   0.1034 B(  0-C ,  6-C ) :   0.7904
B(  0-C ,  7-N ) :   0.1190 B(  0-C , 17-H ) :   0.8907 B(  0-C , 18-H ) :   1.0368
B(  1-C ,  2-C ) :   0.9551 B(  1-C ,  5-C ) :   0.2188 B(  1-C ,  6-C ) :   0.1758
B(  1-C , 13-H ) :   0.9289 B(  1-C , 14-H ) :   0.9488 B(  2-C ,  3-H ) :   0.9864
B(  2-C ,  4-H ) :   0.8800 B(  2-C ,  5-C ) :   0.8408 B(  2-C ,  8-C ) :   0.2086
B(  5-C , 15-O ) :   1.8573 B(  5-C , 16-F ) :   1.0065 B(  6-C ,  7-N ) :   0.9508
B(  6-C ,  8-C ) :   1.1273 B(  6-C ,  9-H ) :  -0.1215 B(  7-N , 11-H ) :   1.0241
B(  7-N , 12-H ) :   1.0427 B(  8-C ,  9-H ) :   1.1323 B(  8-C , 10-H ) :   0.6220
B( 10-H , 16-F ) :  -0.2622

Dispersion correction           -0.016149521
FINAL SINGLE POINT ENERGY      -464.099582887995

DIPOLE MOMENT
-------------
                                X             Y             Z
Electronic contribution:      6.18537      -2.81669       7.10491
Nuclear contribution   :     -6.99695       3.07955      -8.37829
                        -----------------------------------------
Total Dipole Moment    :     -0.81158       0.26286      -1.27338
                        -----------------------------------------
Magnitude (a.u.)       :      1.53273
Magnitude (Debye)      :      3.89588

Rotational constants in cm-1:     0.106302     0.035771     0.030198
Rotational constants in MHz :  3186.860872  1072.397550   905.318354

                             ****ORCA TERMINATED NORMALLY****
TOTAL RUN TIME: 0 days 0 hours 1 minutes 55 seconds 838 msec
