                         Program Version 5.0.0 -  RELEASE  -
|  1> !LC-PBE RIJCOSX def2-TZVPD def2/J TightSCF
|  2> *xyz -1 1
|  3> C          4.93020       -7.37532       -2.64962
|  4> C          3.84189       -6.95161       -3.63283
|  5> H          3.45814       -5.95442       -3.40712
|  6> H          2.98848       -7.64361       -3.56708
|  7> S          4.31812       -6.91593       -5.36869
|  8> O          5.40615       -5.89948       -5.51297
|  9> O          3.11191       -6.44508       -6.04379
| 10> O          4.76340       -8.23942       -5.69863
| 11> H          5.27901       -8.35440       -2.90385
| 12> H          4.53000       -7.38577       -1.65734
| 13> H          5.74437       -6.68276       -2.69856
| 14> *
| 15>
| 16> %MaxCore 64000
| 17>
| 18> %pal nprocs 4
| 19> end
| 20>
| 21> %scf
| 22>   MaxIter 150
| 23> end
| 24>
| 25>
| 26>                          ****END OF INPUT****

CARTESIAN COORDINATES (ANGSTROEM)
---------------------------------
  C      4.930200   -7.375320   -2.649620
  C      3.841890   -6.951610   -3.632830
  H      3.458140   -5.954420   -3.407120
  H      2.988480   -7.643610   -3.567080
  S      4.318120   -6.915930   -5.368690
  O      5.406150   -5.899480   -5.512970
  O      3.111910   -6.445080   -6.043790
  O      4.763400   -8.239420   -5.698630
  H      5.279010   -8.354400   -2.903850
  H      4.530000   -7.385770   -1.657340
  H      5.744370   -6.682760   -2.698560

 Total Charge           Charge          ....   -1
 Multiplicity           Mult            ....    1
 Number of Electrons    NEL             ....   58
 Basis Dimension        Dim             ....  285

ORBITAL ENERGIES
----------------

  NO   OCC          E(Eh)            E(eV)
   0   2.0000     -88.273106     -2402.0333
   1   2.0000     -18.763121      -510.5705
   2   2.0000     -18.753663      -510.3131
   3   2.0000     -18.745651      -510.0951
   4   2.0000      -9.983883      -271.6753
   5   2.0000      -9.972347      -271.3614
   6   2.0000      -7.883645      -214.5249
   7   2.0000      -5.900554      -160.5622
   8   2.0000      -5.899149      -160.5240
   9   2.0000      -5.898720      -160.5123
  10   2.0000      -1.098395       -29.8888
  11   2.0000      -0.956785       -26.0355
  12   2.0000      -0.927270       -25.2323
  13   2.0000      -0.814469       -22.1628
  14   2.0000      -0.675374       -18.3779
  15   2.0000      -0.536886       -14.6094
  16   2.0000      -0.467333       -12.7168
  17   2.0000      -0.465217       -12.6592
  18   2.0000      -0.422522       -11.4974
  19   2.0000      -0.408621       -11.1191
  20   2.0000      -0.397734       -10.8229
  21   2.0000      -0.368343       -10.0231
  22   2.0000      -0.346413        -9.4264
  23   2.0000      -0.293938        -7.9985
  24   2.0000      -0.291215        -7.9244
  25   2.0000      -0.253617        -6.9013
  26   2.0000      -0.239058        -6.5051
  27   2.0000      -0.234916        -6.3924
  28   2.0000      -0.196625        -5.3505
  29   0.0000       0.170677         4.6444
  30   0.0000       0.181571         4.9408
  31   0.0000       0.182293         4.9605
  32   0.0000       0.190581         5.1860
  33   0.0000       0.215509         5.8643

MULLIKEN ATOMIC CHARGES
-----------------------
   0 C :   -1.160446
   1 C :   -0.618524
   2 H :    0.365291
   3 H :    0.366992
   4 S :    1.067243
   5 O :   -0.719847
   6 O :   -0.685797
   7 O :   -0.661947
   8 H :    0.341222
   9 H :    0.367050
  10 H :    0.338764
Sum of atomic charges:   -1.0000000

LOEWDIN ATOMIC CHARGES
----------------------
   0 C :   -0.167159
   1 C :   -0.348791
   2 H :    0.094136
   3 H :    0.098079
   4 S :    0.332022
   5 O :   -0.423824
   6 O :   -0.404766
   7 O :   -0.375992
   8 H :    0.068253
   9 H :    0.058671
  10 H :    0.069371

  Mayer bond orders larger than 0.100000
B(  0-C ,  1-C ) :   0.6098 B(  0-C ,  8-H ) :   0.9476 B(  0-C ,  9-H ) :   0.9089
B(  0-C , 10-H ) :   0.9541 B(  1-C ,  2-H ) :   0.9098 B(  1-C ,  3-H ) :   0.9030
B(  1-C ,  4-S ) :   0.9271 B(  1-C ,  5-O ) :   0.1026 B(  1-C ,  6-O ) :   0.1184
B(  1-C ,  7-O ) :   0.1038 B(  4-S ,  5-O ) :   1.4570 B(  4-S ,  6-O ) :   1.4940
B(  4-S ,  7-O ) :   1.5204

FINAL SINGLE POINT ENERGY      -702.105697137275

DIPOLE MOMENT
-------------
                                X             Y             Z
Electronic contribution:     -0.38458       0.79060      -7.70977
Nuclear contribution   :      0.07504      -1.14369       9.75001
                        -----------------------------------------
Total Dipole Moment    :     -0.30954      -0.35309       2.04024
                        -----------------------------------------
Magnitude (a.u.)       :      2.09358
Magnitude (Debye)      :      5.32145

Rotational constants in cm-1:     0.160553     0.082191     0.080550
Rotational constants in MHz :  4813.250478  2464.013016  2414.833054

                             ****ORCA TERMINATED NORMALLY****
TOTAL RUN TIME: 0 days 0 hours 1 minutes 4 seconds 958 msec
