                         Program Version 5.0.0 -  RELEASE  -
|  1> !LC-PBE RIJCOSX def2-TZVPD def2/J TightSCF
|  2> *xyz 1 1
|  3> C          5.55821       -1.99291       -6.21505
|  4> C          4.18188       -2.58967       -6.29891
|  5> N          3.14587       -1.76843       -6.48675
|  6> N          4.01910       -3.86431       -6.22743
|  7> H          4.76849       -4.59115       -5.99077
|  8> H          3.12241       -4.33339       -6.31462
|  9> H          3.28164       -0.77779       -6.56655
| 10> H          2.21255       -2.13419       -6.56225
| 11> C          6.41926       -2.54294       -5.07763
| 12> H          6.03683       -2.19819       -7.17685
| 13> H          5.46761       -0.90737       -6.12797
| 14> H          6.50056       -3.60553       -5.17358
| 15> H          5.96544       -2.30329       -4.13874
| 16> H          7.39438       -2.10494       -5.12457
| 17> *
| 18>
| 19> %MaxCore 64000
| 20>
| 21> %pal nprocs 4
| 22> end
| 23>
| 24> %scf
| 25>   MaxIter 150
| 26> end
| 27>
| 28>
| 29>                          ****END OF INPUT****

CARTESIAN COORDINATES (ANGSTROEM)
---------------------------------
  C      5.558210   -1.992910   -6.215050
  C      4.181880   -2.589670   -6.298910
  N      3.145870   -1.768430   -6.486750
  N      4.019100   -3.864310   -6.227430
  H      4.768490   -4.591150   -5.990770
  H      3.122410   -4.333390   -6.314620
  H      3.281640   -0.777790   -6.566550
  H      2.212550   -2.134190   -6.562250
  C      6.419260   -2.542940   -5.077630
  H      6.036830   -2.198190   -7.176850
  H      5.467610   -0.907370   -6.127970
  H      6.500560   -3.605530   -5.173580
  H      5.965440   -2.303290   -4.138740
  H      7.394380   -2.104940   -5.124570

 Total Charge           Charge          ....    1
 Multiplicity           Mult            ....    1
 Number of Electrons    NEL             ....   40
 Basis Dimension        Dim             ....  266

ORBITAL ENERGIES
----------------

  NO   OCC          E(Eh)            E(eV)
   0   2.0000     -14.465946      -393.6384
   1   2.0000     -14.453850      -393.3093
   2   2.0000     -10.448252      -284.3114
   3   2.0000     -10.314432      -280.6700
   4   2.0000     -10.267795      -279.4009
   5   2.0000      -1.382003       -37.6062
   6   2.0000      -1.274568       -34.6828
   7   2.0000      -1.146523       -31.1985
   8   2.0000      -1.028944       -27.9990
   9   2.0000      -0.973998       -26.5038
  10   2.0000      -0.922442       -25.1009
  11   2.0000      -0.896429       -24.3931
  12   2.0000      -0.836651       -22.7664
  13   2.0000      -0.805519       -21.9193
  14   2.0000      -0.762567       -20.7505
  15   2.0000      -0.746375       -20.3099
  16   2.0000      -0.683357       -18.5951
  17   2.0000      -0.671728       -18.2786
  18   2.0000      -0.653765       -17.7899
  19   2.0000      -0.622350       -16.9350
  20   0.0000      -0.115906        -3.1540
  21   0.0000      -0.092647        -2.5211
  22   0.0000      -0.060188        -1.6378
  23   0.0000      -0.050886        -1.3847
  24   0.0000      -0.027992        -0.7617

MULLIKEN ATOMIC CHARGES
-----------------------
   0 C :   -0.614338
   1 C :    0.808114
   2 N :   -0.397443
   3 N :   -0.366981
   4 H :    0.268384
   5 H :    0.244081
   6 H :    0.256576
   7 H :    0.217323
   8 C :   -1.338908
   9 H :    0.393637
  10 H :    0.351783
  11 H :    0.431175
  12 H :    0.377795
  13 H :    0.368803
Sum of atomic charges:    1.0000000

LOEWDIN ATOMIC CHARGES
----------------------
   0 C :   -0.162505
   1 C :   -0.363909
   2 N :    0.214428
   3 N :    0.210579
   4 H :    0.194422
   5 H :    0.155763
   6 H :    0.142420
   7 H :    0.144135
   8 C :   -0.084176
   9 H :    0.150788
  10 H :    0.134459
  11 H :    0.072917
  12 H :    0.095206
  13 H :    0.095472

  Mayer bond orders larger than 0.100000
B(  0-C ,  1-C ) :   0.7009 B(  0-C ,  8-C ) :   0.6435 B(  0-C ,  9-H ) :   0.8578
B(  0-C , 10-H ) :   0.9004 B(  1-C ,  2-N ) :   1.0620 B(  1-C ,  3-N ) :   1.1236
B(  1-C ,  8-C ) :  -0.1096 B(  2-N ,  6-H ) :   0.9512 B(  2-N ,  7-H ) :   1.0450
B(  3-N ,  4-H ) :   0.9298 B(  3-N ,  5-H ) :   1.0027 B(  8-C , 11-H ) :   0.8541
B(  8-C , 12-H ) :   0.9212 B(  8-C , 13-H ) :   0.9511

FINAL SINGLE POINT ENERGY      -228.364871074210

DIPOLE MOMENT
-------------
                                X             Y             Z
Electronic contribution:     -3.76452      -0.48317      -1.56650
Nuclear contribution   :      2.76041       0.12669       1.26265
                        -----------------------------------------
Total Dipole Moment    :     -1.00411      -0.35647      -0.30384
                        -----------------------------------------
Magnitude (a.u.)       :      1.10799
Magnitude (Debye)      :      2.81628

Rotational constants in cm-1:     0.280918     0.124524     0.094121
Rotational constants in MHz :  8421.697738  3733.133254  2821.684112

                             ****ORCA TERMINATED NORMALLY****
TOTAL RUN TIME: 0 days 0 hours 0 minutes 47 seconds 389 msec
