                         Program Version 5.0.0 -  RELEASE  -
|  1> !LC-PBE RIJCOSX def2-TZVPD def2/J TightSCF xyzfile
|  2>
|  3> *xyzfile 0 1 B.xyz
|  4>
|  5> %MaxCore 64000
|  6>
|  7> %pal nprocs 4
|  8> end
|  9>
| 10> %scf
| 11>   MaxIter 150
| 12> end
| 13>
| 14>
| 15>                          ****END OF INPUT****

CARTESIAN COORDINATES (ANGSTROEM)
---------------------------------
  C      5.558206   -1.992914   -6.215054
  C      4.930199   -7.375319   -2.649623
  C      3.841892   -6.951611   -3.632829
  H      3.458144   -5.954425   -3.407121
  H      2.988484   -7.643606   -3.567078
  S      4.318115   -6.915930   -5.368692
  C      4.181880   -2.589671   -6.298911
  N      3.145873   -1.768431   -6.486753
  N      4.019102   -3.864307   -6.227427
  H      4.768490   -4.591153   -5.990773
  H      3.122405   -4.333392   -6.314620
  H      3.281635   -0.777786   -6.566549
  H      2.212549   -2.134193   -6.562246
  O      5.406154   -5.899480   -5.512972
  O      3.111910   -6.445079   -6.043792
  C      6.419260   -2.542944   -5.077630
  C      5.872267   -5.002756   -2.427819
  C      6.173994   -6.485522   -2.606315
  H      6.734852   -6.613767   -3.534015
  H      6.821463   -6.831018   -1.793617
  H      4.469612   -7.406168   -1.655876
  H      5.230134   -8.398678   -2.885906
  C      5.896512   -2.169314   -3.694552
  H      7.428880   -2.143665   -5.208078
  H      6.505894   -3.627541   -5.175502
  C      6.807804   -2.623428   -2.551019
  H      4.894708   -2.589732   -3.557501
  H      5.778823   -1.081255   -3.635790
  C      7.111544   -4.122463   -2.520363
  H      7.751615   -2.071393   -2.614406
  H      6.345837   -2.326401   -1.604086
  H      5.362882   -4.828697   -1.471335
  H      5.174429   -4.702577   -3.211298
  H      7.778329   -4.329347   -1.677651
  H      7.673189   -4.402845   -3.417586
  O      4.763396   -8.239424   -5.698629
  H      6.036826   -2.198189   -7.176852
  H      5.467610   -0.907371   -6.127968

 Total Charge           Charge          ....    0
 Multiplicity           Mult            ....    1
 Number of Electrons    NEL             ....  136
 Basis Dimension        Dim             ....  808

ORBITAL ENERGIES
----------------

  NO   OCC          E(Eh)            E(eV)
   0   2.0000     -88.427738     -2406.2411
   1   2.0000     -18.923522      -514.9352
   2   2.0000     -18.912273      -514.6291
   3   2.0000     -18.905217      -514.4371
   4   2.0000     -14.304890      -389.2558
   5   2.0000     -14.267362      -388.2347
   6   2.0000     -10.283802      -279.8365
   7   2.0000     -10.175144      -276.8797
   8   2.0000     -10.141259      -275.9577
   9   2.0000     -10.129026      -275.6248
  10   2.0000     -10.117382      -275.3080
  11   2.0000     -10.112422      -275.1730
  12   2.0000     -10.104793      -274.9654
  13   2.0000     -10.098754      -274.8011
  14   2.0000     -10.096351      -274.7357
  15   2.0000     -10.089163      -274.5401
  16   2.0000      -8.038972      -218.7515
  17   2.0000      -6.055683      -164.7835
  18   2.0000      -6.054917      -164.7627
  19   2.0000      -6.053595      -164.7267
  20   2.0000      -1.258334       -34.2410
  21   2.0000      -1.218215       -33.1493
  22   2.0000      -1.116932       -30.3933
  23   2.0000      -1.105744       -30.0888
  24   2.0000      -1.100031       -29.9334
  25   2.0000      -1.024441       -27.8764
  26   2.0000      -0.988197       -26.8902
  27   2.0000      -0.962742       -26.1975
  28   2.0000      -0.917867       -24.9764
  29   2.0000      -0.878013       -23.8919
  30   2.0000      -0.840772       -22.8786
  31   2.0000      -0.818344       -22.2683
  32   2.0000      -0.790273       -21.5044
  33   2.0000      -0.759486       -20.6667
  34   2.0000      -0.751000       -20.4358
  35   2.0000      -0.734662       -19.9912
  36   2.0000      -0.718334       -19.5469
  37   2.0000      -0.690890       -18.8001
  38   2.0000      -0.663842       -18.0641
  39   2.0000      -0.655237       -17.8299
  40   2.0000      -0.637775       -17.3547
  41   2.0000      -0.621001       -16.8983
  42   2.0000      -0.615763       -16.7558
  43   2.0000      -0.599527       -16.3140
  44   2.0000      -0.591659       -16.0998
  45   2.0000      -0.583835       -15.8869
  46   2.0000      -0.574546       -15.6342
  47   2.0000      -0.568983       -15.4828
  48   2.0000      -0.554480       -15.0882
  49   2.0000      -0.537153       -14.6167
  50   2.0000      -0.534175       -14.5357
  51   2.0000      -0.530713       -14.4414
  52   2.0000      -0.508041       -13.8245
  53   2.0000      -0.500212       -13.6115
  54   2.0000      -0.494696       -13.4614
  55   2.0000      -0.472948       -12.8696
  56   2.0000      -0.466195       -12.6858
  57   2.0000      -0.460449       -12.5294
  58   2.0000      -0.459119       -12.4933
  59   2.0000      -0.448932       -12.2161
  60   2.0000      -0.448570       -12.2062
  61   2.0000      -0.439900       -11.9703
  62   2.0000      -0.430831       -11.7235
  63   2.0000      -0.426677       -11.6105
  64   2.0000      -0.401909       -10.9365
  65   2.0000      -0.400038       -10.8856
  66   2.0000      -0.381553       -10.3826
  67   2.0000      -0.364329        -9.9139
  68   0.0000       0.027576         0.7504
  69   0.0000       0.036204         0.9852
  70   0.0000       0.055460         1.5092
  71   0.0000       0.065204         1.7743
  72   0.0000       0.070764         1.9256

MULLIKEN ATOMIC CHARGES
-----------------------
   0 C :   -0.809502
   1 C :   -0.795899
   2 C :   -0.833371
   3 H :    0.413173
   4 H :    0.449105
   5 S :    1.128297
   6 C :    0.941029
   7 N :   -0.495193
   8 N :   -0.182972
   9 H :    0.196232
  10 H :    0.232736
  11 H :    0.232375
  12 H :    0.214489
  13 O :   -0.828058
  14 O :   -0.797154
  15 C :   -0.718653
  16 C :   -0.000509
  17 C :   -0.968836
  18 H :    0.400511
  19 H :    0.423388
  20 H :    0.368211
  21 H :    0.364833
  22 C :   -0.636585
  23 H :    0.350744
  24 H :    0.336578
  25 C :   -0.906322
  26 H :    0.359619
  27 H :    0.337931
  28 C :   -0.855625
  29 H :    0.387987
  30 H :    0.373407
  31 H :    0.335204
  32 H :    0.039155
  33 H :    0.403714
  34 H :    0.376725
  35 O :   -0.627047
  36 H :    0.393211
  37 H :    0.397072
Sum of atomic charges:   -0.0000000

LOEWDIN ATOMIC CHARGES
----------------------
   0 C :   -0.123408
   1 C :   -0.242516
   2 C :   -0.266900
   3 H :    0.099525
   4 H :    0.116892
   5 S :    0.430543
   6 C :   -0.371917
   7 N :    0.178913
   8 N :    0.222316
   9 H :    0.057253
  10 H :    0.121584
  11 H :    0.123863
  12 H :    0.132612
  13 O :   -0.377027
  14 O :   -0.367250
  15 C :   -0.208049
  16 C :   -0.242137
  17 C :   -0.234917
  18 H :    0.114734
  19 H :    0.124186
  20 H :    0.120264
  21 H :    0.120664
  22 C :   -0.231097
  23 H :    0.135203
  24 H :    0.107638
  25 C :   -0.226828
  26 H :    0.118013
  27 H :    0.122443
  28 C :   -0.230310
  29 H :    0.119476
  30 H :    0.120558
  31 H :    0.135952
  32 H :    0.086675
  33 H :    0.124043
  34 H :    0.121721
  35 O :   -0.306320
  36 H :    0.146475
  37 H :    0.127132

  Mayer bond orders larger than 0.100000
B(  0-C ,  6-C ) :   0.4428 B(  0-C , 15-C ) :   0.7088 B(  0-C , 36-H ) :   0.9077
B(  0-C , 37-H ) :   0.9486 B(  1-C ,  2-C ) :   0.7634 B(  1-C , 17-C ) :   0.8167
B(  1-C , 20-H ) :   0.9388 B(  1-C , 21-H ) :   0.9155 B(  2-C ,  3-H ) :   0.8414
B(  2-C ,  4-H ) :   0.8379 B(  2-C ,  5-S ) :   0.8935 B(  2-C , 14-O ) :   0.1100
B(  2-C , 35-O ) :   0.1249 B(  5-S , 13-O ) :   1.4466 B(  5-S , 14-O ) :   1.3182
B(  5-S , 35-O ) :   1.4400 B(  6-C ,  7-N ) :   0.8094 B(  6-C ,  8-N ) :   1.0763
B(  6-C ,  9-H ) :  -0.1483 B(  6-C , 10-H ) :  -0.1361 B(  6-C , 37-H ) :  -0.1582
B(  7-N ,  8-N ) :   0.1196 B(  7-N , 11-H ) :   0.9925 B(  7-N , 12-H ) :   1.0501
B(  8-N ,  9-H ) :   0.8723 B(  8-N , 10-H ) :   1.0577 B(  8-N , 13-O ) :  -0.1629
B(  9-H , 14-O ) :  -0.1226 B( 13-O , 16-C ) :  -0.1115 B( 13-O , 17-C ) :   0.1238
B( 15-C , 22-C ) :   0.4213 B( 15-C , 23-H ) :   0.9054 B( 15-C , 24-H ) :   1.0124
B( 16-C , 17-C ) :   0.4765 B( 16-C , 28-C ) :   0.4311 B( 16-C , 31-H ) :   0.8305
B( 16-C , 32-H ) :   1.0508 B( 17-C , 18-H ) :   0.9010 B( 17-C , 19-H ) :   0.8178
B( 17-C , 28-C ) :   0.2765 B( 22-C , 25-C ) :   0.8645 B( 22-C , 26-H ) :   0.9726
B( 22-C , 27-H ) :   0.9048 B( 23-H , 24-H ) :   0.1136 B( 25-C , 28-C ) :   0.7813
B( 25-C , 29-H ) :   0.9298 B( 25-C , 30-H ) :   0.9310 B( 28-C , 33-H ) :   0.8794
B( 28-C , 34-H ) :   0.9380 B( 31-H , 32-H ) :   0.2313

FINAL SINGLE POINT ENERGY     -1125.388268510237

DIPOLE MOMENT
-------------
                                X             Y             Z
Electronic contribution:     -9.19889     -11.37006     -14.13311
Nuclear contribution   :      8.53517      16.50844      14.36520
                        -----------------------------------------
Total Dipole Moment    :     -0.66372       5.13838       0.23208
                        -----------------------------------------
Magnitude (a.u.)       :      5.18627
Magnitude (Debye)      :     13.18244

Rotational constants in cm-1:     0.017951     0.012436     0.008288
Rotational constants in MHz :   538.163255   372.824050   248.467077

                             ****ORCA TERMINATED NORMALLY****
TOTAL RUN TIME: 0 days 0 hours 11 minutes 16 seconds 928 msec
