                         Program Version 5.0.0 -  RELEASE  -
|  1> !LC-PBE RIJCOSX def2-TZVPD def2/J TightSCF
|  2> *xyz 0 1
|  3> C          4.93020       -7.37532       -2.64962
|  4> C          3.84189       -6.95161       -3.63283
|  5> H          3.45814       -5.95442       -3.40712
|  6> H          2.98848       -7.64361       -3.56708
|  7> S          4.31812       -6.91593       -5.36869
|  8> F          5.40615       -5.89948       -5.51297
|  9> O          3.11191       -6.44508       -6.04379
| 10> O          4.76340       -8.23942       -5.69863
| 11> H          5.27901       -8.35440       -2.90385
| 12> H          4.53000       -7.38577       -1.65734
| 13> H          5.74437       -6.68276       -2.69856
| 14> *
| 15>
| 16> %MaxCore 64000
| 17>
| 18> %pal nprocs 4
| 19> end
| 20>
| 21> %scf
| 22>   MaxIter 150
| 23> end
| 24>
| 25>
| 26>                          ****END OF INPUT****

CARTESIAN COORDINATES (ANGSTROEM)
---------------------------------
  C      4.930200   -7.375320   -2.649620
  C      3.841890   -6.951610   -3.632830
  H      3.458140   -5.954420   -3.407120
  H      2.988480   -7.643610   -3.567080
  S      4.318120   -6.915930   -5.368690
  F      5.406150   -5.899480   -5.512970
  O      3.111910   -6.445080   -6.043790
  O      4.763400   -8.239420   -5.698630
  H      5.279010   -8.354400   -2.903850
  H      4.530000   -7.385770   -1.657340
  H      5.744370   -6.682760   -2.698560

 Total Charge           Charge          ....    0
 Multiplicity           Mult            ....    1
 Number of Electrons    NEL             ....   58
 Basis Dimension        Dim             ....  285

ORBITAL ENERGIES
----------------

  NO   OCC          E(Eh)            E(eV)
   0   2.0000     -88.534617     -2409.1494
   1   2.0000     -24.593258      -669.2166
   2   2.0000     -18.998716      -516.9814
   3   2.0000     -18.988828      -516.7123
   4   2.0000     -10.185002      -277.1480
   5   2.0000     -10.137120      -275.8451
   6   2.0000      -8.145651      -221.6544
   7   2.0000      -6.166184      -167.7904
   8   2.0000      -6.159292      -167.6028
   9   2.0000      -6.158328      -167.5766
  10   2.0000      -1.506958       -41.0064
  11   2.0000      -1.286392       -35.0045
  12   2.0000      -1.186609       -32.2893
  13   2.0000      -1.005564       -27.3628
  14   2.0000      -0.885429       -24.0938
  15   2.0000      -0.835296       -22.7296
  16   2.0000      -0.735494       -20.0138
  17   2.0000      -0.715892       -19.4804
  18   2.0000      -0.698618       -19.0104
  19   2.0000      -0.643434       -17.5087
  20   2.0000      -0.627078       -17.0636
  21   2.0000      -0.601734       -16.3740
  22   2.0000      -0.578442       -15.7402
  23   2.0000      -0.549996       -14.9661
  24   2.0000      -0.543235       -14.7822
  25   2.0000      -0.516971       -14.0675
  26   2.0000      -0.480589       -13.0775
  27   2.0000      -0.464858       -12.6494
  28   2.0000      -0.457919       -12.4606
  29   0.0000       0.048609         1.3227
  30   0.0000       0.059122         1.6088
  31   0.0000       0.065491         1.7821
  32   0.0000       0.067924         1.8483
  33   0.0000       0.096222         2.6183

MULLIKEN ATOMIC CHARGES
-----------------------
   0 C :   -1.202443
   1 C :   -0.608977
   2 H :    0.434303
   3 H :    0.410393
   4 S :    1.056427
   5 F :   -0.142662
   6 O :   -0.555194
   7 O :   -0.532494
   8 H :    0.381538
   9 H :    0.376451
  10 H :    0.382657
Sum of atomic charges:   -0.0000000

LOEWDIN ATOMIC CHARGES
----------------------
   0 C :   -0.134630
   1 C :   -0.296987
   2 H :    0.111373
   3 H :    0.125817
   4 S :    0.579585
   5 F :   -0.075348
   6 O :   -0.289767
   7 O :   -0.262378
   8 H :    0.081139
   9 H :    0.081839
  10 H :    0.079356

  Mayer bond orders larger than 0.100000
B(  0-C ,  1-C ) :   0.6109 B(  0-C ,  8-H ) :   0.9284 B(  0-C ,  9-H ) :   0.9226
B(  0-C , 10-H ) :   0.8905 B(  1-C ,  2-H ) :   0.8408 B(  1-C ,  3-H ) :   0.8526
B(  1-C ,  4-S ) :   0.9085 B(  4-S ,  5-F ) :   0.9708 B(  4-S ,  6-O ) :   1.6855
B(  4-S ,  7-O ) :   1.7171

FINAL SINGLE POINT ENERGY      -726.610972671645

DIPOLE MOMENT
-------------
                                X             Y             Z
Electronic contribution:      1.31380       2.64487      -8.69655
Nuclear contribution   :     -0.98922      -2.24849      10.35711
                        -----------------------------------------
Total Dipole Moment    :      0.32458       0.39637       1.66056
                        -----------------------------------------
Magnitude (a.u.)       :      1.73779
Magnitude (Debye)      :      4.41711

Rotational constants in cm-1:     0.151436     0.080885     0.078670
Rotational constants in MHz :  4539.936009  2424.868817  2358.476812

                             ****ORCA TERMINATED NORMALLY****
TOTAL RUN TIME: 0 days 0 hours 0 minutes 47 seconds 625 msec
