                         Program Version 5.0.0 -  RELEASE  -
|  1> !LC-PBE RIJCOSX def2-TZVPD def2/J TightSCF
|  2> *xyz 0 1
|  3> C          5.55821       -1.99291       -6.21505
|  4> C          4.18188       -2.58967       -6.29891
|  5> C          3.14587       -1.76843       -6.48675
|  6> N          4.01910       -3.86431       -6.22743
|  7> H          4.76849       -4.59115       -5.99077
|  8> H          3.12241       -4.33339       -6.31462
|  9> H          3.28164       -0.77779       -6.56655
| 10> H          2.21255       -2.13419       -6.56225
| 11> C          6.41926       -2.54294       -5.07763
| 12> H          6.03683       -2.19819       -7.17685
| 13> H          5.46761       -0.90737       -6.12797
| 14> H          6.50056       -3.60553       -5.17358
| 15> H          5.96544       -2.30329       -4.13874
| 16> H          7.39438       -2.10494       -5.12457
| 17> *
| 18>
| 19> %MaxCore 64000
| 20>
| 21> %pal nprocs 4
| 22> end
| 23>
| 24> %scf
| 25>   MaxIter 150
| 26> end
| 27>
| 28>
| 29>                          ****END OF INPUT****

CARTESIAN COORDINATES (ANGSTROEM)
---------------------------------
  C      5.558210   -1.992910   -6.215050
  C      4.181880   -2.589670   -6.298910
  C      3.145870   -1.768430   -6.486750
  N      4.019100   -3.864310   -6.227430
  H      4.768490   -4.591150   -5.990770
  H      3.122410   -4.333390   -6.314620
  H      3.281640   -0.777790   -6.566550
  H      2.212550   -2.134190   -6.562250
  C      6.419260   -2.542940   -5.077630
  H      6.036830   -2.198190   -7.176850
  H      5.467610   -0.907370   -6.127970
  H      6.500560   -3.605530   -5.173580
  H      5.965440   -2.303290   -4.138740
  H      7.394380   -2.104940   -5.124570

 Total Charge           Charge          ....    0
 Multiplicity           Mult            ....    1
 Number of Electrons    NEL             ....   40
 Basis Dimension        Dim             ....  266

ORBITAL ENERGIES
----------------

  NO   OCC          E(Eh)            E(eV)
   0   2.0000     -14.220769      -386.9668
   1   2.0000     -10.142218      -275.9838
   2   2.0000     -10.114267      -275.2232
   3   2.0000     -10.101322      -274.8710
   4   2.0000     -10.039906      -273.1997
   5   2.0000      -1.109466       -30.1901
   6   2.0000      -0.954948       -25.9855
   7   2.0000      -0.888851       -24.1869
   8   2.0000      -0.794859       -21.6292
   9   2.0000      -0.734916       -19.9981
  10   2.0000      -0.665204       -18.1011
  11   2.0000      -0.620055       -16.8725
  12   2.0000      -0.586572       -15.9614
  13   2.0000      -0.562786       -15.3142
  14   2.0000      -0.529313       -14.4033
  15   2.0000      -0.519662       -14.1407
  16   2.0000      -0.489308       -13.3147
  17   2.0000      -0.467765       -12.7285
  18   2.0000      -0.457430       -12.4473
  19   2.0000      -0.303665        -8.2632
  20   0.0000       0.064397         1.7523
  21   0.0000       0.087186         2.3725
  22   0.0000       0.089112         2.4249
  23   0.0000       0.101212         2.7541
  24   0.0000       0.123990         3.3739

MULLIKEN ATOMIC CHARGES
-----------------------
   0 C :   -0.539563
   1 C :    0.831889
   2 C :   -1.383000
   3 N :   -0.437701
   4 H :    0.210459
   5 H :    0.194901
   6 H :    0.312276
   7 H :    0.321117
   8 C :   -1.226765
   9 H :    0.330857
  10 H :    0.317675
  11 H :    0.369494
  12 H :    0.339515
  13 H :    0.358846
Sum of atomic charges:    0.0000000

LOEWDIN ATOMIC CHARGES
----------------------
   0 C :   -0.215278
   1 C :   -0.517753
   2 C :    0.002114
   3 N :    0.078928
   4 H :    0.149292
   5 H :    0.121312
   6 H :    0.018733
   7 H :    0.022116
   8 C :   -0.120689
   9 H :    0.126643
  10 H :    0.119543
  11 H :    0.059030
  12 H :    0.082528
  13 H :    0.073481

  Mayer bond orders larger than 0.100000
B(  0-C ,  1-C ) :   0.7413 B(  0-C ,  8-C ) :   0.5901 B(  0-C ,  9-H ) :   0.8983
B(  0-C , 10-H ) :   0.8987 B(  1-C ,  2-C ) :   1.0943 B(  1-C ,  3-N ) :   0.8228
B(  1-C ,  7-H ) :  -0.1660 B(  1-C ,  8-C ) :  -0.1225 B(  2-C ,  3-N ) :   0.1240
B(  2-C ,  6-H ) :   0.9443 B(  2-C ,  7-H ) :   1.0722 B(  3-N ,  4-H ) :   0.9992
B(  3-N ,  5-H ) :   1.0240 B(  8-C , 11-H ) :   0.9049 B(  8-C , 12-H ) :   0.9736
B(  8-C , 13-H ) :   0.9589

FINAL SINGLE POINT ENERGY      -211.905730342254

DIPOLE MOMENT
-------------
                                X             Y             Z
Electronic contribution:     -2.00962      -1.05987      -1.02137
Nuclear contribution   :      2.41345       0.31141       1.16343
                        -----------------------------------------
Total Dipole Moment    :      0.40383      -0.74846       0.14206
                        -----------------------------------------
Magnitude (a.u.)       :      0.86223
Magnitude (Debye)      :      2.19162

Rotational constants in cm-1:     0.287957     0.129204     0.097498
Rotational constants in MHz :  8632.737925  3873.424745  2922.919500

                             ****ORCA TERMINATED NORMALLY****
TOTAL RUN TIME: 0 days 0 hours 0 minutes 56 seconds 853 msec
