                         Program Version 5.0.0 -  RELEASE  -
|  1> !LC-PBE RIJCOSX def2-TZVPD def2/J TightSCF
|  2> *xyz 0 1
|  3> C          4.93020       -7.37532       -2.64962
|  4> C          3.84189       -6.95161       -3.63283
|  5> H          3.45814       -5.95442       -3.40712
|  6> H          2.98848       -7.64361       -3.56708
|  7> S          4.31812       -6.91593       -5.36869
|  8> O          5.40615       -5.89948       -5.51297
|  9> F          3.11191       -6.44508       -6.04379
| 10> O          4.76340       -8.23942       -5.69863
| 11> H          5.27901       -8.35440       -2.90385
| 12> H          4.53000       -7.38577       -1.65734
| 13> H          5.74437       -6.68276       -2.69856
| 14> *
| 15>
| 16> %MaxCore 64000
| 17>
| 18> %pal nprocs 4
| 19> end
| 20>
| 21> %scf
| 22>   MaxIter 150
| 23> end
| 24>
| 25>
| 26>                          ****END OF INPUT****

CARTESIAN COORDINATES (ANGSTROEM)
---------------------------------
  C      4.930200   -7.375320   -2.649620
  C      3.841890   -6.951610   -3.632830
  H      3.458140   -5.954420   -3.407120
  H      2.988480   -7.643610   -3.567080
  S      4.318120   -6.915930   -5.368690
  O      5.406150   -5.899480   -5.512970
  F      3.111910   -6.445080   -6.043790
  O      4.763400   -8.239420   -5.698630
  H      5.279010   -8.354400   -2.903850
  H      4.530000   -7.385770   -1.657340
  H      5.744370   -6.682760   -2.698560

 Total Charge           Charge          ....    0
 Multiplicity           Mult            ....    1
 Number of Electrons    NEL             ....   58
 Basis Dimension        Dim             ....  285

ORBITAL ENERGIES
----------------

  NO   OCC          E(Eh)            E(eV)
   0   2.0000     -88.536681     -2409.2056
   1   2.0000     -24.608865      -669.6413
   2   2.0000     -18.998279      -516.9694
   3   2.0000     -18.980648      -516.4897
   4   2.0000     -10.186206      -277.1808
   5   2.0000     -10.135268      -275.7947
   6   2.0000      -8.147699      -221.7102
   7   2.0000      -6.168120      -167.8431
   8   2.0000      -6.161143      -167.6532
   9   2.0000      -6.160596      -167.6383
  10   2.0000      -1.533938       -41.7406
  11   2.0000      -1.280178       -34.8354
  12   2.0000      -1.168468       -31.7956
  13   2.0000      -1.005114       -27.3506
  14   2.0000      -0.899726       -24.4828
  15   2.0000      -0.835559       -22.7367
  16   2.0000      -0.739063       -20.1109
  17   2.0000      -0.736133       -20.0312
  18   2.0000      -0.708572       -19.2812
  19   2.0000      -0.644809       -17.5461
  20   2.0000      -0.631926       -17.1956
  21   2.0000      -0.587419       -15.9845
  22   2.0000      -0.572854       -15.5881
  23   2.0000      -0.550333       -14.9753
  24   2.0000      -0.530408       -14.4331
  25   2.0000      -0.523619       -14.2484
  26   2.0000      -0.474858       -12.9216
  27   2.0000      -0.459213       -12.4958
  28   2.0000      -0.444433       -12.0936
  29   0.0000       0.045602         1.2409
  30   0.0000       0.059692         1.6243
  31   0.0000       0.063966         1.7406
  32   0.0000       0.069522         1.8918
  33   0.0000       0.097230         2.6458

MULLIKEN ATOMIC CHARGES
-----------------------
   0 C :   -1.214857
   1 C :   -0.623810
   2 H :    0.428305
   3 H :    0.431518
   4 S :    1.048631
   5 O :   -0.581219
   6 F :   -0.098956
   7 O :   -0.526738
   8 H :    0.383372
   9 H :    0.376993
  10 H :    0.376761
Sum of atomic charges:    0.0000000

LOEWDIN ATOMIC CHARGES
----------------------
   0 C :   -0.123519
   1 C :   -0.304929
   2 H :    0.110285
   3 H :    0.115016
   4 S :    0.579121
   5 O :   -0.308400
   6 F :   -0.054648
   7 O :   -0.264316
   8 H :    0.083425
   9 H :    0.083320
  10 H :    0.084644

  Mayer bond orders larger than 0.100000
B(  0-C ,  1-C ) :   0.6887 B(  0-C ,  8-H ) :   0.9012 B(  0-C ,  9-H ) :   0.9097
B(  0-C , 10-H ) :   0.9117 B(  1-C ,  2-H ) :   0.8262 B(  1-C ,  3-H ) :   0.8209
B(  1-C ,  4-S ) :   0.8960 B(  4-S ,  5-O ) :   1.6448 B(  4-S ,  6-F ) :   1.0143
B(  4-S ,  7-O ) :   1.7150

FINAL SINGLE POINT ENERGY      -726.599140440257

DIPOLE MOMENT
-------------
                                X             Y             Z
Electronic contribution:     -2.63481       1.69925      -9.62242
Nuclear contribution   :      1.40145      -1.67996      10.91024
                        -----------------------------------------
Total Dipole Moment    :     -1.23336       0.01929       1.28781
                        -----------------------------------------
Magnitude (a.u.)       :      1.78326
Magnitude (Debye)      :      4.53269

Rotational constants in cm-1:     0.155875     0.079864     0.077188
Rotational constants in MHz :  4673.017506  2394.277415  2314.027118

                             ****ORCA TERMINATED NORMALLY****
TOTAL RUN TIME: 0 days 0 hours 0 minutes 46 seconds 566 msec
