                         Program Version 5.0.0 -  RELEASE  -
|  1> !LC-PBE RIJCOSX def2-TZVPD def2/J TightSCF
|  2> *xyz 0 1
|  3> C          5.55821       -1.99291       -6.21505
|  4> C          4.18188       -2.58967       -6.29891
|  5> N          3.14587       -1.76843       -6.48675
|  6> C          4.01910       -3.86431       -6.22743
|  7> H          4.76849       -4.59115       -5.99077
|  8> H          3.12241       -4.33339       -6.31462
|  9> H          3.28164       -0.77779       -6.56655
| 10> H          2.21255       -2.13419       -6.56225
| 11> C          6.41926       -2.54294       -5.07763
| 12> H          6.03683       -2.19819       -7.17685
| 13> H          5.46761       -0.90737       -6.12797
| 14> H          6.50056       -3.60553       -5.17358
| 15> H          5.96544       -2.30329       -4.13874
| 16> H          7.39438       -2.10494       -5.12457
| 17> *
| 18>
| 19> %MaxCore 64000
| 20>
| 21> %pal nprocs 4
| 22> end
| 23>
| 24> %scf
| 25>   MaxIter 150
| 26> end
| 27>
| 28>
| 29>                          ****END OF INPUT****

CARTESIAN COORDINATES (ANGSTROEM)
---------------------------------
  C      5.558210   -1.992910   -6.215050
  C      4.181880   -2.589670   -6.298910
  N      3.145870   -1.768430   -6.486750
  C      4.019100   -3.864310   -6.227430
  H      4.768490   -4.591150   -5.990770
  H      3.122410   -4.333390   -6.314620
  H      3.281640   -0.777790   -6.566550
  H      2.212550   -2.134190   -6.562250
  C      6.419260   -2.542940   -5.077630
  H      6.036830   -2.198190   -7.176850
  H      5.467610   -0.907370   -6.127970
  H      6.500560   -3.605530   -5.173580
  H      5.965440   -2.303290   -4.138740
  H      7.394380   -2.104940   -5.124570

 Total Charge           Charge          ....    0
 Multiplicity           Mult            ....    1
 Number of Electrons    NEL             ....   40
 Basis Dimension        Dim             ....  266

ORBITAL ENERGIES
----------------

  NO   OCC          E(Eh)            E(eV)
   0   2.0000     -14.209679      -386.6650
   1   2.0000     -10.139415      -275.9075
   2   2.0000     -10.115111      -275.2462
   3   2.0000     -10.095022      -274.6995
   4   2.0000     -10.047772      -273.4138
   5   2.0000      -1.099295       -29.9133
   6   2.0000      -0.958576       -26.0842
   7   2.0000      -0.883608       -24.0442
   8   2.0000      -0.806256       -21.9393
   9   2.0000      -0.709349       -19.3024
  10   2.0000      -0.668959       -18.2033
  11   2.0000      -0.634195       -17.2573
  12   2.0000      -0.593139       -16.1401
  13   2.0000      -0.557283       -15.1644
  14   2.0000      -0.524305       -14.2671
  15   2.0000      -0.506454       -13.7813
  16   2.0000      -0.482056       -13.1174
  17   2.0000      -0.465368       -12.6633
  18   2.0000      -0.459004       -12.4901
  19   2.0000      -0.313592        -8.5333
  20   0.0000       0.068065         1.8522
  21   0.0000       0.087138         2.3712
  22   0.0000       0.089955         2.4478
  23   0.0000       0.102230         2.7818
  24   0.0000       0.125224         3.4075

MULLIKEN ATOMIC CHARGES
-----------------------
   0 C :   -0.612640
   1 C :    0.912454
   2 N :   -0.475826
   3 C :   -1.282080
   4 H :    0.224011
   5 H :    0.297272
   6 H :    0.218302
   7 H :    0.179359
   8 C :   -1.176083
   9 H :    0.340680
  10 H :    0.331007
  11 H :    0.351575
  12 H :    0.340864
  13 H :    0.351106
Sum of atomic charges:   -0.0000000

LOEWDIN ATOMIC CHARGES
----------------------
   0 C :   -0.215737
   1 C :   -0.500224
   2 N :    0.086805
   3 C :   -0.017153
   4 H :    0.063149
   5 H :    0.032074
   6 H :    0.099862
   7 H :    0.110724
   8 C :   -0.118987
   9 H :    0.127928
  10 H :    0.112169
  11 H :    0.064350
  12 H :    0.082882
  13 H :    0.072157

  Mayer bond orders larger than 0.100000
B(  0-C ,  1-C ) :   0.4944 B(  0-C ,  8-C ) :   0.6350 B(  0-C ,  9-H ) :   0.9117
B(  0-C , 10-H ) :   0.9843 B(  1-C ,  2-N ) :   0.7851 B(  1-C ,  3-C ) :   0.9961
B(  1-C ,  5-H ) :  -0.2086 B(  1-C , 10-H ) :  -0.1154 B(  2-N ,  3-C ) :   0.1304
B(  2-N ,  6-H ) :   1.0207 B(  2-N ,  7-H ) :   1.0597 B(  3-C ,  4-H ) :   1.0226
B(  3-C ,  5-H ) :   1.1383 B(  8-C , 11-H ) :   0.9314 B(  8-C , 12-H ) :   0.9596
B(  8-C , 13-H ) :   0.9482

FINAL SINGLE POINT ENERGY      -211.916491029536

DIPOLE MOMENT
-------------
                                X             Y             Z
Electronic contribution:     -2.77834       0.78825      -1.28073
Nuclear contribution   :      2.61570      -0.17401       1.22349
                        -----------------------------------------
Total Dipole Moment    :     -0.16264       0.61423      -0.05724
                        -----------------------------------------
Magnitude (a.u.)       :      0.63797
Magnitude (Debye)      :      1.62160

Rotational constants in cm-1:     0.298189     0.125314     0.096441
Rotational constants in MHz :  8939.495008  3756.825352  2891.223400

                             ****ORCA TERMINATED NORMALLY****
TOTAL RUN TIME: 0 days 0 hours 0 minutes 50 seconds 825 msec
