                         Program Version 5.0.0 -  RELEASE  -
|  1> !LC-PBE RIJCOSX def2-TZVPD def2/J TightSCF
|  2> *xyz 0 1
|  3> C          4.93020       -7.37532       -2.64962
|  4> C          3.84189       -6.95161       -3.63283
|  5> H          3.45814       -5.95442       -3.40712
|  6> H          2.98848       -7.64361       -3.56708
|  7> S          4.31812       -6.91593       -5.36869
|  8> O          5.40615       -5.89948       -5.51297
|  9> O          3.11191       -6.44508       -6.04379
| 10> F          4.76340       -8.23942       -5.69863
| 11> H          5.27901       -8.35440       -2.90385
| 12> H          4.53000       -7.38577       -1.65734
| 13> H          5.74437       -6.68276       -2.69856
| 14> *
| 15>
| 16> %MaxCore 64000
| 17>
| 18> %pal nprocs 4
| 19> end
| 20>
| 21> %scf
| 22>   MaxIter 150
| 23> end
| 24>
| 25>
| 26>                          ****END OF INPUT****

CARTESIAN COORDINATES (ANGSTROEM)
---------------------------------
  C      4.930200   -7.375320   -2.649620
  C      3.841890   -6.951610   -3.632830
  H      3.458140   -5.954420   -3.407120
  H      2.988480   -7.643610   -3.567080
  S      4.318120   -6.915930   -5.368690
  O      5.406150   -5.899480   -5.512970
  O      3.111910   -6.445080   -6.043790
  F      4.763400   -8.239420   -5.698630
  H      5.279010   -8.354400   -2.903850
  H      4.530000   -7.385770   -1.657340
  H      5.744370   -6.682760   -2.698560

 Total Charge           Charge          ....    0
 Multiplicity           Mult            ....    1
 Number of Electrons    NEL             ....   58
 Basis Dimension        Dim             ....  285

ORBITAL ENERGIES
----------------

  NO   OCC          E(Eh)            E(eV)
   0   2.0000     -88.538154     -2409.2456
   1   2.0000     -24.622568      -670.0141
   2   2.0000     -18.989236      -516.7234
   3   2.0000     -18.981493      -516.5127
   4   2.0000     -10.186351      -277.1847
   5   2.0000     -10.138297      -275.8771
   6   2.0000      -8.149148      -221.7496
   7   2.0000      -6.169656      -167.8849
   8   2.0000      -6.162417      -167.6879
   9   2.0000      -6.162058      -167.6781
  10   2.0000      -1.555574       -42.3293
  11   2.0000      -1.269588       -34.5472
  12   2.0000      -1.160894       -31.5895
  13   2.0000      -1.007939       -27.4274
  14   2.0000      -0.901695       -24.5364
  15   2.0000      -0.847804       -23.0699
  16   2.0000      -0.761113       -20.7109
  17   2.0000      -0.750470       -20.4213
  18   2.0000      -0.701572       -19.0907
  19   2.0000      -0.643107       -17.4998
  20   2.0000      -0.626289       -17.0422
  21   2.0000      -0.596635       -16.2353
  22   2.0000      -0.573446       -15.6043
  23   2.0000      -0.548433       -14.9236
  24   2.0000      -0.536416       -14.5966
  25   2.0000      -0.514624       -14.0036
  26   2.0000      -0.465988       -12.6802
  27   2.0000      -0.458714       -12.4822
  28   2.0000      -0.438583       -11.9344
  29   0.0000       0.045804         1.2464
  30   0.0000       0.057875         1.5748
  31   0.0000       0.064748         1.7619
  32   0.0000       0.069433         1.8894
  33   0.0000       0.095548         2.6000

MULLIKEN ATOMIC CHARGES
-----------------------
   0 C :   -1.204543
   1 C :   -0.602724
   2 H :    0.404832
   3 H :    0.436289
   4 S :    1.029036
   5 O :   -0.576280
   6 O :   -0.544642
   7 F :   -0.083742
   8 H :    0.389000
   9 H :    0.376718
  10 H :    0.376057
Sum of atomic charges:   -0.0000000

LOEWDIN ATOMIC CHARGES
----------------------
   0 C :   -0.134807
   1 C :   -0.297539
   2 H :    0.121140
   3 H :    0.116045
   4 S :    0.577308
   5 O :   -0.306224
   6 O :   -0.289454
   7 F :   -0.028961
   8 H :    0.077967
   9 H :    0.082020
  10 H :    0.082505

  Mayer bond orders larger than 0.100000
B(  0-C ,  1-C ) :   0.6047 B(  0-C ,  8-H ) :   0.8792 B(  0-C ,  9-H ) :   0.9233
B(  0-C , 10-H ) :   0.9410 B(  1-C ,  2-H ) :   0.8614 B(  1-C ,  3-H ) :   0.8367
B(  1-C ,  4-S ) :   0.9136 B(  4-S ,  5-O ) :   1.6587 B(  4-S ,  6-O ) :   1.6960
B(  4-S ,  7-F ) :   1.0378

FINAL SINGLE POINT ENERGY      -726.587634977338

DIPOLE MOMENT
-------------
                                X             Y             Z
Electronic contribution:      0.19632      -1.36070      -9.01605
Nuclear contribution   :     -0.31946       0.18980      10.55057
                        -----------------------------------------
Total Dipole Moment    :     -0.12314      -1.17090       1.53452
                        -----------------------------------------
Magnitude (a.u.)       :      1.93415
Magnitude (Debye)      :      4.91622

Rotational constants in cm-1:     0.151421     0.081183     0.078684
Rotational constants in MHz :  4539.489207  2433.790160  2358.892966

                             ****ORCA TERMINATED NORMALLY****
TOTAL RUN TIME: 0 days 0 hours 0 minutes 57 seconds 386 msec
