                         Program Version 5.0.0 -  RELEASE  -
|  1> !LC-PBE RIJCOSX def2-TZVPD def2/J TightSCF xyzfile
|  2>
|  3> *xyzfile 0 1 D1.xyz
|  4>
|  5> %MaxCore 64000
|  6>
|  7> %pal nprocs 4
|  8> end
|  9>
| 10> %scf
| 11>   MaxIter 150
| 12> end
| 13>
| 14>
| 15>                          ****END OF INPUT****

CARTESIAN COORDINATES (ANGSTROEM)
---------------------------------
  C      5.558206   -1.992914   -6.215054
  C      4.930199   -7.375319   -2.649623
  C      3.841892   -6.951611   -3.632829
  H      3.458144   -5.954425   -3.407121
  H      2.988484   -7.643606   -3.567078
  S      4.318115   -6.915930   -5.368692
  C      4.181880   -2.589671   -6.298911
  C      3.145873   -1.768431   -6.486753
  N      4.019102   -3.864307   -6.227427
  H      4.768490   -4.591153   -5.990773
  H      3.122405   -4.333392   -6.314620
  H      3.281635   -0.777786   -6.566549
  H      2.212549   -2.134193   -6.562246
  F      5.406154   -5.899480   -5.512972
  O      3.111910   -6.445079   -6.043792
  C      6.419260   -2.542944   -5.077630
  C      5.872267   -5.002756   -2.427819
  C      6.173994   -6.485522   -2.606315
  H      6.734852   -6.613767   -3.534015
  H      6.821463   -6.831018   -1.793617
  H      4.469612   -7.406168   -1.655876
  H      5.230134   -8.398678   -2.885906
  C      5.896512   -2.169314   -3.694552
  H      7.428880   -2.143665   -5.208078
  H      6.505894   -3.627541   -5.175502
  C      6.807804   -2.623428   -2.551019
  H      4.894708   -2.589732   -3.557501
  H      5.778823   -1.081255   -3.635790
  C      7.111544   -4.122463   -2.520363
  H      7.751615   -2.071393   -2.614406
  H      6.345837   -2.326401   -1.604086
  H      5.362882   -4.828697   -1.471335
  H      5.174429   -4.702577   -3.211298
  H      7.778329   -4.329347   -1.677651
  H      7.673189   -4.402845   -3.417586
  O      4.763396   -8.239424   -5.698629
  H      6.036826   -2.198189   -7.176852
  H      5.467610   -0.907371   -6.127968

 Total Charge           Charge          ....    0
 Multiplicity           Mult            ....    1
 Number of Electrons    NEL             ....  136
 Basis Dimension        Dim             ....  808

ORBITAL ENERGIES
----------------

  NO   OCC          E(Eh)            E(eV)
   0   2.0000     -88.552460     -2409.6349
   1   2.0000     -24.623193      -670.0312
   2   2.0000     -19.015357      -517.4342
   3   2.0000     -19.008110      -517.2370
   4   2.0000     -14.195999      -386.2928
   5   2.0000     -10.192372      -277.3485
   6   2.0000     -10.153378      -276.2875
   7   2.0000     -10.136257      -275.8216
   8   2.0000     -10.131107      -275.6814
   9   2.0000     -10.126954      -275.5684
  10   2.0000     -10.119839      -275.3748
  11   2.0000     -10.114490      -275.2293
  12   2.0000     -10.113799      -275.2105
  13   2.0000     -10.109040      -275.0810
  14   2.0000     -10.108125      -275.0561
  15   2.0000     -10.030153      -272.9343
  16   2.0000      -8.164074      -222.1557
  17   2.0000      -6.185025      -168.3031
  18   2.0000      -6.177232      -168.0910
  19   2.0000      -6.176584      -168.0734
  20   2.0000      -1.542249       -41.9667
  21   2.0000      -1.306118       -35.5413
  22   2.0000      -1.206363       -32.8268
  23   2.0000      -1.095639       -29.8139
  24   2.0000      -1.037321       -28.2269
  25   2.0000      -1.003031       -27.2939
  26   2.0000      -0.970867       -26.4186
  27   2.0000      -0.935174       -25.4474
  28   2.0000      -0.911277       -24.7971
  29   2.0000      -0.879704       -23.9380
  30   2.0000      -0.869137       -23.6504
  31   2.0000      -0.827242       -22.5104
  32   2.0000      -0.787920       -21.4404
  33   2.0000      -0.777621       -21.1601
  34   2.0000      -0.771774       -21.0010
  35   2.0000      -0.744289       -20.2531
  36   2.0000      -0.728098       -19.8126
  37   2.0000      -0.716788       -19.5048
  38   2.0000      -0.709062       -19.2946
  39   2.0000      -0.662632       -18.0311
  40   2.0000      -0.654003       -17.7963
  41   2.0000      -0.639575       -17.4037
  42   2.0000      -0.632517       -17.2117
  43   2.0000      -0.623313       -16.9612
  44   2.0000      -0.612537       -16.6680
  45   2.0000      -0.607978       -16.5439
  46   2.0000      -0.597933       -16.2706
  47   2.0000      -0.578560       -15.7434
  48   2.0000      -0.573898       -15.6166
  49   2.0000      -0.564877       -15.3711
  50   2.0000      -0.551991       -15.0204
  51   2.0000      -0.546965       -14.8837
  52   2.0000      -0.530908       -14.4467
  53   2.0000      -0.515210       -14.0196
  54   2.0000      -0.508935       -13.8488
  55   2.0000      -0.505831       -13.7643
  56   2.0000      -0.501483       -13.6460
  57   2.0000      -0.491766       -13.3816
  58   2.0000      -0.489191       -13.3116
  59   2.0000      -0.478751       -13.0275
  60   2.0000      -0.471829       -12.8391
  61   2.0000      -0.469171       -12.7668
  62   2.0000      -0.465743       -12.6735
  63   2.0000      -0.457498       -12.4491
  64   2.0000      -0.445293       -12.1171
  65   2.0000      -0.438815       -11.9408
  66   2.0000      -0.435163       -11.8414
  67   2.0000      -0.292425        -7.9573
  68   0.0000       0.044419         1.2087
  69   0.0000       0.051607         1.4043
  70   0.0000       0.061535         1.6745
  71   0.0000       0.063837         1.7371
  72   0.0000       0.075583         2.0567

MULLIKEN ATOMIC CHARGES
-----------------------
   0 C :   -0.812758
   1 C :   -0.779861
   2 C :   -0.811712
   3 H :    0.487501
   4 H :    0.477408
   5 S :    1.078873
   6 C :    0.756044
   7 C :   -1.426382
   8 N :   -0.302980
   9 H :    0.300679
  10 H :    0.174546
  11 H :    0.337924
  12 H :    0.362910
  13 F :   -0.239009
  14 O :   -0.651891
  15 C :   -0.508462
  16 C :   -0.046009
  17 C :   -0.906652
  18 H :    0.337019
  19 H :    0.424779
  20 H :    0.393144
  21 H :    0.366915
  22 C :   -0.535164
  23 H :    0.335605
  24 H :    0.142783
  25 C :   -0.894085
  26 H :    0.291436
  27 H :    0.371112
  28 C :   -0.854308
  29 H :    0.394839
  30 H :    0.370410
  31 H :    0.339879
  32 H :    0.047255
  33 H :    0.399060
  34 H :    0.394442
  35 O :   -0.540160
  36 H :    0.334951
  37 H :    0.389917
Sum of atomic charges:    0.0000000

LOEWDIN ATOMIC CHARGES
----------------------
   0 C :   -0.160607
   1 C :   -0.236912
   2 C :   -0.231626
   3 H :    0.115436
   4 H :    0.133639
   5 S :    0.612553
   6 C :   -0.499452
   7 C :    0.007829
   8 N :    0.098020
   9 H :    0.070815
  10 H :    0.101261
  11 H :    0.017723
  12 H :    0.023732
  13 F :   -0.100035
  14 O :   -0.273298
  15 C :   -0.224477
  16 C :   -0.239046
  17 C :   -0.231376
  18 H :    0.115261
  19 H :    0.131083
  20 H :    0.130793
  21 H :    0.123529
  22 C :   -0.227223
  23 H :    0.128212
  24 H :    0.094698
  25 C :   -0.228536
  26 H :    0.119122
  27 H :    0.127948
  28 C :   -0.232577
  29 H :    0.120143
  30 H :    0.119847
  31 H :    0.141012
  32 H :    0.089165
  33 H :    0.124350
  34 H :    0.118266
  35 O :   -0.236203
  36 H :    0.131617
  37 H :    0.125315

  Mayer bond orders larger than 0.100000
B(  0-C ,  6-C ) :   0.5794 B(  0-C , 15-C ) :   0.7824 B(  0-C , 36-H ) :   0.9671
B(  0-C , 37-H ) :   0.8729 B(  1-C ,  2-C ) :   0.7572 B(  1-C , 17-C ) :   0.8106
B(  1-C , 20-H ) :   0.9135 B(  1-C , 21-H ) :   0.9384 B(  2-C ,  3-H ) :   0.8069
B(  2-C ,  4-H ) :   0.7872 B(  2-C ,  5-S ) :   0.8821 B(  5-S , 13-F ) :   1.1076
B(  5-S , 14-O ) :   1.5690 B(  5-S , 35-O ) :   1.5489 B(  6-C ,  7-C ) :   1.1349
B(  6-C ,  8-N ) :   0.7269 B(  6-C , 10-H ) :  -0.1562 B(  6-C , 12-H ) :  -0.1272
B(  7-C ,  8-N ) :   0.1633 B(  7-C , 11-H ) :   0.9988 B(  7-C , 12-H ) :   0.9810
B(  8-N ,  9-H ) :   0.9355 B(  8-N , 10-H ) :   1.0350 B(  8-N , 15-C ) :   0.1309
B( 15-C , 22-C ) :   0.5391 B( 15-C , 23-H ) :   0.9205 B( 15-C , 24-H ) :   1.0878
B( 16-C , 17-C ) :   0.3577 B( 16-C , 18-H ) :  -0.1090 B( 16-C , 28-C ) :   0.4658
B( 16-C , 31-H ) :   0.8421 B( 16-C , 32-H ) :   1.0296 B( 17-C , 18-H ) :   1.0087
B( 17-C , 19-H ) :   0.8186 B( 17-C , 28-C ) :   0.2434 B( 22-C , 25-C ) :   0.7812
B( 22-C , 26-H ) :   1.0207 B( 22-C , 27-H ) :   0.8753 B( 25-C , 28-C ) :   0.8220
B( 25-C , 29-H ) :   0.9319 B( 25-C , 30-H ) :   0.9472 B( 28-C , 33-H ) :   0.8757
B( 28-C , 34-H ) :   0.9137 B( 31-H , 32-H ) :   0.2419

FINAL SINGLE POINT ENERGY     -1133.250241672311

DIPOLE MOMENT
-------------
                                X             Y             Z
Electronic contribution:     -6.97234     -18.74984     -13.15135
Nuclear contribution   :      7.78491      18.17172      15.09294
                        -----------------------------------------
Total Dipole Moment    :      0.81257      -0.57812       1.94158
                        -----------------------------------------
Magnitude (a.u.)       :      2.18271
Magnitude (Debye)      :      5.54802

Rotational constants in cm-1:     0.018190     0.012573     0.008405
Rotational constants in MHz :   545.327178   376.916509   251.974803

                             ****ORCA TERMINATED NORMALLY****
TOTAL RUN TIME: 0 days 0 hours 11 minutes 23 seconds 598 msec
