                         Program Version 5.0.0 -  RELEASE  -
|  1> !LC-PBE RIJCOSX def2-TZVPD def2/J TightSCF xyzfile
|  2>
|  3> *xyzfile 0 1 D2.xyz
|  4>
|  5> %MaxCore 64000
|  6>
|  7> %pal nprocs 4
|  8> end
|  9>
| 10> %scf
| 11>   MaxIter 150
| 12> end
| 13>
| 14>
| 15>                          ****END OF INPUT****

CARTESIAN COORDINATES (ANGSTROEM)
---------------------------------
  C      5.558206   -1.992914   -6.215054
  C      4.930199   -7.375319   -2.649623
  C      3.841892   -6.951611   -3.632829
  H      3.458144   -5.954425   -3.407121
  H      2.988484   -7.643606   -3.567078
  S      4.318115   -6.915930   -5.368692
  C      4.181880   -2.589671   -6.298911
  N      3.145873   -1.768431   -6.486753
  C      4.019102   -3.864307   -6.227427
  H      4.768490   -4.591153   -5.990773
  H      3.122405   -4.333392   -6.314620
  H      3.281635   -0.777786   -6.566549
  H      2.212549   -2.134193   -6.562246
  F      5.406154   -5.899480   -5.512972
  O      3.111910   -6.445079   -6.043792
  C      6.419260   -2.542944   -5.077630
  C      5.872267   -5.002756   -2.427819
  C      6.173994   -6.485522   -2.606315
  H      6.734852   -6.613767   -3.534015
  H      6.821463   -6.831018   -1.793617
  H      4.469612   -7.406168   -1.655876
  H      5.230134   -8.398678   -2.885906
  C      5.896512   -2.169314   -3.694552
  H      7.428880   -2.143665   -5.208078
  H      6.505894   -3.627541   -5.175502
  C      6.807804   -2.623428   -2.551019
  H      4.894708   -2.589732   -3.557501
  H      5.778823   -1.081255   -3.635790
  C      7.111544   -4.122463   -2.520363
  H      7.751615   -2.071393   -2.614406
  H      6.345837   -2.326401   -1.604086
  H      5.362882   -4.828697   -1.471335
  H      5.174429   -4.702577   -3.211298
  H      7.778329   -4.329347   -1.677651
  H      7.673189   -4.402845   -3.417586
  O      4.763396   -8.239424   -5.698629
  H      6.036826   -2.198189   -7.176852
  H      5.467610   -0.907371   -6.127968

 Total Charge           Charge          ....    0
 Multiplicity           Mult            ....    1
 Number of Electrons    NEL             ....  136
 Basis Dimension        Dim             ....  808

ORBITAL ENERGIES
----------------

  NO   OCC          E(Eh)            E(eV)
   0   2.0000     -88.531506     -2409.0647
   1   2.0000     -24.592570      -669.1978
   2   2.0000     -18.995963      -516.9064
   3   2.0000     -18.983817      -516.5759
   4   2.0000     -14.202613      -386.4728
   5   2.0000     -10.177162      -276.9347
   6   2.0000     -10.142117      -275.9810
   7   2.0000     -10.129798      -275.6458
   8   2.0000     -10.126409      -275.5536
   9   2.0000     -10.118134      -275.3284
  10   2.0000     -10.113729      -275.2086
  11   2.0000     -10.110976      -275.1336
  12   2.0000     -10.110810      -275.1291
  13   2.0000     -10.109967      -275.1062
  14   2.0000     -10.106083      -275.0005
  15   2.0000     -10.025942      -272.8198
  16   2.0000      -8.142821      -221.5774
  17   2.0000      -6.163559      -167.7190
  18   2.0000      -6.156283      -167.5210
  19   2.0000      -6.155369      -167.4961
  20   2.0000      -1.513541       -41.1855
  21   2.0000      -1.284547       -34.9543
  22   2.0000      -1.184262       -32.2254
  23   2.0000      -1.092129       -29.7183
  24   2.0000      -1.025440       -27.9037
  25   2.0000      -0.998186       -27.1620
  26   2.0000      -0.965149       -26.2630
  27   2.0000      -0.933202       -25.3937
  28   2.0000      -0.891813       -24.2675
  29   2.0000      -0.879238       -23.9253
  30   2.0000      -0.850531       -23.1441
  31   2.0000      -0.826805       -22.4985
  32   2.0000      -0.786099       -21.3908
  33   2.0000      -0.767239       -20.8776
  34   2.0000      -0.750080       -20.4107
  35   2.0000      -0.722691       -19.6654
  36   2.0000      -0.720217       -19.5981
  37   2.0000      -0.698173       -18.9983
  38   2.0000      -0.690390       -18.7865
  39   2.0000      -0.661920       -18.0118
  40   2.0000      -0.645256       -17.5583
  41   2.0000      -0.640125       -17.4187
  42   2.0000      -0.633763       -17.2456
  43   2.0000      -0.616774       -16.7833
  44   2.0000      -0.603184       -16.4135
  45   2.0000      -0.600565       -16.3422
  46   2.0000      -0.593478       -16.1494
  47   2.0000      -0.578417       -15.7395
  48   2.0000      -0.558876       -15.2078
  49   2.0000      -0.552986       -15.0475
  50   2.0000      -0.549725       -14.9588
  51   2.0000      -0.537810       -14.6346
  52   2.0000      -0.516789       -14.0625
  53   2.0000      -0.509318       -13.8592
  54   2.0000      -0.500583       -13.6216
  55   2.0000      -0.494368       -13.4524
  56   2.0000      -0.484233       -13.1767
  57   2.0000      -0.482456       -13.1283
  58   2.0000      -0.478408       -13.0181
  59   2.0000      -0.468094       -12.7375
  60   2.0000      -0.462057       -12.5732
  61   2.0000      -0.459365       -12.5000
  62   2.0000      -0.452077       -12.3016
  63   2.0000      -0.443112       -12.0577
  64   2.0000      -0.439001       -11.9458
  65   2.0000      -0.435352       -11.8465
  66   2.0000      -0.432547       -11.7702
  67   2.0000      -0.304080        -8.2744
  68   0.0000       0.052214         1.4208
  69   0.0000       0.058749         1.5986
  70   0.0000       0.064464         1.7542
  71   0.0000       0.067510         1.8370
  72   0.0000       0.079088         2.1521

MULLIKEN ATOMIC CHARGES
-----------------------
   0 C :   -0.815184
   1 C :   -0.782510
   2 C :   -0.819799
   3 H :    0.480571
   4 H :    0.481121
   5 S :    1.053560
   6 C :    0.796078
   7 N :   -0.530743
   8 C :   -1.342785
   9 H :    0.394302
  10 H :    0.520029
  11 H :    0.198767
  12 H :    0.182448
  13 F :   -0.172393
  14 O :   -0.629566
  15 C :   -0.544382
  16 C :    0.000333
  17 C :   -0.921617
  18 H :    0.344681
  19 H :    0.422928
  20 H :    0.385874
  21 H :    0.365343
  22 C :   -0.563073
  23 H :    0.346260
  24 H :    0.159477
  25 C :   -0.903095
  26 H :    0.303003
  27 H :    0.364758
  28 C :   -0.854050
  29 H :    0.389709
  30 H :    0.365147
  31 H :    0.333934
  32 H :    0.024879
  33 H :    0.396063
  34 H :    0.402805
  35 O :   -0.558723
  36 H :    0.335683
  37 H :    0.390169
Sum of atomic charges:    0.0000000

LOEWDIN ATOMIC CHARGES
----------------------
   0 C :   -0.158904
   1 C :   -0.238654
   2 C :   -0.232516
   3 H :    0.114769
   4 H :    0.131645
   5 S :    0.605843
   6 C :   -0.471557
   7 N :    0.094867
   8 C :   -0.012278
   9 H :    0.013766
  10 H :    0.031551
  11 H :    0.098983
  12 H :    0.112302
  13 F :   -0.114039
  14 O :   -0.280311
  15 C :   -0.220985
  16 C :   -0.238119
  17 C :   -0.231702
  18 H :    0.115652
  19 H :    0.129724
  20 H :    0.128945
  21 H :    0.122587
  22 C :   -0.228979
  23 H :    0.127938
  24 H :    0.099865
  25 C :   -0.229134
  26 H :    0.118383
  27 H :    0.124394
  28 C :   -0.232350
  29 H :    0.119252
  30 H :    0.119121
  31 H :    0.139907
  32 H :    0.091223
  33 H :    0.123694
  34 H :    0.118861
  35 O :   -0.245337
  36 H :    0.132804
  37 H :    0.118788

  Mayer bond orders larger than 0.100000
B(  0-C ,  6-C ) :   0.2088 B(  0-C , 15-C ) :   0.8435 B(  0-C , 36-H ) :   0.9534
B(  0-C , 37-H ) :   0.9570 B(  1-C ,  2-C ) :   0.7583 B(  1-C , 17-C ) :   0.8007
B(  1-C , 20-H ) :   0.9166 B(  1-C , 21-H ) :   0.9393 B(  2-C ,  3-H ) :   0.8209
B(  2-C ,  4-H ) :   0.7861 B(  2-C ,  5-S ) :   0.8835 B(  5-S ,  8-C ) :   0.1236
B(  5-S , 13-F ) :   1.1389 B(  5-S , 14-O ) :   1.5628 B(  5-S , 35-O ) :   1.5085
B(  6-C ,  7-N ) :   0.5973 B(  6-C ,  8-C ) :   0.6460 B(  6-C ,  9-H ) :   0.2911
B(  6-C , 10-H ) :  -0.3202 B(  6-C , 37-H ) :  -0.1907 B(  7-N , 11-H ) :   1.0564
B(  7-N , 12-H ) :   1.0717 B(  8-C ,  9-H ) :   0.8261 B(  8-C , 10-H ) :   0.9702
B(  8-C , 13-F ) :   0.1587 B(  9-H , 13-F ) :  -0.3379 B( 15-C , 22-C ) :   0.5101
B( 15-C , 23-H ) :   0.9065 B( 15-C , 24-H ) :   1.1177 B( 15-C , 28-C ) :   0.1021
B( 16-C , 17-C ) :   0.3717 B( 16-C , 28-C ) :   0.4600 B( 16-C , 31-H ) :   0.8491
B( 16-C , 32-H ) :   1.0266 B( 17-C , 18-H ) :   0.9864 B( 17-C , 19-H ) :   0.8252
B( 17-C , 28-C ) :   0.2528 B( 22-C , 25-C ) :   0.7890 B( 22-C , 26-H ) :   1.0212
B( 22-C , 27-H ) :   0.8753 B( 23-H , 24-H ) :   0.1017 B( 25-C , 28-C ) :   0.8275
B( 25-C , 29-H ) :   0.9378 B( 25-C , 30-H ) :   0.9388 B( 28-C , 33-H ) :   0.8806
B( 28-C , 34-H ) :   0.9077 B( 31-H , 32-H ) :   0.2440

FINAL SINGLE POINT ENERGY     -1133.245594356527

DIPOLE MOMENT
-------------
                                X             Y             Z
Electronic contribution:     -7.69990     -16.94470     -13.55642
Nuclear contribution   :      7.91684      17.85507      15.13212
                        -----------------------------------------
Total Dipole Moment    :      0.21694       0.91037       1.57570
                        -----------------------------------------
Magnitude (a.u.)       :      1.83267
Magnitude (Debye)      :      4.65827

Rotational constants in cm-1:     0.018015     0.012410     0.008313
Rotational constants in MHz :   540.084467   372.038374   249.228144

                             ****ORCA TERMINATED NORMALLY****
TOTAL RUN TIME: 0 days 0 hours 11 minutes 25 seconds 756 msec
