                         Program Version 5.0.0 -  RELEASE  -
|  1> !LC-PBE RIJCOSX def2-TZVPD def2/J TightSCF xyzfile
|  2>
|  3> *xyzfile 0 1 D3.xyz
|  4>
|  5> %MaxCore 64000
|  6>
|  7> %pal nprocs 4
|  8> end
|  9>
| 10> %scf
| 11>   MaxIter 150
| 12> end
| 13>
| 14>
| 15>                          ****END OF INPUT****

CARTESIAN COORDINATES (ANGSTROEM)
---------------------------------
  C      5.558206   -1.992914   -6.215054
  C      4.930199   -7.375319   -2.649623
  C      3.841892   -6.951611   -3.632829
  H      3.458144   -5.954425   -3.407121
  H      2.988484   -7.643606   -3.567078
  S      4.318115   -6.915930   -5.368692
  C      4.181880   -2.589671   -6.298911
  C      3.145873   -1.768431   -6.486753
  N      4.019102   -3.864307   -6.227427
  H      4.768490   -4.591153   -5.990773
  H      3.122405   -4.333392   -6.314620
  H      3.281635   -0.777786   -6.566549
  H      2.212549   -2.134193   -6.562246
  O      5.406154   -5.899480   -5.512972
  F      3.111910   -6.445079   -6.043792
  C      6.419260   -2.542944   -5.077630
  C      5.872267   -5.002756   -2.427819
  C      6.173994   -6.485522   -2.606315
  H      6.734852   -6.613767   -3.534015
  H      6.821463   -6.831018   -1.793617
  H      4.469612   -7.406168   -1.655876
  H      5.230134   -8.398678   -2.885906
  C      5.896512   -2.169314   -3.694552
  H      7.428880   -2.143665   -5.208078
  H      6.505894   -3.627541   -5.175502
  C      6.807804   -2.623428   -2.551019
  H      4.894708   -2.589732   -3.557501
  H      5.778823   -1.081255   -3.635790
  C      7.111544   -4.122463   -2.520363
  H      7.751615   -2.071393   -2.614406
  H      6.345837   -2.326401   -1.604086
  H      5.362882   -4.828697   -1.471335
  H      5.174429   -4.702577   -3.211298
  H      7.778329   -4.329347   -1.677651
  H      7.673189   -4.402845   -3.417586
  O      4.763396   -8.239424   -5.698629
  H      6.036826   -2.198189   -7.176852
  H      5.467610   -0.907371   -6.127968

 Total Charge           Charge          ....    0
 Multiplicity           Mult            ....    1
 Number of Electrons    NEL             ....  136
 Basis Dimension        Dim             ....  808

ORBITAL ENERGIES
----------------

  NO   OCC          E(Eh)            E(eV)
   0   2.0000     -88.562537     -2409.9092
   1   2.0000     -24.633250      -670.3048
   2   2.0000     -19.020988      -517.5874
   3   2.0000     -19.013344      -517.3794
   4   2.0000     -14.184162      -385.9707
   5   2.0000     -10.197560      -277.4897
   6   2.0000     -10.154985      -276.3312
   7   2.0000     -10.125074      -275.5173
   8   2.0000     -10.123736      -275.4809
   9   2.0000     -10.114099      -275.2186
  10   2.0000     -10.108184      -275.0577
  11   2.0000     -10.104813      -274.9659
  12   2.0000     -10.099741      -274.8279
  13   2.0000     -10.099244      -274.8144
  14   2.0000     -10.098932      -274.8059
  15   2.0000     -10.024423      -272.7784
  16   2.0000      -8.173924      -222.4238
  17   2.0000      -6.194360      -168.5571
  18   2.0000      -6.187255      -168.3638
  19   2.0000      -6.186833      -168.3523
  20   2.0000      -1.559705       -42.4417
  21   2.0000      -1.307684       -35.5839
  22   2.0000      -1.206001       -32.8169
  23   2.0000      -1.087198       -29.5842
  24   2.0000      -1.034211       -28.1423
  25   2.0000      -0.994897       -27.0725
  26   2.0000      -0.965293       -26.2670
  27   2.0000      -0.933036       -25.3892
  28   2.0000      -0.907347       -24.6902
  29   2.0000      -0.877631       -23.8815
  30   2.0000      -0.858679       -23.3658
  31   2.0000      -0.820887       -22.3375
  32   2.0000      -0.784155       -21.3379
  33   2.0000      -0.770311       -20.9612
  34   2.0000      -0.764039       -20.7906
  35   2.0000      -0.747157       -20.3312
  36   2.0000      -0.734377       -19.9834
  37   2.0000      -0.713059       -19.4033
  38   2.0000      -0.707063       -19.2402
  39   2.0000      -0.673012       -18.3136
  40   2.0000      -0.655892       -17.8477
  41   2.0000      -0.645207       -17.5570
  42   2.0000      -0.629323       -17.1248
  43   2.0000      -0.612481       -16.6665
  44   2.0000      -0.604988       -16.4626
  45   2.0000      -0.601703       -16.3732
  46   2.0000      -0.591272       -16.0893
  47   2.0000      -0.572642       -15.5824
  48   2.0000      -0.565763       -15.3952
  49   2.0000      -0.560899       -15.2628
  50   2.0000      -0.552329       -15.0296
  51   2.0000      -0.540575       -14.7098
  52   2.0000      -0.526137       -14.3169
  53   2.0000      -0.523139       -14.2353
  54   2.0000      -0.508362       -13.8332
  55   2.0000      -0.498593       -13.5674
  56   2.0000      -0.494766       -13.4633
  57   2.0000      -0.489961       -13.3325
  58   2.0000      -0.483021       -13.1437
  59   2.0000      -0.467183       -12.7127
  60   2.0000      -0.463208       -12.6045
  61   2.0000      -0.458843       -12.4857
  62   2.0000      -0.454909       -12.3787
  63   2.0000      -0.443874       -12.0784
  64   2.0000      -0.434722       -11.8294
  65   2.0000      -0.427804       -11.6411
  66   2.0000      -0.424648       -11.5552
  67   2.0000      -0.286238        -7.7889
  68   0.0000       0.034112         0.9282
  69   0.0000       0.053184         1.4472
  70   0.0000       0.056452         1.5361
  71   0.0000       0.067118         1.8264
  72   0.0000       0.078412         2.1337

MULLIKEN ATOMIC CHARGES
-----------------------
   0 C :   -0.776046
   1 C :   -0.819094
   2 C :   -0.825344
   3 H :    0.524178
   4 H :    0.467293
   5 S :    1.027738
   6 C :    0.701337
   7 C :   -1.442013
   8 N :   -0.272269
   9 H :    0.360349
  10 H :    0.129950
  11 H :    0.338659
  12 H :    0.352014
  13 O :   -0.689983
  14 F :   -0.148858
  15 C :   -0.582220
  16 C :   -0.064395
  17 C :   -0.925242
  18 H :    0.381795
  19 H :    0.432241
  20 H :    0.386771
  21 H :    0.367258
  22 C :   -0.533431
  23 H :    0.334993
  24 H :    0.214719
  25 C :   -0.883713
  26 H :    0.284922
  27 H :    0.369685
  28 C :   -0.876246
  29 H :    0.391511
  30 H :    0.366932
  31 H :    0.338624
  32 H :    0.079683
  33 H :    0.401145
  34 H :    0.404509
  35 O :   -0.536890
  36 H :    0.334083
  37 H :    0.385355
Sum of atomic charges:    0.0000000

LOEWDIN ATOMIC CHARGES
----------------------
   0 C :   -0.158852
   1 C :   -0.226738
   2 C :   -0.236239
   3 H :    0.114812
   4 H :    0.123960
   5 S :    0.638322
   6 C :   -0.501992
   7 C :   -0.000578
   8 N :    0.087871
   9 H :    0.039673
  10 H :    0.101676
  11 H :    0.015495
  12 H :    0.019078
  13 O :   -0.297188
  14 F :   -0.044693
  15 C :   -0.221207
  16 C :   -0.239211
  17 C :   -0.230285
  18 H :    0.116094
  19 H :    0.129746
  20 H :    0.132363
  21 H :    0.124743
  22 C :   -0.227880
  23 H :    0.127320
  24 H :    0.097602
  25 C :   -0.229577
  26 H :    0.118369
  27 H :    0.126176
  28 C :   -0.230618
  29 H :    0.119215
  30 H :    0.118357
  31 H :    0.138089
  32 H :    0.089459
  33 H :    0.122952
  34 H :    0.120846
  35 O :   -0.232942
  36 H :    0.131741
  37 H :    0.124042

  Mayer bond orders larger than 0.100000
B(  0-C ,  6-C ) :   0.5740 B(  0-C , 15-C ) :   0.7707 B(  0-C , 36-H ) :   0.9527
B(  0-C , 37-H ) :   0.8838 B(  1-C ,  2-C ) :   0.8111 B(  1-C , 17-C ) :   0.8130
B(  1-C , 20-H ) :   0.9122 B(  1-C , 21-H ) :   0.9105 B(  2-C ,  3-H ) :   0.7367
B(  2-C ,  4-H ) :   0.8022 B(  2-C ,  5-S ) :   0.8649 B(  5-S , 13-O ) :   1.6809
B(  5-S , 14-F ) :   0.9782 B(  5-S , 35-O ) :   1.5931 B(  6-C ,  7-C ) :   1.1277
B(  6-C ,  8-N ) :   0.8516 B(  6-C , 10-H ) :  -0.1268 B(  6-C , 12-H ) :  -0.1409
B(  7-C ,  8-N ) :   0.1609 B(  7-C , 11-H ) :   0.9948 B(  7-C , 12-H ) :   1.0016
B(  8-N ,  9-H ) :   0.8034 B(  8-N , 10-H ) :   1.0181 B(  8-N , 13-O ) :  -0.1004
B(  8-N , 15-C ) :   0.1569 B( 13-O , 17-C ) :   0.1023 B( 15-C , 22-C ) :   0.5264
B( 15-C , 23-H ) :   0.9295 B( 15-C , 24-H ) :   1.0397 B( 16-C , 17-C ) :   0.4385
B( 16-C , 28-C ) :   0.4516 B( 16-C , 31-H ) :   0.8451 B( 16-C , 32-H ) :   1.0343
B( 17-C , 18-H ) :   0.9455 B( 17-C , 19-H ) :   0.8169 B( 17-C , 28-C ) :   0.2658
B( 22-C , 25-C ) :   0.7733 B( 22-C , 26-H ) :   1.0232 B( 22-C , 27-H ) :   0.8800
B( 25-C , 28-C ) :   0.8075 B( 25-C , 29-H ) :   0.9314 B( 25-C , 30-H ) :   0.9474
B( 28-C , 33-H ) :   0.8752 B( 28-C , 34-H ) :   0.9079 B( 31-H , 32-H ) :   0.2273

FINAL SINGLE POINT ENERGY     -1133.248218960624

DIPOLE MOMENT
-------------
                                X             Y             Z
Electronic contribution:    -10.99050     -20.02358     -14.18366
Nuclear contribution   :     10.48431      18.81367      15.71750
                        -----------------------------------------
Total Dipole Moment    :     -0.50618      -1.20991       1.53384
                        -----------------------------------------
Magnitude (a.u.)       :      2.01811
Magnitude (Debye)      :      5.12962

Rotational constants in cm-1:     0.017977     0.012528     0.008321
Rotational constants in MHz :   538.924099   375.570730   249.458530

                             ****ORCA TERMINATED NORMALLY****
TOTAL RUN TIME: 0 days 0 hours 12 minutes 43 seconds 350 msec
