                         Program Version 5.0.0 -  RELEASE  -
|  1> !LC-PBE RIJCOSX def2-TZVPD def2/J TightSCF xyzfile
|  2>
|  3> *xyzfile 0 1 D4.xyz
|  4>
|  5> %MaxCore 64000
|  6>
|  7> %pal nprocs 4
|  8> end
|  9>
| 10> %scf
| 11>   MaxIter 150
| 12> end
| 13>
| 14>
| 15>                          ****END OF INPUT****

CARTESIAN COORDINATES (ANGSTROEM)
---------------------------------
  C      5.558206   -1.992914   -6.215054
  C      4.930199   -7.375319   -2.649623
  C      3.841892   -6.951611   -3.632829
  H      3.458144   -5.954425   -3.407121
  H      2.988484   -7.643606   -3.567078
  S      4.318115   -6.915930   -5.368692
  C      4.181880   -2.589671   -6.298911
  N      3.145873   -1.768431   -6.486753
  C      4.019102   -3.864307   -6.227427
  H      4.768490   -4.591153   -5.990773
  H      3.122405   -4.333392   -6.314620
  H      3.281635   -0.777786   -6.566549
  H      2.212549   -2.134193   -6.562246
  O      5.406154   -5.899480   -5.512972
  F      3.111910   -6.445079   -6.043792
  C      6.419260   -2.542944   -5.077630
  C      5.872267   -5.002756   -2.427819
  C      6.173994   -6.485522   -2.606315
  H      6.734852   -6.613767   -3.534015
  H      6.821463   -6.831018   -1.793617
  H      4.469612   -7.406168   -1.655876
  H      5.230134   -8.398678   -2.885906
  C      5.896512   -2.169314   -3.694552
  H      7.428880   -2.143665   -5.208078
  H      6.505894   -3.627541   -5.175502
  C      6.807804   -2.623428   -2.551019
  H      4.894708   -2.589732   -3.557501
  H      5.778823   -1.081255   -3.635790
  C      7.111544   -4.122463   -2.520363
  H      7.751615   -2.071393   -2.614406
  H      6.345837   -2.326401   -1.604086
  H      5.362882   -4.828697   -1.471335
  H      5.174429   -4.702577   -3.211298
  H      7.778329   -4.329347   -1.677651
  H      7.673189   -4.402845   -3.417586
  O      4.763396   -8.239424   -5.698629
  H      6.036826   -2.198189   -7.176852
  H      5.467610   -0.907371   -6.127968

 Total Charge           Charge          ....    0
 Multiplicity           Mult            ....    1
 Number of Electrons    NEL             ....  136
 Basis Dimension        Dim             ....  808

ORBITAL ENERGIES
----------------

  NO   OCC          E(Eh)            E(eV)
   0   2.0000     -88.539717     -2409.2882
   1   2.0000     -24.608169      -669.6223
   2   2.0000     -19.000241      -517.0229
   3   2.0000     -18.983119      -516.5569
   4   2.0000     -14.198407      -386.3583
   5   2.0000     -10.181691      -277.0579
   6   2.0000     -10.143126      -276.0085
   7   2.0000     -10.123640      -275.4782
   8   2.0000     -10.113441      -275.2007
   9   2.0000     -10.105192      -274.9763
  10   2.0000     -10.102498      -274.9029
  11   2.0000     -10.102099      -274.8921
  12   2.0000     -10.101302      -274.8704
  13   2.0000     -10.096667      -274.7443
  14   2.0000     -10.096343      -274.7355
  15   2.0000     -10.015524      -272.5363
  16   2.0000      -8.150900      -221.7973
  17   2.0000      -6.171178      -167.9263
  18   2.0000      -6.164230      -167.7372
  19   2.0000      -6.164038      -167.7320
  20   2.0000      -1.534829       -41.7648
  21   2.0000      -1.284595       -34.9556
  22   2.0000      -1.179863       -32.1057
  23   2.0000      -1.087359       -29.5885
  24   2.0000      -1.020561       -27.7709
  25   2.0000      -0.989985       -26.9389
  26   2.0000      -0.958352       -26.0781
  27   2.0000      -0.930130       -25.3101
  28   2.0000      -0.891909       -24.2701
  29   2.0000      -0.873665       -23.7736
  30   2.0000      -0.846457       -23.0333
  31   2.0000      -0.818097       -22.2616
  32   2.0000      -0.780559       -21.2401
  33   2.0000      -0.760882       -20.7046
  34   2.0000      -0.743847       -20.2411
  35   2.0000      -0.723992       -19.7008
  36   2.0000      -0.720926       -19.6174
  37   2.0000      -0.706569       -19.2267
  38   2.0000      -0.689733       -18.7686
  39   2.0000      -0.661816       -18.0089
  40   2.0000      -0.646137       -17.5823
  41   2.0000      -0.640926       -17.4405
  42   2.0000      -0.626815       -17.0565
  43   2.0000      -0.614126       -16.7112
  44   2.0000      -0.601313       -16.3626
  45   2.0000      -0.592730       -16.1290
  46   2.0000      -0.588494       -16.0137
  47   2.0000      -0.569007       -15.4835
  48   2.0000      -0.553660       -15.0658
  49   2.0000      -0.550567       -14.9817
  50   2.0000      -0.546337       -14.8666
  51   2.0000      -0.529528       -14.4092
  52   2.0000      -0.525485       -14.2992
  53   2.0000      -0.507614       -13.8129
  54   2.0000      -0.500025       -13.6064
  55   2.0000      -0.489404       -13.3174
  56   2.0000      -0.482127       -13.1194
  57   2.0000      -0.476871       -12.9763
  58   2.0000      -0.473965       -12.8972
  59   2.0000      -0.465878       -12.6772
  60   2.0000      -0.452775       -12.3206
  61   2.0000      -0.450557       -12.2603
  62   2.0000      -0.447092       -12.1660
  63   2.0000      -0.432118       -11.7585
  64   2.0000      -0.426570       -11.6076
  65   2.0000      -0.423873       -11.5342
  66   2.0000      -0.398584       -10.8460
  67   2.0000      -0.298070        -8.1109
  68   0.0000       0.042475         1.1558
  69   0.0000       0.060827         1.6552
  70   0.0000       0.061697         1.6788
  71   0.0000       0.070144         1.9087
  72   0.0000       0.080629         2.1940

MULLIKEN ATOMIC CHARGES
-----------------------
   0 C :   -0.788586
   1 C :   -0.820732
   2 C :   -0.830902
   3 H :    0.511498
   4 H :    0.475259
   5 S :    0.998482
   6 C :    0.559116
   7 N :   -0.530031
   8 C :   -1.118718
   9 H :    0.477907
  10 H :    0.429750
  11 H :    0.197939
  12 H :    0.172175
  13 O :   -0.629992
  14 F :   -0.120101
  15 C :   -0.589985
  16 C :   -0.031540
  17 C :   -0.936890
  18 H :    0.391058
  19 H :    0.434825
  20 H :    0.376356
  21 H :    0.365922
  22 C :   -0.560997
  23 H :    0.345254
  24 H :    0.203452
  25 C :   -0.893731
  26 H :    0.294168
  27 H :    0.365152
  28 C :   -0.874426
  29 H :    0.387368
  30 H :    0.362626
  31 H :    0.334532
  32 H :    0.061220
  33 H :    0.398429
  34 H :    0.411287
  35 O :   -0.552440
  36 H :    0.334052
  37 H :    0.391239
Sum of atomic charges:   -0.0000000

LOEWDIN ATOMIC CHARGES
----------------------
   0 C :   -0.157557
   1 C :   -0.228539
   2 C :   -0.237506
   3 H :    0.113897
   4 H :    0.121846
   5 S :    0.627866
   6 C :   -0.474705
   7 N :    0.089522
   8 C :   -0.021981
   9 H :   -0.014947
  10 H :    0.031238
  11 H :    0.097553
  12 H :    0.108582
  13 O :   -0.311344
  14 F :   -0.052211
  15 C :   -0.217108
  16 C :   -0.238403
  17 C :   -0.230897
  18 H :    0.116319
  19 H :    0.128300
  20 H :    0.130367
  21 H :    0.123801
  22 C :   -0.229535
  23 H :    0.127249
  24 H :    0.103174
  25 C :   -0.230156
  26 H :    0.117664
  27 H :    0.122653
  28 C :   -0.230427
  29 H :    0.118333
  30 H :    0.117663
  31 H :    0.136950
  32 H :    0.091503
  33 H :    0.122327
  34 H :    0.121418
  35 O :   -0.243329
  36 H :    0.132981
  37 H :    0.117438

  Mayer bond orders larger than 0.100000
B(  0-C ,  6-C ) :   0.1860 B(  0-C , 15-C ) :   0.8321 B(  0-C , 36-H ) :   0.9421
B(  0-C , 37-H ) :   0.9628 B(  1-C ,  2-C ) :   0.8119 B(  1-C , 17-C ) :   0.8024
B(  1-C , 20-H ) :   0.9180 B(  1-C , 21-H ) :   0.9077 B(  2-C ,  3-H ) :   0.7529
B(  2-C ,  4-H ) :   0.8005 B(  2-C ,  5-S ) :   0.8613 B(  2-C , 35-O ) :   0.1108
B(  5-S ,  8-C ) :   0.1152 B(  5-S , 13-O ) :   1.7209 B(  5-S , 14-F ) :   0.9785
B(  5-S , 35-O ) :   1.5708 B(  6-C ,  7-N ) :   0.5918 B(  6-C ,  8-C ) :   0.9906
B(  6-C ,  9-H ) :   0.3664 B(  6-C , 10-H ) :  -0.2800 B(  6-C , 12-H ) :  -0.1050
B(  6-C , 37-H ) :  -0.1981 B(  7-N , 11-H ) :   1.0585 B(  7-N , 12-H ) :   1.0797
B(  8-C ,  9-H ) :   0.7094 B(  8-C , 10-H ) :   1.0239 B(  8-C , 13-O ) :   0.1508
B(  9-H , 13-O ) :  -0.4476 B( 15-C , 22-C ) :   0.4974 B( 15-C , 23-H ) :   0.9126
B( 15-C , 24-H ) :   1.0805 B( 15-C , 28-C ) :   0.1057 B( 16-C , 17-C ) :   0.4529
B( 16-C , 28-C ) :   0.4440 B( 16-C , 31-H ) :   0.8546 B( 16-C , 32-H ) :   1.0312
B( 17-C , 18-H ) :   0.9317 B( 17-C , 19-H ) :   0.8159 B( 17-C , 28-C ) :   0.2769
B( 22-C , 25-C ) :   0.7831 B( 22-C , 26-H ) :   1.0231 B( 22-C , 27-H ) :   0.8798
B( 23-H , 24-H ) :   0.1112 B( 25-C , 28-C ) :   0.8146 B( 25-C , 29-H ) :   0.9362
B( 25-C , 30-H ) :   0.9380 B( 28-C , 33-H ) :   0.8789 B( 28-C , 34-H ) :   0.9013
B( 31-H , 32-H ) :   0.2258

FINAL SINGLE POINT ENERGY     -1133.236928028730

DIPOLE MOMENT
-------------
                                X             Y             Z
Electronic contribution:    -11.72412     -18.16681     -14.60097
Nuclear contribution   :     10.61624      18.49702      15.75668
                        -----------------------------------------
Total Dipole Moment    :     -1.10788       0.33021       1.15571
                        -----------------------------------------
Magnitude (a.u.)       :      1.63465
Magnitude (Debye)      :      4.15496

Rotational constants in cm-1:     0.017796     0.012372     0.008231
Rotational constants in MHz :   533.524905   370.895973   246.762347

                             ****ORCA TERMINATED NORMALLY****
TOTAL RUN TIME: 0 days 0 hours 11 minutes 30 seconds 633 msec
