                         Program Version 5.0.0 -  RELEASE  -
|  1> !LC-PBE RIJCOSX def2-TZVPD def2/J TightSCF xyzfile
|  2>
|  3> *xyzfile 0 1 D5.xyz
|  4>
|  5> %MaxCore 64000
|  6>
|  7> %pal nprocs 4
|  8> end
|  9>
| 10> %scf
| 11>   MaxIter 150
| 12> end
| 13>
| 14>
| 15>                          ****END OF INPUT****

CARTESIAN COORDINATES (ANGSTROEM)
---------------------------------
  C      5.558206   -1.992914   -6.215054
  C      4.930199   -7.375319   -2.649623
  C      3.841892   -6.951611   -3.632829
  H      3.458144   -5.954425   -3.407121
  H      2.988484   -7.643606   -3.567078
  S      4.318115   -6.915930   -5.368692
  C      4.181880   -2.589671   -6.298911
  C      3.145873   -1.768431   -6.486753
  N      4.019102   -3.864307   -6.227427
  H      4.768490   -4.591153   -5.990773
  H      3.122405   -4.333392   -6.314620
  H      3.281635   -0.777786   -6.566549
  H      2.212549   -2.134193   -6.562246
  O      5.406154   -5.899480   -5.512972
  O      3.111910   -6.445079   -6.043792
  C      6.419260   -2.542944   -5.077630
  C      5.872267   -5.002756   -2.427819
  C      6.173994   -6.485522   -2.606315
  H      6.734852   -6.613767   -3.534015
  H      6.821463   -6.831018   -1.793617
  H      4.469612   -7.406168   -1.655876
  H      5.230134   -8.398678   -2.885906
  C      5.896512   -2.169314   -3.694552
  H      7.428880   -2.143665   -5.208078
  H      6.505894   -3.627541   -5.175502
  C      6.807804   -2.623428   -2.551019
  H      4.894708   -2.589732   -3.557501
  H      5.778823   -1.081255   -3.635790
  C      7.111544   -4.122463   -2.520363
  H      7.751615   -2.071393   -2.614406
  H      6.345837   -2.326401   -1.604086
  H      5.362882   -4.828697   -1.471335
  H      5.174429   -4.702577   -3.211298
  H      7.778329   -4.329347   -1.677651
  H      7.673189   -4.402845   -3.417586
  F      4.763396   -8.239424   -5.698629
  H      6.036826   -2.198189   -7.176852
  H      5.467610   -0.907371   -6.127968

 Total Charge           Charge          ....    0
 Multiplicity           Mult            ....    1
 Number of Electrons    NEL             ....  136
 Basis Dimension        Dim             ....  808

ORBITAL ENERGIES
----------------

  NO   OCC          E(Eh)            E(eV)
   0   2.0000     -88.566693     -2410.0222
   1   2.0000     -24.645708      -670.6438
   2   2.0000     -19.015800      -517.4462
   3   2.0000     -19.015267      -517.4317
   4   2.0000     -14.165767      -385.4701
   5   2.0000     -10.199179      -277.5338
   6   2.0000     -10.158199      -276.4187
   7   2.0000     -10.128115      -275.6000
   8   2.0000     -10.115274      -275.2506
   9   2.0000     -10.112477      -275.1745
  10   2.0000     -10.108375      -275.0629
  11   2.0000     -10.103154      -274.9208
  12   2.0000     -10.095210      -274.7046
  13   2.0000     -10.095007      -274.6991
  14   2.0000     -10.091343      -274.5994
  15   2.0000     -10.011602      -272.4296
  16   2.0000      -8.177944      -222.5332
  17   2.0000      -6.198266      -168.6634
  18   2.0000      -6.191428      -168.4773
  19   2.0000      -6.190792      -168.4600
  20   2.0000      -1.578756       -42.9601
  21   2.0000      -1.303524       -35.4707
  22   2.0000      -1.198018       -32.5997
  23   2.0000      -1.071291       -29.1513
  24   2.0000      -1.038431       -28.2571
  25   2.0000      -0.993760       -27.0416
  26   2.0000      -0.963251       -26.2114
  27   2.0000      -0.929238       -25.2858
  28   2.0000      -0.908959       -24.7340
  29   2.0000      -0.877150       -23.8685
  30   2.0000      -0.855989       -23.2927
  31   2.0000      -0.818651       -22.2766
  32   2.0000      -0.790079       -21.4991
  33   2.0000      -0.778003       -21.1705
  34   2.0000      -0.766931       -20.8693
  35   2.0000      -0.752792       -20.4845
  36   2.0000      -0.725367       -19.7382
  37   2.0000      -0.711088       -19.3497
  38   2.0000      -0.700298       -19.0561
  39   2.0000      -0.663264       -18.0483
  40   2.0000      -0.659486       -17.9455
  41   2.0000      -0.650295       -17.6954
  42   2.0000      -0.629436       -17.1278
  43   2.0000      -0.610477       -16.6119
  44   2.0000      -0.606676       -16.5085
  45   2.0000      -0.597045       -16.2464
  46   2.0000      -0.584702       -15.9105
  47   2.0000      -0.572396       -15.5757
  48   2.0000      -0.563997       -15.3471
  49   2.0000      -0.560811       -15.2604
  50   2.0000      -0.544012       -14.8033
  51   2.0000      -0.536171       -14.5900
  52   2.0000      -0.526642       -14.3306
  53   2.0000      -0.513314       -13.9680
  54   2.0000      -0.506438       -13.7809
  55   2.0000      -0.492663       -13.4060
  56   2.0000      -0.489930       -13.3317
  57   2.0000      -0.482124       -13.1193
  58   2.0000      -0.480902       -13.0860
  59   2.0000      -0.469073       -12.7641
  60   2.0000      -0.457697       -12.4546
  61   2.0000      -0.455766       -12.4020
  62   2.0000      -0.452435       -12.3114
  63   2.0000      -0.440365       -11.9829
  64   2.0000      -0.431357       -11.7378
  65   2.0000      -0.422494       -11.4966
  66   2.0000      -0.418458       -11.3868
  67   2.0000      -0.271959        -7.4004
  68   0.0000       0.029537         0.8037
  69   0.0000       0.047503         1.2926
  70   0.0000       0.057455         1.5634
  71   0.0000       0.065870         1.7924
  72   0.0000       0.075701         2.0599

MULLIKEN ATOMIC CHARGES
-----------------------
   0 C :   -0.776069
   1 C :   -0.766141
   2 C :   -0.833227
   3 H :    0.458246
   4 H :    0.487907
   5 S :    1.038155
   6 C :    0.724879
   7 C :   -1.437895
   8 N :   -0.255133
   9 H :    0.273814
  10 H :    0.168551
  11 H :    0.336796
  12 H :    0.359811
  13 O :   -0.678943
  14 O :   -0.652409
  15 C :   -0.590784
  16 C :   -0.060313
  17 C :   -0.875062
  18 H :    0.340529
  19 H :    0.433952
  20 H :    0.383407
  21 H :    0.373201
  22 C :   -0.532702
  23 H :    0.332766
  24 H :    0.224426
  25 C :   -0.879216
  26 H :    0.286676
  27 H :    0.369723
  28 C :   -0.886006
  29 H :    0.391109
  30 H :    0.366116
  31 H :    0.338897
  32 H :    0.063194
  33 H :    0.399392
  34 H :    0.411262
  35 F :   -0.051871
  36 H :    0.331560
  37 H :    0.381403
Sum of atomic charges:   -0.0000000

LOEWDIN ATOMIC CHARGES
----------------------
   0 C :   -0.160713
   1 C :   -0.237516
   2 C :   -0.227591
   3 H :    0.125654
   4 H :    0.124987
   5 S :    0.647927
   6 C :   -0.503517
   7 C :   -0.004863
   8 N :    0.097116
   9 H :    0.042763
  10 H :    0.098905
  11 H :    0.012502
  12 H :    0.018787
  13 O :   -0.300784
  14 O :   -0.268592
  15 C :   -0.222509
  16 C :   -0.237567
  17 C :   -0.235608
  18 H :    0.111848
  19 H :    0.129078
  20 H :    0.130987
  21 H :    0.119713
  22 C :   -0.227439
  23 H :    0.126274
  24 H :    0.096580
  25 C :   -0.229833
  26 H :    0.119110
  27 H :    0.126318
  28 C :   -0.231135
  29 H :    0.119023
  30 H :    0.118226
  31 H :    0.138735
  32 H :    0.091443
  33 H :    0.122477
  34 H :    0.120351
  35 F :   -0.004838
  36 H :    0.130657
  37 H :    0.123047

  Mayer bond orders larger than 0.100000
B(  0-C ,  6-C ) :   0.5801 B(  0-C , 15-C ) :   0.7724 B(  0-C , 36-H ) :   0.9513
B(  0-C , 37-H ) :   0.8885 B(  1-C ,  2-C ) :   0.6912 B(  1-C , 17-C ) :   0.7753
B(  1-C , 20-H ) :   0.9233 B(  1-C , 21-H ) :   0.9138 B(  2-C ,  3-H ) :   0.8258
B(  2-C ,  4-H ) :   0.8008 B(  2-C ,  5-S ) :   0.8950 B(  5-S , 13-O ) :   1.7189
B(  5-S , 14-O ) :   1.6246 B(  5-S , 35-F ) :   0.9781 B(  6-C ,  7-C ) :   1.1542
B(  6-C ,  8-N ) :   0.7863 B(  6-C ,  9-H ) :  -0.1185 B(  6-C , 10-H ) :  -0.1458
B(  6-C , 12-H ) :  -0.1232 B(  7-C ,  8-N ) :   0.1641 B(  7-C , 11-H ) :   1.0039
B(  7-C , 12-H ) :   0.9813 B(  8-N ,  9-H ) :   0.8768 B(  8-N , 10-H ) :   1.0354
B(  8-N , 13-O ) :  -0.1252 B(  8-N , 15-C ) :   0.1581 B( 15-C , 22-C ) :   0.5248
B( 15-C , 23-H ) :   0.9304 B( 15-C , 24-H ) :   1.0347 B( 16-C , 17-C ) :   0.4447
B( 16-C , 28-C ) :   0.4523 B( 16-C , 31-H ) :   0.8389 B( 16-C , 32-H ) :   1.0194
B( 17-C , 18-H ) :   0.9728 B( 17-C , 19-H ) :   0.8254 B( 17-C , 28-C ) :   0.2750
B( 22-C , 25-C ) :   0.7659 B( 22-C , 26-H ) :   1.0213 B( 22-C , 27-H ) :   0.8793
B( 25-C , 28-C ) :   0.8132 B( 25-C , 29-H ) :   0.9324 B( 25-C , 30-H ) :   0.9464
B( 28-C , 33-H ) :   0.8752 B( 28-C , 34-H ) :   0.8995 B( 31-H , 32-H ) :   0.2362

FINAL SINGLE POINT ENERGY     -1133.239797001472

DIPOLE MOMENT
-------------
                                X             Y             Z
Electronic contribution:     -8.06770     -23.41480     -13.55514
Nuclear contribution   :      8.54118      20.92489      15.31138
                        -----------------------------------------
Total Dipole Moment    :      0.47348      -2.48991       1.75624
                        -----------------------------------------
Magnitude (a.u.)       :      3.08354
Magnitude (Debye)      :      7.83772

Rotational constants in cm-1:     0.018156     0.012306     0.008278
Rotational constants in MHz :   544.309022   368.914527   248.178402

                             ****ORCA TERMINATED NORMALLY****
TOTAL RUN TIME: 0 days 0 hours 11 minutes 25 seconds 622 msec
