                         Program Version 5.0.0 -  RELEASE  -
|  1> !LC-PBE RIJCOSX def2-TZVPD def2/J TightSCF xyzfile
|  2>
|  3> *xyzfile 0 1 D6.xyz
|  4>
|  5> %MaxCore 64000
|  6>
|  7> %pal nprocs 4
|  8> end
|  9>
| 10> %scf
| 11>   MaxIter 150
| 12> end
| 13>
| 14>
| 15>                          ****END OF INPUT****

CARTESIAN COORDINATES (ANGSTROEM)
---------------------------------
  C      5.558206   -1.992914   -6.215054
  C      4.930199   -7.375319   -2.649623
  C      3.841892   -6.951611   -3.632829
  H      3.458144   -5.954425   -3.407121
  H      2.988484   -7.643606   -3.567078
  S      4.318115   -6.915930   -5.368692
  C      4.181880   -2.589671   -6.298911
  N      3.145873   -1.768431   -6.486753
  C      4.019102   -3.864307   -6.227427
  H      4.768490   -4.591153   -5.990773
  H      3.122405   -4.333392   -6.314620
  H      3.281635   -0.777786   -6.566549
  H      2.212549   -2.134193   -6.562246
  O      5.406154   -5.899480   -5.512972
  O      3.111910   -6.445079   -6.043792
  C      6.419260   -2.542944   -5.077630
  C      5.872267   -5.002756   -2.427819
  C      6.173994   -6.485522   -2.606315
  H      6.734852   -6.613767   -3.534015
  H      6.821463   -6.831018   -1.793617
  H      4.469612   -7.406168   -1.655876
  H      5.230134   -8.398678   -2.885906
  C      5.896512   -2.169314   -3.694552
  H      7.428880   -2.143665   -5.208078
  H      6.505894   -3.627541   -5.175502
  C      6.807804   -2.623428   -2.551019
  H      4.894708   -2.589732   -3.557501
  H      5.778823   -1.081255   -3.635790
  C      7.111544   -4.122463   -2.520363
  H      7.751615   -2.071393   -2.614406
  H      6.345837   -2.326401   -1.604086
  H      5.362882   -4.828697   -1.471335
  H      5.174429   -4.702577   -3.211298
  H      7.778329   -4.329347   -1.677651
  H      7.673189   -4.402845   -3.417586
  F      4.763396   -8.239424   -5.698629
  H      6.036826   -2.198189   -7.176852
  H      5.467610   -0.907371   -6.127968

 Total Charge           Charge          ....    0
 Multiplicity           Mult            ....    1
 Number of Electrons    NEL             ....  136
 Basis Dimension        Dim             ....  808

ORBITAL ENERGIES
----------------

  NO   OCC          E(Eh)            E(eV)
   0   2.0000     -88.542335     -2409.3594
   1   2.0000     -24.624584      -670.0690
   2   2.0000     -18.991828      -516.7939
   3   2.0000     -18.987005      -516.6627
   4   2.0000     -14.185527      -386.0078
   5   2.0000     -10.182767      -277.0872
   6   2.0000     -10.146166      -276.0912
   7   2.0000     -10.117641      -275.3150
   8   2.0000     -10.107885      -275.0495
   9   2.0000     -10.106217      -275.0042
  10   2.0000     -10.102080      -274.8916
  11   2.0000     -10.099379      -274.8181
  12   2.0000     -10.093867      -274.6681
  13   2.0000     -10.092172      -274.6220
  14   2.0000     -10.091369      -274.6001
  15   2.0000      -9.999130      -272.0902
  16   2.0000      -8.153542      -221.8692
  17   2.0000      -6.173970      -168.0023
  18   2.0000      -6.166828      -167.8079
  19   2.0000      -6.166497      -167.7989
  20   2.0000      -1.557867       -42.3917
  21   2.0000      -1.278140       -34.7799
  22   2.0000      -1.172016       -31.8922
  23   2.0000      -1.074324       -29.2338
  24   2.0000      -1.024483       -27.8776
  25   2.0000      -0.988081       -26.8871
  26   2.0000      -0.955275       -25.9943
  27   2.0000      -0.927422       -25.2364
  28   2.0000      -0.892247       -24.2793
  29   2.0000      -0.872852       -23.7515
  30   2.0000      -0.846065       -23.0226
  31   2.0000      -0.814978       -22.1767
  32   2.0000      -0.779535       -21.2122
  33   2.0000      -0.765941       -20.8423
  34   2.0000      -0.756788       -20.5932
  35   2.0000      -0.741305       -20.1719
  36   2.0000      -0.712624       -19.3915
  37   2.0000      -0.700930       -19.0733
  38   2.0000      -0.681210       -18.5367
  39   2.0000      -0.652238       -17.7483
  40   2.0000      -0.647287       -17.6136
  41   2.0000      -0.637730       -17.3535
  42   2.0000      -0.620784       -16.8924
  43   2.0000      -0.612930       -16.6787
  44   2.0000      -0.604262       -16.4428
  45   2.0000      -0.593723       -16.1560
  46   2.0000      -0.588279       -16.0079
  47   2.0000      -0.563547       -15.3349
  48   2.0000      -0.556637       -15.1469
  49   2.0000      -0.551554       -15.0085
  50   2.0000      -0.549825       -14.9615
  51   2.0000      -0.527473       -14.3533
  52   2.0000      -0.508596       -13.8396
  53   2.0000      -0.502889       -13.6843
  54   2.0000      -0.489440       -13.3183
  55   2.0000      -0.483863       -13.1666
  56   2.0000      -0.478621       -13.0240
  57   2.0000      -0.472382       -12.8542
  58   2.0000      -0.464234       -12.6324
  59   2.0000      -0.459152       -12.4942
  60   2.0000      -0.452739       -12.3197
  61   2.0000      -0.446014       -12.1367
  62   2.0000      -0.442868       -12.0511
  63   2.0000      -0.429882       -11.6977
  64   2.0000      -0.423204       -11.5160
  65   2.0000      -0.419583       -11.4174
  66   2.0000      -0.394919       -10.7463
  67   2.0000      -0.283205        -7.7064
  68   0.0000       0.038120         1.0373
  69   0.0000       0.054191         1.4746
  70   0.0000       0.064360         1.7513
  71   0.0000       0.070898         1.9292
  72   0.0000       0.081513         2.2181

MULLIKEN ATOMIC CHARGES
-----------------------
   0 C :   -0.787386
   1 C :   -0.766163
   2 C :   -0.835169
   3 H :    0.449690
   4 H :    0.490068
   5 S :    0.999593
   6 C :    0.705375
   7 N :   -0.531865
   8 C :   -1.171217
   9 H :    0.373561
  10 H :    0.455102
  11 H :    0.194238
  12 H :    0.176475
  13 O :   -0.621924
  14 O :   -0.628066
  15 C :   -0.591673
  16 C :   -0.011616
  17 C :   -0.896208
  18 H :    0.352642
  19 H :    0.436396
  20 H :    0.375679
  21 H :    0.366933
  22 C :   -0.562382
  23 H :    0.345603
  24 H :    0.204479
  25 C :   -0.892759
  26 H :    0.297417
  27 H :    0.366878
  28 C :   -0.882801
  29 H :    0.387037
  30 H :    0.361468
  31 H :    0.334476
  32 H :    0.027741
  33 H :    0.396900
  34 H :    0.417441
  35 F :   -0.056981
  36 H :    0.329419
  37 H :    0.391599
Sum of atomic charges:   -0.0000000

LOEWDIN ATOMIC CHARGES
----------------------
   0 C :   -0.160503
   1 C :   -0.239280
   2 C :   -0.229628
   3 H :    0.124366
   4 H :    0.122661
   5 S :    0.635217
   6 C :   -0.477186
   7 N :    0.085342
   8 C :   -0.013102
   9 H :   -0.010396
  10 H :    0.030933
  11 H :    0.094849
  12 H :    0.108324
  13 O :   -0.312470
  14 O :   -0.275764
  15 C :   -0.218922
  16 C :   -0.236816
  17 C :   -0.236359
  18 H :    0.111918
  19 H :    0.127604
  20 H :    0.128991
  21 H :    0.118736
  22 C :   -0.229237
  23 H :    0.126062
  24 H :    0.101850
  25 C :   -0.230514
  26 H :    0.118262
  27 H :    0.122759
  28 C :   -0.230981
  29 H :    0.118106
  30 H :    0.117476
  31 H :    0.137588
  32 H :    0.093319
  33 H :    0.121825
  34 H :    0.120902
  35 F :   -0.013445
  36 H :    0.131269
  37 H :    0.116244

  Mayer bond orders larger than 0.100000
B(  0-C ,  6-C ) :   0.1743 B(  0-C , 15-C ) :   0.8329 B(  0-C , 36-H ) :   0.9414
B(  0-C , 37-H ) :   0.9628 B(  1-C ,  2-C ) :   0.6912 B(  1-C , 17-C ) :   0.7668
B(  1-C , 20-H ) :   0.9274 B(  1-C , 21-H ) :   0.9182 B(  2-C ,  3-H ) :   0.8375
B(  2-C ,  4-H ) :   0.8003 B(  2-C ,  5-S ) :   0.8907 B(  5-S , 13-O ) :   1.7693
B(  5-S , 14-O ) :   1.6141 B(  5-S , 35-F ) :   0.9642 B(  6-C ,  7-N ) :   0.5940
B(  6-C ,  8-C ) :   0.6998 B(  6-C ,  9-H ) :   0.3578 B(  6-C , 10-H ) :  -0.3367
B(  6-C , 37-H ) :  -0.1985 B(  7-N , 11-H ) :   1.0630 B(  7-N , 12-H ) :   1.0760
B(  8-C ,  9-H ) :   0.8865 B(  8-C , 10-H ) :   1.0526 B(  8-C , 13-O ) :   0.1453
B(  9-H , 13-O ) :  -0.4600 B( 13-O , 14-O ) :   0.1086 B( 15-C , 22-C ) :   0.5002
B( 15-C , 23-H ) :   0.9130 B( 15-C , 24-H ) :   1.0777 B( 15-C , 28-C ) :   0.1073
B( 16-C , 17-C ) :   0.4549 B( 16-C , 28-C ) :   0.4460 B( 16-C , 31-H ) :   0.8497
B( 16-C , 32-H ) :   1.0152 B( 17-C , 18-H ) :   0.9567 B( 17-C , 19-H ) :   0.8244
B( 17-C , 28-C ) :   0.2862 B( 22-C , 25-C ) :   0.7741 B( 22-C , 26-H ) :   1.0216
B( 22-C , 27-H ) :   0.8774 B( 23-H , 24-H ) :   0.1075 B( 25-C , 28-C ) :   0.8200
B( 25-C , 29-H ) :   0.9378 B( 25-C , 30-H ) :   0.9384 B( 28-C , 33-H ) :   0.8797
B( 28-C , 34-H ) :   0.8938 B( 31-H , 32-H ) :   0.2355

FINAL SINGLE POINT ENERGY     -1133.224269385275

DIPOLE MOMENT
-------------
                                X             Y             Z
Electronic contribution:     -8.81889     -21.56793     -13.98738
Nuclear contribution   :      8.67311      20.60825      15.35056
                        -----------------------------------------
Total Dipole Moment    :     -0.14578      -0.95969       1.36318
                        -----------------------------------------
Magnitude (a.u.)       :      1.67347
Magnitude (Debye)      :      4.25363

Rotational constants in cm-1:     0.017976     0.012151     0.008188
Rotational constants in MHz :   538.898457   364.286417   245.482451

                             ****ORCA TERMINATED NORMALLY****
TOTAL RUN TIME: 0 days 0 hours 12 minutes 50 seconds 586 msec
