                         Program Version 5.0.0 -  RELEASE  -
|  1> !wB97X-D3 RIJCOSX def2-TZVP def2/J TightSCF
|  2> *xyz -1 1
|  3> C          0.13297        2.38587       -4.02462
|  4> C         -1.36646        2.47911       -4.31393
|  5> C         -2.35773        2.30686       -3.13675
|  6> H         -1.63680        1.72709       -5.06399
|  7> H         -1.58235        3.44561       -4.76869
|  8> O         -3.44376        2.84652       -3.25274
|  9> O         -1.97092        1.58304       -2.15123
| 10> H          0.68084        2.52514       -4.93310
| 11> H          0.35823        1.42282       -3.61633
| 12> H          0.40851        3.14443       -3.32208
| 13> *
| 14> %MaxCore 64000
| 15>
| 16> %pal nprocs 4
| 17> end
| 18>
| 19> %scf
| 20>   MaxIter 150
| 21> end
| 22>
| 23>
| 24>                          ****END OF INPUT****

CARTESIAN COORDINATES (ANGSTROEM)
---------------------------------
  C      0.132970    2.385870   -4.024620
  C     -1.366460    2.479110   -4.313930
  C     -2.357730    2.306860   -3.136750
  H     -1.636800    1.727090   -5.063990
  H     -1.582350    3.445610   -4.768690
  O     -3.443760    2.846520   -3.252740
  O     -1.970920    1.583040   -2.151230
  H      0.680840    2.525140   -4.933100
  H      0.358230    1.422820   -3.616330
  H      0.408510    3.144430   -3.322080

 Total Charge           Charge          ....   -1
 Multiplicity           Mult            ....    1
 Number of Electrons    NEL             ....   40
 Basis Dimension        Dim             ....  185

ORBITAL ENERGIES
----------------

  NO   OCC          E(Eh)            E(eV)
   0   2.0000     -18.958304      -515.8817
   1   2.0000     -18.947907      -515.5988
   2   2.0000     -10.150557      -276.2107
   3   2.0000     -10.105111      -274.9741
   4   2.0000     -10.095921      -274.7240
   5   2.0000      -0.934341       -25.4247
   6   2.0000      -0.831681       -22.6312
   7   2.0000      -0.715735       -19.4761
   8   2.0000      -0.581033       -15.8107
   9   2.0000      -0.414720       -11.2851
  10   2.0000      -0.391832       -10.6623
  11   2.0000      -0.357560        -9.7297
  12   2.0000      -0.322883        -8.7861
  13   2.0000      -0.308908        -8.4058
  14   2.0000      -0.301027        -8.1914
  15   2.0000      -0.269182        -7.3248
  16   2.0000      -0.251630        -6.8472
  17   2.0000      -0.132952        -3.6178
  18   2.0000      -0.127171        -3.4605
  19   2.0000      -0.115518        -3.1434
  20   0.0000       0.261662         7.1202
  21   0.0000       0.306147         8.3307
  22   0.0000       0.319808         8.7024
  23   0.0000       0.327817         8.9204
  24   0.0000       0.345017         9.3884

MULLIKEN ATOMIC CHARGES
-----------------------
   0 C :   -0.288591
   1 C :   -0.170735
   2 C :    0.252120
   3 H :    0.045545
   4 H :    0.048455
   5 O :   -0.514629
   6 O :   -0.598391
   7 H :    0.051885
   8 H :    0.093469
   9 H :    0.080872
Sum of atomic charges:   -1.0000000

LOEWDIN ATOMIC CHARGES
----------------------
   0 C :   -0.329206
   1 C :   -0.294229
   2 C :   -0.699841
   3 H :    0.123027
   4 H :    0.119576
   5 O :   -0.062384
   6 O :   -0.165419
   7 H :    0.092128
   8 H :    0.109685
   9 H :    0.106664

  Mayer bond orders larger than 0.100000
B(  0-C ,  1-C ) :   0.9485 B(  0-C ,  7-H ) :   0.9745 B(  0-C ,  8-H ) :   0.9795
B(  0-C ,  9-H ) :   0.9834 B(  1-C ,  2-C ) :   0.9451 B(  1-C ,  3-H ) :   0.9670
B(  1-C ,  4-H ) :   0.9713 B(  2-C ,  5-O ) :   1.8926 B(  2-C ,  6-O ) :   1.7961

Dispersion correction           -0.001941517
FINAL SINGLE POINT ENERGY      -267.864788779933

DIPOLE MOMENT
-------------
                                X             Y             Z
Electronic contribution:     -5.28890      -0.38022       3.22323
Nuclear contribution   :      6.75610       0.63068      -4.53972
                        -----------------------------------------
Total Dipole Moment    :      1.46720       0.25046      -1.31649
                        -----------------------------------------
Magnitude (a.u.)       :      1.98709
Magnitude (Debye)      :      5.05079

Rotational constants in cm-1:     0.335096     0.130241     0.099025
Rotational constants in MHz : 10045.924902  3904.536250  2968.708333

                             ****ORCA TERMINATED NORMALLY****
TOTAL RUN TIME: 0 days 0 hours 0 minutes 27 seconds 400 msec
