                         Program Version 5.0.0 -  RELEASE  -
|  1> !wB97X-D3 RIJCOSX def2-TZVP def2/J TightSCF
|  2> *xyz 1 1
|  3> C          0.64866        1.00359       -3.64560
|  4> N          0.28128        0.67645       -2.24018
|  5> C          0.13297        2.38587       -4.02462
|  6> H          0.39079       -0.31925       -2.02649
|  7> H         -0.69269        0.99010       -2.13812
|  8> H          0.85421        1.21221       -1.57528
|  9> H          0.19099        0.23965       -4.27575
| 10> H          1.73157        0.93173       -3.75075
| 11> H          0.40589        2.60338       -5.03610
| 12> H          0.56342        3.11797       -3.37374
| 13> H         -0.93265        2.40724       -3.93025
| 14> *
| 15> %MaxCore 64000
| 16>
| 17> %pal nprocs 4
| 18> end
| 19>
| 20> %scf
| 21>   MaxIter 150
| 22> end
| 23>
| 24>
| 25>                          ****END OF INPUT****

CARTESIAN COORDINATES (ANGSTROEM)
---------------------------------
  C      0.648660    1.003590   -3.645600
  N      0.281280    0.676450   -2.240180
  C      0.132970    2.385870   -4.024620
  H      0.390790   -0.319250   -2.026490
  H     -0.692690    0.990100   -2.138120
  H      0.854210    1.212210   -1.575280
  H      0.190990    0.239650   -4.275750
  H      1.731570    0.931730   -3.750750
  H      0.405890    2.603380   -5.036100
  H      0.563420    3.117970   -3.373740
  H     -0.932650    2.407240   -3.930250

 Total Charge           Charge          ....    1
 Multiplicity           Mult            ....    1
 Number of Electrons    NEL             ....   26
 Basis Dimension        Dim             ....  141

ORBITAL ENERGIES
----------------

  NO   OCC          E(Eh)            E(eV)
   0   2.0000     -14.757934      -401.5838
   1   2.0000     -10.529253      -286.5155
   2   2.0000     -10.450220      -284.3649
   3   2.0000      -1.334443       -36.3120
   4   2.0000      -1.081622       -29.4324
   5   2.0000      -0.955699       -26.0059
   6   2.0000      -0.903530       -24.5863
   7   2.0000      -0.896340       -24.3907
   8   2.0000      -0.794225       -21.6120
   9   2.0000      -0.742328       -20.1998
  10   2.0000      -0.680893       -18.5280
  11   2.0000      -0.666484       -18.1360
  12   2.0000      -0.648350       -17.6425
  13   0.0000      -0.107710        -2.9309
  14   0.0000      -0.046315        -1.2603
  15   0.0000      -0.043608        -1.1866
  16   0.0000      -0.025748        -0.7006
  17   0.0000       0.011357         0.3090

MULLIKEN ATOMIC CHARGES
-----------------------
   0 C :   -0.203693
   1 N :   -0.304473
   2 C :   -0.372261
   3 H :    0.344669
   4 H :    0.331282
   5 H :    0.336818
   6 H :    0.188664
   7 H :    0.193927
   8 H :    0.185379
   9 H :    0.150589
  10 H :    0.149097
Sum of atomic charges:    1.0000000

LOEWDIN ATOMIC CHARGES
----------------------
   0 C :   -0.277328
   1 N :    0.169740
   2 C :   -0.277096
   3 H :    0.222587
   4 H :    0.226809
   5 H :    0.224269
   6 H :    0.152747
   7 H :    0.151735
   8 H :    0.147658
   9 H :    0.130061
  10 H :    0.128818

  Mayer bond orders larger than 0.100000
B(  0-C ,  1-N ) :   0.8728 B(  0-C ,  2-C ) :   0.9992 B(  0-C ,  6-H ) :   0.9511
B(  0-C ,  7-H ) :   0.9532 B(  1-N ,  3-H ) :   0.8693 B(  1-N ,  4-H ) :   0.8732
B(  1-N ,  5-H ) :   0.8734 B(  2-C ,  8-H ) :   0.9588 B(  2-C ,  9-H ) :   0.9610
B(  2-C , 10-H ) :   0.9595

Dispersion correction           -0.001486574
FINAL SINGLE POINT ENERGY      -135.550158079504

DIPOLE MOMENT
-------------
                                X             Y             Z
Electronic contribution:      0.17044      -1.31686       1.34024
Nuclear contribution   :     -0.22655       0.48066      -0.09136
                        -----------------------------------------
Total Dipole Moment    :     -0.05611      -0.83620       1.24889
                        -----------------------------------------
Magnitude (a.u.)       :      1.50403
Magnitude (Debye)      :      3.82293

Rotational constants in cm-1:     0.998155     0.284845     0.251232
Rotational constants in MHz : 29923.943568  8539.431565  7531.732866

                             ****ORCA TERMINATED NORMALLY****
TOTAL RUN TIME: 0 days 0 hours 0 minutes 17 seconds 664 msec
