                         Program Version 5.0.0 -  RELEASE  -
|  1> !wB97X-D3 RIJCOSX def2-TZVP def2/J TightSCF
|  2> *xyz 0 1
|  3> C          0.13297        2.38587       -4.02462
|  4> C         -1.36646        2.47911       -4.31393
|  5> C         -2.35773        2.30686       -3.13675
|  6> H         -1.63680        1.72709       -5.06399
|  7> H         -1.58235        3.44561       -4.76869
|  8> F         -3.44376        2.84652       -3.25274
|  9> O         -1.97092        1.58304       -2.15123
| 10> H          0.68084        2.52514       -4.93310
| 11> H          0.35823        1.42282       -3.61633
| 12> H          0.40851        3.14443       -3.32208
| 13> *
| 14> %MaxCore 64000
| 15>
| 16> %pal nprocs 4
| 17> end
| 18>
| 19> %scf
| 20>   MaxIter 150
| 21> end
| 22>
| 23>
| 24>                          ****END OF INPUT****

CARTESIAN COORDINATES (ANGSTROEM)
---------------------------------
  C      0.132970    2.385870   -4.024620
  C     -1.366460    2.479110   -4.313930
  C     -2.357730    2.306860   -3.136750
  H     -1.636800    1.727090   -5.063990
  H     -1.582350    3.445610   -4.768690
  F     -3.443760    2.846520   -3.252740
  O     -1.970920    1.583040   -2.151230
  H      0.680840    2.525140   -4.933100
  H      0.358230    1.422820   -3.616330
  H      0.408510    3.144430   -3.322080

 Total Charge           Charge          ....    0
 Multiplicity           Mult            ....    1
 Number of Electrons    NEL             ....   40
 Basis Dimension        Dim             ....  185

ORBITAL ENERGIES
----------------

  NO   OCC          E(Eh)            E(eV)
   0   2.0000     -24.869187      -676.7250
   1   2.0000     -19.229903      -523.2723
   2   2.0000     -10.458294      -284.5847
   3   2.0000     -10.308426      -280.5065
   4   2.0000     -10.274054      -279.5712
   5   2.0000      -1.464273       -39.8449
   6   2.0000      -1.130412       -30.7601
   7   2.0000      -0.913446       -24.8561
   8   2.0000      -0.810612       -22.0579
   9   2.0000      -0.754710       -20.5367
  10   2.0000      -0.669860       -18.2278
  11   2.0000      -0.652629       -17.7589
  12   2.0000      -0.610612       -16.6156
  13   2.0000      -0.568035       -15.4570
  14   2.0000      -0.529524       -14.4091
  15   2.0000      -0.488234       -13.2855
  16   2.0000      -0.469584       -12.7780
  17   2.0000      -0.466832       -12.7032
  18   2.0000      -0.435594       -11.8531
  19   2.0000      -0.381866       -10.3911
  20   0.0000       0.059102         1.6082
  21   0.0000       0.113534         3.0894
  22   0.0000       0.155318         4.2264
  23   0.0000       0.173693         4.7264
  24   0.0000       0.182708         4.9717

MULLIKEN ATOMIC CHARGES
-----------------------
   0 C :   -0.325467
   1 C :   -0.231143
   2 C :    0.395216
   3 H :    0.129104
   4 H :    0.117008
   5 F :   -0.073870
   6 O :   -0.384599
   7 H :    0.121005
   8 H :    0.134110
   9 H :    0.118636
Sum of atomic charges:    0.0000000

LOEWDIN ATOMIC CHARGES
----------------------
   0 C :   -0.288674
   1 C :   -0.263863
   2 C :   -0.506152
   3 H :    0.153192
   4 H :    0.140871
   5 F :    0.383643
   6 O :    0.017795
   7 H :    0.118553
   8 H :    0.124110
   9 H :    0.120526

  Mayer bond orders larger than 0.100000
B(  0-C ,  1-C ) :   0.9866 B(  0-C ,  7-H ) :   0.9708 B(  0-C ,  8-H ) :   0.9707
B(  0-C ,  9-H ) :   0.9783 B(  1-C ,  2-C ) :   0.9967 B(  1-C ,  3-H ) :   0.9353
B(  1-C ,  4-H ) :   0.9640 B(  2-C ,  5-F ) :   1.1953 B(  2-C ,  6-O ) :   2.0027

Dispersion correction           -0.001917193
FINAL SINGLE POINT ENERGY      -292.425252575411

DIPOLE MOMENT
-------------
                                X             Y             Z
Electronic contribution:     -8.39743       0.48172       3.57184
Nuclear contribution   :      8.54799       0.05434      -4.66633
                        -----------------------------------------
Total Dipole Moment    :      0.15056       0.53606      -1.09448
                        -----------------------------------------
Magnitude (a.u.)       :      1.22798
Magnitude (Debye)      :      3.12127

Rotational constants in cm-1:     0.325803     0.123345     0.094275
Rotational constants in MHz :  9767.324172  3697.779805  2826.305733

                             ****ORCA TERMINATED NORMALLY****
TOTAL RUN TIME: 0 days 0 hours 0 minutes 28 seconds 94 msec
