                         Program Version 5.0.0 -  RELEASE  -
|  1> !wB97X-D3 RIJCOSX def2-TZVP def2/J TightSCF
|  2> *xyz 0 1
|  3> C          0.64866        1.00359       -3.64560
|  4> C          0.28128        0.67645       -2.24018
|  5> C          0.13297        2.38587       -4.02462
|  6> H          0.39079       -0.31925       -2.02649
|  7> H         -0.69269        0.99010       -2.13812
|  8> H          0.85421        1.21221       -1.57528
|  9> H          0.19099        0.23965       -4.27575
| 10> H          1.73157        0.93173       -3.75075
| 11> H          0.40589        2.60338       -5.03610
| 12> H          0.56342        3.11797       -3.37374
| 13> H         -0.93265        2.40724       -3.93025
| 14> *
| 15> %MaxCore 64000
| 16>
| 17> %pal nprocs 4
| 18> end
| 19>
| 20> %scf
| 21>   MaxIter 150
| 22> end
| 23>
| 24>
| 25>                          ****END OF INPUT****

CARTESIAN COORDINATES (ANGSTROEM)
---------------------------------
  C      0.648660    1.003590   -3.645600
  C      0.281280    0.676450   -2.240180
  C      0.132970    2.385870   -4.024620
  H      0.390790   -0.319250   -2.026490
  H     -0.692690    0.990100   -2.138120
  H      0.854210    1.212210   -1.575280
  H      0.190990    0.239650   -4.275750
  H      1.731570    0.931730   -3.750750
  H      0.405890    2.603380   -5.036100
  H      0.563420    3.117970   -3.373740
  H     -0.932650    2.407240   -3.930250

 Total Charge           Charge          ....    0
 Multiplicity           Mult            ....    1
 Number of Electrons    NEL             ....   26
 Basis Dimension        Dim             ....  141

ORBITAL ENERGIES
----------------

  NO   OCC          E(Eh)            E(eV)
   0   2.0000     -10.259859      -279.1850
   1   2.0000     -10.250964      -278.9429
   2   2.0000     -10.231130      -278.4032
   3   2.0000      -0.910076       -24.7644
   4   2.0000      -0.802472       -21.8364
   5   2.0000      -0.695237       -18.9183
   6   2.0000      -0.570659       -15.5284
   7   2.0000      -0.550848       -14.9893
   8   2.0000      -0.500078       -13.6078
   9   2.0000      -0.483579       -13.1589
  10   2.0000      -0.431266       -11.7354
  11   2.0000      -0.427753       -11.6398
  12   2.0000      -0.420295       -11.4368
  13   0.0000       0.122663         3.3378
  14   0.0000       0.166407         4.5282
  15   0.0000       0.171970         4.6796
  16   0.0000       0.177478         4.8294
  17   0.0000       0.195793         5.3278

MULLIKEN ATOMIC CHARGES
-----------------------
   0 C :   -0.148493
   1 C :   -0.313469
   2 C :   -0.333787
   3 H :    0.109848
   4 H :    0.092173
   5 H :    0.105674
   6 H :    0.082948
   7 H :    0.083615
   8 H :    0.110984
   9 H :    0.104491
  10 H :    0.106017
Sum of atomic charges:    0.0000000

LOEWDIN ATOMIC CHARGES
----------------------
   0 C :   -0.321130
   1 C :   -0.301113
   2 C :   -0.304182
   3 H :    0.105149
   4 H :    0.112047
   5 H :    0.107615
   6 H :    0.130602
   7 H :    0.128000
   8 H :    0.113740
   9 H :    0.115089
  10 H :    0.114182

  Mayer bond orders larger than 0.100000
B(  0-C ,  1-C ) :   0.9710 B(  0-C ,  2-C ) :   0.9820 B(  0-C ,  6-H ) :   0.9768
B(  0-C ,  7-H ) :   0.9761 B(  1-C ,  3-H ) :   0.9839 B(  1-C ,  4-H ) :   0.9814
B(  1-C ,  5-H ) :   0.9846 B(  2-C ,  8-H ) :   0.9825 B(  2-C ,  9-H ) :   0.9780
B(  2-C , 10-H ) :   0.9797

Dispersion correction           -0.001434332
FINAL SINGLE POINT ENERGY      -119.138455913331

DIPOLE MOMENT
-------------
                                X             Y             Z
Electronic contribution:      0.26148      -0.28250      -0.24499
Nuclear contribution   :     -0.24754       0.26111       0.24628
                        -----------------------------------------
Total Dipole Moment    :      0.01394      -0.02139       0.00129
                        -----------------------------------------
Magnitude (a.u.)       :      0.02556
Magnitude (Debye)      :      0.06498

Rotational constants in cm-1:     1.006509     0.299509     0.263145
Rotational constants in MHz : 30174.379724  8979.049324  7888.875355

                             ****ORCA TERMINATED NORMALLY****
TOTAL RUN TIME: 0 days 0 hours 0 minutes 16 seconds 705 msec
