                         Program Version 5.0.0 -  RELEASE  -
|  1> !wB97X-D3 RIJCOSX def2-TZVP def2/J TightSCF
|  2> *xyz 0 1
|  3> C          0.13297        2.38587       -4.02462
|  4> C         -1.36646        2.47911       -4.31393
|  5> C         -2.35773        2.30686       -3.13675
|  6> H         -1.63680        1.72709       -5.06399
|  7> H         -1.58235        3.44561       -4.76869
|  8> O         -3.44376        2.84652       -3.25274
|  9> F         -1.97092        1.58304       -2.15123
| 10> H          0.68084        2.52514       -4.93310
| 11> H          0.35823        1.42282       -3.61633
| 12> H          0.40851        3.14443       -3.32208
| 13> *
| 14> %MaxCore 64000
| 15>
| 16> %pal nprocs 4
| 17> end
| 18>
| 19> %scf
| 20>   MaxIter 150
| 21> end
| 22>
| 23>
| 24>                          ****END OF INPUT****

CARTESIAN COORDINATES (ANGSTROEM)
---------------------------------
  C      0.132970    2.385870   -4.024620
  C     -1.366460    2.479110   -4.313930
  C     -2.357730    2.306860   -3.136750
  H     -1.636800    1.727090   -5.063990
  H     -1.582350    3.445610   -4.768690
  O     -3.443760    2.846520   -3.252740
  F     -1.970920    1.583040   -2.151230
  H      0.680840    2.525140   -4.933100
  H      0.358230    1.422820   -3.616330
  H      0.408510    3.144430   -3.322080

 Total Charge           Charge          ....    0
 Multiplicity           Mult            ....    1
 Number of Electrons    NEL             ....   40
 Basis Dimension        Dim             ....  185

ORBITAL ENERGIES
----------------

  NO   OCC          E(Eh)            E(eV)
   0   2.0000     -24.844997      -676.0667
   1   2.0000     -19.239001      -523.5198
   2   2.0000     -10.452520      -284.4275
   3   2.0000     -10.306923      -280.4656
   4   2.0000     -10.279129      -279.7093
   5   2.0000      -1.415789       -38.5256
   6   2.0000      -1.170866       -31.8609
   7   2.0000      -0.916023       -24.9262
   8   2.0000      -0.792943       -21.5771
   9   2.0000      -0.745247       -20.2792
  10   2.0000      -0.644603       -17.5405
  11   2.0000      -0.639250       -17.3949
  12   2.0000      -0.599813       -16.3217
  13   2.0000      -0.567696       -15.4478
  14   2.0000      -0.532847       -14.4995
  15   2.0000      -0.503283       -13.6950
  16   2.0000      -0.487298       -13.2600
  17   2.0000      -0.470515       -12.8034
  18   2.0000      -0.448762       -12.2114
  19   2.0000      -0.392018       -10.6673
  20   0.0000       0.064272         1.7489
  21   0.0000       0.109012         2.9664
  22   0.0000       0.156543         4.2597
  23   0.0000       0.176387         4.7997
  24   0.0000       0.181442         4.9373

MULLIKEN ATOMIC CHARGES
-----------------------
   0 C :   -0.329202
   1 C :   -0.236607
   2 C :    0.375511
   3 H :    0.129160
   4 H :    0.139058
   5 O :   -0.314780
   6 F :   -0.127401
   7 H :    0.125558
   8 H :    0.118549
   9 H :    0.120154
Sum of atomic charges:   -0.0000000

LOEWDIN ATOMIC CHARGES
----------------------
   0 C :   -0.299644
   1 C :   -0.259463
   2 C :   -0.492515
   3 H :    0.153237
   4 H :    0.152594
   5 O :    0.107399
   6 F :    0.280855
   7 H :    0.120347
   8 H :    0.118277
   9 H :    0.118913

  Mayer bond orders larger than 0.100000
B(  0-C ,  1-C ) :   0.9702 B(  0-C ,  7-H ) :   0.9728 B(  0-C ,  8-H ) :   0.9721
B(  0-C ,  9-H ) :   0.9764 B(  1-C ,  2-C ) :   1.0006 B(  1-C ,  3-H ) :   0.9444
B(  1-C ,  4-H ) :   0.9658 B(  2-C ,  5-O ) :   2.0843 B(  2-C ,  6-F ) :   1.1260

Dispersion correction           -0.001886654
FINAL SINGLE POINT ENERGY      -292.442894699268

DIPOLE MOMENT
-------------
                                X             Y             Z
Electronic contribution:     -5.89872      -1.63382       5.40005
Nuclear contribution   :      6.94213       1.43193      -5.86732
                        -----------------------------------------
Total Dipole Moment    :      1.04341      -0.20189      -0.46726
                        -----------------------------------------
Magnitude (a.u.)       :      1.16095
Magnitude (Debye)      :      2.95090

Rotational constants in cm-1:     0.306336     0.129048     0.095707
Rotational constants in MHz :  9183.725605  3868.769583  2869.236577

                             ****ORCA TERMINATED NORMALLY****
TOTAL RUN TIME: 0 days 0 hours 0 minutes 28 seconds 58 msec
