                         Program Version 5.0.0 -  RELEASE  -
|  1> !wB97X-D3 RIJCOSX def2-TZVP def2/J TightSCF xyzfile
|  2>
|  3> *xyzfile 0 1 D2.xyz
|  4>
|  5> %MaxCore 64000
|  6>
|  7> %pal nprocs 18
|  8> end
|  9>
| 10> %scf
| 11>   MaxIter 150
| 12> end
| 13>
| 14>
| 15>                          ****END OF INPUT****

CARTESIAN COORDINATES (ANGSTROEM)
---------------------------------
  C      0.648656    1.003595   -3.645601
  C      0.281280    0.676454   -2.240179
  C      0.132968    2.385869   -4.024618
  C     -1.366462    2.479106   -4.313932
  C     -2.357732    2.306858   -3.136753
  H     -1.636802    1.727095   -5.063993
  H     -1.582347    3.445605   -4.768687
  H      0.390790   -0.319253   -2.026495
  H     -0.692686    0.990104   -2.138123
  H      0.854206    1.212214   -1.575279
  O     -3.443763    2.846518   -3.252744
  F     -1.970922    1.583042   -2.151229
  H      0.190993    0.239655   -4.275752
  H      1.731572    0.931729   -3.750751
  H      0.414839    3.102847   -3.245165
  H      0.683167    2.687560   -4.919721

 Total Charge           Charge          ....    0
 Multiplicity           Mult            ....    1
 Number of Electrons    NEL             ....   56
 Basis Dimension        Dim             ....  271

ORBITAL ENERGIES
----------------

  NO   OCC          E(Eh)            E(eV)
   0   2.0000     -24.857207      -676.3990
   1   2.0000     -19.246943      -523.7359
   2   2.0000     -10.460668      -284.6493
   3   2.0000     -10.309764      -280.5429
   4   2.0000     -10.286608      -279.9128
   5   2.0000     -10.267575      -279.3949
   6   2.0000     -10.212542      -277.8974
   7   2.0000      -1.438637       -39.1473
   8   2.0000      -1.179173       -32.0869
   9   2.0000      -0.942070       -25.6350
  10   2.0000      -0.879600       -23.9351
  11   2.0000      -0.789702       -21.4889
  12   2.0000      -0.787556       -21.4305
  13   2.0000      -0.694350       -18.8942
  14   2.0000      -0.668312       -18.1857
  15   2.0000      -0.655497       -17.8370
  16   2.0000      -0.611608       -16.6427
  17   2.0000      -0.574031       -15.6202
  18   2.0000      -0.554304       -15.0834
  19   2.0000      -0.548317       -14.9205
  20   2.0000      -0.520382       -14.1603
  21   2.0000      -0.488234       -13.2855
  22   2.0000      -0.480861       -13.0849
  23   2.0000      -0.460007       -12.5174
  24   2.0000      -0.431535       -11.7427
  25   2.0000      -0.426136       -11.5958
  26   2.0000      -0.417952       -11.3730
  27   2.0000      -0.385809       -10.4984
  28   0.0000       0.056097         1.5265
  29   0.0000       0.108517         2.9529
  30   0.0000       0.141343         3.8461
  31   0.0000       0.147637         4.0174
  32   0.0000       0.159051         4.3280

MULLIKEN ATOMIC CHARGES
-----------------------
   0 C :   -0.158270
   1 C :   -0.399442
   2 C :   -0.193665
   3 C :   -0.268482
   4 C :    0.367171
   5 H :    0.137613
   6 H :    0.153786
   7 H :    0.105688
   8 H :    0.133689
   9 H :    0.104843
  10 O :   -0.302412
  11 F :   -0.088004
  12 H :    0.083085
  13 H :    0.096728
  14 H :    0.114230
  15 H :    0.113441
Sum of atomic charges:    0.0000000

LOEWDIN ATOMIC CHARGES
----------------------
   0 C :   -0.299671
   1 C :   -0.313292
   2 C :   -0.267397
   3 C :   -0.229274
   4 C :   -0.478302
   5 H :    0.157658
   6 H :    0.157698
   7 H :    0.102603
   8 H :    0.079765
   9 H :    0.105412
  10 O :    0.115305
  11 F :    0.321225
  12 H :    0.133969
  13 H :    0.132244
  14 H :    0.140939
  15 H :    0.141117

  Mayer bond orders larger than 0.100000
B(  0-C ,  1-C ) :   0.9530 B(  0-C ,  2-C ) :   0.9496 B(  0-C , 12-H ) :   0.9777
B(  0-C , 13-H ) :   0.9731 B(  1-C ,  7-H ) :   0.9850 B(  1-C ,  8-H ) :   0.9851
B(  1-C ,  9-H ) :   0.9867 B(  2-C ,  3-C ) :   0.9552 B(  2-C , 14-H ) :   0.9763
B(  2-C , 15-H ) :   0.9674 B(  3-C ,  4-C ) :   1.0042 B(  3-C ,  5-H ) :   0.9474
B(  3-C ,  6-H ) :   0.9627 B(  4-C , 10-O ) :   2.1063 B(  4-C , 11-F ) :   1.0873

Dispersion correction           -0.004650496
FINAL SINGLE POINT ENERGY      -371.022019360100

DIPOLE MOMENT
-------------
                                X             Y             Z
Electronic contribution:    -10.28084       2.33870       3.30230
Nuclear contribution   :     11.08738      -2.45618      -3.73478
                        -----------------------------------------
Total Dipole Moment    :      0.80655      -0.11749      -0.43248
                        -----------------------------------------
Magnitude (a.u.)       :      0.92269
Magnitude (Debye)      :      2.34530

Rotational constants in cm-1:     0.156244     0.063730     0.048063
Rotational constants in MHz :  4684.071402  1910.571278  1440.877811

                             ****ORCA TERMINATED NORMALLY****
TOTAL RUN TIME: 0 days 0 hours 0 minutes 25 seconds 424 msec
