                         Program Version 5.0.0 -  RELEASE  -
|  1> !BLYP D3BJ RIJCOSX def2-TZVPD def2/J TightSCF
|  2> *xyz -1 1
|  3> C         -0.91495        0.61511        2.50554
|  4> C         -0.05915        1.50352        3.41058
|  5> H          0.36536        2.34431        2.86116
|  6> H         -0.69226        1.92021        4.19898
|  7> C          1.08303        0.74964        4.08571
|  8> O          2.22817        1.26348        4.01983
|  9> O          0.81003       -0.34541        4.63627
| 10> H         -0.30401        0.20228        1.73015
| 11> H         -1.69811        1.19946        2.06954
| 12> H         -1.34124       -0.17772        3.08397
| 13> *
| 14>
| 15> %MaxCore 64000
| 16>
| 17> %pal nprocs 4
| 18> end
| 19>
| 20> %scf
| 21>   MaxIter 150
| 22> end
| 23>
| 24>
| 25>                          ****END OF INPUT****

CARTESIAN COORDINATES (ANGSTROEM)
---------------------------------
  C     -0.914950    0.615110    2.505540
  C     -0.059150    1.503520    3.410580
  H      0.365360    2.344310    2.861160
  H     -0.692260    1.920210    4.198980
  C      1.083030    0.749640    4.085710
  O      2.228170    1.263480    4.019830
  O      0.810030   -0.345410    4.636270
  H     -0.304010    0.202280    1.730150
  H     -1.698110    1.199460    2.069540
  H     -1.341240   -0.177720    3.083970

 Total Charge           Charge          ....   -1
 Multiplicity           Mult            ....    1
 Number of Electrons    NEL             ....   40
 Basis Dimension        Dim             ....  236

ORBITAL ENERGIES
----------------

  NO   OCC          E(Eh)            E(eV)
   0   2.0000     -18.512055      -503.7386
   1   2.0000     -18.511209      -503.7156
   2   2.0000      -9.781679      -266.1730
   3   2.0000      -9.738796      -265.0061
   4   2.0000      -9.729099      -264.7422
   5   2.0000      -0.726311       -19.7639
   6   2.0000      -0.639474       -17.4010
   7   2.0000      -0.526274       -14.3206
   8   2.0000      -0.404932       -11.0188
   9   2.0000      -0.262019        -7.1299
  10   2.0000      -0.240024        -6.5314
  11   2.0000      -0.205455        -5.5907
  12   2.0000      -0.178933        -4.8690
  13   2.0000      -0.164883        -4.4867
  14   2.0000      -0.155175        -4.2225
  15   2.0000      -0.128816        -3.5053
  16   2.0000      -0.114739        -3.1222
  17   2.0000      -0.009209        -0.2506
  18   2.0000       0.003616         0.0984
  19   2.0000       0.020393         0.5549
  20   0.0000       0.119900         3.2626
  21   0.0000       0.146559         3.9881
  22   0.0000       0.162699         4.4273
  23   0.0000       0.169809         4.6207
  24   0.0000       0.195066         5.3080

MULLIKEN ATOMIC CHARGES
-----------------------
   0 C :   -1.101373
   1 C :   -0.082631
   2 H :    0.183189
   3 H :    0.178753
   4 C :    0.393011
   5 O :   -0.724380
   6 O :   -0.718503
   7 H :    0.307834
   8 H :    0.310868
   9 H :    0.253232
Sum of atomic charges:   -1.0000000

LOEWDIN ATOMIC CHARGES
----------------------
   0 C :   -0.129476
   1 C :   -0.211344
   2 H :    0.080447
   3 H :    0.089327
   4 C :   -0.788112
   5 O :   -0.096466
   6 O :   -0.085850
   7 H :    0.056171
   8 H :    0.036410
   9 H :    0.048893

  Mayer bond orders larger than 0.100000
B(  0-C ,  1-C ) :   0.5211 B(  0-C ,  7-H ) :   0.9445 B(  0-C ,  8-H ) :   0.9274
B(  0-C ,  9-H ) :   1.0364 B(  1-C ,  2-H ) :   1.0334 B(  1-C ,  3-H ) :   0.9492
B(  1-C ,  4-C ) :   0.9328 B(  4-C ,  5-O ) :   1.3859 B(  4-C ,  6-O ) :   1.3956

Dispersion correction           -0.013546664
FINAL SINGLE POINT ENERGY      -267.885701551028

DIPOLE MOMENT
-------------
                                X             Y             Z
Electronic contribution:      4.80779      -1.04652       3.41158
Nuclear contribution   :     -6.38408       1.63097      -4.40540
                        -----------------------------------------
Total Dipole Moment    :     -1.57629       0.58444      -0.99382
                        -----------------------------------------
Magnitude (a.u.)       :      1.95293
Magnitude (Debye)      :      4.96395

Rotational constants in cm-1:     0.319732     0.134414     0.104753
Rotational constants in MHz :  9585.336550  4029.633034  3140.404334

                             ****ORCA TERMINATED NORMALLY****
TOTAL RUN TIME: 0 days 0 hours 0 minutes 11 seconds 726 msec
