                         Program Version 5.0.0 -  RELEASE  -
|  1> !BLYP D3BJ RIJCOSX def2-TZVPD def2/J TightSCF
|  2> *xyz 1 1
|  3> C          4.60295       -2.44010        2.63478
|  4> C          3.86085       -1.59157        3.62289
|  5> N          2.75650       -2.04616        4.16633
|  6> N          4.25433       -0.36291        3.86046
|  7> H          3.56526        0.31099        4.16898
|  8> H          5.05429       -0.01606        3.33784
|  9> H          2.43970       -2.97389        3.89740
| 10> H          2.06687       -1.41253        4.54981
| 11> C          3.74469       -2.58056        1.36188
| 12> H          5.56156       -1.97135        2.40708
| 13> H          4.81050       -3.42255        3.06310
| 14> H          4.26314       -3.18477        0.64702
| 15> H          3.56325       -1.61180        0.94535
| 16> H          2.81197       -3.04259        1.60980
| 17> *
| 18>
| 19> %MaxCore 64000
| 20>
| 21> %pal nprocs 4
| 22> end
| 23>
| 24> %scf
| 25>   MaxIter 150
| 26> end
| 27>
| 28>
| 29>                          ****END OF INPUT****

CARTESIAN COORDINATES (ANGSTROEM)
---------------------------------
  C      4.602950   -2.440100    2.634780
  C      3.860850   -1.591570    3.622890
  N      2.756500   -2.046160    4.166330
  N      4.254330   -0.362910    3.860460
  H      3.565260    0.310990    4.168980
  H      5.054290   -0.016060    3.337840
  H      2.439700   -2.973890    3.897400
  H      2.066870   -1.412530    4.549810
  C      3.744690   -2.580560    1.361880
  H      5.561560   -1.971350    2.407080
  H      4.810500   -3.422550    3.063100
  H      4.263140   -3.184770    0.647020
  H      3.563250   -1.611800    0.945350
  H      2.811970   -3.042590    1.609800

 Total Charge           Charge          ....    1
 Multiplicity           Mult            ....    1
 Number of Electrons    NEL             ....   40
 Basis Dimension        Dim             ....  266

ORBITAL ENERGIES
----------------

  NO   OCC          E(Eh)            E(eV)
   0   2.0000     -14.250403      -387.7732
   1   2.0000     -14.249438      -387.7469
   2   2.0000     -10.218536      -278.0605
   3   2.0000     -10.106033      -274.9991
   4   2.0000     -10.065296      -273.8906
   5   2.0000      -1.117441       -30.4071
   6   2.0000      -1.027456       -27.9585
   7   2.0000      -0.893452       -24.3121
   8   2.0000      -0.794196       -21.6112
   9   2.0000      -0.753425       -20.5017
  10   2.0000      -0.715869       -19.4798
  11   2.0000      -0.695299       -18.9200
  12   2.0000      -0.646581       -17.5944
  13   2.0000      -0.610552       -16.6140
  14   2.0000      -0.575378       -15.6568
  15   2.0000      -0.552287       -15.0285
  16   2.0000      -0.505218       -13.7477
  17   2.0000      -0.498809       -13.5733
  18   2.0000      -0.487233       -13.2583
  19   2.0000      -0.453407       -12.3378
  20   0.0000      -0.247571        -6.7367
  21   0.0000      -0.191730        -5.2172
  22   0.0000      -0.150679        -4.1002
  23   0.0000      -0.146046        -3.9741
  24   0.0000      -0.118435        -3.2228

MULLIKEN ATOMIC CHARGES
-----------------------
   0 C :   -0.345077
   1 C :    0.610566
   2 N :   -0.271402
   3 N :   -0.246280
   4 H :    0.210313
   5 H :    0.216398
   6 H :    0.219219
   7 H :    0.189704
   8 C :   -1.153084
   9 H :    0.265967
  10 H :    0.272054
  11 H :    0.319815
  12 H :    0.368025
  13 H :    0.343781
Sum of atomic charges:    1.0000000

LOEWDIN ATOMIC CHARGES
----------------------
   0 C :   -0.134145
   1 C :   -0.379184
   2 N :    0.240185
   3 N :    0.242525
   4 H :    0.144037
   5 H :    0.146308
   6 H :    0.145782
   7 H :    0.146176
   8 C :   -0.042668
   9 H :    0.122159
  10 H :    0.131802
  11 H :    0.085780
  12 H :    0.082086
  13 H :    0.069159

  Mayer bond orders larger than 0.100000
B(  0-C ,  1-C ) :   0.8435 B(  0-C ,  8-C ) :   0.5748 B(  0-C ,  9-H ) :   0.9656
B(  0-C , 10-H ) :   0.9727 B(  1-C ,  2-N ) :   1.2207 B(  1-C ,  3-N ) :   1.2412
B(  2-N ,  3-N ) :   0.1059 B(  2-N ,  6-H ) :   0.9352 B(  2-N ,  7-H ) :   0.9876
B(  3-N ,  4-H ) :   0.9580 B(  3-N ,  5-H ) :   0.9447 B(  8-C , 11-H ) :   0.9669
B(  8-C , 12-H ) :   0.9432 B(  8-C , 13-H ) :   0.9109

Dispersion correction           -0.020880617
FINAL SINGLE POINT ENERGY      -229.029810215592

DIPOLE MOMENT
-------------
                                X             Y             Z
Electronic contribution:     -0.23396       1.78231       3.73066
Nuclear contribution   :     -0.22400      -1.16268      -3.30447
                        -----------------------------------------
Total Dipole Moment    :     -0.45796       0.61963       0.42618
                        -----------------------------------------
Magnitude (a.u.)       :      0.88052
Magnitude (Debye)      :      2.23810

Rotational constants in cm-1:     0.258103     0.130571     0.102508
Rotational constants in MHz :  7737.732062  3914.431392  3073.119154

                             ****ORCA TERMINATED NORMALLY****
TOTAL RUN TIME: 0 days 0 hours 0 minutes 15 seconds 537 msec
