                         Program Version 5.0.0 -  RELEASE  -
|  1> !BLYP D3BJ RIJCOSX def2-TZVPD def2/J TightSCF xyzfile
|  2>
|  3> *xyzfile 0 1 B.xyz
|  4>
|  5> %MaxCore 64000
|  6>
|  7> %pal nprocs 4
|  8> end
|  9>
| 10> %scf
| 11>   MaxIter 150
| 12> end
| 13>
| 14>
| 15>                          ****END OF INPUT****

CARTESIAN COORDINATES (ANGSTROEM)
---------------------------------
  C      4.602954   -2.440100    2.634780
  C     -0.914947    0.615112    2.505538
  C     -0.059146    1.503524    3.410578
  H      0.365364    2.344315    2.861161
  H     -0.692261    1.920207    4.198985
  C      1.083027    0.749640    4.085705
  C      3.860851   -1.591565    3.622893
  N      2.756502   -2.046159    4.166333
  N      4.254325   -0.362905    3.860455
  H      3.565256    0.310994    4.168983
  H      5.054292   -0.016059    3.337838
  H      2.439696   -2.973894    3.897395
  H      2.066869   -1.412532    4.549813
  O      2.228167    1.263475    4.019826
  O      0.810034   -0.345411    4.636269
  C      3.744685   -2.580557    1.361882
  C      0.772139    0.636882    0.562129
  C     -0.130740   -0.193985    1.470763
  H     -0.840563   -0.760165    0.856377
  H      0.466691   -0.938942    2.006959
  H     -1.647961    1.245963    1.991076
  H     -1.478180   -0.081046    3.130424
  C      3.203721   -1.256004    0.826211
  H      2.898939   -3.239289    1.583074
  H      4.334962   -3.095523    0.600188
  C      2.107815   -1.442385   -0.216865
  H      2.786775   -0.672760    1.650711
  H      4.021008   -0.652993    0.414046
  C      1.390662   -0.145912   -0.602422
  H      1.372179   -2.152184    0.176151
  H      2.523302   -1.906787   -1.117115
  H      1.561361    1.100094    1.161831
  H      0.195516    1.468325    0.142758
  H      0.602893   -0.398214   -1.319716
  H      2.087247    0.508272   -1.137335
  H      5.561557   -1.971347    2.407084
  H      4.810498   -3.422552    3.063099

 Total Charge           Charge          ....    0
 Multiplicity           Mult            ....    1
 Number of Electrons    NEL             ....  118
 Basis Dimension        Dim             ....  759

ORBITAL ENERGIES
----------------

  NO   OCC          E(Eh)            E(eV)
   0   2.0000     -18.698336      -508.8076
   1   2.0000     -18.696569      -508.7595
   2   2.0000     -14.045427      -382.1955
   3   2.0000     -14.045417      -382.1952
   4   2.0000     -10.031406      -272.9684
   5   2.0000      -9.962199      -271.0852
   6   2.0000      -9.952911      -270.8325
   7   2.0000      -9.934940      -270.3435
   8   2.0000      -9.912326      -269.7281
   9   2.0000      -9.903735      -269.4943
  10   2.0000      -9.896023      -269.2845
  11   2.0000      -9.885756      -269.0051
  12   2.0000      -9.882544      -268.9177
  13   2.0000      -9.878437      -268.8059
  14   2.0000      -9.870225      -268.5825
  15   2.0000      -0.928409       -25.2633
  16   2.0000      -0.913528       -24.8584
  17   2.0000      -0.839311       -22.8388
  18   2.0000      -0.824071       -22.4241
  19   2.0000      -0.755329       -20.5536
  20   2.0000      -0.722474       -19.6595
  21   2.0000      -0.694309       -18.8931
  22   2.0000      -0.657704       -17.8970
  23   2.0000      -0.622756       -16.9461
  24   2.0000      -0.591443       -16.0940
  25   2.0000      -0.574970       -15.6457
  26   2.0000      -0.554463       -15.0877
  27   2.0000      -0.523127       -14.2350
  28   2.0000      -0.517384       -14.0787
  29   2.0000      -0.510472       -13.8907
  30   2.0000      -0.484340       -13.1796
  31   2.0000      -0.458567       -12.4782
  32   2.0000      -0.453390       -12.3374
  33   2.0000      -0.430864       -11.7244
  34   2.0000      -0.417322       -11.3559
  35   2.0000      -0.408819       -11.1245
  36   2.0000      -0.402344       -10.9483
  37   2.0000      -0.390796       -10.6341
  38   2.0000      -0.379560       -10.3283
  39   2.0000      -0.369157       -10.0453
  40   2.0000      -0.360754        -9.8166
  41   2.0000      -0.355916        -9.6850
  42   2.0000      -0.349008        -9.4970
  43   2.0000      -0.344219        -9.3667
  44   2.0000      -0.327501        -8.9118
  45   2.0000      -0.325807        -8.8656
  46   2.0000      -0.320725        -8.7274
  47   2.0000      -0.314311        -8.5528
  48   2.0000      -0.305667        -8.3176
  49   2.0000      -0.290433        -7.9031
  50   2.0000      -0.287541        -7.8244
  51   2.0000      -0.279803        -7.6138
  52   2.0000      -0.266389        -7.2488
  53   2.0000      -0.261840        -7.1250
  54   2.0000      -0.260210        -7.0807
  55   2.0000      -0.253460        -6.8970
  56   2.0000      -0.195708        -5.3255
  57   2.0000      -0.181671        -4.9435
  58   2.0000      -0.171412        -4.6644
  59   0.0000      -0.064823        -1.7639
  60   0.0000      -0.033735        -0.9180
  61   0.0000      -0.016807        -0.4574
  62   0.0000      -0.005861        -0.1595
  63   0.0000       0.001952         0.0531

MULLIKEN ATOMIC CHARGES
-----------------------
   0 C :   -0.549034
   1 C :   -0.610064
   2 C :   -0.484633
   3 H :    0.213292
   4 H :    0.299352
   5 C :    0.770140
   6 C :    0.216161
   7 N :   -0.269211
   8 N :   -0.274725
   9 H :    0.368027
  10 H :    0.161879
  11 H :    0.171874
  12 H :    0.358105
  13 O :   -0.835991
  14 O :   -0.855803
  15 C :   -0.611799
  16 C :   -0.297299
  17 C :   -0.441562
  18 H :    0.316524
  19 H :    0.189385
  20 H :    0.263135
  21 H :    0.221598
  22 C :    0.134071
  23 H :    0.203828
  24 H :    0.292886
  25 C :   -0.618961
  26 H :    0.024895
  27 H :    0.199904
  28 C :   -0.762003
  29 H :    0.246647
  30 H :    0.297290
  31 H :    0.282847
  32 H :    0.291464
  33 H :    0.280073
  34 H :    0.271909
  35 H :    0.268781
  36 H :    0.267017
Sum of atomic charges:    0.0000000

LOEWDIN ATOMIC CHARGES
----------------------
   0 C :   -0.109583
   1 C :   -0.199226
   2 C :   -0.124558
   3 H :    0.101860
   4 H :    0.113954
   5 C :   -0.666549
   6 C :   -0.404574
   7 N :    0.240681
   8 N :    0.227246
   9 H :    0.048467
  10 H :    0.130764
  11 H :    0.132882
  12 H :    0.047909
  13 O :   -0.028988
  14 O :   -0.024903
  15 C :   -0.182393
  16 C :   -0.206544
  17 C :   -0.207624
  18 H :    0.113267
  19 H :    0.096171
  20 H :    0.104863
  21 H :    0.104468
  22 C :   -0.205262
  23 H :    0.106173
  24 H :    0.115377
  25 C :   -0.210425
  26 H :    0.088573
  27 H :    0.125379
  28 C :   -0.202421
  29 H :    0.104724
  30 H :    0.110462
  31 H :    0.101741
  32 H :    0.114003
  33 H :    0.105500
  34 H :    0.105483
  35 H :    0.114057
  36 H :    0.119045

  Mayer bond orders larger than 0.100000
B(  0-C ,  6-C ) :   0.7293 B(  0-C , 15-C ) :   0.7123 B(  0-C , 35-H ) :   0.9407
B(  0-C , 36-H ) :   1.0192 B(  1-C ,  2-C ) :   0.8214 B(  1-C , 16-C ) :   0.1264
B(  1-C , 17-C ) :   0.8907 B(  1-C , 20-H ) :   0.9542 B(  1-C , 21-H ) :   0.9303
B(  2-C ,  3-H ) :   1.0279 B(  2-C ,  4-H ) :   0.8617 B(  2-C ,  5-C ) :   0.9573
B(  2-C , 16-C ) :   0.1609 B(  5-C , 13-O ) :   1.1392 B(  5-C , 14-O ) :   1.1259
B(  6-C ,  7-N ) :   1.3247 B(  6-C ,  8-N ) :   1.4330 B(  7-N , 11-H ) :   0.9516
B(  7-N , 12-H ) :   0.6782 B(  8-N ,  9-H ) :   0.7077 B(  8-N , 10-H ) :   0.9448
B( 12-H , 14-O ) :   0.1085 B( 13-O , 14-O ) :   0.1537 B( 15-C , 22-C ) :   0.3961
B( 15-C , 23-H ) :   0.9492 B( 15-C , 24-H ) :   0.9590 B( 15-C , 25-C ) :   0.4179
B( 15-C , 27-H ) :  -0.1345 B( 16-C , 17-C ) :   0.1919 B( 16-C , 19-H ) :  -0.2053
B( 16-C , 25-C ) :  -0.1050 B( 16-C , 28-C ) :   0.7630 B( 16-C , 31-H ) :   1.0595
B( 16-C , 32-H ) :   0.8484 B( 17-C , 18-H ) :   0.8287 B( 17-C , 19-H ) :   1.1803
B( 17-C , 25-C ) :   0.1142 B( 17-C , 28-C ) :   0.1631 B( 17-C , 31-H ) :  -0.1667
B( 22-C , 25-C ) :   0.3606 B( 22-C , 26-H ) :   1.5385 B( 22-C , 27-H ) :   0.8687
B( 22-C , 28-C ) :   0.1137 B( 23-H , 25-C ) :   0.1042 B( 25-C , 27-H ) :  -0.1124
B( 25-C , 28-C ) :   0.8725 B( 25-C , 29-H ) :   0.9433 B( 25-C , 30-H ) :   0.9335
B( 26-H , 27-H ) :   0.1153 B( 28-C , 33-H ) :   0.9493 B( 28-C , 34-H ) :   0.9536

Dispersion correction           -0.085459203
FINAL SINGLE POINT ENERGY      -692.454742717913

DIPOLE MOMENT
-------------
                                X             Y             Z
Electronic contribution:      3.38755       1.67319      13.06772
Nuclear contribution   :     -1.50655      -3.48027     -14.35034
                        -----------------------------------------
Total Dipole Moment    :      1.88099      -1.80709      -1.28262
                        -----------------------------------------
Magnitude (a.u.)       :      2.90668
Magnitude (Debye)      :      7.38821

Rotational constants in cm-1:     0.021781     0.017296     0.011403
Rotational constants in MHz :   652.971749   518.510612   341.853154

                             ****ORCA TERMINATED NORMALLY****
TOTAL RUN TIME: 0 days 0 hours 2 minutes 39 seconds 202 msec
