                         Program Version 5.0.0 -  RELEASE  -
|  1> !BLYP D3BJ RIJCOSX def2-TZVPD def2/J TightSCF
|  2> *xyz 0 1
|  3> C         -0.91495        0.61511        2.50554
|  4> C         -0.05915        1.50352        3.41058
|  5> H          0.36536        2.34431        2.86116
|  6> H         -0.69226        1.92021        4.19898
|  7> C          1.08303        0.74964        4.08571
|  8> F          2.22817        1.26348        4.01983
|  9> O          0.81003       -0.34541        4.63627
| 10> H         -0.30401        0.20228        1.73015
| 11> H         -1.69811        1.19946        2.06954
| 12> H         -1.34124       -0.17772        3.08397
| 13> *
| 14>
| 15> %MaxCore 64000
| 16>
| 17> %pal nprocs 4
| 18> end
| 19>
| 20> %scf
| 21>   MaxIter 150
| 22> end
| 23>
| 24>
| 25>                          ****END OF INPUT****

CARTESIAN COORDINATES (ANGSTROEM)
---------------------------------
  C     -0.914950    0.615110    2.505540
  C     -0.059150    1.503520    3.410580
  H      0.365360    2.344310    2.861160
  H     -0.692260    1.920210    4.198980
  C      1.083030    0.749640    4.085710
  F      2.228170    1.263480    4.019830
  O      0.810030   -0.345410    4.636270
  H     -0.304010    0.202280    1.730150
  H     -1.698110    1.199460    2.069540
  H     -1.341240   -0.177720    3.083970

 Total Charge           Charge          ....    0
 Multiplicity           Mult            ....    1
 Number of Electrons    NEL             ....   40
 Basis Dimension        Dim             ....  236

ORBITAL ENERGIES
----------------

  NO   OCC          E(Eh)            E(eV)
   0   2.0000     -24.353191      -662.6840
   1   2.0000     -18.777473      -510.9610
   2   2.0000     -10.074790      -274.1490
   3   2.0000      -9.935701      -270.3642
   4   2.0000      -9.907226      -269.5893
   5   2.0000      -1.207916       -32.8691
   6   2.0000      -0.939257       -25.5585
   7   2.0000      -0.721130       -19.6229
   8   2.0000      -0.619221       -16.8499
   9   2.0000      -0.570293       -15.5185
  10   2.0000      -0.484738       -13.1904
  11   2.0000      -0.470437       -12.8012
  12   2.0000      -0.446591       -12.1523
  13   2.0000      -0.413137       -11.2420
  14   2.0000      -0.380928       -10.3656
  15   2.0000      -0.350224        -9.5301
  16   2.0000      -0.330673        -8.9981
  17   2.0000      -0.327313        -8.9066
  18   2.0000      -0.304055        -8.2738
  19   2.0000      -0.242828        -6.6077
  20   0.0000      -0.065594        -1.7849
  21   0.0000      -0.014232        -0.3873
  22   0.0000       0.012344         0.3359
  23   0.0000       0.024133         0.6567
  24   0.0000       0.032562         0.8861

MULLIKEN ATOMIC CHARGES
-----------------------
   0 C :   -1.104235
   1 C :   -0.132897
   2 H :    0.234232
   3 H :    0.232482
   4 C :    0.522697
   5 F :   -0.210139
   6 O :   -0.485639
   7 H :    0.337914
   8 H :    0.314455
   9 H :    0.291131
Sum of atomic charges:    0.0000000

LOEWDIN ATOMIC CHARGES
----------------------
   0 C :   -0.080677
   1 C :   -0.156019
   2 H :    0.104056
   3 H :    0.119188
   4 C :   -0.508537
   5 F :    0.220162
   6 O :    0.096091
   7 H :    0.071449
   8 H :    0.065817
   9 H :    0.068471

  Mayer bond orders larger than 0.100000
B(  0-C ,  1-C ) :   0.6092 B(  0-C ,  7-H ) :   0.9133 B(  0-C ,  8-H ) :   0.9354
B(  0-C ,  9-H ) :   1.0073 B(  1-C ,  2-H ) :   0.9746 B(  1-C ,  3-H ) :   0.9290
B(  1-C ,  4-C ) :   0.9272 B(  4-C ,  5-F ) :   1.0052 B(  4-C ,  6-O ) :   1.7133

Dispersion correction           -0.012859532
FINAL SINGLE POINT ENERGY      -292.455528945892

DIPOLE MOMENT
-------------
                                X             Y             Z
Electronic contribution:      7.74194      -0.19760       4.11057
Nuclear contribution   :     -8.12386       1.06915      -4.71960
                        -----------------------------------------
Total Dipole Moment    :     -0.38193       0.87154      -0.60903
                        -----------------------------------------
Magnitude (a.u.)       :      1.12976
Magnitude (Debye)      :      2.87163

Rotational constants in cm-1:     0.309513     0.127560     0.099675
Rotational constants in MHz :  9278.979128  3824.146597  2988.174827

                             ****ORCA TERMINATED NORMALLY****
TOTAL RUN TIME: 0 days 0 hours 0 minutes 13 seconds 164 msec
