                         Program Version 5.0.0 -  RELEASE  -
|  1> !BLYP D3BJ RIJCOSX def2-TZVPD def2/J TightSCF
|  2> *xyz 0 1
|  3> C          4.60295       -2.44010        2.63478
|  4> C          3.86085       -1.59157        3.62289
|  5> C          2.75650       -2.04616        4.16633
|  6> N          4.25433       -0.36291        3.86046
|  7> H          3.56526        0.31099        4.16898
|  8> H          5.05429       -0.01606        3.33784
|  9> H          2.43970       -2.97389        3.89740
| 10> H          2.06687       -1.41253        4.54981
| 11> C          3.74469       -2.58056        1.36188
| 12> H          5.56156       -1.97135        2.40708
| 13> H          4.81050       -3.42255        3.06310
| 14> H          4.26314       -3.18477        0.64702
| 15> H          3.56325       -1.61180        0.94535
| 16> H          2.81197       -3.04259        1.60980
| 17> *
| 18>
| 19> %MaxCore 64000
| 20>
| 21> %pal nprocs 4
| 22> end
| 23>
| 24> %scf
| 25>   MaxIter 150
| 26> end
| 27>
| 28>
| 29>                          ****END OF INPUT****

CARTESIAN COORDINATES (ANGSTROEM)
---------------------------------
  C      4.602950   -2.440100    2.634780
  C      3.860850   -1.591570    3.622890
  C      2.756500   -2.046160    4.166330
  N      4.254330   -0.362910    3.860460
  H      3.565260    0.310990    4.168980
  H      5.054290   -0.016060    3.337840
  H      2.439700   -2.973890    3.897400
  H      2.066870   -1.412530    4.549810
  C      3.744690   -2.580560    1.361880
  H      5.561560   -1.971350    2.407080
  H      4.810500   -3.422550    3.063100
  H      4.263140   -3.184770    0.647020
  H      3.563250   -1.611800    0.945350
  H      2.811970   -3.042590    1.609800

 Total Charge           Charge          ....    0
 Multiplicity           Mult            ....    1
 Number of Electrons    NEL             ....   40
 Basis Dimension        Dim             ....  266

ORBITAL ENERGIES
----------------

  NO   OCC          E(Eh)            E(eV)
   0   2.0000     -14.008605      -381.1935
   1   2.0000      -9.918506      -269.8963
   2   2.0000      -9.906397      -269.5668
   3   2.0000      -9.889121      -269.0966
   4   2.0000      -9.833921      -267.5946
   5   2.0000      -0.847027       -23.0488
   6   2.0000      -0.703047       -19.1309
   7   2.0000      -0.637321       -17.3424
   8   2.0000      -0.571938       -15.5632
   9   2.0000      -0.503563       -13.7027
  10   2.0000      -0.470025       -12.7900
  11   2.0000      -0.427654       -11.6371
  12   2.0000      -0.396377       -10.7860
  13   2.0000      -0.363072        -9.8797
  14   2.0000      -0.340796        -9.2735
  15   2.0000      -0.330940        -9.0053
  16   2.0000      -0.308600        -8.3974
  17   2.0000      -0.298354        -8.1186
  18   2.0000      -0.282892        -7.6979
  19   2.0000      -0.155415        -4.2291
  20   0.0000      -0.015528        -0.4225
  21   0.0000       0.001948         0.0530
  22   0.0000       0.016607         0.4519
  23   0.0000       0.024273         0.6605
  24   0.0000       0.031771         0.8645

MULLIKEN ATOMIC CHARGES
-----------------------
   0 C :   -0.330159
   1 C :    0.607196
   2 C :   -1.118808
   3 N :   -0.320772
   4 H :    0.147447
   5 H :    0.160665
   6 H :    0.330735
   7 H :    0.261631
   8 C :   -1.148322
   9 H :    0.239097
  10 H :    0.229300
  11 H :    0.301132
  12 H :    0.316322
  13 H :    0.324535
Sum of atomic charges:    0.0000000

LOEWDIN ATOMIC CHARGES
----------------------
   0 C :   -0.186049
   1 C :   -0.506194
   2 C :    0.014571
   3 N :    0.116976
   4 H :    0.107241
   5 H :    0.099601
   6 H :    0.022683
   7 H :    0.020436
   8 C :   -0.082946
   9 H :    0.098032
  10 H :    0.110162
  11 H :    0.057996
  12 H :    0.067827
  13 H :    0.059664

  Mayer bond orders larger than 0.100000
B(  0-C ,  1-C ) :   0.7323 B(  0-C ,  8-C ) :   0.5574 B(  0-C ,  9-H ) :   1.0420
B(  0-C , 10-H ) :   0.9572 B(  1-C ,  2-C ) :   1.3645 B(  1-C ,  3-N ) :   0.9770
B(  1-C ,  9-H ) :  -0.1087 B(  2-C ,  3-N ) :   0.1108 B(  2-C ,  6-H ) :   0.9078
B(  2-C ,  7-H ) :   1.0678 B(  3-N ,  4-H ) :   0.9892 B(  3-N ,  5-H ) :   0.9996
B(  8-C , 11-H ) :   0.9473 B(  8-C , 12-H ) :   0.9575 B(  8-C , 13-H ) :   0.9646

Dispersion correction           -0.021816687
FINAL SINGLE POINT ENERGY      -212.546690437591

DIPOLE MOMENT
-------------
                                X             Y             Z
Electronic contribution:      0.80257       1.77468       2.56781
Nuclear contribution   :     -0.47010      -1.22282      -3.06417
                        -----------------------------------------
Total Dipole Moment    :      0.33247       0.55186      -0.49635
                        -----------------------------------------
Magnitude (a.u.)       :      0.81330
Magnitude (Debye)      :      2.06724

Rotational constants in cm-1:     0.271862     0.131962     0.105499
Rotational constants in MHz :  8150.219120  3956.123671  3162.785522

                             ****ORCA TERMINATED NORMALLY****
TOTAL RUN TIME: 0 days 0 hours 0 minutes 16 seconds 291 msec
