                         Program Version 5.0.0 -  RELEASE  -
|  1> !BLYP D3BJ RIJCOSX def2-TZVPD def2/J TightSCF
|  2> *xyz 0 1
|  3> C         -0.91495        0.61511        2.50554
|  4> C         -0.05915        1.50352        3.41058
|  5> H          0.36536        2.34431        2.86116
|  6> H         -0.69226        1.92021        4.19898
|  7> C          1.08303        0.74964        4.08571
|  8> O          2.22817        1.26348        4.01983
|  9> F          0.81003       -0.34541        4.63627
| 10> H         -0.30401        0.20228        1.73015
| 11> H         -1.69811        1.19946        2.06954
| 12> H         -1.34124       -0.17772        3.08397
| 13> *
| 14>
| 15> %MaxCore 64000
| 16>
| 17> %pal nprocs 4
| 18> end
| 19>
| 20> %scf
| 21>   MaxIter 150
| 22> end
| 23>
| 24>
| 25>                          ****END OF INPUT****

CARTESIAN COORDINATES (ANGSTROEM)
---------------------------------
  C     -0.914950    0.615110    2.505540
  C     -0.059150    1.503520    3.410580
  H      0.365360    2.344310    2.861160
  H     -0.692260    1.920210    4.198980
  C      1.083030    0.749640    4.085710
  O      2.228170    1.263480    4.019830
  F      0.810030   -0.345410    4.636270
  H     -0.304010    0.202280    1.730150
  H     -1.698110    1.199460    2.069540
  H     -1.341240   -0.177720    3.083970

 Total Charge           Charge          ....    0
 Multiplicity           Mult            ....    1
 Number of Electrons    NEL             ....   40
 Basis Dimension        Dim             ....  236

ORBITAL ENERGIES
----------------

  NO   OCC          E(Eh)            E(eV)
   0   2.0000     -24.354287      -662.7138
   1   2.0000     -18.776392      -510.9316
   2   2.0000     -10.074303      -274.1357
   3   2.0000      -9.935148      -270.3491
   4   2.0000      -9.912409      -269.7304
   5   2.0000      -1.209487       -32.9118
   6   2.0000      -0.937264       -25.5043
   7   2.0000      -0.725104       -19.7311
   8   2.0000      -0.615631       -16.7522
   9   2.0000      -0.576726       -15.6935
  10   2.0000      -0.487065       -13.2537
  11   2.0000      -0.476378       -12.9629
  12   2.0000      -0.439591       -11.9619
  13   2.0000      -0.413659       -11.2562
  14   2.0000      -0.382587       -10.4107
  15   2.0000      -0.353818        -9.6279
  16   2.0000      -0.335806        -9.1378
  17   2.0000      -0.331628        -9.0240
  18   2.0000      -0.305935        -8.3249
  19   2.0000      -0.237717        -6.4686
  20   0.0000      -0.063326        -1.7232
  21   0.0000      -0.016891        -0.4596
  22   0.0000       0.013059         0.3554
  23   0.0000       0.022620         0.6155
  24   0.0000       0.032893         0.8951

MULLIKEN ATOMIC CHARGES
-----------------------
   0 C :   -1.142203
   1 C :   -0.078148
   2 H :    0.197941
   3 H :    0.249535
   4 C :    0.515424
   5 O :   -0.487532
   6 F :   -0.219078
   7 H :    0.355308
   8 H :    0.305918
   9 H :    0.302836
Sum of atomic charges:    0.0000000

LOEWDIN ATOMIC CHARGES
----------------------
   0 C :   -0.084857
   1 C :   -0.151277
   2 H :    0.113689
   3 H :    0.116946
   4 C :   -0.513339
   5 O :    0.091787
   6 F :    0.224350
   7 H :    0.071834
   8 H :    0.066097
   9 H :    0.064771

  Mayer bond orders larger than 0.100000
B(  0-C ,  1-C ) :   0.5470 B(  0-C ,  7-H ) :   0.9212 B(  0-C ,  8-H ) :   0.9586
B(  0-C ,  9-H ) :   0.9795 B(  1-C ,  2-H ) :   1.0139 B(  1-C ,  3-H ) :   0.9147
B(  1-C ,  4-C ) :   0.9195 B(  4-C ,  5-O ) :   1.7093 B(  4-C ,  6-F ) :   1.0041

Dispersion correction           -0.012756721
FINAL SINGLE POINT ENERGY      -292.454465709125

DIPOLE MOMENT
-------------
                                X             Y             Z
Electronic contribution:      5.37520      -2.84105       5.11102
Nuclear contribution   :     -6.57765       2.82334      -5.39171
                        -----------------------------------------
Total Dipole Moment    :     -1.20245      -0.01771      -0.28069
                        -----------------------------------------
Magnitude (a.u.)       :      1.23491
Magnitude (Debye)      :      3.13888

Rotational constants in cm-1:     0.294245     0.132994     0.101060
Rotational constants in MHz :  8821.228602  3987.049251  3029.696815

                             ****ORCA TERMINATED NORMALLY****
TOTAL RUN TIME: 0 days 0 hours 0 minutes 13 seconds 147 msec
