                         Program Version 5.0.0 -  RELEASE  -
|  1> !BLYP D3BJ RIJCOSX def2-TZVPD def2/J TightSCF
|  2> *xyz 0 1
|  3> C          4.60295       -2.44010        2.63478
|  4> C          3.86085       -1.59157        3.62289
|  5> N          2.75650       -2.04616        4.16633
|  6> C          4.25433       -0.36291        3.86046
|  7> H          3.56526        0.31099        4.16898
|  8> H          5.05429       -0.01606        3.33784
|  9> H          2.43970       -2.97389        3.89740
| 10> H          2.06687       -1.41253        4.54981
| 11> C          3.74469       -2.58056        1.36188
| 12> H          5.56156       -1.97135        2.40708
| 13> H          4.81050       -3.42255        3.06310
| 14> H          4.26314       -3.18477        0.64702
| 15> H          3.56325       -1.61180        0.94535
| 16> H          2.81197       -3.04259        1.60980
| 17> *
| 18>
| 19> %MaxCore 64000
| 20>
| 21> %pal nprocs 4
| 22> end
| 23>
| 24> %scf
| 25>   MaxIter 150
| 26> end
| 27>
| 28>
| 29>                          ****END OF INPUT****

CARTESIAN COORDINATES (ANGSTROEM)
---------------------------------
  C      4.602950   -2.440100    2.634780
  C      3.860850   -1.591570    3.622890
  N      2.756500   -2.046160    4.166330
  C      4.254330   -0.362910    3.860460
  H      3.565260    0.310990    4.168980
  H      5.054290   -0.016060    3.337840
  H      2.439700   -2.973890    3.897400
  H      2.066870   -1.412530    4.549810
  C      3.744690   -2.580560    1.361880
  H      5.561560   -1.971350    2.407080
  H      4.810500   -3.422550    3.063100
  H      4.263140   -3.184770    0.647020
  H      3.563250   -1.611800    0.945350
  H      2.811970   -3.042590    1.609800

 Total Charge           Charge          ....    0
 Multiplicity           Mult            ....    1
 Number of Electrons    NEL             ....   40
 Basis Dimension        Dim             ....  266

ORBITAL ENERGIES
----------------

  NO   OCC          E(Eh)            E(eV)
   0   2.0000     -14.008295      -381.1851
   1   2.0000      -9.919538      -269.9243
   2   2.0000      -9.905746      -269.5491
   3   2.0000      -9.892844      -269.1980
   4   2.0000      -9.835219      -267.6299
   5   2.0000      -0.846645       -23.0384
   6   2.0000      -0.701434       -19.0870
   7   2.0000      -0.644769       -17.5451
   8   2.0000      -0.567535       -15.4434
   9   2.0000      -0.510134       -13.8814
  10   2.0000      -0.471141       -12.8204
  11   2.0000      -0.423013       -11.5108
  12   2.0000      -0.388646       -10.5756
  13   2.0000      -0.378392       -10.2966
  14   2.0000      -0.340387        -9.2624
  15   2.0000      -0.333287        -9.0692
  16   2.0000      -0.312291        -8.4979
  17   2.0000      -0.295253        -8.0342
  18   2.0000      -0.279725        -7.6117
  19   2.0000      -0.158047        -4.3007
  20   0.0000      -0.017088        -0.4650
  21   0.0000       0.003670         0.0999
  22   0.0000       0.019718         0.5366
  23   0.0000       0.022003         0.5987
  24   0.0000       0.029969         0.8155

MULLIKEN ATOMIC CHARGES
-----------------------
   0 C :   -0.363389
   1 C :    0.568964
   2 N :   -0.345353
   3 C :   -0.976917
   4 H :    0.271400
   5 H :    0.276199
   6 H :    0.155306
   7 H :    0.128972
   8 C :   -1.122672
   9 H :    0.202136
  10 H :    0.263059
  11 H :    0.300624
  12 H :    0.332947
  13 H :    0.308724
Sum of atomic charges:   -0.0000000

LOEWDIN ATOMIC CHARGES
----------------------
   0 C :   -0.187702
   1 C :   -0.509638
   2 N :    0.117377
   3 C :    0.020862
   4 H :    0.019090
   5 H :    0.018753
   6 H :    0.102009
   7 H :    0.109508
   8 C :   -0.083222
   9 H :    0.105618
  10 H :    0.104377
  11 H :    0.059700
  12 H :    0.070215
  13 H :    0.053054

  Mayer bond orders larger than 0.100000
B(  0-C ,  1-C ) :   0.7912 B(  0-C ,  8-C ) :   0.5897 B(  0-C ,  9-H ) :   0.9921
B(  0-C , 10-H ) :   0.9605 B(  1-C ,  2-N ) :   0.9623 B(  1-C ,  3-C ) :   1.3514
B(  2-N ,  3-C ) :   0.1092 B(  2-N ,  6-H ) :   0.9814 B(  2-N ,  7-H ) :   1.0130
B(  3-C ,  4-H ) :   1.0365 B(  3-C ,  5-H ) :   1.0008 B(  8-C , 11-H ) :   0.9601
B(  8-C , 12-H ) :   0.9882 B(  8-C , 13-H ) :   0.9421

Dispersion correction           -0.021770423
FINAL SINGLE POINT ENERGY      -212.547162474891

DIPOLE MOMENT
-------------
                                X             Y             Z
Electronic contribution:     -0.48579       0.31931       2.83929
Nuclear contribution   :     -0.12319      -0.83296      -3.13501
                        -----------------------------------------
Total Dipole Moment    :     -0.60898      -0.51365      -0.29572
                        -----------------------------------------
Magnitude (a.u.)       :      0.84979
Magnitude (Debye)      :      2.15999

Rotational constants in cm-1:     0.266453     0.134423     0.106086
Rotational constants in MHz :  7988.053142  4029.892766  3180.375228

                             ****ORCA TERMINATED NORMALLY****
TOTAL RUN TIME: 0 days 0 hours 0 minutes 14 seconds 734 msec
