                         Program Version 5.0.0 -  RELEASE  -
|  1> !BLYP D3BJ RIJCOSX def2-TZVPD def2/J TightSCF xyzfile
|  2>
|  3> *xyzfile 0 1 D1.xyz
|  4>
|  5> %MaxCore 64000
|  6>
|  7> %pal nprocs 4
|  8> end
|  9>
| 10> %scf
| 11>   MaxIter 150
| 12> end
| 13>
| 14>
| 15>                          ****END OF INPUT****

CARTESIAN COORDINATES (ANGSTROEM)
---------------------------------
  C      4.602954   -2.440100    2.634780
  C     -0.914947    0.615112    2.505538
  C     -0.059146    1.503524    3.410578
  H      0.365364    2.344315    2.861161
  H     -0.692261    1.920207    4.198985
  C      1.083027    0.749640    4.085705
  C      3.860851   -1.591565    3.622893
  C      2.756502   -2.046159    4.166333
  N      4.254325   -0.362905    3.860455
  H      3.565256    0.310994    4.168983
  H      5.054292   -0.016059    3.337838
  H      2.439696   -2.973894    3.897395
  H      2.066869   -1.412532    4.549813
  F      2.228167    1.263475    4.019826
  O      0.810034   -0.345411    4.636269
  C      3.744685   -2.580557    1.361882
  C      0.772139    0.636882    0.562129
  C     -0.130740   -0.193985    1.470763
  H     -0.840563   -0.760165    0.856377
  H      0.466691   -0.938942    2.006959
  H     -1.647961    1.245963    1.991076
  H     -1.478180   -0.081046    3.130424
  C      3.203721   -1.256004    0.826211
  H      2.898939   -3.239289    1.583074
  H      4.334962   -3.095523    0.600188
  C      2.107815   -1.442385   -0.216865
  H      2.786775   -0.672760    1.650711
  H      4.021008   -0.652993    0.414046
  C      1.390662   -0.145912   -0.602422
  H      1.372179   -2.152184    0.176151
  H      2.523302   -1.906787   -1.117115
  H      1.561361    1.100094    1.161831
  H      0.195516    1.468325    0.142758
  H      0.602893   -0.398214   -1.319716
  H      2.087247    0.508272   -1.137335
  H      5.561557   -1.971347    2.407084
  H      4.810498   -3.422552    3.063099

 Total Charge           Charge          ....    0
 Multiplicity           Mult            ....    1
 Number of Electrons    NEL             ....  118
 Basis Dimension        Dim             ....  759

ORBITAL ENERGIES
----------------

  NO   OCC          E(Eh)            E(eV)
   0   2.0000     -24.377116      -663.3351
   1   2.0000     -18.789157      -511.2790
   2   2.0000     -13.985058      -380.5528
   3   2.0000     -10.088381      -274.5188
   4   2.0000      -9.940195      -270.4865
   5   2.0000      -9.919327      -269.9186
   6   2.0000      -9.904329      -269.5105
   7   2.0000      -9.904191      -269.5067
   8   2.0000      -9.899447      -269.3777
   9   2.0000      -9.898265      -269.3455
  10   2.0000      -9.893291      -269.2101
  11   2.0000      -9.891546      -269.1626
  12   2.0000      -9.891409      -269.1589
  13   2.0000      -9.889601      -269.1097
  14   2.0000      -9.802839      -266.7488
  15   2.0000      -1.235629       -33.6232
  16   2.0000      -0.957649       -26.0589
  17   2.0000      -0.829790       -22.5797
  18   2.0000      -0.748613       -20.3708
  19   2.0000      -0.724815       -19.7232
  20   2.0000      -0.701841       -19.0981
  21   2.0000      -0.667758       -18.1706
  22   2.0000      -0.646075       -17.5806
  23   2.0000      -0.618258       -16.8236
  24   2.0000      -0.606229       -16.4963
  25   2.0000      -0.578248       -15.7349
  26   2.0000      -0.546351       -14.8670
  27   2.0000      -0.526345       -14.3226
  28   2.0000      -0.509972       -13.8771
  29   2.0000      -0.501633       -13.6501
  30   2.0000      -0.490292       -13.3415
  31   2.0000      -0.479226       -13.0404
  32   2.0000      -0.466550       -12.6955
  33   2.0000      -0.442979       -12.0541
  34   2.0000      -0.427456       -11.6317
  35   2.0000      -0.424840       -11.5605
  36   2.0000      -0.416214       -11.3257
  37   2.0000      -0.398695       -10.8490
  38   2.0000      -0.390559       -10.6276
  39   2.0000      -0.376533       -10.2460
  40   2.0000      -0.373803       -10.1717
  41   2.0000      -0.358269        -9.7490
  42   2.0000      -0.354429        -9.6445
  43   2.0000      -0.342615        -9.3230
  44   2.0000      -0.340075        -9.2539
  45   2.0000      -0.326324        -8.8797
  46   2.0000      -0.323109        -8.7923
  47   2.0000      -0.313531        -8.5316
  48   2.0000      -0.308031        -8.3819
  49   2.0000      -0.300275        -8.1709
  50   2.0000      -0.297423        -8.0933
  51   2.0000      -0.288812        -7.8590
  52   2.0000      -0.280298        -7.6273
  53   2.0000      -0.277770        -7.5585
  54   2.0000      -0.271186        -7.3793
  55   2.0000      -0.267335        -7.2746
  56   2.0000      -0.259747        -7.0681
  57   2.0000      -0.229508        -6.2452
  58   2.0000      -0.136251        -3.7076
  59   0.0000      -0.080366        -2.1869
  60   0.0000      -0.019103        -0.5198
  61   0.0000      -0.004166        -0.1134
  62   0.0000      -0.002142        -0.0583
  63   0.0000       0.002345         0.0638

MULLIKEN ATOMIC CHARGES
-----------------------
   0 C :   -0.721229
   1 C :   -0.578711
   2 C :   -0.575586
   3 H :    0.278957
   4 H :    0.308435
   5 C :    0.783677
   6 C :    0.252387
   7 C :   -1.528581
   8 N :   -0.339194
   9 H :    0.353898
  10 H :    0.150228
  11 H :    0.322056
  12 H :    0.849694
  13 F :   -0.335279
  14 O :   -0.566958
  15 C :   -0.586284
  16 C :   -0.288210
  17 C :   -0.480956
  18 H :    0.318243
  19 H :    0.250530
  20 H :    0.274808
  21 H :    0.250491
  22 C :    0.134167
  23 H :    0.204581
  24 H :    0.294670
  25 C :   -0.609291
  26 H :   -0.000059
  27 H :    0.186483
  28 C :   -0.769159
  29 H :    0.209339
  30 H :    0.310630
  31 H :    0.271579
  32 H :    0.274748
  33 H :    0.278026
  34 H :    0.279284
  35 H :    0.305401
  36 H :    0.237182
Sum of atomic charges:   -0.0000000

LOEWDIN ATOMIC CHARGES
----------------------
   0 C :   -0.137380
   1 C :   -0.185635
   2 C :   -0.097989
   3 H :    0.108814
   4 H :    0.125832
   5 C :   -0.458848
   6 C :   -0.495240
   7 C :    0.031041
   8 N :    0.129648
   9 H :    0.064472
  10 H :    0.104202
  11 H :    0.035456
  12 H :   -0.025185
  13 F :    0.207038
  14 O :    0.099107
  15 C :   -0.189109
  16 C :   -0.210166
  17 C :   -0.200725
  18 H :    0.119779
  19 H :    0.104249
  20 H :    0.113182
  21 H :    0.111935
  22 C :   -0.209897
  23 H :    0.106044
  24 H :    0.106752
  25 C :   -0.210889
  26 H :    0.082198
  27 H :    0.120641
  28 C :   -0.202162
  29 H :    0.105187
  30 H :    0.110763
  31 H :    0.097800
  32 H :    0.112669
  33 H :    0.105508
  34 H :    0.106099
  35 H :    0.102386
  36 H :    0.112425

  Mayer bond orders larger than 0.100000
B(  0-C ,  6-C ) :   0.6935 B(  0-C , 15-C ) :   0.7638 B(  0-C , 35-H ) :   0.9494
B(  0-C , 36-H ) :   0.9921 B(  1-C ,  2-C ) :   0.8133 B(  1-C , 16-C ) :   0.1083
B(  1-C , 17-C ) :   0.8475 B(  1-C , 20-H ) :   0.9534 B(  1-C , 21-H ) :   0.9306
B(  2-C ,  3-H ) :   0.9941 B(  2-C ,  4-H ) :   0.8686 B(  2-C ,  5-C ) :   0.9127
B(  2-C , 16-C ) :   0.1713 B(  5-C , 13-F ) :   0.7517 B(  5-C , 14-O ) :   1.6076
B(  6-C ,  7-C ) :   1.4407 B(  6-C ,  8-N ) :   1.0402 B(  6-C , 12-H ) :  -0.1585
B(  6-C , 35-H ) :  -0.1070 B(  7-C , 11-H ) :   1.0962 B(  7-C , 12-H ) :   0.5158
B(  8-N ,  9-H ) :   0.7253 B(  8-N , 10-H ) :   0.9372 B( 12-H , 14-O ) :  -0.2472
B( 13-F , 14-O ) :   0.1106 B( 15-C , 22-C ) :   0.4635 B( 15-C , 23-H ) :   0.9296
B( 15-C , 24-H ) :   0.9488 B( 15-C , 25-C ) :   0.4287 B( 15-C , 27-H ) :  -0.1451
B( 16-C , 17-C ) :   0.1768 B( 16-C , 19-H ) :  -0.2037 B( 16-C , 22-C ) :   0.1261
B( 16-C , 25-C ) :  -0.1128 B( 16-C , 28-C ) :   0.8393 B( 16-C , 31-H ) :   1.0669
B( 16-C , 32-H ) :   0.8720 B( 17-C , 18-H ) :   0.8173 B( 17-C , 19-H ) :   1.2122
B( 17-C , 25-C ) :   0.1269 B( 17-C , 28-C ) :   0.1532 B( 17-C , 31-H ) :  -0.1725
B( 22-C , 25-C ) :   0.3412 B( 22-C , 26-H ) :   1.6652 B( 22-C , 27-H ) :   0.8687
B( 23-H , 25-C ) :   0.1259 B( 25-C , 26-H ) :  -0.1227 B( 25-C , 27-H ) :  -0.1212
B( 25-C , 28-C ) :   0.8528 B( 25-C , 29-H ) :   0.9761 B( 25-C , 30-H ) :   0.9159
B( 28-C , 33-H ) :   0.9546 B( 28-C , 34-H ) :   0.9503

Dispersion correction           -0.085441092
FINAL SINGLE POINT ENERGY      -700.315930313774

DIPOLE MOMENT
-------------
                                X             Y             Z
Electronic contribution:      1.19849       7.34886      15.01240
Nuclear contribution   :     -1.66567      -5.90236     -15.95042
                        -----------------------------------------
Total Dipole Moment    :     -0.46717       1.44649      -0.93802
                        -----------------------------------------
Magnitude (a.u.)       :      1.78619
Magnitude (Debye)      :      4.54014

Rotational constants in cm-1:     0.021600     0.017292     0.011381
Rotational constants in MHz :   647.565282   518.410024   341.193038

                             ****ORCA TERMINATED NORMALLY****
TOTAL RUN TIME: 0 days 0 hours 2 minutes 9 seconds 83 msec
