                         Program Version 5.0.0 -  RELEASE  -
|  1> !BLYP D3BJ RIJCOSX def2-TZVPD def2/J TightSCF xyzfile
|  2>
|  3> *xyzfile 0 1 D2.xyz
|  4>
|  5> %MaxCore 64000
|  6>
|  7> %pal nprocs 4
|  8> end
|  9>
| 10> %scf
| 11>   MaxIter 150
| 12> end
| 13>
| 14>
| 15>                          ****END OF INPUT****

CARTESIAN COORDINATES (ANGSTROEM)
---------------------------------
  C      4.602954   -2.440100    2.634780
  C     -0.914947    0.615112    2.505538
  C     -0.059146    1.503524    3.410578
  H      0.365364    2.344315    2.861161
  H     -0.692261    1.920207    4.198985
  C      1.083027    0.749640    4.085705
  C      3.860851   -1.591565    3.622893
  N      2.756502   -2.046159    4.166333
  C      4.254325   -0.362905    3.860455
  H      3.565256    0.310994    4.168983
  H      5.054292   -0.016059    3.337838
  H      2.439696   -2.973894    3.897395
  H      2.066869   -1.412532    4.549813
  F      2.228167    1.263475    4.019826
  O      0.810034   -0.345411    4.636269
  C      3.744685   -2.580557    1.361882
  C      0.772139    0.636882    0.562129
  C     -0.130740   -0.193985    1.470763
  H     -0.840563   -0.760165    0.856377
  H      0.466691   -0.938942    2.006959
  H     -1.647961    1.245963    1.991076
  H     -1.478180   -0.081046    3.130424
  C      3.203721   -1.256004    0.826211
  H      2.898939   -3.239289    1.583074
  H      4.334962   -3.095523    0.600188
  C      2.107815   -1.442385   -0.216865
  H      2.786775   -0.672760    1.650711
  H      4.021008   -0.652993    0.414046
  C      1.390662   -0.145912   -0.602422
  H      1.372179   -2.152184    0.176151
  H      2.523302   -1.906787   -1.117115
  H      1.561361    1.100094    1.161831
  H      0.195516    1.468325    0.142758
  H      0.602893   -0.398214   -1.319716
  H      2.087247    0.508272   -1.137335
  H      5.561557   -1.971347    2.407084
  H      4.810498   -3.422552    3.063099

 Total Charge           Charge          ....    0
 Multiplicity           Mult            ....    1
 Number of Electrons    NEL             ....  118
 Basis Dimension        Dim             ....  759

ORBITAL ENERGIES
----------------

  NO   OCC          E(Eh)            E(eV)
   0   2.0000     -24.367804      -663.0817
   1   2.0000     -18.800341      -511.5833
   2   2.0000     -13.973642      -380.2421
   3   2.0000     -10.095705      -274.7181
   4   2.0000      -9.943167      -270.5673
   5   2.0000      -9.922898      -270.0158
   6   2.0000      -9.908044      -269.6116
   7   2.0000      -9.905256      -269.5357
   8   2.0000      -9.899970      -269.3919
   9   2.0000      -9.899960      -269.3916
  10   2.0000      -9.894589      -269.2455
  11   2.0000      -9.893749      -269.2226
  12   2.0000      -9.890254      -269.1275
  13   2.0000      -9.887909      -269.0637
  14   2.0000      -9.811009      -266.9711
  15   2.0000      -1.227891       -33.4126
  16   2.0000      -0.968003       -26.3407
  17   2.0000      -0.822129       -22.3713
  18   2.0000      -0.751442       -20.4478
  19   2.0000      -0.725528       -19.7426
  20   2.0000      -0.701037       -19.0762
  21   2.0000      -0.669482       -18.2175
  22   2.0000      -0.640775       -17.4364
  23   2.0000      -0.629119       -17.1192
  24   2.0000      -0.599878       -16.3235
  25   2.0000      -0.579552       -15.7704
  26   2.0000      -0.545955       -14.8562
  27   2.0000      -0.521940       -14.2027
  28   2.0000      -0.505241       -13.7483
  29   2.0000      -0.499533       -13.5930
  30   2.0000      -0.492842       -13.4109
  31   2.0000      -0.484141       -13.1741
  32   2.0000      -0.468363       -12.7448
  33   2.0000      -0.443861       -12.0781
  34   2.0000      -0.430656       -11.7187
  35   2.0000      -0.425245       -11.5715
  36   2.0000      -0.409294       -11.1375
  37   2.0000      -0.400395       -10.8953
  38   2.0000      -0.389921       -10.6103
  39   2.0000      -0.383663       -10.4400
  40   2.0000      -0.373289       -10.1577
  41   2.0000      -0.362160        -9.8549
  42   2.0000      -0.355487        -9.6733
  43   2.0000      -0.347004        -9.4425
  44   2.0000      -0.334707        -9.1078
  45   2.0000      -0.328887        -8.9495
  46   2.0000      -0.323352        -8.7989
  47   2.0000      -0.320692        -8.7265
  48   2.0000      -0.308062        -8.3828
  49   2.0000      -0.304606        -8.2887
  50   2.0000      -0.298593        -8.1251
  51   2.0000      -0.283216        -7.7067
  52   2.0000      -0.281122        -7.6497
  53   2.0000      -0.278022        -7.5654
  54   2.0000      -0.272006        -7.4017
  55   2.0000      -0.268297        -7.3007
  56   2.0000      -0.259733        -7.0677
  57   2.0000      -0.249261        -6.7827
  58   2.0000      -0.137651        -3.7457
  59   0.0000      -0.085898        -2.3374
  60   0.0000      -0.018163        -0.4942
  61   0.0000      -0.006653        -0.1810
  62   0.0000      -0.001557        -0.0424
  63   0.0000       0.001595         0.0434

MULLIKEN ATOMIC CHARGES
-----------------------
   0 C :   -0.663819
   1 C :   -0.589331
   2 C :   -0.538824
   3 H :    0.283170
   4 H :    0.307301
   5 C :    0.787402
   6 C :    0.235058
   7 N :   -0.325965
   8 C :   -1.246667
   9 H :    0.572289
  10 H :    0.291306
  11 H :    0.142584
  12 H :    0.361110
  13 F :   -0.298608
  14 O :   -0.655636
  15 C :   -0.644025
  16 C :   -0.298196
  17 C :   -0.484300
  18 H :    0.323482
  19 H :    0.235304
  20 H :    0.279891
  21 H :    0.242556
  22 C :    0.255592
  23 H :    0.215110
  24 H :    0.265837
  25 C :   -0.596363
  26 H :   -0.040337
  27 H :    0.219181
  28 C :   -0.762595
  29 H :    0.218502
  30 H :    0.280548
  31 H :    0.284297
  32 H :    0.279396
  33 H :    0.277059
  34 H :    0.276169
  35 H :    0.235628
  36 H :    0.275895
Sum of atomic charges:   -0.0000000

LOEWDIN ATOMIC CHARGES
----------------------
   0 C :   -0.138420
   1 C :   -0.186425
   2 C :   -0.094724
   3 H :    0.111388
   4 H :    0.126912
   5 C :   -0.453003
   6 C :   -0.498716
   7 N :    0.143867
   8 C :    0.021367
   9 H :   -0.006342
  10 H :    0.028148
  11 H :    0.107148
  12 H :    0.037941
  13 F :    0.205471
  14 O :    0.098966
  15 C :   -0.189336
  16 C :   -0.208717
  17 C :   -0.202666
  18 H :    0.119594
  19 H :    0.101523
  20 H :    0.113834
  21 H :    0.111091
  22 C :   -0.205981
  23 H :    0.099527
  24 H :    0.108588
  25 C :   -0.213400
  26 H :    0.082844
  27 H :    0.125616
  28 C :   -0.201443
  29 H :    0.102965
  30 H :    0.110206
  31 H :    0.100034
  32 H :    0.113103
  33 H :    0.105279
  34 H :    0.107050
  35 H :    0.109429
  36 H :    0.107281

  Mayer bond orders larger than 0.100000
B(  0-C ,  6-C ) :   0.7231 B(  0-C , 15-C ) :   0.7827 B(  0-C , 35-H ) :   0.9042
B(  0-C , 36-H ) :   1.0266 B(  1-C ,  2-C ) :   0.8254 B(  1-C , 16-C ) :   0.1117
B(  1-C , 17-C ) :   0.8500 B(  1-C , 20-H ) :   0.9436 B(  1-C , 21-H ) :   0.9366
B(  2-C ,  3-H ) :   0.9833 B(  2-C ,  4-H ) :   0.8606 B(  2-C ,  5-C ) :   0.9274
B(  2-C , 16-C ) :   0.1714 B(  5-C , 13-F ) :   0.8203 B(  5-C , 14-O ) :   1.4696
B(  6-C ,  7-N ) :   0.9032 B(  6-C ,  8-C ) :   1.7009 B(  6-C ,  9-H ) :  -0.1440
B(  6-C , 10-H ) :  -0.1333 B(  7-N , 11-H ) :   0.9531 B(  7-N , 12-H ) :   0.7209
B(  8-C ,  9-H ) :   0.7346 B(  8-C , 10-H ) :   1.1419 B(  8-C , 26-H ) :  -0.1437
B( 13-F , 14-O ) :   0.1172 B( 15-C , 22-C ) :   0.4257 B( 15-C , 23-H ) :   0.9359
B( 15-C , 24-H ) :   0.9628 B( 15-C , 25-C ) :   0.4223 B( 15-C , 27-H ) :  -0.1364
B( 16-C , 17-C ) :   0.1758 B( 16-C , 19-H ) :  -0.1969 B( 16-C , 22-C ) :   0.1195
B( 16-C , 25-C ) :  -0.1094 B( 16-C , 28-C ) :   0.8479 B( 16-C , 31-H ) :   1.0662
B( 16-C , 32-H ) :   0.8679 B( 17-C , 18-H ) :   0.8044 B( 17-C , 19-H ) :   1.2059
B( 17-C , 25-C ) :   0.1235 B( 17-C , 28-C ) :   0.1562 B( 17-C , 31-H ) :  -0.1808
B( 22-C , 25-C ) :   0.3425 B( 22-C , 26-H ) :   1.6576 B( 22-C , 27-H ) :   0.8366
B( 23-H , 25-C ) :   0.1061 B( 25-C , 26-H ) :  -0.1229 B( 25-C , 27-H ) :  -0.1155
B( 25-C , 28-C ) :   0.8406 B( 25-C , 29-H ) :   0.9654 B( 25-C , 30-H ) :   0.9532
B( 26-H , 27-H ) :   0.1332 B( 28-C , 33-H ) :   0.9586 B( 28-C , 34-H ) :   0.9509

Dispersion correction           -0.085327865
FINAL SINGLE POINT ENERGY      -700.325860929840

DIPOLE MOMENT
-------------
                                X             Y             Z
Electronic contribution:      0.08584       6.23286      15.17728
Nuclear contribution   :     -1.39991      -5.60370     -16.00470
                        -----------------------------------------
Total Dipole Moment    :     -1.31407       0.62915      -0.82741
                        -----------------------------------------
Magnitude (a.u.)       :      1.67548
Magnitude (Debye)      :      4.25872

Rotational constants in cm-1:     0.021622     0.017313     0.011402
Rotational constants in MHz :   648.226014   519.043632   341.814105

                             ****ORCA TERMINATED NORMALLY****
TOTAL RUN TIME: 0 days 0 hours 1 minutes 58 seconds 882 msec
