                         Program Version 5.0.0 -  RELEASE  -
|  1> !BLYP D3BJ RIJCOSX def2-TZVPD def2/J TightSCF xyzfile
|  2>
|  3> *xyzfile 0 1 D3.xyz
|  4>
|  5> %MaxCore 64000
|  6>
|  7> %pal nprocs 4
|  8> end
|  9>
| 10> %scf
| 11>   MaxIter 150
| 12> end
| 13>
| 14>
| 15>                          ****END OF INPUT****

CARTESIAN COORDINATES (ANGSTROEM)
---------------------------------
  C      4.602954   -2.440100    2.634780
  C     -0.914947    0.615112    2.505538
  C     -0.059146    1.503524    3.410578
  H      0.365364    2.344315    2.861161
  H     -0.692261    1.920207    4.198985
  C      1.083027    0.749640    4.085705
  C      3.860851   -1.591565    3.622893
  C      2.756502   -2.046159    4.166333
  N      4.254325   -0.362905    3.860455
  H      3.565256    0.310994    4.168983
  H      5.054292   -0.016059    3.337838
  H      2.439696   -2.973894    3.897395
  H      2.066869   -1.412532    4.549813
  O      2.228167    1.263475    4.019826
  F      0.810034   -0.345411    4.636269
  C      3.744685   -2.580557    1.361882
  C      0.772139    0.636882    0.562129
  C     -0.130740   -0.193985    1.470763
  H     -0.840563   -0.760165    0.856377
  H      0.466691   -0.938942    2.006959
  H     -1.647961    1.245963    1.991076
  H     -1.478180   -0.081046    3.130424
  C      3.203721   -1.256004    0.826211
  H      2.898939   -3.239289    1.583074
  H      4.334962   -3.095523    0.600188
  C      2.107815   -1.442385   -0.216865
  H      2.786775   -0.672760    1.650711
  H      4.021008   -0.652993    0.414046
  C      1.390662   -0.145912   -0.602422
  H      1.372179   -2.152184    0.176151
  H      2.523302   -1.906787   -1.117115
  H      1.561361    1.100094    1.161831
  H      0.195516    1.468325    0.142758
  H      0.602893   -0.398214   -1.319716
  H      2.087247    0.508272   -1.137335
  H      5.561557   -1.971347    2.407084
  H      4.810498   -3.422552    3.063099

 Total Charge           Charge          ....    0
 Multiplicity           Mult            ....    1
 Number of Electrons    NEL             ....  118
 Basis Dimension        Dim             ....  759

ORBITAL ENERGIES
----------------

  NO   OCC          E(Eh)            E(eV)
   0   2.0000     -24.366518      -663.0467
   1   2.0000     -18.797930      -511.5177
   2   2.0000     -13.972553      -380.2125
   3   2.0000     -10.093314      -274.6530
   4   2.0000      -9.940939      -270.5067
   5   2.0000      -9.923626      -270.0356
   6   2.0000      -9.908270      -269.6177
   7   2.0000      -9.902371      -269.4572
   8   2.0000      -9.900325      -269.4015
   9   2.0000      -9.898279      -269.3459
  10   2.0000      -9.892468      -269.1877
  11   2.0000      -9.891148      -269.1518
  12   2.0000      -9.890973      -269.1471
  13   2.0000      -9.887260      -269.0460
  14   2.0000      -9.811456      -266.9833
  15   2.0000      -1.227149       -33.3924
  16   2.0000      -0.964352       -26.2413
  17   2.0000      -0.821543       -22.3553
  18   2.0000      -0.751944       -20.4614
  19   2.0000      -0.724801       -19.7229
  20   2.0000      -0.700411       -19.0592
  21   2.0000      -0.668254       -18.1841
  22   2.0000      -0.638108       -17.3638
  23   2.0000      -0.622557       -16.9406
  24   2.0000      -0.599832       -16.3223
  25   2.0000      -0.579477       -15.7684
  26   2.0000      -0.547857       -14.9079
  27   2.0000      -0.525127       -14.2894
  28   2.0000      -0.504294       -13.7225
  29   2.0000      -0.501030       -13.6337
  30   2.0000      -0.490903       -13.3582
  31   2.0000      -0.482097       -13.1185
  32   2.0000      -0.463597       -12.6151
  33   2.0000      -0.437513       -11.9053
  34   2.0000      -0.429084       -11.6760
  35   2.0000      -0.424573       -11.5532
  36   2.0000      -0.413583       -11.2542
  37   2.0000      -0.395728       -10.7683
  38   2.0000      -0.391356       -10.6493
  39   2.0000      -0.378465       -10.2985
  40   2.0000      -0.372801       -10.1444
  41   2.0000      -0.360103        -9.7989
  42   2.0000      -0.357050        -9.7158
  43   2.0000      -0.343446        -9.3456
  44   2.0000      -0.338244        -9.2041
  45   2.0000      -0.329635        -8.9698
  46   2.0000      -0.325540        -8.8584
  47   2.0000      -0.319563        -8.6957
  48   2.0000      -0.308192        -8.3863
  49   2.0000      -0.299034        -8.1371
  50   2.0000      -0.294916        -8.0251
  51   2.0000      -0.288794        -7.8585
  52   2.0000      -0.279411        -7.6032
  53   2.0000      -0.276446        -7.5225
  54   2.0000      -0.270811        -7.3691
  55   2.0000      -0.266269        -7.2455
  56   2.0000      -0.256491        -6.9795
  57   2.0000      -0.248390        -6.7590
  58   2.0000      -0.136974        -3.7272
  59   0.0000      -0.081282        -2.2118
  60   0.0000      -0.019017        -0.5175
  61   0.0000      -0.002077        -0.0565
  62   0.0000      -0.001314        -0.0358
  63   0.0000       0.002111         0.0574

MULLIKEN ATOMIC CHARGES
-----------------------
   0 C :   -0.710154
   1 C :   -0.665793
   2 C :   -0.472086
   3 H :    0.237654
   4 H :    0.330828
   5 C :    0.756573
   6 C :    0.299141
   7 C :   -1.473863
   8 N :   -0.330439
   9 H :    0.352268
  10 H :    0.143570
  11 H :    0.339994
  12 H :    0.716749
  13 O :   -0.627639
  14 F :   -0.307732
  15 C :   -0.592324
  16 C :   -0.308033
  17 C :   -0.386721
  18 H :    0.308181
  19 H :    0.210793
  20 H :    0.275613
  21 H :    0.259174
  22 C :    0.108040
  23 H :    0.200498
  24 H :    0.289804
  25 C :   -0.606299
  26 H :    0.044463
  27 H :    0.182118
  28 C :   -0.758969
  29 H :    0.204438
  30 H :    0.309088
  31 H :    0.287586
  32 H :    0.284379
  33 H :    0.274483
  34 H :    0.278885
  35 H :    0.302206
  36 H :    0.243526
Sum of atomic charges:    0.0000000

LOEWDIN ATOMIC CHARGES
----------------------
   0 C :   -0.136031
   1 C :   -0.190945
   2 C :   -0.091392
   3 H :    0.118071
   4 H :    0.124770
   5 C :   -0.457007
   6 C :   -0.493263
   7 C :    0.026547
   8 N :    0.134783
   9 H :    0.038144
  10 H :    0.105159
  11 H :    0.031599
  12 H :   -0.007047
  13 O :    0.093984
  14 F :    0.207093
  15 C :   -0.189767
  16 C :   -0.207206
  17 C :   -0.202574
  18 H :    0.119208
  19 H :    0.102614
  20 H :    0.113203
  21 H :    0.108807
  22 C :   -0.208575
  23 H :    0.104823
  24 H :    0.106767
  25 C :   -0.211665
  26 H :    0.083613
  27 H :    0.121791
  28 C :   -0.201884
  29 H :    0.104019
  30 H :    0.110511
  31 H :    0.101243
  32 H :    0.113198
  33 H :    0.104811
  34 H :    0.106775
  35 H :    0.103612
  36 H :    0.112211

  Mayer bond orders larger than 0.100000
B(  0-C ,  6-C ) :   0.7087 B(  0-C , 15-C ) :   0.7679 B(  0-C , 35-H ) :   0.9441
B(  0-C , 36-H ) :   0.9948 B(  1-C ,  2-C ) :   0.7746 B(  1-C , 16-C ) :   0.1194
B(  1-C , 17-C ) :   0.7772 B(  1-C , 20-H ) :   0.9476 B(  1-C , 21-H ) :   0.9652
B(  2-C ,  3-H ) :   1.0277 B(  2-C ,  4-H ) :   0.8630 B(  2-C ,  5-C ) :   0.9065
B(  2-C , 16-C ) :   0.1696 B(  2-C , 17-C ) :  -0.1198 B(  5-C , 13-O ) :   1.5148
B(  5-C , 14-F ) :   0.8121 B(  6-C ,  7-C ) :   1.4353 B(  6-C ,  8-N ) :   1.0318
B(  6-C , 11-H ) :  -0.1017 B(  6-C , 12-H ) :  -0.1096 B(  7-C , 11-H ) :   1.0620
B(  7-C , 12-H ) :   0.5900 B(  8-N ,  9-H ) :   0.7397 B(  8-N , 10-H ) :   0.9292
B( 15-C , 22-C ) :   0.4619 B( 15-C , 23-H ) :   0.9326 B( 15-C , 24-H ) :   0.9492
B( 15-C , 25-C ) :   0.4271 B( 15-C , 27-H ) :  -0.1459 B( 16-C , 17-C ) :   0.2184
B( 16-C , 19-H ) :  -0.1845 B( 16-C , 22-C ) :   0.1205 B( 16-C , 25-C ) :  -0.1086
B( 16-C , 28-C ) :   0.8192 B( 16-C , 31-H ) :   1.0594 B( 16-C , 32-H ) :   0.8594
B( 17-C , 18-H ) :   0.8491 B( 17-C , 19-H ) :   1.1844 B( 17-C , 25-C ) :   0.1336
B( 17-C , 28-C ) :   0.1453 B( 17-C , 31-H ) :  -0.1572 B( 22-C , 25-C ) :   0.3197
B( 22-C , 26-H ) :   1.6728 B( 22-C , 27-H ) :   0.8557 B( 23-H , 25-C ) :   0.1271
B( 25-C , 26-H ) :  -0.1346 B( 25-C , 27-H ) :  -0.1201 B( 25-C , 28-C ) :   0.8500
B( 25-C , 29-H ) :   0.9810 B( 25-C , 30-H ) :   0.9174 B( 26-H , 27-H ) :   0.1170
B( 28-C , 33-H ) :   0.9590 B( 28-C , 34-H ) :   0.9479

Dispersion correction           -0.085421308
FINAL SINGLE POINT ENERGY      -700.326886685285

DIPOLE MOMENT
-------------
                                X             Y             Z
Electronic contribution:     -1.16845       4.74038      16.00954
Nuclear contribution   :      0.05905      -3.94566     -16.70013
                        -----------------------------------------
Total Dipole Moment    :     -1.10940       0.79472      -0.69059
                        -----------------------------------------
Magnitude (a.u.)       :      1.52947
Magnitude (Debye)      :      3.88760

Rotational constants in cm-1:     0.021602     0.017295     0.011353
Rotational constants in MHz :   647.614981   518.478934   340.359556

                             ****ORCA TERMINATED NORMALLY****
TOTAL RUN TIME: 0 days 0 hours 2 minutes 4 seconds 653 msec
