                         Program Version 5.0.0 -  RELEASE  -
|  1> !BLYP D3BJ RIJCOSX def2-TZVPD def2/J TightSCF xyzfile
|  2>
|  3> *xyzfile 0 1 D4.xyz
|  4>
|  5> %MaxCore 64000
|  6>
|  7> %pal nprocs 4
|  8> end
|  9>
| 10> %scf
| 11>   MaxIter 150
| 12> end
| 13>
| 14>
| 15>                          ****END OF INPUT****

CARTESIAN COORDINATES (ANGSTROEM)
---------------------------------
  C      4.602954   -2.440100    2.634780
  C     -0.914947    0.615112    2.505538
  C     -0.059146    1.503524    3.410578
  H      0.365364    2.344315    2.861161
  H     -0.692261    1.920207    4.198985
  C      1.083027    0.749640    4.085705
  C      3.860851   -1.591565    3.622893
  N      2.756502   -2.046159    4.166333
  C      4.254325   -0.362905    3.860455
  H      3.565256    0.310994    4.168983
  H      5.054292   -0.016059    3.337838
  H      2.439696   -2.973894    3.897395
  H      2.066869   -1.412532    4.549813
  O      2.228167    1.263475    4.019826
  F      0.810034   -0.345411    4.636269
  C      3.744685   -2.580557    1.361882
  C      0.772139    0.636882    0.562129
  C     -0.130740   -0.193985    1.470763
  H     -0.840563   -0.760165    0.856377
  H      0.466691   -0.938942    2.006959
  H     -1.647961    1.245963    1.991076
  H     -1.478180   -0.081046    3.130424
  C      3.203721   -1.256004    0.826211
  H      2.898939   -3.239289    1.583074
  H      4.334962   -3.095523    0.600188
  C      2.107815   -1.442385   -0.216865
  H      2.786775   -0.672760    1.650711
  H      4.021008   -0.652993    0.414046
  C      1.390662   -0.145912   -0.602422
  H      1.372179   -2.152184    0.176151
  H      2.523302   -1.906787   -1.117115
  H      1.561361    1.100094    1.161831
  H      0.195516    1.468325    0.142758
  H      0.602893   -0.398214   -1.319716
  H      2.087247    0.508272   -1.137335
  H      5.561557   -1.971347    2.407084
  H      4.810498   -3.422552    3.063099

 Total Charge           Charge          ....    0
 Multiplicity           Mult            ....    1
 Number of Electrons    NEL             ....  118
 Basis Dimension        Dim             ....  759

ORBITAL ENERGIES
----------------

  NO   OCC          E(Eh)            E(eV)
   0   2.0000     -24.378364      -663.3690
   1   2.0000     -18.789323      -511.2835
   2   2.0000     -13.986654      -380.5962
   3   2.0000     -10.088861      -274.5319
   4   2.0000      -9.940365      -270.4911
   5   2.0000      -9.924614      -270.0625
   6   2.0000      -9.911055      -269.6935
   7   2.0000      -9.902525      -269.4614
   8   2.0000      -9.898327      -269.3472
   9   2.0000      -9.897201      -269.3165
  10   2.0000      -9.893661      -269.2202
  11   2.0000      -9.892742      -269.1952
  12   2.0000      -9.889358      -269.1031
  13   2.0000      -9.885756      -269.0051
  14   2.0000      -9.801772      -266.7198
  15   2.0000      -1.237699       -33.6795
  16   2.0000      -0.956904       -26.0387
  17   2.0000      -0.829665       -22.5763
  18   2.0000      -0.752748       -20.4833
  19   2.0000      -0.724821       -19.7234
  20   2.0000      -0.701189       -19.0803
  21   2.0000      -0.667193       -18.1552
  22   2.0000      -0.643815       -17.5191
  23   2.0000      -0.620937       -16.8966
  24   2.0000      -0.609173       -16.5764
  25   2.0000      -0.577874       -15.7247
  26   2.0000      -0.548170       -14.9165
  27   2.0000      -0.523290       -14.2394
  28   2.0000      -0.515643       -14.0313
  29   2.0000      -0.505973       -13.7682
  30   2.0000      -0.491876       -13.3846
  31   2.0000      -0.483300       -13.1513
  32   2.0000      -0.460408       -12.5283
  33   2.0000      -0.446177       -12.1411
  34   2.0000      -0.431034       -11.7290
  35   2.0000      -0.427913       -11.6441
  36   2.0000      -0.407893       -11.0993
  37   2.0000      -0.394222       -10.7273
  38   2.0000      -0.388014       -10.5584
  39   2.0000      -0.384696       -10.4681
  40   2.0000      -0.369364       -10.0509
  41   2.0000      -0.363697        -9.8967
  42   2.0000      -0.357379        -9.7248
  43   2.0000      -0.342224        -9.3124
  44   2.0000      -0.336545        -9.1579
  45   2.0000      -0.329578        -8.9683
  46   2.0000      -0.326373        -8.8811
  47   2.0000      -0.314120        -8.5476
  48   2.0000      -0.310978        -8.4621
  49   2.0000      -0.304137        -8.2760
  50   2.0000      -0.300271        -8.1708
  51   2.0000      -0.283771        -7.7218
  52   2.0000      -0.281501        -7.6600
  53   2.0000      -0.278893        -7.5891
  54   2.0000      -0.271044        -7.3755
  55   2.0000      -0.265969        -7.2374
  56   2.0000      -0.258931        -7.0459
  57   2.0000      -0.224493        -6.1088
  58   2.0000      -0.137075        -3.7300
  59   0.0000      -0.079014        -2.1501
  60   0.0000      -0.022620        -0.6155
  61   0.0000      -0.007983        -0.2172
  62   0.0000      -0.002175        -0.0592
  63   0.0000       0.002366         0.0644

MULLIKEN ATOMIC CHARGES
-----------------------
   0 C :   -0.673534
   1 C :   -0.671905
   2 C :   -0.460982
   3 H :    0.238414
   4 H :    0.326343
   5 C :    0.717666
   6 C :    0.199383
   7 N :   -0.343558
   8 C :   -1.291784
   9 H :    0.690660
  10 H :    0.262091
  11 H :    0.149438
  12 H :    0.380880
  13 O :   -0.553952
  14 F :   -0.368058
  15 C :   -0.638240
  16 C :   -0.323347
  17 C :   -0.384857
  18 H :    0.311263
  19 H :    0.187968
  20 H :    0.278591
  21 H :    0.258658
  22 C :    0.200585
  23 H :    0.208480
  24 H :    0.261881
  25 C :   -0.594914
  26 H :    0.024256
  27 H :    0.220490
  28 C :   -0.748764
  29 H :    0.214850
  30 H :    0.278351
  31 H :    0.301457
  32 H :    0.285675
  33 H :    0.273951
  34 H :    0.275824
  35 H :    0.232200
  36 H :    0.274543
Sum of atomic charges:   -0.0000000

LOEWDIN ATOMIC CHARGES
----------------------
   0 C :   -0.139624
   1 C :   -0.193515
   2 C :   -0.092419
   3 H :    0.119069
   4 H :    0.123962
   5 C :   -0.461415
   6 C :   -0.498516
   7 N :    0.142100
   8 C :    0.026518
   9 H :   -0.026320
  10 H :    0.031888
  11 H :    0.106572
  12 H :    0.063517
  13 O :    0.096135
  14 F :    0.209986
  15 C :   -0.190764
  16 C :   -0.205820
  17 C :   -0.204791
  18 H :    0.118740
  19 H :    0.099523
  20 H :    0.113169
  21 H :    0.107291
  22 C :   -0.204381
  23 H :    0.098016
  24 H :    0.108267
  25 C :   -0.214223
  26 H :    0.084761
  27 H :    0.126660
  28 C :   -0.201320
  29 H :    0.101733
  30 H :    0.109954
  31 H :    0.103309
  32 H :    0.113694
  33 H :    0.104558
  34 H :    0.107614
  35 H :    0.110105
  36 H :    0.105966

  Mayer bond orders larger than 0.100000
B(  0-C ,  6-C ) :   0.7235 B(  0-C , 15-C ) :   0.7781 B(  0-C , 35-H ) :   0.9022
B(  0-C , 36-H ) :   1.0387 B(  1-C ,  2-C ) :   0.7718 B(  1-C , 16-C ) :   0.1237
B(  1-C , 17-C ) :   0.7849 B(  1-C , 20-H ) :   0.9435 B(  1-C , 21-H ) :   0.9625
B(  2-C ,  3-H ) :   1.0177 B(  2-C ,  4-H ) :   0.8629 B(  2-C ,  5-C ) :   0.9276
B(  2-C , 16-C ) :   0.1706 B(  2-C , 17-C ) :  -0.1249 B(  5-C , 13-O ) :   1.6039
B(  5-C , 14-F ) :   0.7049 B(  6-C ,  7-N ) :   0.9287 B(  6-C ,  8-C ) :   1.6701
B(  6-C ,  9-H ) :  -0.1637 B(  6-C , 10-H ) :  -0.1393 B(  7-N , 11-H ) :   0.9614
B(  7-N , 12-H ) :   0.7021 B(  8-C ,  9-H ) :   0.6814 B(  8-C , 10-H ) :   1.1980
B(  8-C , 22-C ) :   0.1314 B(  8-C , 26-H ) :  -0.1462 B(  9-H , 13-O ) :  -0.2056
B( 13-O , 14-F ) :   0.1172 B( 15-C , 22-C ) :   0.4139 B( 15-C , 23-H ) :   0.9426
B( 15-C , 24-H ) :   0.9639 B( 15-C , 25-C ) :   0.4197 B( 15-C , 27-H ) :  -0.1350
B( 16-C , 17-C ) :   0.2236 B( 16-C , 19-H ) :  -0.1783 B( 16-C , 22-C ) :   0.1144
B( 16-C , 25-C ) :  -0.1073 B( 16-C , 28-C ) :   0.8234 B( 16-C , 31-H ) :   1.0528
B( 16-C , 32-H ) :   0.8574 B( 17-C , 18-H ) :   0.8322 B( 17-C , 19-H ) :   1.1810
B( 17-C , 25-C ) :   0.1317 B( 17-C , 28-C ) :   0.1474 B( 17-C , 31-H ) :  -0.1619
B( 22-C , 25-C ) :   0.3220 B( 22-C , 26-H ) :   1.6561 B( 22-C , 27-H ) :   0.8290
B( 23-H , 25-C ) :   0.1061 B( 25-C , 26-H ) :  -0.1254 B( 25-C , 27-H ) :  -0.1146
B( 25-C , 28-C ) :   0.8382 B( 25-C , 29-H ) :   0.9684 B( 25-C , 30-H ) :   0.9542
B( 26-H , 27-H ) :   0.1432 B( 28-C , 33-H ) :   0.9621 B( 28-C , 34-H ) :   0.9480

Dispersion correction           -0.085325890
FINAL SINGLE POINT ENERGY      -700.314433503729

DIPOLE MOMENT
-------------
                                X             Y             Z
Electronic contribution:     -2.20018       3.57883      16.23754
Nuclear contribution   :      0.32481      -3.64700     -16.75441
                        -----------------------------------------
Total Dipole Moment    :     -1.87538      -0.06817      -0.51687
                        -----------------------------------------
Magnitude (a.u.)       :      1.94649
Magnitude (Debye)      :      4.94759

Rotational constants in cm-1:     0.021629     0.017327     0.011372
Rotational constants in MHz :   648.414821   519.443407   340.925013

                             ****ORCA TERMINATED NORMALLY****
TOTAL RUN TIME: 0 days 0 hours 2 minutes 9 seconds 240 msec
