                         Program Version 5.0.0 -  RELEASE  -
|  1> !LC-BLYP RIJCOSX def2-SVPD def2/J TightSCF
|  2> *xyz -1 1
|  3> C         -0.72184       -0.99951       -3.43931
|  4> C          0.28725       -1.71177       -2.52740
|  5> H          1.13178       -2.06738       -3.15940
|  6> H         -0.20414       -2.63733       -2.17048
|  7> O          0.71050       -0.92751       -1.48177
|  8> H         -1.01315       -1.65739       -4.23129
|  9> H         -0.27123       -0.12142       -3.85259
| 10> H         -1.58442       -0.72333       -2.86958
| 11> *
| 12> %MaxCore 64000
| 13>
| 14> %pal nprocs 4
| 15> end
| 16>
| 17> %scf
| 18>   MaxIter 150
| 19> end
| 20>
| 21>
| 22>                          ****END OF INPUT****

CARTESIAN COORDINATES (ANGSTROEM)
---------------------------------
  C     -0.721840   -0.999510   -3.439310
  C      0.287250   -1.711770   -2.527400
  H      1.131780   -2.067380   -3.159400
  H     -0.204140   -2.637330   -2.170480
  O      0.710500   -0.927510   -1.481770
  H     -1.013150   -1.657390   -4.231290
  H     -0.271230   -0.121420   -3.852590
  H     -1.584420   -0.723330   -2.869580

 Total Charge           Charge          ....   -1
 Multiplicity           Mult            ....    1
 Number of Electrons    NEL             ....   26
 Basis Dimension        Dim             ....  103

ORBITAL ENERGIES
----------------

  NO   OCC          E(Eh)            E(eV)
   0   2.0000     -18.622501      -506.7440
   1   2.0000      -9.900631      -269.4099
   2   2.0000      -9.878335      -268.8032
   3   2.0000      -0.765272       -20.8241
   4   2.0000      -0.628374       -17.0989
   5   2.0000      -0.474818       -12.9205
   6   2.0000      -0.358550        -9.7566
   7   2.0000      -0.332796        -9.0558
   8   2.0000      -0.277891        -7.5618
   9   2.0000      -0.257112        -6.9964
  10   2.0000      -0.210310        -5.7228
  11   2.0000      -0.065861        -1.7922
  12   2.0000      -0.063171        -1.7190
  13   0.0000       0.229425         6.2430
  14   0.0000       0.261194         7.1074
  15   0.0000       0.299994         8.1633
  16   0.0000       0.312503         8.5036
  17   0.0000       0.328417         8.9367

MULLIKEN ATOMIC CHARGES
-----------------------
   0 C :    0.544565
   1 C :    0.143946
   2 H :   -0.205655
   3 H :   -0.211927
   4 O :   -0.815146
   5 H :   -0.132905
   6 H :   -0.163522
   7 H :   -0.159356
Sum of atomic charges:   -1.0000000

LOEWDIN ATOMIC CHARGES
----------------------
   0 C :    0.050990
   1 C :   -0.287226
   2 H :   -0.024573
   3 H :   -0.028380
   4 O :   -0.580048
   5 H :   -0.054280
   6 H :   -0.038639
   7 H :   -0.037844

  Mayer bond orders larger than 0.100000
B(  0-C ,  1-C ) :   1.1670 B(  0-C ,  2-H ) :   0.1273 B(  0-C ,  3-H ) :   0.1376
B(  0-C ,  4-O ) :   0.1069 B(  0-C ,  5-H ) :   0.8513 B(  0-C ,  6-H ) :   0.8593
B(  0-C ,  7-H ) :   0.8537 B(  1-C ,  2-H ) :   0.9655 B(  1-C ,  3-H ) :   0.9550
B(  1-C ,  4-O ) :   1.2649 B(  1-C ,  5-H ) :   0.1513 B(  1-C ,  6-H ) :   0.2008
B(  1-C ,  7-H ) :   0.2026

FINAL SINGLE POINT ENERGY      -153.940779713542

DIPOLE MOMENT
-------------
                                X             Y             Z
Electronic contribution:      1.38118       0.62105       2.20440
Nuclear contribution   :     -2.24828      -1.06600      -3.62481
                        -----------------------------------------
Total Dipole Moment    :     -0.86710      -0.44495      -1.42041
                        -----------------------------------------
Magnitude (a.u.)       :      1.72262
Magnitude (Debye)      :      4.37854

Rotational constants in cm-1:     1.278116     0.325414     0.286672
Rotational constants in MHz : 38316.964654  9755.653004  8594.216906

                             ****ORCA TERMINATED NORMALLY****
TOTAL RUN TIME: 0 days 0 hours 0 minutes 11 seconds 922 msec
