                         Program Version 5.0.0 -  RELEASE  -
|  1> !LC-BLYP RIJCOSX def2-SVPD def2/J TightSCF
|  2> *xyz 1 1
|  3> C          3.48828        1.60092       -1.52204
|  4> C          4.34297        1.31342       -2.75683
|  5> N          2.81029        0.42878       -1.01420
|  6> H          2.71455        2.33145       -1.76030
|  7> H          4.09099        2.06315       -0.73338
|  8> C          3.29098       -0.41802       -0.12908
|  9> N          2.51754       -1.43202        0.23936
| 10> N          4.53549       -0.28441        0.39580
| 11> H          5.04363        0.57189        0.22290
| 12> H          4.72335       -0.73327        1.28180
| 13> H          1.93479        0.10230       -1.40379
| 14> H          1.67464       -1.50562       -0.31610
| 15> H          2.92850       -2.21850        0.72549
| 16> H          3.73575        0.86277       -3.51385
| 17> H          5.13754        0.64699       -2.49333
| 18> H          4.75374        2.22930       -3.12740
| 19> *
| 20> %MaxCore 64000
| 21>
| 22> %pal nprocs 4
| 23> end
| 24>
| 25> %scf
| 26>   MaxIter 150
| 27> end
| 28>
| 29>
| 30>                          ****END OF INPUT****

CARTESIAN COORDINATES (ANGSTROEM)
---------------------------------
  C      3.488280    1.600920   -1.522040
  C      4.342970    1.313420   -2.756830
  N      2.810290    0.428780   -1.014200
  H      2.714550    2.331450   -1.760300
  H      4.090990    2.063150   -0.733380
  C      3.290980   -0.418020   -0.129080
  N      2.517540   -1.432020    0.239360
  N      4.535490   -0.284410    0.395800
  H      5.043630    0.571890    0.222900
  H      4.723350   -0.733270    1.281800
  H      1.934790    0.102300   -1.403790
  H      1.674640   -1.505620   -0.316100
  H      2.928500   -2.218500    0.725490
  H      3.735750    0.862770   -3.513850
  H      5.137540    0.646990   -2.493330
  H      4.753740    2.229300   -3.127400

 Total Charge           Charge          ....    1
 Multiplicity           Mult            ....    1
 Number of Electrons    NEL             ....   48
 Basis Dimension        Dim             ....  200

ORBITAL ENERGIES
----------------

  NO   OCC          E(Eh)            E(eV)
   0   2.0000     -14.418658      -392.3516
   1   2.0000     -14.413636      -392.2150
   2   2.0000     -14.411517      -392.1573
   3   2.0000     -10.424434      -283.6633
   4   2.0000     -10.295893      -280.1655
   5   2.0000     -10.222227      -278.1609
   6   2.0000      -1.316347       -35.8196
   7   2.0000      -1.203471       -32.7481
   8   2.0000      -1.189324       -32.3631
   9   2.0000      -1.038825       -28.2679
  10   2.0000      -0.942186       -25.6382
  11   2.0000      -0.914759       -24.8918
  12   2.0000      -0.889893       -24.2152
  13   2.0000      -0.852898       -23.2085
  14   2.0000      -0.797421       -21.6989
  15   2.0000      -0.785572       -21.3765
  16   2.0000      -0.762024       -20.7357
  17   2.0000      -0.751040       -20.4368
  18   2.0000      -0.707998       -19.2656
  19   2.0000      -0.667082       -18.1522
  20   2.0000      -0.633680       -17.2433
  21   2.0000      -0.612574       -16.6690
  22   2.0000      -0.580484       -15.7958
  23   2.0000      -0.551405       -15.0045
  24   0.0000      -0.099794        -2.7155
  25   0.0000      -0.092798        -2.5252
  26   0.0000      -0.064740        -1.7617
  27   0.0000      -0.053058        -1.4438
  28   0.0000      -0.022587        -0.6146

MULLIKEN ATOMIC CHARGES
-----------------------
   0 C :    0.373576
   1 C :    0.914991
   2 N :   -0.229173
   3 H :   -0.353655
   4 H :   -0.153377
   5 C :    0.907163
   6 N :    0.214256
   7 N :    0.191496
   8 H :   -0.076310
   9 H :   -0.161297
  10 H :   -0.236398
  11 H :   -0.011662
  12 H :   -0.104522
  13 H :   -0.118513
  14 H :   -0.120515
  15 H :   -0.036060
Sum of atomic charges:    1.0000000

LOEWDIN ATOMIC CHARGES
----------------------
   0 C :    0.023218
   1 C :    0.151854
   2 N :    0.054599
   3 H :    0.047447
   4 H :    0.033342
   5 C :   -0.059002
   6 N :    0.273808
   7 N :    0.293042
   8 H :    0.008279
   9 H :    0.036037
  10 H :    0.061318
  11 H :    0.033927
  12 H :    0.046539
  13 H :   -0.001153
  14 H :   -0.010861
  15 H :    0.007606

  Mayer bond orders larger than 0.100000
B(  0-C ,  1-C ) :   1.2470 B(  0-C ,  2-N ) :   1.0667 B(  0-C ,  3-H ) :   0.8564
B(  0-C ,  4-H ) :   0.8192 B(  0-C ,  5-C ) :  -0.1056 B(  0-C , 10-H ) :  -0.2195
B(  0-C , 13-H ) :   0.2756 B(  0-C , 14-H ) :   0.2213 B(  0-C , 15-H ) :   0.1870
B(  1-C , 13-H ) :   0.7307 B(  1-C , 14-H ) :   0.7710 B(  1-C , 15-H ) :   0.7553
B(  2-N ,  3-H ) :   0.1869 B(  2-N ,  4-H ) :   0.1512 B(  2-N ,  5-C ) :   1.1090
B(  2-N ,  6-N ) :   0.2550 B(  2-N ,  7-N ) :   0.2119 B(  2-N , 10-H ) :   1.2947
B(  5-C ,  6-N ) :   1.0254 B(  5-C ,  7-N ) :   1.0196 B(  5-C ,  8-H ) :  -0.1201
B(  5-C ,  9-H ) :  -0.1333 B(  5-C , 10-H ) :  -0.2830 B(  6-N ,  7-N ) :   0.1378
B(  6-N , 11-H ) :   1.0697 B(  6-N , 12-H ) :   1.1767 B(  7-N ,  8-H ) :   1.0493
B(  7-N ,  9-H ) :   1.2362 B(  8-H ,  9-H ) :  -0.1729 B( 11-H , 12-H ) :  -0.1514

FINAL SINGLE POINT ENERGY      -283.478364543220

DIPOLE MOMENT
-------------
                                X             Y             Z
Electronic contribution:     -1.93364      -3.00098       3.74008
Nuclear contribution   :      1.59382       2.33278      -3.02574
                        -----------------------------------------
Total Dipole Moment    :     -0.33982      -0.66821       0.71434
                        -----------------------------------------
Magnitude (a.u.)       :      1.03550
Magnitude (Debye)      :      2.63203

Rotational constants in cm-1:     0.232230     0.073139     0.063030
Rotational constants in MHz :  6962.079716  2192.649203  1889.578947

                             ****ORCA TERMINATED NORMALLY****
TOTAL RUN TIME: 0 days 0 hours 0 minutes 31 seconds 170 msec
