                         Program Version 5.0.0 -  RELEASE  -
|  1> !LC-BLYP RIJCOSX def2-SVPD def2/J TightSCF
|  2> *xyz 0 1
|  3> C         -0.72184       -0.99951       -3.43931
|  4> C          0.28725       -1.71177       -2.52740
|  5> H          1.13178       -2.06738       -3.15940
|  6> H         -0.20414       -2.63733       -2.17048
|  7> F          0.71050       -0.92751       -1.48177
|  8> H         -1.01315       -1.65739       -4.23129
|  9> H         -0.27123       -0.12142       -3.85259
| 10> H         -1.58442       -0.72333       -2.86958
| 11> *
| 12> %MaxCore 64000
| 13>
| 14> %pal nprocs 4
| 15> end
| 16>
| 17> %scf
| 18>   MaxIter 150
| 19> end
| 20>
| 21>
| 22>                          ****END OF INPUT****

CARTESIAN COORDINATES (ANGSTROEM)
---------------------------------
  C     -0.721840   -0.999510   -3.439310
  C      0.287250   -1.711770   -2.527400
  H      1.131780   -2.067380   -3.159400
  H     -0.204140   -2.637330   -2.170480
  F      0.710500   -0.927510   -1.481770
  H     -1.013150   -1.657390   -4.231290
  H     -0.271230   -0.121420   -3.852590
  H     -1.584420   -0.723330   -2.869580

 Total Charge           Charge          ....    0
 Multiplicity           Mult            ....    1
 Number of Electrons    NEL             ....   26
 Basis Dimension        Dim             ....  103

ORBITAL ENERGIES
----------------

  NO   OCC          E(Eh)            E(eV)
   0   2.0000     -24.463811      -665.6941
   1   2.0000     -10.167107      -276.6610
   2   2.0000     -10.083577      -274.3881
   3   2.0000      -1.263892       -34.3923
   4   2.0000      -0.870135       -23.6776
   5   2.0000      -0.735299       -20.0085
   6   2.0000      -0.615722       -16.7546
   7   2.0000      -0.604820       -16.4580
   8   2.0000      -0.564058       -15.3488
   9   2.0000      -0.508004       -13.8235
  10   2.0000      -0.503459       -13.6998
  11   2.0000      -0.439027       -11.9465
  12   2.0000      -0.430282       -11.7086
  13   0.0000       0.073784         2.0078
  14   0.0000       0.104518         2.8441
  15   0.0000       0.134485         3.6595
  16   0.0000       0.139405         3.7934
  17   0.0000       0.167951         4.5702

MULLIKEN ATOMIC CHARGES
-----------------------
   0 C :    0.598734
   1 C :    0.452239
   2 H :   -0.130606
   3 H :   -0.138808
   4 F :   -0.376755
   5 H :   -0.116687
   6 H :   -0.146552
   7 H :   -0.141566
Sum of atomic charges:    0.0000000

LOEWDIN ATOMIC CHARGES
----------------------
   0 C :    0.124275
   1 C :    0.032311
   2 H :    0.038410
   3 H :    0.033832
   4 F :   -0.199836
   5 H :   -0.008631
   6 H :   -0.010483
   7 H :   -0.009878

  Mayer bond orders larger than 0.100000
B(  0-C ,  1-C ) :   1.3201 B(  0-C ,  5-H ) :   0.8120 B(  0-C ,  6-H ) :   0.8436
B(  0-C ,  7-H ) :   0.8390 B(  1-C ,  2-H ) :   0.9212 B(  1-C ,  3-H ) :   0.9149
B(  1-C ,  4-F ) :   0.8638 B(  1-C ,  5-H ) :   0.1424 B(  1-C ,  6-H ) :   0.1649
B(  1-C ,  7-H ) :   0.1679

FINAL SINGLE POINT ENERGY      -178.540190595320

DIPOLE MOMENT
-------------
                                X             Y             Z
Electronic contribution:      2.68422       1.01996       4.18329
Nuclear contribution   :     -2.97459      -1.40206      -4.79987
                        -----------------------------------------
Total Dipole Moment    :     -0.29037      -0.38209      -0.61658
                        -----------------------------------------
Magnitude (a.u.)       :      0.78133
Magnitude (Debye)      :      1.98599

Rotational constants in cm-1:     1.257024     0.302702     0.267953
Rotational constants in MHz : 37684.643733  9074.792567  8033.038070

                             ****ORCA TERMINATED NORMALLY****
TOTAL RUN TIME: 0 days 0 hours 0 minutes 10 seconds 152 msec
