                         Program Version 5.0.0 -  RELEASE  -
|  1> !LC-BLYP RIJCOSX def2-SVPD def2/J TightSCF
|  2> *xyz 0 1
|  3> C          3.48828        1.60092       -1.52204
|  4> C          4.34297        1.31342       -2.75683
|  5> C          2.81029        0.42878       -1.01420
|  6> H          2.71455        2.33145       -1.76030
|  7> H          4.09099        2.06315       -0.73338
|  8> C          3.29098       -0.41802       -0.12908
|  9> N          2.51754       -1.43202        0.23936
| 10> N          4.53549       -0.28441        0.39580
| 11> H          5.04363        0.57189        0.22290
| 12> H          4.72335       -0.73327        1.28180
| 13> H          1.93479        0.10230       -1.40379
| 14> H          1.67464       -1.50562       -0.31610
| 15> H          2.92850       -2.21850        0.72549
| 16> H          3.73575        0.86277       -3.51385
| 17> H          5.13754        0.64699       -2.49333
| 18> H          4.75374        2.22930       -3.12740
| 19> *
| 20> %MaxCore 64000
| 21>
| 22> %pal nprocs 4
| 23> end
| 24>
| 25> %scf
| 26>   MaxIter 150
| 27> end
| 28>
| 29>
| 30>                          ****END OF INPUT****

CARTESIAN COORDINATES (ANGSTROEM)
---------------------------------
  C      3.488280    1.600920   -1.522040
  C      4.342970    1.313420   -2.756830
  C      2.810290    0.428780   -1.014200
  H      2.714550    2.331450   -1.760300
  H      4.090990    2.063150   -0.733380
  C      3.290980   -0.418020   -0.129080
  N      2.517540   -1.432020    0.239360
  N      4.535490   -0.284410    0.395800
  H      5.043630    0.571890    0.222900
  H      4.723350   -0.733270    1.281800
  H      1.934790    0.102300   -1.403790
  H      1.674640   -1.505620   -0.316100
  H      2.928500   -2.218500    0.725490
  H      3.735750    0.862770   -3.513850
  H      5.137540    0.646990   -2.493330
  H      4.753740    2.229300   -3.127400

 Total Charge           Charge          ....    0
 Multiplicity           Mult            ....    1
 Number of Electrons    NEL             ....   48
 Basis Dimension        Dim             ....  200

ORBITAL ENERGIES
----------------

  NO   OCC          E(Eh)            E(eV)
   0   2.0000     -14.189893      -386.1266
   1   2.0000     -14.184750      -385.9867
   2   2.0000     -10.127998      -275.5968
   3   2.0000     -10.063123      -273.8315
   4   2.0000     -10.051773      -273.5226
   5   2.0000     -10.011054      -272.4146
   6   2.0000      -1.054254       -28.6877
   7   2.0000      -0.964559       -26.2470
   8   2.0000      -0.879674       -23.9372
   9   2.0000      -0.798545       -21.7295
  10   2.0000      -0.717953       -19.5365
  11   2.0000      -0.686237       -18.6735
  12   2.0000      -0.644411       -17.5353
  13   2.0000      -0.614253       -16.7147
  14   2.0000      -0.568157       -15.4603
  15   2.0000      -0.544110       -14.8060
  16   2.0000      -0.524781       -14.2800
  17   2.0000      -0.506287       -13.7768
  18   2.0000      -0.484473       -13.1832
  19   2.0000      -0.456786       -12.4298
  20   2.0000      -0.432398       -11.7661
  21   2.0000      -0.418298       -11.3825
  22   2.0000      -0.367220        -9.9926
  23   2.0000      -0.257674        -7.0117
  24   0.0000       0.071382         1.9424
  25   0.0000       0.095689         2.6038
  26   0.0000       0.103582         2.8186
  27   0.0000       0.115022         3.1299
  28   0.0000       0.133541         3.6338

MULLIKEN ATOMIC CHARGES
-----------------------
   0 C :   -0.006137
   1 C :    0.864567
   2 C :   -0.265812
   3 H :   -0.103591
   4 H :   -0.118054
   5 C :    0.483246
   6 N :    0.189546
   7 N :    0.175045
   8 H :   -0.052650
   9 H :   -0.265899
  10 H :   -0.404477
  11 H :    0.051329
  12 H :   -0.219564
  13 H :   -0.116715
  14 H :   -0.135723
  15 H :   -0.075111
Sum of atomic charges:   -0.0000000

LOEWDIN ATOMIC CHARGES
----------------------
   0 C :   -0.109113
   1 C :    0.110243
   2 C :   -0.045376
   3 H :    0.020312
   4 H :    0.011040
   5 C :   -0.242327
   6 N :    0.185091
   7 N :    0.215256
   8 H :   -0.022977
   9 H :   -0.014129
  10 H :   -0.044258
  11 H :   -0.000152
  12 H :   -0.006455
  13 H :   -0.014513
  14 H :   -0.020604
  15 H :   -0.022037

  Mayer bond orders larger than 0.100000
B(  0-C ,  1-C ) :   1.2156 B(  0-C ,  2-C ) :   1.2808 B(  0-C ,  3-H ) :   0.7778
B(  0-C ,  4-H ) :   0.7619 B(  0-C , 10-H ) :   0.2632 B(  0-C , 13-H ) :   0.2538
B(  0-C , 14-H ) :   0.2308 B(  0-C , 15-H ) :   0.1889 B(  1-C , 13-H ) :   0.7663
B(  1-C , 14-H ) :   0.7774 B(  1-C , 15-H ) :   0.7663 B(  2-C ,  3-H ) :   0.2749
B(  2-C ,  4-H ) :   0.3069 B(  2-C ,  5-C ) :   1.6139 B(  2-C ,  6-N ) :   0.3385
B(  2-C ,  7-N ) :   0.2117 B(  2-C ,  8-H ) :  -0.1113 B(  2-C , 10-H ) :   0.8730
B(  3-H ,  4-H ) :   0.1002 B(  5-C ,  6-N ) :   0.9674 B(  5-C ,  7-N ) :   1.0014
B(  5-C , 10-H ) :   0.2251 B(  6-N , 11-H ) :   1.0331 B(  6-N , 12-H ) :   1.1749
B(  7-N ,  8-H ) :   1.0216 B(  7-N ,  9-H ) :   1.2228 B(  8-H ,  9-H ) :  -0.1493
B( 11-H , 12-H ) :  -0.1478

FINAL SINGLE POINT ENERGY      -267.017171738015

DIPOLE MOMENT
-------------
                                X             Y             Z
Electronic contribution:     -1.27344      -2.89735       3.63224
Nuclear contribution   :      1.44676       2.38443      -3.07370
                        -----------------------------------------
Total Dipole Moment    :      0.17332      -0.51293       0.55854
                        -----------------------------------------
Magnitude (a.u.)       :      0.77788
Magnitude (Debye)      :      1.97722

Rotational constants in cm-1:     0.235977     0.073199     0.063283
Rotational constants in MHz :  7074.404583  2194.453291  1897.179599

                             ****ORCA TERMINATED NORMALLY****
TOTAL RUN TIME: 0 days 0 hours 0 minutes 33 seconds 453 msec
