                         Program Version 5.0.0 -  RELEASE  -
|  1> !LC-BLYP RIJCOSX def2-SVPD def2/J TightSCF
|  2> *xyz 0 1
|  3> C          3.48828        1.60092       -1.52204
|  4> C          4.34297        1.31342       -2.75683
|  5> N          2.81029        0.42878       -1.01420
|  6> H          2.71455        2.33145       -1.76030
|  7> H          4.09099        2.06315       -0.73338
|  8> C          3.29098       -0.41802       -0.12908
|  9> C          2.51754       -1.43202        0.23936
| 10> N          4.53549       -0.28441        0.39580
| 11> H          5.04363        0.57189        0.22290
| 12> H          4.72335       -0.73327        1.28180
| 13> H          1.93479        0.10230       -1.40379
| 14> H          1.67464       -1.50562       -0.31610
| 15> H          2.92850       -2.21850        0.72549
| 16> H          3.73575        0.86277       -3.51385
| 17> H          5.13754        0.64699       -2.49333
| 18> H          4.75374        2.22930       -3.12740
| 19> *
| 20> %MaxCore 64000
| 21>
| 22> %pal nprocs 4
| 23> end
| 24>
| 25> %scf
| 26>   MaxIter 150
| 27> end
| 28>
| 29>
| 30>                          ****END OF INPUT****

CARTESIAN COORDINATES (ANGSTROEM)
---------------------------------
  C      3.488280    1.600920   -1.522040
  C      4.342970    1.313420   -2.756830
  N      2.810290    0.428780   -1.014200
  H      2.714550    2.331450   -1.760300
  H      4.090990    2.063150   -0.733380
  C      3.290980   -0.418020   -0.129080
  C      2.517540   -1.432020    0.239360
  N      4.535490   -0.284410    0.395800
  H      5.043630    0.571890    0.222900
  H      4.723350   -0.733270    1.281800
  H      1.934790    0.102300   -1.403790
  H      1.674640   -1.505620   -0.316100
  H      2.928500   -2.218500    0.725490
  H      3.735750    0.862770   -3.513850
  H      5.137540    0.646990   -2.493330
  H      4.753740    2.229300   -3.127400

 Total Charge           Charge          ....    0
 Multiplicity           Mult            ....    1
 Number of Electrons    NEL             ....   48
 Basis Dimension        Dim             ....  200

ORBITAL ENERGIES
----------------

  NO   OCC          E(Eh)            E(eV)
   0   2.0000     -14.189459      -386.1148
   1   2.0000     -14.189410      -386.1135
   2   2.0000     -10.132491      -275.7191
   3   2.0000     -10.128435      -275.6087
   4   2.0000     -10.076948      -274.2077
   5   2.0000      -9.995459      -271.9903
   6   2.0000      -1.065517       -28.9942
   7   2.0000      -0.978316       -26.6213
   8   2.0000      -0.880535       -23.9606
   9   2.0000      -0.804892       -21.9022
  10   2.0000      -0.733702       -19.9650
  11   2.0000      -0.704345       -19.1662
  12   2.0000      -0.643430       -17.5086
  13   2.0000      -0.605616       -16.4797
  14   2.0000      -0.581900       -15.8343
  15   2.0000      -0.544610       -14.8196
  16   2.0000      -0.537827       -14.6350
  17   2.0000      -0.507778       -13.8174
  18   2.0000      -0.478864       -13.0306
  19   2.0000      -0.473143       -12.8749
  20   2.0000      -0.468633       -12.7521
  21   2.0000      -0.456402       -12.4193
  22   2.0000      -0.358278        -9.7492
  23   2.0000      -0.257211        -6.9991
  24   0.0000       0.065416         1.7801
  25   0.0000       0.095973         2.6116
  26   0.0000       0.099059         2.6955
  27   0.0000       0.103902         2.8273
  28   0.0000       0.135656         3.6914

MULLIKEN ATOMIC CHARGES
-----------------------
   0 C :    0.393875
   1 C :    0.908686
   2 N :   -0.073244
   3 H :   -0.421323
   4 H :   -0.188991
   5 C :    0.400034
   6 C :    0.625622
   7 N :    0.251459
   8 H :   -0.201339
   9 H :   -0.158211
  10 H :   -0.293779
  11 H :   -0.329736
  12 H :   -0.550809
  13 H :   -0.146326
  14 H :   -0.130963
  15 H :   -0.084953
Sum of atomic charges:    0.0000000

LOEWDIN ATOMIC CHARGES
----------------------
   0 C :   -0.006814
   1 C :    0.123093
   2 N :   -0.006576
   3 H :    0.023494
   4 H :    0.015784
   5 C :   -0.248116
   6 C :    0.129486
   7 N :    0.214282
   8 H :   -0.036050
   9 H :    0.003202
  10 H :    0.033775
  11 H :   -0.102363
  12 H :   -0.094927
  13 H :   -0.013767
  14 H :   -0.018529
  15 H :   -0.015975

  Mayer bond orders larger than 0.100000
B(  0-C ,  1-C ) :   1.2230 B(  0-C ,  2-N ) :   1.0309 B(  0-C ,  3-H ) :   0.8518
B(  0-C ,  4-H ) :   0.8245 B(  0-C , 10-H ) :  -0.2418 B(  0-C , 13-H ) :   0.2900
B(  0-C , 14-H ) :   0.2283 B(  0-C , 15-H ) :   0.2008 B(  1-C , 13-H ) :   0.7277
B(  1-C , 14-H ) :   0.7725 B(  1-C , 15-H ) :   0.7627 B(  2-N ,  3-H ) :   0.1871
B(  2-N ,  4-H ) :   0.1542 B(  2-N ,  5-C ) :   1.1630 B(  2-N ,  6-C ) :   0.2546
B(  2-N ,  7-N ) :   0.1159 B(  2-N , 10-H ) :   1.2457 B(  5-C ,  6-C ) :   1.6137
B(  5-C ,  7-N ) :   0.9466 B(  5-C ,  9-H ) :  -0.1137 B(  5-C , 10-H ) :  -0.2160
B(  5-C , 11-H ) :   0.2604 B(  5-C , 12-H ) :   0.2292 B(  6-C ,  7-N ) :   0.2284
B(  6-C , 11-H ) :   0.7360 B(  6-C , 12-H ) :   0.6180 B(  7-N ,  8-H ) :   1.0247
B(  7-N ,  9-H ) :   1.2013 B(  8-H ,  9-H ) :  -0.1616

FINAL SINGLE POINT ENERGY      -267.004612746842

DIPOLE MOMENT
-------------
                                X             Y             Z
Electronic contribution:     -0.87624      -1.04278       2.42031
Nuclear contribution   :      1.38466       1.98967      -2.80776
                        -----------------------------------------
Total Dipole Moment    :      0.50842       0.94689      -0.38745
                        -----------------------------------------
Magnitude (a.u.)       :      1.14246
Magnitude (Debye)      :      2.90391

Rotational constants in cm-1:     0.235618     0.075969     0.065309
Rotational constants in MHz :  7063.646698  2277.495424  1957.925383

                             ****ORCA TERMINATED NORMALLY****
TOTAL RUN TIME: 0 days 0 hours 0 minutes 32 seconds 786 msec
