                         Program Version 5.0.0 -  RELEASE  -
|  1> !LC-BLYP RIJCOSX def2-SVPD def2/J TightSCF
|  2> *xyz 0 1
|  3> C          3.48828        1.60092       -1.52204
|  4> C          4.34297        1.31342       -2.75683
|  5> N          2.81029        0.42878       -1.01420
|  6> H          2.71455        2.33145       -1.76030
|  7> H          4.09099        2.06315       -0.73338
|  8> C          3.29098       -0.41802       -0.12908
|  9> N          2.51754       -1.43202        0.23936
| 10> C          4.53549       -0.28441        0.39580
| 11> H          5.04363        0.57189        0.22290
| 12> H          4.72335       -0.73327        1.28180
| 13> H          1.93479        0.10230       -1.40379
| 14> H          1.67464       -1.50562       -0.31610
| 15> H          2.92850       -2.21850        0.72549
| 16> H          3.73575        0.86277       -3.51385
| 17> H          5.13754        0.64699       -2.49333
| 18> H          4.75374        2.22930       -3.12740
| 19> *
| 20> %MaxCore 64000
| 21>
| 22> %pal nprocs 4
| 23> end
| 24>
| 25> %scf
| 26>   MaxIter 150
| 27> end
| 28>
| 29>
| 30>                          ****END OF INPUT****

CARTESIAN COORDINATES (ANGSTROEM)
---------------------------------
  C      3.488280    1.600920   -1.522040
  C      4.342970    1.313420   -2.756830
  N      2.810290    0.428780   -1.014200
  H      2.714550    2.331450   -1.760300
  H      4.090990    2.063150   -0.733380
  C      3.290980   -0.418020   -0.129080
  N      2.517540   -1.432020    0.239360
  C      4.535490   -0.284410    0.395800
  H      5.043630    0.571890    0.222900
  H      4.723350   -0.733270    1.281800
  H      1.934790    0.102300   -1.403790
  H      1.674640   -1.505620   -0.316100
  H      2.928500   -2.218500    0.725490
  H      3.735750    0.862770   -3.513850
  H      5.137540    0.646990   -2.493330
  H      4.753740    2.229300   -3.127400

 Total Charge           Charge          ....    0
 Multiplicity           Mult            ....    1
 Number of Electrons    NEL             ....   48
 Basis Dimension        Dim             ....  200

ORBITAL ENERGIES
----------------

  NO   OCC          E(Eh)            E(eV)
   0   2.0000     -14.196155      -386.2970
   1   2.0000     -14.191621      -386.1736
   2   2.0000     -10.135881      -275.8114
   3   2.0000     -10.120537      -275.3938
   4   2.0000     -10.069104      -273.9943
   5   2.0000      -9.997483      -272.0453
   6   2.0000      -1.074566       -29.2404
   7   2.0000      -0.984471       -26.7888
   8   2.0000      -0.859772       -23.3956
   9   2.0000      -0.810393       -22.0519
  10   2.0000      -0.749506       -20.3951
  11   2.0000      -0.667391       -18.1606
  12   2.0000      -0.650917       -17.7123
  13   2.0000      -0.633279       -17.2324
  14   2.0000      -0.573067       -15.5939
  15   2.0000      -0.545883       -14.8542
  16   2.0000      -0.535931       -14.5834
  17   2.0000      -0.497597       -13.5403
  18   2.0000      -0.480229       -13.0677
  19   2.0000      -0.472404       -12.8548
  20   2.0000      -0.462170       -12.5763
  21   2.0000      -0.445652       -12.1268
  22   2.0000      -0.352117        -9.5816
  23   2.0000      -0.260974        -7.1015
  24   0.0000       0.066348         1.8054
  25   0.0000       0.090277         2.4566
  26   0.0000       0.102534         2.7901
  27   0.0000       0.106797         2.9061
  28   0.0000       0.137643         3.7454

MULLIKEN ATOMIC CHARGES
-----------------------
   0 C :    0.381007
   1 C :    0.924584
   2 N :   -0.237541
   3 H :   -0.409900
   4 H :   -0.055845
   5 C :    0.415851
   6 N :    0.261447
   7 C :    0.634267
   8 H :   -0.306972
   9 H :   -0.608681
  10 H :   -0.351883
  11 H :   -0.156090
  12 H :   -0.094543
  13 H :   -0.154656
  14 H :   -0.156030
  15 H :   -0.085015
Sum of atomic charges:   -0.0000000

LOEWDIN ATOMIC CHARGES
----------------------
   0 C :    0.000761
   1 C :    0.127203
   2 N :   -0.008814
   3 H :    0.022944
   4 H :    0.023203
   5 C :   -0.254916
   6 N :    0.197554
   7 C :    0.151185
   8 H :   -0.125831
   9 H :   -0.105699
  10 H :    0.021967
  11 H :   -0.013756
  12 H :    0.013566
  13 H :   -0.017592
  14 H :   -0.016733
  15 H :   -0.015041

  Mayer bond orders larger than 0.100000
B(  0-C ,  1-C ) :   1.2026 B(  0-C ,  2-N ) :   1.0560 B(  0-C ,  3-H ) :   0.8814
B(  0-C ,  4-H ) :   0.8126 B(  0-C , 10-H ) :  -0.2159 B(  0-C , 13-H ) :   0.2570
B(  0-C , 14-H ) :   0.2298 B(  0-C , 15-H ) :   0.1948 B(  1-C , 13-H ) :   0.7425
B(  1-C , 14-H ) :   0.7835 B(  1-C , 15-H ) :   0.7691 B(  2-N ,  3-H ) :   0.1645
B(  2-N ,  4-H ) :   0.1387 B(  2-N ,  5-C ) :   1.0020 B(  2-N ,  6-N ) :   0.1570
B(  2-N ,  7-C ) :   0.4369 B(  2-N , 10-H ) :   1.3368 B(  3-H ,  4-H ) :  -0.1008
B(  5-C ,  6-N ) :   0.9490 B(  5-C ,  7-C ) :   1.7158 B(  5-C ,  8-H ) :   0.3183
B(  5-C ,  9-H ) :   0.2091 B(  5-C , 10-H ) :  -0.2879 B(  6-N ,  7-C ) :   0.2825
B(  6-N , 11-H ) :   1.0625 B(  6-N , 12-H ) :   1.1658 B(  7-C ,  8-H ) :   0.6300
B(  7-C ,  9-H ) :   0.6352 B(  8-H ,  9-H ) :   0.1526 B( 11-H , 12-H ) :  -0.1447

FINAL SINGLE POINT ENERGY      -267.004960685185

DIPOLE MOMENT
-------------
                                X             Y             Z
Electronic contribution:     -2.80755      -2.28475       2.19188
Nuclear contribution   :      1.81275       2.23313      -2.77458
                        -----------------------------------------
Total Dipole Moment    :     -0.99480      -0.05163      -0.58270
                        -----------------------------------------
Magnitude (a.u.)       :      1.15405
Magnitude (Debye)      :      2.93336

Rotational constants in cm-1:     0.245202     0.073668     0.064348
Rotational constants in MHz :  7350.977980  2208.513334  1929.108541

                             ****ORCA TERMINATED NORMALLY****
TOTAL RUN TIME: 0 days 0 hours 0 minutes 32 seconds 155 msec
