                         Program Version 5.0.0 -  RELEASE  -
|  1> !PBE0 D3BJ RIJCOSX def2-TZVPD def2/J TightSCF
|  2> *xyz -1 1
|  3> C         -7.33044       -2.67899       -3.20681
|  4> S         -6.01966       -2.92697       -4.41913
|  5> O         -5.64583       -1.58838       -4.91931
|  6> O         -4.88196       -3.50370       -3.66724
|  7> O         -6.54927       -3.80515       -5.42507
|  8> C         -7.46900       -1.24615       -2.71383
|  9> H         -7.11825       -3.37982       -2.39805
| 10> H         -8.24184       -3.00474       -3.70651
| 11> H         -7.67580       -0.60214       -3.54292
| 12> H         -6.55749       -0.94096       -2.24382
| 13> H         -8.27114       -1.18777       -2.00810
| 14> *
| 15> %MaxCore 64000
| 16>
| 17> %pal nprocs 4
| 18> end
| 19>
| 20> %scf
| 21>   MaxIter 150
| 22> end
| 23>
| 24>
| 25>                          ****END OF INPUT****

CARTESIAN COORDINATES (ANGSTROEM)
---------------------------------
  C     -7.330440   -2.678990   -3.206810
  S     -6.019660   -2.926970   -4.419130
  O     -5.645830   -1.588380   -4.919310
  O     -4.881960   -3.503700   -3.667240
  O     -6.549270   -3.805150   -5.425070
  C     -7.469000   -1.246150   -2.713830
  H     -7.118250   -3.379820   -2.398050
  H     -8.241840   -3.004740   -3.706510
  H     -7.675800   -0.602140   -3.542920
  H     -6.557490   -0.940960   -2.243820
  H     -8.271140   -1.187770   -2.008100

 Total Charge           Charge          ....   -1
 Multiplicity           Mult            ....    1
 Number of Electrons    NEL             ....   58
 Basis Dimension        Dim             ....  285

ORBITAL ENERGIES
----------------

  NO   OCC          E(Eh)            E(eV)
   0   2.0000     -89.000206     -2421.8187
   1   2.0000     -18.987874      -516.6863
   2   2.0000     -18.977313      -516.3989
   3   2.0000     -18.973947      -516.3074
   4   2.0000     -10.084654      -274.4174
   5   2.0000     -10.075384      -274.1651
   6   2.0000      -7.945962      -216.2206
   7   2.0000      -5.883201      -160.0900
   8   2.0000      -5.882055      -160.0588
   9   2.0000      -5.881844      -160.0531
  10   2.0000      -0.946648       -25.7596
  11   2.0000      -0.815756       -22.1979
  12   2.0000      -0.793432       -21.5904
  13   2.0000      -0.657351       -17.8874
  14   2.0000      -0.527360       -14.3502
  15   2.0000      -0.399461       -10.8699
  16   2.0000      -0.334175        -9.0934
  17   2.0000      -0.327925        -8.9233
  18   2.0000      -0.288767        -7.8578
  19   2.0000      -0.271122        -7.3776
  20   2.0000      -0.268352        -7.3022
  21   2.0000      -0.240586        -6.5467
  22   2.0000      -0.231303        -6.2941
  23   2.0000      -0.161983        -4.4078
  24   2.0000      -0.160236        -4.3602
  25   2.0000      -0.125843        -3.4244
  26   2.0000      -0.118963        -3.2371
  27   2.0000      -0.110541        -3.0080
  28   2.0000      -0.074070        -2.0156
  29   0.0000       0.127395         3.4666
  30   0.0000       0.149028         4.0552
  31   0.0000       0.154463         4.2031
  32   0.0000       0.163900         4.4600
  33   0.0000       0.180574         4.9137

MULLIKEN ATOMIC CHARGES
-----------------------
   0 C :   -0.246732
   1 S :    1.093450
   2 O :   -0.710890
   3 O :   -0.712708
   4 O :   -0.673760
   5 C :   -0.664815
   6 H :    0.180035
   7 H :    0.165237
   8 H :    0.207435
   9 H :    0.189148
  10 H :    0.173601
Sum of atomic charges:   -1.0000000

LOEWDIN ATOMIC CHARGES
----------------------
   0 C :   -0.321593
   1 S :    0.360618
   2 O :   -0.408205
   3 O :   -0.421562
   4 O :   -0.386463
   5 C :   -0.154969
   6 H :    0.081274
   7 H :    0.076946
   8 H :    0.058892
   9 H :    0.065365
  10 H :    0.049696

  Mayer bond orders larger than 0.100000
B(  0-C ,  1-S ) :   0.8509 B(  0-C ,  3-O ) :   0.1320 B(  0-C ,  4-O ) :   0.1319
B(  0-C ,  5-C ) :   0.8213 B(  0-C ,  6-H ) :   0.9882 B(  0-C ,  7-H ) :   0.9992
B(  1-S ,  2-O ) :   1.5119 B(  1-S ,  3-O ) :   1.5175 B(  1-S ,  4-O ) :   1.5598
B(  5-C ,  8-H ) :   0.9832 B(  5-C ,  9-H ) :   0.9880 B(  5-C , 10-H ) :   0.9772

Dispersion correction           -0.008239706
FINAL SINGLE POINT ENERGY      -702.843579513112

DIPOLE MOMENT
-------------
                                X             Y             Z
Electronic contribution:      4.69409      -3.51356      -5.11055
Nuclear contribution   :     -6.18165       4.01759       6.33106
                        -----------------------------------------
Total Dipole Moment    :     -1.48756       0.50403       1.22051
                        -----------------------------------------
Magnitude (a.u.)       :      1.98910
Magnitude (Debye)      :      5.05589

Rotational constants in cm-1:     0.161711     0.082788     0.081165
Rotational constants in MHz :  4847.971521  2481.906910  2433.276832

                             ****ORCA TERMINATED NORMALLY****
TOTAL RUN TIME: 0 days 0 hours 0 minutes 41 seconds 76 msec
