                         Program Version 5.0.0 -  RELEASE  -
|  1> !PBE0 D3BJ RIJCOSX def2-TZVPD def2/J TightSCF
|  2> *xyz 1 1
|  3> C         -2.16038       -1.36949       -3.46710
|  4> N         -3.03011       -1.91086       -4.54107
|  5> C         -2.04772        0.14658       -3.51177
|  6> H         -3.47744       -2.79151       -4.25710
|  7> H         -2.53801       -2.01786       -5.43808
|  8> H         -3.89159       -1.37604       -4.71437
|  9> H         -1.18444       -1.84400       -3.56639
| 10> H         -2.59819       -1.70838       -2.52848
| 11> H         -1.61525        0.44478       -4.44395
| 12> H         -1.42718        0.48198       -2.70720
| 13> H         -3.02145        0.57958       -3.41560
| 14> *
| 15> %MaxCore 64000
| 16>
| 17> %pal nprocs 4
| 18> end
| 19>
| 20> %scf
| 21>   MaxIter 150
| 22> end
| 23>
| 24>
| 25>                          ****END OF INPUT****

CARTESIAN COORDINATES (ANGSTROEM)
---------------------------------
  C     -2.160380   -1.369490   -3.467100
  N     -3.030110   -1.910860   -4.541070
  C     -2.047720    0.146580   -3.511770
  H     -3.477440   -2.791510   -4.257100
  H     -2.538010   -2.017860   -5.438080
  H     -3.891590   -1.376040   -4.714370
  H     -1.184440   -1.844000   -3.566390
  H     -2.598190   -1.708380   -2.528480
  H     -1.615250    0.444780   -4.443950
  H     -1.427180    0.481980   -2.707200
  H     -3.021450    0.579580   -3.415600

 Total Charge           Charge          ....    1
 Multiplicity           Mult            ....    1
 Number of Electrons    NEL             ....   26
 Basis Dimension        Dim             ....  183

ORBITAL ENERGIES
----------------

  NO   OCC          E(Eh)            E(eV)
   0   2.0000     -14.718928      -400.5224
   1   2.0000     -10.475371      -285.0493
   2   2.0000     -10.393046      -282.8092
   3   2.0000      -1.243873       -33.8475
   4   2.0000      -0.990605       -26.9557
   5   2.0000      -0.866601       -23.5814
   6   2.0000      -0.824961       -22.4483
   7   2.0000      -0.784978       -21.3603
   8   2.0000      -0.715408       -19.4673
   9   2.0000      -0.656555       -17.8658
  10   2.0000      -0.595229       -16.1970
  11   2.0000      -0.580219       -15.7886
  12   2.0000      -0.562021       -15.2934
  13   0.0000      -0.192956        -5.2506
  14   0.0000      -0.133945        -3.6448
  15   0.0000      -0.133114        -3.6222
  16   0.0000      -0.122651        -3.3375
  17   0.0000      -0.094178        -2.5627

MULLIKEN ATOMIC CHARGES
-----------------------
   0 C :   -0.194351
   1 N :   -0.226697
   2 C :   -0.753197
   3 H :    0.334961
   4 H :    0.340633
   5 H :    0.326364
   6 H :    0.208795
   7 H :    0.216520
   8 H :    0.260842
   9 H :    0.212405
  10 H :    0.273724
Sum of atomic charges:    1.0000000

LOEWDIN ATOMIC CHARGES
----------------------
   0 C :   -0.200961
   1 N :    0.176975
   2 C :   -0.054996
   3 H :    0.180492
   4 H :    0.185772
   5 H :    0.180045
   6 H :    0.137800
   7 H :    0.135300
   8 H :    0.083743
   9 H :    0.093015
  10 H :    0.082816

  Mayer bond orders larger than 0.100000
B(  0-C ,  1-N ) :   1.0160 B(  0-C ,  2-C ) :   0.8674 B(  0-C ,  6-H ) :   0.9590
B(  0-C ,  7-H ) :   0.9237 B(  1-N ,  3-H ) :   0.8693 B(  1-N ,  4-H ) :   0.8636
B(  1-N ,  5-H ) :   0.8717 B(  2-C ,  8-H ) :   0.9667 B(  2-C ,  9-H ) :   0.9955
B(  2-C , 10-H ) :   0.9344

Dispersion correction           -0.004996590
FINAL SINGLE POINT ENERGY      -135.420820972854

DIPOLE MOMENT
-------------
                                X             Y             Z
Electronic contribution:     -0.63987      -1.47687      -0.76573
Nuclear contribution   :     -0.15215       0.37393      -0.04773
                        -----------------------------------------
Total Dipole Moment    :     -0.79202      -1.10294      -0.81346
                        -----------------------------------------
Magnitude (a.u.)       :      1.58287
Magnitude (Debye)      :      4.02335

Rotational constants in cm-1:     1.020762     0.277172     0.247319
Rotational constants in MHz : 30601.664035  8309.399682  7414.438136

                             ****ORCA TERMINATED NORMALLY****
TOTAL RUN TIME: 0 days 0 hours 0 minutes 19 seconds 345 msec
