                         Program Version 5.0.0 -  RELEASE  -
|  1> !PBE0 D3BJ RIJCOSX def2-TZVPD def2/J TightSCF xyzfile
|  2>
|  3> *xyzfile 0 1 B.xyz
|  4>
|  5> %MaxCore 64000
|  6>
|  7> %pal nprocs 4
|  8> end
|  9>
| 10> %scf
| 11>   MaxIter 150
| 12> end
| 13>
| 14>
| 15>                          ****END OF INPUT****

CARTESIAN COORDINATES (ANGSTROEM)
---------------------------------
  C     -2.160376   -1.369486   -3.467104
  N     -3.030108   -1.910857   -4.541074
  C     -2.047717    0.146583   -3.511774
  C     -7.330440   -2.678991   -3.206811
  S     -6.019659   -2.926965   -4.419128
  H     -3.477443   -2.791513   -4.257096
  H     -2.538013   -2.017860   -5.438075
  H     -3.891589   -1.376039   -4.714365
  O     -5.645830   -1.588384   -4.919307
  O     -4.881961   -3.503697   -3.667235
  H     -1.184438   -1.843997   -3.566393
  H     -2.598195   -1.708376   -2.528477
  O     -6.549267   -3.805150   -5.425071
  C     -3.328755    0.875037   -3.103669
  H     -1.740034    0.452343   -4.517126
  H     -1.232611    0.434938   -2.842208
  C     -3.628487    0.771601   -1.609363
  H     -4.175106    0.490791   -3.682203
  H     -3.237812    1.928663   -3.381480
  C     -4.975718    1.361432   -1.190644
  H     -2.830700    1.276234   -1.054766
  H     -3.594312   -0.275838   -1.294603
  C     -6.184720    0.784347   -1.926464
  H     -4.956292    2.445725   -1.342200
  H     -5.097256    1.205252   -0.114136
  C     -6.286921   -0.735882   -1.893531
  H     -6.163994    1.100199   -2.974250
  H     -7.094530    1.223459   -1.504509
  C     -7.468999   -1.246153   -2.713833
  H     -6.360641   -1.090347   -0.859176
  H     -5.369848   -1.171853   -2.295982
  H     -7.601914   -0.601349   -3.585329
  H     -8.389791   -1.173436   -2.126922
  H     -7.118254   -3.379818   -2.398055
  H     -8.241838   -3.004745   -3.706513

 Total Charge           Charge          ....    0
 Multiplicity           Mult            ....    1
 Number of Electrons    NEL             ....  122
 Basis Dimension        Dim             ....  725

ORBITAL ENERGIES
----------------

  NO   OCC          E(Eh)            E(eV)
   0   2.0000     -89.168775     -2426.4057
   1   2.0000     -19.158967      -521.3420
   2   2.0000     -19.158893      -521.3400
   3   2.0000     -19.143853      -520.9307
   4   2.0000     -14.487277      -394.2188
   5   2.0000     -10.304633      -280.4033
   6   2.0000     -10.258027      -279.1351
   7   2.0000     -10.238038      -278.5912
   8   2.0000     -10.229768      -278.3661
   9   2.0000     -10.222721      -278.1744
  10   2.0000     -10.221909      -278.1523
  11   2.0000     -10.214198      -277.9425
  12   2.0000     -10.213317      -277.9185
  13   2.0000     -10.210226      -277.8344
  14   2.0000      -8.115455      -220.8328
  15   2.0000      -6.052596      -164.6995
  16   2.0000      -6.051813      -164.6782
  17   2.0000      -6.050890      -164.6531
  18   2.0000      -1.122423       -30.5427
  19   2.0000      -1.032179       -28.0870
  20   2.0000      -0.983884       -26.7728
  21   2.0000      -0.981794       -26.7160
  22   2.0000      -0.861587       -23.4450
  23   2.0000      -0.832153       -22.6440
  24   2.0000      -0.805419       -21.9166
  25   2.0000      -0.761072       -20.7098
  26   2.0000      -0.727282       -19.7904
  27   2.0000      -0.682407       -18.5692
  28   2.0000      -0.644015       -17.5245
  29   2.0000      -0.625752       -17.0276
  30   2.0000      -0.611854       -16.6494
  31   2.0000      -0.586212       -15.9516
  32   2.0000      -0.578228       -15.7344
  33   2.0000      -0.555443       -15.1144
  34   2.0000      -0.529890       -14.4190
  35   2.0000      -0.503354       -13.6970
  36   2.0000      -0.502526       -13.6744
  37   2.0000      -0.488788       -13.3006
  38   2.0000      -0.472152       -12.8479
  39   2.0000      -0.462014       -12.5721
  40   2.0000      -0.453327       -12.3357
  41   2.0000      -0.450047       -12.2464
  42   2.0000      -0.443092       -12.0571
  43   2.0000      -0.427637       -11.6366
  44   2.0000      -0.424540       -11.5523
  45   2.0000      -0.413401       -11.2492
  46   2.0000      -0.400640       -10.9020
  47   2.0000      -0.387900       -10.5553
  48   2.0000      -0.381434       -10.3794
  49   2.0000      -0.366487        -9.9726
  50   2.0000      -0.358315        -9.7502
  51   2.0000      -0.350069        -9.5259
  52   2.0000      -0.338511        -9.2113
  53   2.0000      -0.334340        -9.0979
  54   2.0000      -0.331107        -9.0099
  55   2.0000      -0.328070        -8.9272
  56   2.0000      -0.323499        -8.8029
  57   2.0000      -0.295771        -8.0483
  58   2.0000      -0.288891        -7.8611
  59   2.0000      -0.279192        -7.5972
  60   2.0000      -0.254520        -6.9259
  61   0.0000      -0.019214        -0.5228
  62   0.0000       0.006477         0.1762
  63   0.0000       0.011552         0.3144
  64   0.0000       0.018658         0.5077
  65   0.0000       0.029259         0.7962

MULLIKEN ATOMIC CHARGES
-----------------------
   0 C :   -0.404002
   1 N :    0.022131
   2 C :   -0.184797
   3 C :   -0.594601
   4 S :    1.180392
   5 H :    0.319320
   6 H :    0.329365
   7 H :    0.200216
   8 O :   -0.837916
   9 O :   -0.834557
  10 H :    0.170780
  11 H :    0.228909
  12 O :   -0.623943
  13 C :   -0.061347
  14 H :    0.132790
  15 H :    0.165306
  16 C :   -0.288234
  17 H :    0.048860
  18 H :    0.108299
  19 C :   -0.424396
  20 H :    0.142590
  21 H :    0.173578
  22 C :   -0.427889
  23 H :    0.123648
  24 H :    0.160020
  25 C :    0.203230
  26 H :    0.236796
  27 H :    0.135418
  28 C :   -0.298894
  29 H :    0.192379
  30 H :   -0.083155
  31 H :    0.201066
  32 H :    0.204003
  33 H :    0.231104
  34 H :    0.153529
Sum of atomic charges:   -0.0000000

LOEWDIN ATOMIC CHARGES
----------------------
   0 C :   -0.160534
   1 N :    0.149556
   2 C :   -0.187975
   3 C :   -0.233370
   4 S :    0.457373
   5 H :    0.077213
   6 H :    0.175407
   7 H :    0.084007
   8 O :   -0.374822
   9 O :   -0.380551
  10 H :    0.126932
  11 H :    0.124244
  12 O :   -0.317468
  13 C :   -0.203704
  14 H :    0.116453
  15 H :    0.119136
  16 C :   -0.217990
  17 H :    0.098795
  18 H :    0.122933
  19 C :   -0.209586
  20 H :    0.116228
  21 H :    0.101319
  22 C :   -0.217435
  23 H :    0.111186
  24 H :    0.111900
  25 C :   -0.219085
  26 H :    0.111333
  27 H :    0.117426
  28 C :   -0.238438
  29 H :    0.126694
  30 H :    0.085577
  31 H :    0.109827
  32 H :    0.116919
  33 H :    0.103043
  34 H :    0.097457

  Mayer bond orders larger than 0.100000
B(  0-C ,  1-N ) :   0.9825 B(  0-C ,  2-C ) :   1.0501 B(  0-C , 10-H ) :   0.9014
B(  0-C , 11-H ) :   0.8923 B(  0-C , 16-C ) :   0.1507 B(  1-N ,  5-H ) :   0.8037
B(  1-N ,  6-H ) :   0.8019 B(  1-N ,  7-H ) :   0.9652 B(  2-C , 13-C ) :   1.0287
B(  2-C , 14-H ) :   0.9133 B(  2-C , 15-H ) :   0.9032 B(  2-C , 16-C ) :   0.2161
B(  3-C ,  4-S ) :   0.8976 B(  3-C ,  9-O ) :   0.1309 B(  3-C , 12-O ) :   0.1737
B(  3-C , 25-C ) :   0.2482 B(  3-C , 28-C ) :   0.9073 B(  3-C , 33-H ) :   0.9167
B(  3-C , 34-H ) :   1.0560 B(  4-S ,  8-O ) :   1.4225 B(  4-S ,  9-O ) :   1.3717
B(  4-S , 12-O ) :   1.4413 B(  8-O ,  9-O ) :   0.1198 B(  8-O , 28-C ) :   0.1133
B( 13-C , 16-C ) :   0.5881 B( 13-C , 17-H ) :   1.1495 B( 13-C , 18-H ) :   0.8732
B( 13-C , 19-C ) :   0.2263 B( 13-C , 21-H ) :  -0.1066 B( 13-C , 22-C ) :   0.1500
B( 16-C , 19-C ) :   1.1564 B( 16-C , 20-H ) :   0.9460 B( 16-C , 21-H ) :   0.9877
B( 16-C , 25-C ) :   0.1123 B( 17-H , 18-H ) :   0.1077 B( 19-C , 22-C ) :   1.0281
B( 19-C , 23-H ) :   0.9488 B( 19-C , 24-H ) :   0.9221 B( 19-C , 25-C ) :   0.2476
B( 22-C , 25-C ) :   0.6470 B( 22-C , 26-H ) :   0.9213 B( 22-C , 27-H ) :   0.9233
B( 22-C , 28-C ) :   0.5358 B( 25-C , 26-H ) :  -0.1011 B( 25-C , 28-C ) :   0.7131
B( 25-C , 29-H ) :   0.7207 B( 25-C , 30-H ) :   1.3951 B( 28-C , 29-H ) :  -0.1262
B( 28-C , 31-H ) :   0.8517 B( 28-C , 32-H ) :   0.9429 B( 29-H , 30-H ) :   0.1654

Dispersion correction           -0.036611394
FINAL SINGLE POINT ENERGY     -1033.670120717236

DIPOLE MOMENT
-------------
                                X             Y             Z
Electronic contribution:     -5.96698     -15.21127     -11.42821
Nuclear contribution   :      8.59301      16.99497      12.41069
                        -----------------------------------------
Total Dipole Moment    :      2.62603       1.78371       0.98248
                        -----------------------------------------
Magnitude (a.u.)       :      3.32309
Magnitude (Debye)      :      8.44662

Rotational constants in cm-1:     0.025617     0.015295     0.010641
Rotational constants in MHz :   767.991150   458.522408   319.013093

                             ****ORCA TERMINATED NORMALLY****
TOTAL RUN TIME: 0 days 0 hours 6 minutes 13 seconds 896 msec
