                         Program Version 5.0.0 -  RELEASE  -
|  1> !PBE0 D3BJ RIJCOSX def2-TZVPD def2/J TightSCF
|  2> *xyz 0 1
|  3> C         -7.33044       -2.67899       -3.20681
|  4> S         -6.01966       -2.92697       -4.41913
|  5> F         -5.64583       -1.58838       -4.91931
|  6> O         -4.88196       -3.50370       -3.66724
|  7> O         -6.54927       -3.80515       -5.42507
|  8> C         -7.46900       -1.24615       -2.71383
|  9> H         -7.11825       -3.37982       -2.39805
| 10> H         -8.24184       -3.00474       -3.70651
| 11> H         -7.67580       -0.60214       -3.54292
| 12> H         -6.55749       -0.94096       -2.24382
| 13> H         -8.27114       -1.18777       -2.00810
| 14> *
| 15> %MaxCore 64000
| 16>
| 17> %pal nprocs 4
| 18> end
| 19>
| 20> %scf
| 21>   MaxIter 150
| 22> end
| 23>
| 24>
| 25>                          ****END OF INPUT****

CARTESIAN COORDINATES (ANGSTROEM)
---------------------------------
  C     -7.330440   -2.678990   -3.206810
  S     -6.019660   -2.926970   -4.419130
  F     -5.645830   -1.588380   -4.919310
  O     -4.881960   -3.503700   -3.667240
  O     -6.549270   -3.805150   -5.425070
  C     -7.469000   -1.246150   -2.713830
  H     -7.118250   -3.379820   -2.398050
  H     -8.241840   -3.004740   -3.706510
  H     -7.675800   -0.602140   -3.542920
  H     -6.557490   -0.940960   -2.243820
  H     -8.271140   -1.187770   -2.008100

 Total Charge           Charge          ....    0
 Multiplicity           Mult            ....    1
 Number of Electrons    NEL             ....   58
 Basis Dimension        Dim             ....  285

ORBITAL ENERGIES
----------------

  NO   OCC          E(Eh)            E(eV)
   0   2.0000     -89.261326     -2428.9242
   1   2.0000     -24.877330      -676.9466
   2   2.0000     -19.223155      -523.0886
   3   2.0000     -19.208773      -522.6973
   4   2.0000     -10.286344      -279.9057
   5   2.0000     -10.247103      -278.8378
   6   2.0000      -8.207596      -223.3400
   7   2.0000      -6.148040      -167.2967
   8   2.0000      -6.141687      -167.1238
   9   2.0000      -6.141314      -167.1137
  10   2.0000      -1.389039       -37.7977
  11   2.0000      -1.136654       -30.9299
  12   2.0000      -1.037264       -28.2254
  13   2.0000      -0.853201       -23.2168
  14   2.0000      -0.746295       -20.3077
  15   2.0000      -0.696834       -18.9618
  16   2.0000      -0.603826       -16.4310
  17   2.0000      -0.586207       -15.9515
  18   2.0000      -0.562183       -15.2978
  19   2.0000      -0.514897       -14.0111
  20   2.0000      -0.490294       -13.3416
  21   2.0000      -0.465637       -12.6706
  22   2.0000      -0.460049       -12.5186
  23   2.0000      -0.429236       -11.6801
  24   2.0000      -0.412113       -11.2142
  25   2.0000      -0.400778       -10.9057
  26   2.0000      -0.350583        -9.5399
  27   2.0000      -0.337221        -9.1763
  28   2.0000      -0.324972        -8.8429
  29   0.0000      -0.010791        -0.2936
  30   0.0000       0.025076         0.6824
  31   0.0000       0.025375         0.6905
  32   0.0000       0.031375         0.8537
  33   0.0000       0.043422         1.1816

MULLIKEN ATOMIC CHARGES
-----------------------
   0 C :   -0.133993
   1 S :    1.052224
   2 F :   -0.146955
   3 O :   -0.567098
   4 O :   -0.531919
   5 C :   -0.769276
   6 H :    0.215088
   7 H :    0.206580
   8 H :    0.257336
   9 H :    0.240989
  10 H :    0.177025
Sum of atomic charges:    0.0000000

LOEWDIN ATOMIC CHARGES
----------------------
   0 C :   -0.269411
   1 S :    0.607415
   2 F :   -0.079412
   3 O :   -0.302895
   4 O :   -0.269534
   5 C :   -0.118015
   6 H :    0.108284
   7 H :    0.099873
   8 H :    0.070844
   9 H :    0.077023
  10 H :    0.075828

  Mayer bond orders larger than 0.100000
B(  0-C ,  1-S ) :   0.8252 B(  0-C ,  4-O ) :   0.1020 B(  0-C ,  5-C ) :   0.8345
B(  0-C ,  6-H ) :   0.9566 B(  0-C ,  7-H ) :   0.9716 B(  1-S ,  2-F ) :   1.0337
B(  1-S ,  3-O ) :   1.7105 B(  1-S ,  4-O ) :   1.7615 B(  5-C ,  8-H ) :   0.9382
B(  5-C ,  9-H ) :   0.9697 B(  5-C , 10-H ) :   0.9893

Dispersion correction           -0.007824341
FINAL SINGLE POINT ENERGY      -727.361827524023

DIPOLE MOMENT
-------------
                                X             Y             Z
Electronic contribution:      5.65101      -1.72351      -6.38126
Nuclear contribution   :     -6.81251       2.87933       7.15058
                        -----------------------------------------
Total Dipole Moment    :     -1.16150       1.15582       0.76932
                        -----------------------------------------
Magnitude (a.u.)       :      1.81021
Magnitude (Debye)      :      4.60118

Rotational constants in cm-1:     0.152543     0.082494     0.078987
Rotational constants in MHz :  4573.135887  2473.116216  2367.980829

                             ****ORCA TERMINATED NORMALLY****
TOTAL RUN TIME: 0 days 0 hours 0 minutes 41 seconds 804 msec
