                         Program Version 5.0.0 -  RELEASE  -
|  1> !PBE0 D3BJ RIJCOSX def2-TZVPD def2/J TightSCF
|  2> *xyz 0 1
|  3> C         -2.16038       -1.36949       -3.46710
|  4> C         -3.03011       -1.91086       -4.54107
|  5> C         -2.04772        0.14658       -3.51177
|  6> H         -3.47744       -2.79151       -4.25710
|  7> H         -2.53801       -2.01786       -5.43808
|  8> H         -3.89159       -1.37604       -4.71437
|  9> H         -1.18444       -1.84400       -3.56639
| 10> H         -2.59819       -1.70838       -2.52848
| 11> H         -1.61525        0.44478       -4.44395
| 12> H         -1.42718        0.48198       -2.70720
| 13> H         -3.02145        0.57958       -3.41560
| 14> *
| 15> %MaxCore 64000
| 16>
| 17> %pal nprocs 4
| 18> end
| 19>
| 20> %scf
| 21>   MaxIter 150
| 22> end
| 23>
| 24>
| 25>                          ****END OF INPUT****

CARTESIAN COORDINATES (ANGSTROEM)
---------------------------------
  C     -2.160380   -1.369490   -3.467100
  C     -3.030110   -1.910860   -4.541070
  C     -2.047720    0.146580   -3.511770
  H     -3.477440   -2.791510   -4.257100
  H     -2.538010   -2.017860   -5.438080
  H     -3.891590   -1.376040   -4.714370
  H     -1.184440   -1.844000   -3.566390
  H     -2.598190   -1.708380   -2.528480
  H     -1.615250    0.444780   -4.443950
  H     -1.427180    0.481980   -2.707200
  H     -3.021450    0.579580   -3.415600

 Total Charge           Charge          ....    0
 Multiplicity           Mult            ....    1
 Number of Electrons    NEL             ....   26
 Basis Dimension        Dim             ....  183

ORBITAL ENERGIES
----------------

  NO   OCC          E(Eh)            E(eV)
   0   2.0000     -10.207021      -277.7472
   1   2.0000     -10.196042      -277.4484
   2   2.0000     -10.176976      -276.9296
   3   2.0000      -0.814144       -22.1540
   4   2.0000      -0.712601       -19.3909
   5   2.0000      -0.606430       -16.5018
   6   2.0000      -0.483219       -13.1491
   7   2.0000      -0.452733       -12.3195
   8   2.0000      -0.414358       -11.2753
   9   2.0000      -0.405842       -11.0435
  10   2.0000      -0.350982        -9.5507
  11   2.0000      -0.338633        -9.2147
  12   2.0000      -0.337639        -9.1876
  13   0.0000       0.020186         0.5493
  14   0.0000       0.044341         1.2066
  15   0.0000       0.047312         1.2874
  16   0.0000       0.067180         1.8280
  17   0.0000       0.090674         2.4674

MULLIKEN ATOMIC CHARGES
-----------------------
   0 C :    0.226865
   1 C :   -1.014319
   2 C :   -0.783810
   3 H :    0.232018
   4 H :    0.238183
   5 H :    0.253641
   6 H :    0.120782
   7 H :    0.124669
   8 H :    0.210007
   9 H :    0.178230
  10 H :    0.213735
Sum of atomic charges:   -0.0000000

LOEWDIN ATOMIC CHARGES
----------------------
   0 C :   -0.315801
   1 C :   -0.134610
   2 C :   -0.116585
   3 H :    0.051548
   4 H :    0.057746
   5 H :    0.054216
   6 H :    0.104869
   7 H :    0.103292
   8 H :    0.067787
   9 H :    0.060848
  10 H :    0.066691

  Mayer bond orders larger than 0.100000
B(  0-C ,  1-C ) :   0.7827 B(  0-C ,  2-C ) :   0.7610 B(  0-C ,  6-H ) :   0.9738
B(  0-C ,  7-H ) :   0.9779 B(  1-C ,  2-C ) :   0.2016 B(  1-C ,  3-H ) :   0.9952
B(  1-C ,  4-H ) :   0.9760 B(  1-C ,  5-H ) :   0.9890 B(  2-C ,  8-H ) :   0.9959
B(  2-C ,  9-H ) :   1.0198 B(  2-C , 10-H ) :   0.9925

Dispersion correction           -0.005016279
FINAL SINGLE POINT ENERGY      -119.017263202061

DIPOLE MOMENT
-------------
                                X             Y             Z
Electronic contribution:      0.31721      -0.13101       0.27525
Nuclear contribution   :     -0.34625       0.09603      -0.26933
                        -----------------------------------------
Total Dipole Moment    :     -0.02904      -0.03498       0.00592
                        -----------------------------------------
Magnitude (a.u.)       :      0.04584
Magnitude (Debye)      :      0.11653

Rotational constants in cm-1:     1.028617     0.291238     0.258956
Rotational constants in MHz : 30837.159054  8731.095379  7763.318586

                             ****ORCA TERMINATED NORMALLY****
TOTAL RUN TIME: 0 days 0 hours 0 minutes 18 seconds 138 msec
