                         Program Version 5.0.0 -  RELEASE  -
|  1> !PBE0 D3BJ RIJCOSX def2-TZVPD def2/J TightSCF
|  2> *xyz 0 1
|  3> C         -7.33044       -2.67899       -3.20681
|  4> S         -6.01966       -2.92697       -4.41913
|  5> O         -5.64583       -1.58838       -4.91931
|  6> F         -4.88196       -3.50370       -3.66724
|  7> O         -6.54927       -3.80515       -5.42507
|  8> C         -7.46900       -1.24615       -2.71383
|  9> H         -7.11825       -3.37982       -2.39805
| 10> H         -8.24184       -3.00474       -3.70651
| 11> H         -7.67580       -0.60214       -3.54292
| 12> H         -6.55749       -0.94096       -2.24382
| 13> H         -8.27114       -1.18777       -2.00810
| 14> *
| 15> %MaxCore 64000
| 16>
| 17> %pal nprocs 4
| 18> end
| 19>
| 20> %scf
| 21>   MaxIter 150
| 22> end
| 23>
| 24>
| 25>                          ****END OF INPUT****

CARTESIAN COORDINATES (ANGSTROEM)
---------------------------------
  C     -7.330440   -2.678990   -3.206810
  S     -6.019660   -2.926970   -4.419130
  O     -5.645830   -1.588380   -4.919310
  F     -4.881960   -3.503700   -3.667240
  O     -6.549270   -3.805150   -5.425070
  C     -7.469000   -1.246150   -2.713830
  H     -7.118250   -3.379820   -2.398050
  H     -8.241840   -3.004740   -3.706510
  H     -7.675800   -0.602140   -3.542920
  H     -6.557490   -0.940960   -2.243820
  H     -8.271140   -1.187770   -2.008100

 Total Charge           Charge          ....    0
 Multiplicity           Mult            ....    1
 Number of Electrons    NEL             ....   58
 Basis Dimension        Dim             ....  285

ORBITAL ENERGIES
----------------

  NO   OCC          E(Eh)            E(eV)
   0   2.0000     -89.261333     -2428.9244
   1   2.0000     -24.874581      -676.8718
   2   2.0000     -19.223146      -523.0884
   3   2.0000     -19.211925      -522.7830
   4   2.0000     -10.286631      -279.9135
   5   2.0000     -10.238378      -278.6004
   6   2.0000      -8.207601      -223.3402
   7   2.0000      -6.147967      -167.2947
   8   2.0000      -6.141874      -167.1289
   9   2.0000      -6.141227      -167.1113
  10   2.0000      -1.385476       -37.7007
  11   2.0000      -1.137651       -30.9571
  12   2.0000      -1.040581       -28.3156
  13   2.0000      -0.848795       -23.0969
  14   2.0000      -0.747236       -20.3333
  15   2.0000      -0.690010       -18.7761
  16   2.0000      -0.594481       -16.1767
  17   2.0000      -0.582523       -15.8513
  18   2.0000      -0.569873       -15.5070
  19   2.0000      -0.509436       -13.8625
  20   2.0000      -0.497763       -13.5448
  21   2.0000      -0.471163       -12.8210
  22   2.0000      -0.444281       -12.0895
  23   2.0000      -0.418119       -11.3776
  24   2.0000      -0.412286       -11.2189
  25   2.0000      -0.398157       -10.8344
  26   2.0000      -0.349899        -9.5212
  27   2.0000      -0.343226        -9.3397
  28   2.0000      -0.327876        -8.9220
  29   0.0000      -0.004548        -0.1238
  30   0.0000       0.016690         0.4542
  31   0.0000       0.026748         0.7278
  32   0.0000       0.029398         0.8000
  33   0.0000       0.043970         1.1965

MULLIKEN ATOMIC CHARGES
-----------------------
   0 C :   -0.228971
   1 S :    1.051444
   2 O :   -0.566085
   3 F :   -0.139204
   4 O :   -0.534560
   5 C :   -0.691300
   6 H :    0.256196
   7 H :    0.201665
   8 H :    0.240945
   9 H :    0.227695
  10 H :    0.182176
Sum of atomic charges:    0.0000000

LOEWDIN ATOMIC CHARGES
----------------------
   0 C :   -0.273183
   1 S :    0.610269
   2 O :   -0.293887
   3 F :   -0.084830
   4 O :   -0.270085
   5 C :   -0.116123
   6 H :    0.098626
   7 H :    0.103314
   8 H :    0.074795
   9 H :    0.076127
  10 H :    0.074977

  Mayer bond orders larger than 0.100000
B(  0-C ,  1-S ) :   0.8455 B(  0-C ,  4-O ) :   0.1078 B(  0-C ,  5-C ) :   0.8813
B(  0-C ,  6-H ) :   0.9042 B(  0-C ,  7-H ) :   0.9747 B(  1-S ,  2-O ) :   1.7042
B(  1-S ,  3-F ) :   1.0317 B(  1-S ,  4-O ) :   1.7577 B(  2-O ,  4-O ) :   0.1018
B(  5-C ,  8-H ) :   0.9693 B(  5-C ,  9-H ) :   0.9499 B(  5-C , 10-H ) :   0.9827

Dispersion correction           -0.007860089
FINAL SINGLE POINT ENERGY      -727.364887449814

DIPOLE MOMENT
-------------
                                X             Y             Z
Electronic contribution:      6.98356      -4.96713      -4.28421
Nuclear contribution   :     -7.60849       4.87515       5.84588
                        -----------------------------------------
Total Dipole Moment    :     -0.62493      -0.09198       1.56167
                        -----------------------------------------
Magnitude (a.u.)       :      1.68458
Magnitude (Debye)      :      4.28187

Rotational constants in cm-1:     0.153704     0.080342     0.079431
Rotational constants in MHz :  4607.928650  2408.599360  2381.267225

                             ****ORCA TERMINATED NORMALLY****
TOTAL RUN TIME: 0 days 0 hours 0 minutes 42 seconds 640 msec
