                         Program Version 5.0.0 -  RELEASE  -
|  1> !PBE0 D3BJ RIJCOSX def2-TZVPD def2/J TightSCF
|  2> *xyz 0 1
|  3> C         -7.33044       -2.67899       -3.20681
|  4> S         -6.01966       -2.92697       -4.41913
|  5> O         -5.64583       -1.58838       -4.91931
|  6> O         -4.88196       -3.50370       -3.66724
|  7> F         -6.54927       -3.80515       -5.42507
|  8> C         -7.46900       -1.24615       -2.71383
|  9> H         -7.11825       -3.37982       -2.39805
| 10> H         -8.24184       -3.00474       -3.70651
| 11> H         -7.67580       -0.60214       -3.54292
| 12> H         -6.55749       -0.94096       -2.24382
| 13> H         -8.27114       -1.18777       -2.00810
| 14> *
| 15> %MaxCore 64000
| 16>
| 17> %pal nprocs 4
| 18> end
| 19>
| 20> %scf
| 21>   MaxIter 150
| 22> end
| 23>
| 24>
| 25>                          ****END OF INPUT****

CARTESIAN COORDINATES (ANGSTROEM)
---------------------------------
  C     -7.330440   -2.678990   -3.206810
  S     -6.019660   -2.926970   -4.419130
  O     -5.645830   -1.588380   -4.919310
  O     -4.881960   -3.503700   -3.667240
  F     -6.549270   -3.805150   -5.425070
  C     -7.469000   -1.246150   -2.713830
  H     -7.118250   -3.379820   -2.398050
  H     -8.241840   -3.004740   -3.706510
  H     -7.675800   -0.602140   -3.542920
  H     -6.557490   -0.940960   -2.243820
  H     -8.271140   -1.187770   -2.008100

 Total Charge           Charge          ....    0
 Multiplicity           Mult            ....    1
 Number of Electrons    NEL             ....   58
 Basis Dimension        Dim             ....  285

ORBITAL ENERGIES
----------------

  NO   OCC          E(Eh)            E(eV)
   0   2.0000     -89.263836     -2428.9925
   1   2.0000     -24.896946      -677.4804
   2   2.0000     -19.212339      -522.7943
   3   2.0000     -19.209394      -522.7142
   4   2.0000     -10.287361      -279.9333
   5   2.0000     -10.238651      -278.6079
   6   2.0000      -8.210038      -223.4065
   7   2.0000      -6.150340      -167.3593
   8   2.0000      -6.144170      -167.1914
   9   2.0000      -6.143741      -167.1797
  10   2.0000      -1.422598       -38.7109
  11   2.0000      -1.121423       -30.5155
  12   2.0000      -1.023718       -27.8568
  13   2.0000      -0.849158       -23.1068
  14   2.0000      -0.761954       -20.7338
  15   2.0000      -0.697602       -18.9827
  16   2.0000      -0.610767       -16.6198
  17   2.0000      -0.608550       -16.5595
  18   2.0000      -0.574624       -15.6363
  19   2.0000      -0.510715       -13.8973
  20   2.0000      -0.496907       -13.5215
  21   2.0000      -0.460527       -12.5316
  22   2.0000      -0.441415       -12.0115
  23   2.0000      -0.420401       -11.4397
  24   2.0000      -0.403586       -10.9821
  25   2.0000      -0.394067       -10.7231
  26   2.0000      -0.341747        -9.2994
  27   2.0000      -0.335239        -9.1223
  28   2.0000      -0.314230        -8.5506
  29   0.0000      -0.004682        -0.1274
  30   0.0000       0.012723         0.3462
  31   0.0000       0.027893         0.7590
  32   0.0000       0.029582         0.8050
  33   0.0000       0.045528         1.2389

MULLIKEN ATOMIC CHARGES
-----------------------
   0 C :   -0.227198
   1 S :    1.044248
   2 O :   -0.562284
   3 O :   -0.557808
   4 F :   -0.099581
   5 C :   -0.711953
   6 H :    0.222882
   7 H :    0.233787
   8 H :    0.241866
   9 H :    0.232418
  10 H :    0.183623
Sum of atomic charges:    0.0000000

LOEWDIN ATOMIC CHARGES
----------------------
   0 C :   -0.278313
   1 S :    0.609451
   2 O :   -0.294840
   3 O :   -0.301699
   4 F :   -0.050709
   5 C :   -0.110774
   6 H :    0.102537
   7 H :    0.093928
   8 H :    0.073260
   9 H :    0.080974
  10 H :    0.076185

  Mayer bond orders larger than 0.100000
B(  0-C ,  1-S ) :   0.8460 B(  0-C ,  3-O ) :   0.1009 B(  0-C ,  5-C ) :   0.9020
B(  0-C ,  6-H ) :   0.9677 B(  0-C ,  7-H ) :   0.9126 B(  1-S ,  2-O ) :   1.7127
B(  1-S ,  3-O ) :   1.7156 B(  1-S ,  4-F ) :   1.0796 B(  5-C ,  8-H ) :   0.9529
B(  5-C ,  9-H ) :   0.9666 B(  5-C , 10-H ) :   0.9716

Dispersion correction           -0.007873420
FINAL SINGLE POINT ENERGY      -727.346680617786

DIPOLE MOMENT
-------------
                                X             Y             Z
Electronic contribution:      4.15815      -5.45787      -7.26387
Nuclear contribution   :     -5.87110       5.18927       7.67759
                        -----------------------------------------
Total Dipole Moment    :     -1.71295      -0.26860       0.41373
                        -----------------------------------------
Magnitude (a.u.)       :      1.78256
Magnitude (Debye)      :      4.53091

Rotational constants in cm-1:     0.155988     0.080452     0.078187
Rotational constants in MHz :  4676.405251  2411.902056  2343.983816

                             ****ORCA TERMINATED NORMALLY****
TOTAL RUN TIME: 0 days 0 hours 0 minutes 44 seconds 228 msec
