                         Program Version 5.0.0 -  RELEASE  -
|  1> !PBE0 D3BJ RIJCOSX def2-TZVPD def2/J TightSCF xyzfile
|  2>
|  3> *xyzfile 0 1 D1.xyz
|  4>
|  5> %MaxCore 64000
|  6>
|  7> %pal nprocs 4
|  8> end
|  9>
| 10> %scf
| 11>   MaxIter 150
| 12> end
| 13>
| 14>
| 15>                          ****END OF INPUT****

CARTESIAN COORDINATES (ANGSTROEM)
---------------------------------
  C     -2.160376   -1.369486   -3.467104
  C     -3.030108   -1.910857   -4.541074
  C     -2.047717    0.146583   -3.511774
  C     -7.330440   -2.678991   -3.206811
  S     -6.019659   -2.926965   -4.419128
  H     -3.477443   -2.791513   -4.257096
  H     -2.538013   -2.017860   -5.438075
  H     -3.891589   -1.376039   -4.714365
  F     -5.645830   -1.588384   -4.919307
  O     -4.881961   -3.503697   -3.667235
  H     -1.184438   -1.843997   -3.566393
  H     -2.598195   -1.708376   -2.528477
  O     -6.549267   -3.805150   -5.425071
  C     -3.328755    0.875037   -3.103669
  H     -1.740034    0.452343   -4.517126
  H     -1.232611    0.434938   -2.842208
  C     -3.628487    0.771601   -1.609363
  H     -4.175106    0.490791   -3.682203
  H     -3.237812    1.928663   -3.381480
  C     -4.975718    1.361432   -1.190644
  H     -2.830700    1.276234   -1.054766
  H     -3.594312   -0.275838   -1.294603
  C     -6.184720    0.784347   -1.926464
  H     -4.956292    2.445725   -1.342200
  H     -5.097256    1.205252   -0.114136
  C     -6.286921   -0.735882   -1.893531
  H     -6.163994    1.100199   -2.974250
  H     -7.094530    1.223459   -1.504509
  C     -7.468999   -1.246153   -2.713833
  H     -6.360641   -1.090347   -0.859176
  H     -5.369848   -1.171853   -2.295982
  H     -7.601914   -0.601349   -3.585329
  H     -8.389791   -1.173436   -2.126922
  H     -7.118254   -3.379818   -2.398055
  H     -8.241838   -3.004745   -3.706513

 Total Charge           Charge          ....    0
 Multiplicity           Mult            ....    1
 Number of Electrons    NEL             ....  122
 Basis Dimension        Dim             ....  725

ORBITAL ENERGIES
----------------

  NO   OCC          E(Eh)            E(eV)
   0   2.0000     -89.265894     -2429.0485
   1   2.0000     -24.881586      -677.0624
   2   2.0000     -19.227416      -523.2046
   3   2.0000     -19.212813      -522.8072
   4   2.0000     -10.285590      -279.8851
   5   2.0000     -10.255029      -279.0535
   6   2.0000     -10.233713      -278.4735
   7   2.0000     -10.226311      -278.2721
   8   2.0000     -10.219516      -278.0872
   9   2.0000     -10.212586      -277.8986
  10   2.0000     -10.210156      -277.8325
  11   2.0000     -10.202700      -277.6296
  12   2.0000     -10.192487      -277.3517
  13   2.0000     -10.143207      -276.0107
  14   2.0000      -8.212480      -223.4729
  15   2.0000      -6.152896      -167.4288
  16   2.0000      -6.146431      -167.2529
  17   2.0000      -6.146286      -167.2489
  18   2.0000      -1.397071       -38.0162
  19   2.0000      -1.142901       -31.0999
  20   2.0000      -1.046743       -28.4833
  21   2.0000      -0.871399       -23.7120
  22   2.0000      -0.840208       -22.8632
  23   2.0000      -0.811659       -22.0864
  24   2.0000      -0.783463       -21.3191
  25   2.0000      -0.744065       -20.2470
  26   2.0000      -0.728345       -19.8193
  27   2.0000      -0.691940       -18.8286
  28   2.0000      -0.656838       -17.8735
  29   2.0000      -0.639646       -17.4056
  30   2.0000      -0.609263       -16.5789
  31   2.0000      -0.600792       -16.3484
  32   2.0000      -0.585717       -15.9382
  33   2.0000      -0.570592       -15.5266
  34   2.0000      -0.563214       -15.3258
  35   2.0000      -0.512533       -13.9467
  36   2.0000      -0.505871       -13.7654
  37   2.0000      -0.492794       -13.4096
  38   2.0000      -0.483333       -13.1522
  39   2.0000      -0.478445       -13.0191
  40   2.0000      -0.465460       -12.6658
  41   2.0000      -0.452111       -12.3026
  42   2.0000      -0.447307       -12.1718
  43   2.0000      -0.440948       -11.9988
  44   2.0000      -0.425238       -11.5713
  45   2.0000      -0.410471       -11.1695
  46   2.0000      -0.404249       -11.0002
  47   2.0000      -0.402282       -10.9467
  48   2.0000      -0.388405       -10.5690
  49   2.0000      -0.379146       -10.3171
  50   2.0000      -0.368837       -10.0366
  51   2.0000      -0.365668        -9.9503
  52   2.0000      -0.352609        -9.5950
  53   2.0000      -0.348525        -9.4838
  54   2.0000      -0.342001        -9.3063
  55   2.0000      -0.335627        -9.1329
  56   2.0000      -0.329496        -8.9660
  57   2.0000      -0.326140        -8.8747
  58   2.0000      -0.315529        -8.5860
  59   2.0000      -0.312766        -8.5108
  60   2.0000      -0.289463        -7.8767
  61   0.0000      -0.010479        -0.2851
  62   0.0000       0.012657         0.3444
  63   0.0000       0.014391         0.3916
  64   0.0000       0.021292         0.5794
  65   0.0000       0.030210         0.8220

MULLIKEN ATOMIC CHARGES
-----------------------
   0 C :    0.192312
   1 C :   -1.586310
   2 C :   -0.255484
   3 C :   -0.419711
   4 S :    1.093931
   5 H :    0.561670
   6 H :    0.279486
   7 H :    0.430949
   8 F :   -0.181958
   9 O :   -0.598944
  10 H :    0.079191
  11 H :    0.129035
  12 O :   -0.547672
  13 C :   -0.069170
  14 H :    0.138592
  15 H :    0.099210
  16 C :   -0.242394
  17 H :   -0.028910
  18 H :    0.123495
  19 C :   -0.434793
  20 H :    0.152761
  21 H :    0.117201
  22 C :   -0.409332
  23 H :    0.124659
  24 H :    0.153258
  25 C :    0.130878
  26 H :    0.259638
  27 H :    0.128667
  28 C :   -0.390847
  29 H :    0.207721
  30 H :   -0.027512
  31 H :    0.181904
  32 H :    0.213353
  33 H :    0.230319
  34 H :    0.164809
Sum of atomic charges:   -0.0000000

LOEWDIN ATOMIC CHARGES
----------------------
   0 C :   -0.238846
   1 C :   -0.133549
   2 C :   -0.211751
   3 C :   -0.207951
   4 S :    0.645055
   5 H :    0.003325
   6 H :    0.073275
   7 H :    0.020253
   8 F :   -0.094338
   9 O :   -0.298308
  10 H :    0.112386
  11 H :    0.103542
  12 O :   -0.250026
  13 C :   -0.210065
  14 H :    0.114259
  15 H :    0.107924
  16 C :   -0.217849
  17 H :    0.092499
  18 H :    0.117244
  19 C :   -0.210690
  20 H :    0.116748
  21 H :    0.101214
  22 C :   -0.218799
  23 H :    0.111566
  24 H :    0.110784
  25 C :   -0.214048
  26 H :    0.109178
  27 H :    0.116979
  28 C :   -0.232721
  29 H :    0.131349
  30 H :    0.092892
  31 H :    0.112115
  32 H :    0.124150
  33 H :    0.117239
  34 H :    0.104965

  Mayer bond orders larger than 0.100000
B(  0-C ,  1-C ) :   0.5108 B(  0-C ,  2-C ) :   0.8808 B(  0-C , 10-H ) :   0.9406
B(  0-C , 11-H ) :   0.9851 B(  0-C , 16-C ) :   0.1325 B(  1-C ,  2-C ) :   0.3452
B(  1-C ,  5-H ) :   0.8165 B(  1-C ,  6-H ) :   0.7327 B(  1-C ,  7-H ) :   1.1675
B(  1-C ,  8-F ) :   0.1903 B(  1-C ,  9-O ) :   0.1445 B(  2-C , 13-C ) :   1.1477
B(  2-C , 14-H ) :   0.9159 B(  2-C , 15-H ) :   0.9255 B(  2-C , 16-C ) :   0.2609
B(  3-C ,  4-S ) :   0.8529 B(  3-C ,  9-O ) :   0.1040 B(  3-C , 12-O ) :   0.1594
B(  3-C , 25-C ) :   0.1658 B(  3-C , 28-C ) :   0.9629 B(  3-C , 33-H ) :   0.9172
B(  3-C , 34-H ) :   1.0659 B(  4-S ,  8-F ) :   1.0807 B(  4-S ,  9-O ) :   1.6445
B(  4-S , 12-O ) :   1.5301 B(  5-H ,  6-H ) :   0.1021 B(  5-H ,  9-O ) :  -0.1828
B(  7-H ,  8-F ) :  -0.2170 B( 13-C , 16-C ) :   0.6089 B( 13-C , 17-H ) :   1.1594
B( 13-C , 18-H ) :   0.8568 B( 13-C , 19-C ) :   0.2300 B( 13-C , 21-H ) :  -0.1088
B( 13-C , 22-C ) :   0.1719 B( 16-C , 19-C ) :   1.1115 B( 16-C , 20-H ) :   0.9176
B( 16-C , 21-H ) :   1.0315 B( 16-C , 25-C ) :   0.1009 B( 19-C , 22-C ) :   1.0677
B( 19-C , 23-H ) :   0.9556 B( 19-C , 24-H ) :   0.9300 B( 19-C , 25-C ) :   0.2481
B( 22-C , 25-C ) :   0.6513 B( 22-C , 26-H ) :   0.9067 B( 22-C , 27-H ) :   0.9274
B( 22-C , 28-C ) :   0.5026 B( 25-C , 26-H ) :  -0.1049 B( 25-C , 28-C ) :   0.5690
B( 25-C , 29-H ) :   0.7325 B( 25-C , 30-H ) :   1.3616 B( 28-C , 29-H ) :  -0.1221
B( 28-C , 31-H ) :   0.9250 B( 28-C , 32-H ) :   0.9261 B( 29-H , 30-H ) :   0.1838

Dispersion correction           -0.035903492
FINAL SINGLE POINT ENERGY     -1041.559520067302

DIPOLE MOMENT
-------------
                                X             Y             Z
Electronic contribution:    -10.84236     -16.20059     -13.17903
Nuclear contribution   :      9.63012      17.20461      14.03552
                        -----------------------------------------
Total Dipole Moment    :     -1.21224       1.00402       0.85649
                        -----------------------------------------
Magnitude (a.u.)       :      1.79196
Magnitude (Debye)      :      4.55481

Rotational constants in cm-1:     0.025899     0.015189     0.010690
Rotational constants in MHz :   776.424978   455.369614   320.488876

                             ****ORCA TERMINATED NORMALLY****
TOTAL RUN TIME: 0 days 0 hours 7 minutes 8 seconds 564 msec
