                         Program Version 5.0.0 -  RELEASE  -
|  1> !PBE0 D3BJ RIJCOSX def2-TZVPD def2/J TightSCF xyzfile
|  2>
|  3> *xyzfile 0 1 D2.xyz
|  4>
|  5> %MaxCore 64000
|  6>
|  7> %pal nprocs 4
|  8> end
|  9>
| 10> %scf
| 11>   MaxIter 150
| 12> end
| 13>
| 14>
| 15>                          ****END OF INPUT****

CARTESIAN COORDINATES (ANGSTROEM)
---------------------------------
  C     -2.160376   -1.369486   -3.467104
  C     -3.030108   -1.910857   -4.541074
  C     -2.047717    0.146583   -3.511774
  C     -7.330440   -2.678991   -3.206811
  S     -6.019659   -2.926965   -4.419128
  H     -3.477443   -2.791513   -4.257096
  H     -2.538013   -2.017860   -5.438075
  H     -3.891589   -1.376039   -4.714365
  O     -5.645830   -1.588384   -4.919307
  F     -4.881961   -3.503697   -3.667235
  H     -1.184438   -1.843997   -3.566393
  H     -2.598195   -1.708376   -2.528477
  O     -6.549267   -3.805150   -5.425071
  C     -3.328755    0.875037   -3.103669
  H     -1.740034    0.452343   -4.517126
  H     -1.232611    0.434938   -2.842208
  C     -3.628487    0.771601   -1.609363
  H     -4.175106    0.490791   -3.682203
  H     -3.237812    1.928663   -3.381480
  C     -4.975718    1.361432   -1.190644
  H     -2.830700    1.276234   -1.054766
  H     -3.594312   -0.275838   -1.294603
  C     -6.184720    0.784347   -1.926464
  H     -4.956292    2.445725   -1.342200
  H     -5.097256    1.205252   -0.114136
  C     -6.286921   -0.735882   -1.893531
  H     -6.163994    1.100199   -2.974250
  H     -7.094530    1.223459   -1.504509
  C     -7.468999   -1.246153   -2.713833
  H     -6.360641   -1.090347   -0.859176
  H     -5.369848   -1.171853   -2.295982
  H     -7.601914   -0.601349   -3.585329
  H     -8.389791   -1.173436   -2.126922
  H     -7.118254   -3.379818   -2.398055
  H     -8.241838   -3.004745   -3.706513

 Total Charge           Charge          ....    0
 Multiplicity           Mult            ....    1
 Number of Electrons    NEL             ....  122
 Basis Dimension        Dim             ....  725

ORBITAL ENERGIES
----------------

  NO   OCC          E(Eh)            E(eV)
   0   2.0000     -89.266052     -2429.0528
   1   2.0000     -24.879310      -677.0004
   2   2.0000     -19.227556      -523.2084
   3   2.0000     -19.216096      -522.8966
   4   2.0000     -10.286306      -279.9046
   5   2.0000     -10.248164      -278.8667
   6   2.0000     -10.230490      -278.3858
   7   2.0000     -10.220782      -278.1216
   8   2.0000     -10.215899      -277.9887
   9   2.0000     -10.209941      -277.8266
  10   2.0000     -10.204470      -277.6777
  11   2.0000     -10.201642      -277.6008
  12   2.0000     -10.195106      -277.4229
  13   2.0000     -10.146295      -276.0947
  14   2.0000      -8.212617      -223.4767
  15   2.0000      -6.152976      -167.4310
  16   2.0000      -6.146751      -167.2616
  17   2.0000      -6.146315      -167.2497
  18   2.0000      -1.395181       -37.9648
  19   2.0000      -1.143803       -31.1245
  20   2.0000      -1.049002       -28.5448
  21   2.0000      -0.866474       -23.5779
  22   2.0000      -0.837492       -22.7893
  23   2.0000      -0.810565       -22.0566
  24   2.0000      -0.783772       -21.3275
  25   2.0000      -0.743572       -20.2336
  26   2.0000      -0.727703       -19.8018
  27   2.0000      -0.688522       -18.7356
  28   2.0000      -0.653453       -17.7814
  29   2.0000      -0.638370       -17.3709
  30   2.0000      -0.599766       -16.3205
  31   2.0000      -0.594663       -16.1816
  32   2.0000      -0.589813       -16.0496
  33   2.0000      -0.576325       -15.6826
  34   2.0000      -0.560629       -15.2555
  35   2.0000      -0.517903       -14.0929
  36   2.0000      -0.500054       -13.6071
  37   2.0000      -0.490928       -13.3588
  38   2.0000      -0.484768       -13.1912
  39   2.0000      -0.478764       -13.0278
  40   2.0000      -0.458949       -12.4886
  41   2.0000      -0.447453       -12.1758
  42   2.0000      -0.444813       -12.1040
  43   2.0000      -0.440479       -11.9861
  44   2.0000      -0.419824       -11.4240
  45   2.0000      -0.412682       -11.2297
  46   2.0000      -0.401748       -10.9321
  47   2.0000      -0.395078       -10.7506
  48   2.0000      -0.386063       -10.5053
  49   2.0000      -0.376870       -10.2552
  50   2.0000      -0.369935       -10.0664
  51   2.0000      -0.357355        -9.7241
  52   2.0000      -0.350395        -9.5347
  53   2.0000      -0.346714        -9.4346
  54   2.0000      -0.340412        -9.2631
  55   2.0000      -0.337977        -9.1968
  56   2.0000      -0.330362        -8.9896
  57   2.0000      -0.324562        -8.8318
  58   2.0000      -0.312807        -8.5119
  59   2.0000      -0.310559        -8.4507
  60   2.0000      -0.298209        -8.1147
  61   0.0000      -0.003973        -0.1081
  62   0.0000       0.011917         0.3243
  63   0.0000       0.014553         0.3960
  64   0.0000       0.019996         0.5441
  65   0.0000       0.032116         0.8739

MULLIKEN ATOMIC CHARGES
-----------------------
   0 C :    0.209442
   1 C :   -1.592184
   2 C :   -0.263210
   3 C :   -0.590808
   4 S :    1.108591
   5 H :    0.444809
   6 H :    0.259160
   7 H :    0.551851
   8 O :   -0.617036
   9 F :   -0.151199
  10 H :    0.071078
  11 H :    0.137116
  12 O :   -0.543863
  13 C :   -0.092771
  14 H :    0.138502
  15 H :    0.103543
  16 C :   -0.263620
  17 H :    0.034225
  18 H :    0.100621
  19 C :   -0.414165
  20 H :    0.150489
  21 H :    0.115219
  22 C :   -0.489084
  23 H :    0.122518
  24 H :    0.153057
  25 C :    0.207930
  26 H :    0.270751
  27 H :    0.140131
  28 C :   -0.234864
  29 H :    0.221461
  30 H :   -0.162593
  31 H :    0.208412
  32 H :    0.223427
  33 H :    0.288233
  34 H :    0.154832
Sum of atomic charges:    0.0000000

LOEWDIN ATOMIC CHARGES
----------------------
   0 C :   -0.243297
   1 C :   -0.128554
   2 C :   -0.209346
   3 C :   -0.211784
   4 S :    0.645499
   5 H :    0.021271
   6 H :    0.075029
   7 H :    0.007643
   8 O :   -0.290660
   9 F :   -0.105202
  10 H :    0.109982
  11 H :    0.099964
  12 O :   -0.250813
  13 C :   -0.206674
  14 H :    0.115492
  15 H :    0.107520
  16 C :   -0.219513
  17 H :    0.097295
  18 H :    0.117589
  19 C :   -0.211155
  20 H :    0.115781
  21 H :    0.098685
  22 C :   -0.215044
  23 H :    0.111528
  24 H :    0.109688
  25 C :   -0.216243
  26 H :    0.113017
  27 H :    0.117032
  28 C :   -0.229631
  29 H :    0.127907
  30 H :    0.090683
  31 H :    0.115436
  32 H :    0.124378
  33 H :    0.108275
  34 H :    0.108223

  Mayer bond orders larger than 0.100000
B(  0-C ,  1-C ) :   0.4227 B(  0-C ,  2-C ) :   0.9259 B(  0-C , 10-H ) :   0.9626
B(  0-C , 11-H ) :   0.9675 B(  0-C , 16-C ) :   0.1361 B(  1-C ,  2-C ) :   0.3563
B(  1-C ,  5-H ) :   0.9191 B(  1-C ,  6-H ) :   0.7481 B(  1-C ,  7-H ) :   1.0088
B(  1-C ,  8-O ) :   0.2205 B(  1-C ,  9-F ) :   0.1206 B(  1-C , 17-H ) :   0.1052
B(  2-C , 13-C ) :   1.1322 B(  2-C , 14-H ) :   0.9052 B(  2-C , 15-H ) :   0.9367
B(  2-C , 16-C ) :   0.2694 B(  3-C ,  4-S ) :   0.8801 B(  3-C , 12-O ) :   0.1615
B(  3-C , 25-C ) :   0.2907 B(  3-C , 28-C ) :   0.8563 B(  3-C , 33-H ) :   0.8767
B(  3-C , 34-H ) :   1.0533 B(  4-S ,  8-O ) :   1.7203 B(  4-S ,  9-F ) :   0.9638
B(  4-S , 12-O ) :   1.5568 B(  5-H ,  9-F ) :  -0.1138 B(  6-H ,  7-H ) :   0.1156
B(  7-H ,  8-O ) :  -0.2038 B(  8-O , 28-C ) :   0.1059 B( 13-C , 16-C ) :   0.5871
B( 13-C , 17-H ) :   1.1596 B( 13-C , 18-H ) :   0.8579 B( 13-C , 19-C ) :   0.2201
B( 13-C , 21-H ) :  -0.1119 B( 13-C , 22-C ) :   0.1800 B( 16-C , 19-C ) :   1.1047
B( 16-C , 20-H ) :   0.9252 B( 16-C , 21-H ) :   1.0284 B( 16-C , 25-C ) :   0.1090
B( 19-C , 22-C ) :   1.0568 B( 19-C , 23-H ) :   0.9522 B( 19-C , 24-H ) :   0.9292
B( 19-C , 25-C ) :   0.2506 B( 22-C , 25-C ) :   0.6876 B( 22-C , 26-H ) :   0.8968
B( 22-C , 27-H ) :   0.9179 B( 22-C , 28-C ) :   0.5351 B( 25-C , 28-C ) :   0.6599
B( 25-C , 29-H ) :   0.7458 B( 25-C , 30-H ) :   1.3097 B( 28-C , 29-H ) :  -0.1264
B( 28-C , 31-H ) :   0.8648 B( 28-C , 32-H ) :   0.9238 B( 29-H , 30-H ) :   0.1324

Dispersion correction           -0.036007788
FINAL SINGLE POINT ENERGY     -1041.562775241593

DIPOLE MOMENT
-------------
                                X             Y             Z
Electronic contribution:     -9.51767     -19.49908     -11.10683
Nuclear contribution   :      8.71934      19.48829      12.54264
                        -----------------------------------------
Total Dipole Moment    :     -0.79833      -0.01079       1.43581
                        -----------------------------------------
Magnitude (a.u.)       :      1.64286
Magnitude (Debye)      :      4.17583

Rotational constants in cm-1:     0.025810     0.015137     0.010647
Rotational constants in MHz :   773.773140   453.802427   319.195213

                             ****ORCA TERMINATED NORMALLY****
TOTAL RUN TIME: 0 days 0 hours 7 minutes 8 seconds 644 msec
