                         Program Version 5.0.0 -  RELEASE  -
|  1> !PBE0 D3BJ RIJCOSX def2-TZVPD def2/J TightSCF xyzfile
|  2>
|  3> *xyzfile 0 1 D3.xyz
|  4>
|  5> %MaxCore 64000
|  6>
|  7> %pal nprocs 4
|  8> end
|  9>
| 10> %scf
| 11>   MaxIter 150
| 12> end
| 13>
| 14>
| 15>                          ****END OF INPUT****

CARTESIAN COORDINATES (ANGSTROEM)
---------------------------------
  C     -2.160376   -1.369486   -3.467104
  C     -3.030108   -1.910857   -4.541074
  C     -2.047717    0.146583   -3.511774
  C     -7.330440   -2.678991   -3.206811
  S     -6.019659   -2.926965   -4.419128
  H     -3.477443   -2.791513   -4.257096
  H     -2.538013   -2.017860   -5.438075
  H     -3.891589   -1.376039   -4.714365
  O     -5.645830   -1.588384   -4.919307
  O     -4.881961   -3.503697   -3.667235
  H     -1.184438   -1.843997   -3.566393
  H     -2.598195   -1.708376   -2.528477
  F     -6.549267   -3.805150   -5.425071
  C     -3.328755    0.875037   -3.103669
  H     -1.740034    0.452343   -4.517126
  H     -1.232611    0.434938   -2.842208
  C     -3.628487    0.771601   -1.609363
  H     -4.175106    0.490791   -3.682203
  H     -3.237812    1.928663   -3.381480
  C     -4.975718    1.361432   -1.190644
  H     -2.830700    1.276234   -1.054766
  H     -3.594312   -0.275838   -1.294603
  C     -6.184720    0.784347   -1.926464
  H     -4.956292    2.445725   -1.342200
  H     -5.097256    1.205252   -0.114136
  C     -6.286921   -0.735882   -1.893531
  H     -6.163994    1.100199   -2.974250
  H     -7.094530    1.223459   -1.504509
  C     -7.468999   -1.246153   -2.713833
  H     -6.360641   -1.090347   -0.859176
  H     -5.369848   -1.171853   -2.295982
  H     -7.601914   -0.601349   -3.585329
  H     -8.389791   -1.173436   -2.126922
  H     -7.118254   -3.379818   -2.398055
  H     -8.241838   -3.004745   -3.706513

 Total Charge           Charge          ....    0
 Multiplicity           Mult            ....    1
 Number of Electrons    NEL             ....  122
 Basis Dimension        Dim             ....  725

ORBITAL ENERGIES
----------------

  NO   OCC          E(Eh)            E(eV)
   0   2.0000     -89.272311     -2429.2231
   1   2.0000     -24.903707      -677.6643
   2   2.0000     -19.220867      -523.0264
   3   2.0000     -19.217929      -522.9464
   4   2.0000     -10.288258      -279.9577
   5   2.0000     -10.248835      -278.8850
   6   2.0000     -10.222857      -278.1781
   7   2.0000     -10.215481      -277.9774
   8   2.0000     -10.209827      -277.8235
   9   2.0000     -10.201782      -277.6046
  10   2.0000     -10.195941      -277.4457
  11   2.0000     -10.190236      -277.2904
  12   2.0000     -10.178799      -276.9792
  13   2.0000     -10.121874      -275.4302
  14   2.0000      -8.218764      -223.6439
  15   2.0000      -6.159123      -167.5983
  16   2.0000      -6.152764      -167.4252
  17   2.0000      -6.152536      -167.4190
  18   2.0000      -1.429437       -38.8970
  19   2.0000      -1.135518       -30.8990
  20   2.0000      -1.037875       -28.2420
  21   2.0000      -0.865332       -23.5469
  22   2.0000      -0.831125       -22.6161
  23   2.0000      -0.801984       -21.8231
  24   2.0000      -0.781209       -21.2578
  25   2.0000      -0.747247       -20.3336
  26   2.0000      -0.720974       -19.6187
  27   2.0000      -0.684122       -18.6159
  28   2.0000      -0.648333       -17.6420
  29   2.0000      -0.628063       -17.0905
  30   2.0000      -0.618303       -16.8249
  31   2.0000      -0.609514       -16.5857
  32   2.0000      -0.583691       -15.8830
  33   2.0000      -0.578033       -15.7291
  34   2.0000      -0.550402       -14.9772
  35   2.0000      -0.515004       -14.0140
  36   2.0000      -0.503688       -13.7060
  37   2.0000      -0.487046       -13.2532
  38   2.0000      -0.483618       -13.1599
  39   2.0000      -0.473274       -12.8784
  40   2.0000      -0.460130       -12.5208
  41   2.0000      -0.445763       -12.1298
  42   2.0000      -0.434342       -11.8190
  43   2.0000      -0.430225       -11.7070
  44   2.0000      -0.417917       -11.3721
  45   2.0000      -0.400742       -10.9048
  46   2.0000      -0.395902       -10.7731
  47   2.0000      -0.389957       -10.6113
  48   2.0000      -0.377252       -10.2655
  49   2.0000      -0.366520        -9.9735
  50   2.0000      -0.360247        -9.8028
  51   2.0000      -0.350560        -9.5392
  52   2.0000      -0.346464        -9.4278
  53   2.0000      -0.343422        -9.3450
  54   2.0000      -0.335006        -9.1160
  55   2.0000      -0.325066        -8.8455
  56   2.0000      -0.319435        -8.6923
  57   2.0000      -0.314850        -8.5675
  58   2.0000      -0.300148        -8.1674
  59   2.0000      -0.291637        -7.9359
  60   2.0000      -0.277436        -7.5494
  61   0.0000      -0.008577        -0.2334
  62   0.0000       0.008131         0.2213
  63   0.0000       0.018092         0.4923
  64   0.0000       0.022523         0.6129
  65   0.0000       0.030267         0.8236

MULLIKEN ATOMIC CHARGES
-----------------------
   0 C :    0.194518
   1 C :   -1.573127
   2 C :   -0.245412
   3 C :   -0.589482
   4 S :    1.082258
   5 H :    0.467595
   6 H :    0.262494
   7 H :    0.524371
   8 O :   -0.617002
   9 O :   -0.584640
  10 H :    0.071418
  11 H :    0.125632
  12 F :   -0.082886
  13 C :   -0.085365
  14 H :    0.133794
  15 H :    0.101404
  16 C :   -0.258469
  17 H :    0.015563
  18 H :    0.104715
  19 C :   -0.423539
  20 H :    0.151245
  21 H :    0.116770
  22 C :   -0.453646
  23 H :    0.121275
  24 H :    0.151984
  25 C :    0.152436
  26 H :    0.268038
  27 H :    0.137640
  28 C :   -0.281600
  29 H :    0.206902
  30 H :   -0.071899
  31 H :    0.191951
  32 H :    0.214469
  33 H :    0.228498
  34 H :    0.242095
Sum of atomic charges:   -0.0000000

LOEWDIN ATOMIC CHARGES
----------------------
   0 C :   -0.242611
   1 C :   -0.138471
   2 C :   -0.212366
   3 C :   -0.216285
   4 S :    0.665692
   5 H :    0.002006
   6 H :    0.070473
   7 H :    0.007908
   8 O :   -0.290222
   9 O :   -0.296054
  10 H :    0.108882
  11 H :    0.101811
  12 F :   -0.034724
  13 C :   -0.207900
  14 H :    0.113635
  15 H :    0.105835
  16 C :   -0.218931
  17 H :    0.096608
  18 H :    0.116078
  19 C :   -0.211920
  20 H :    0.115230
  21 H :    0.100494
  22 C :   -0.216790
  23 H :    0.110695
  24 H :    0.109242
  25 C :   -0.211993
  26 H :    0.111985
  27 H :    0.115416
  28 C :   -0.227013
  29 H :    0.128820
  30 H :    0.095369
  31 H :    0.113540
  32 H :    0.124536
  33 H :    0.111742
  34 H :    0.099282

  Mayer bond orders larger than 0.100000
B(  0-C ,  1-C ) :   0.4665 B(  0-C ,  2-C ) :   0.9040 B(  0-C , 10-H ) :   0.9484
B(  0-C , 11-H ) :   0.9767 B(  0-C , 16-C ) :   0.1347 B(  1-C ,  2-C ) :   0.3367
B(  1-C ,  5-H ) :   0.9389 B(  1-C ,  6-H ) :   0.7602 B(  1-C ,  7-H ) :   1.0657
B(  1-C ,  8-O ) :   0.1755 B(  2-C , 13-C ) :   1.1291 B(  2-C , 14-H ) :   0.9113
B(  2-C , 15-H ) :   0.9304 B(  2-C , 16-C ) :   0.2661 B(  3-C ,  4-S ) :   0.8519
B(  3-C ,  9-O ) :   0.1200 B(  3-C , 25-C ) :   0.2455 B(  3-C , 28-C ) :   0.9465
B(  3-C , 33-H ) :   0.9368 B(  3-C , 34-H ) :   0.9436 B(  4-S ,  8-O ) :   1.7364
B(  4-S ,  9-O ) :   1.6865 B(  4-S , 12-F ) :   0.9533 B(  5-H ,  9-O ) :  -0.1694
B(  6-H ,  7-H ) :   0.1144 B(  7-H ,  8-O ) :  -0.2386 B(  8-O ,  9-O ) :   0.1654
B( 13-C , 16-C ) :   0.5981 B( 13-C , 17-H ) :   1.1639 B( 13-C , 18-H ) :   0.8533
B( 13-C , 19-C ) :   0.2160 B( 13-C , 21-H ) :  -0.1060 B( 13-C , 22-C ) :   0.1858
B( 16-C , 19-C ) :   1.0979 B( 16-C , 20-H ) :   0.9232 B( 16-C , 21-H ) :   1.0321
B( 16-C , 25-C ) :   0.1106 B( 19-C , 22-C ) :   1.0610 B( 19-C , 23-H ) :   0.9569
B( 19-C , 24-H ) :   0.9282 B( 19-C , 25-C ) :   0.2477 B( 22-C , 25-C ) :   0.6539
B( 22-C , 26-H ) :   0.9019 B( 22-C , 27-H ) :   0.9184 B( 22-C , 28-C ) :   0.5263
B( 25-C , 26-H ) :  -0.1043 B( 25-C , 28-C ) :   0.6844 B( 25-C , 29-H ) :   0.7339
B( 25-C , 30-H ) :   1.3355 B( 28-C , 29-H ) :  -0.1329 B( 28-C , 31-H ) :   0.8610
B( 28-C , 32-H ) :   0.9265 B( 29-H , 30-H ) :   0.1659

Dispersion correction           -0.036243334
FINAL SINGLE POINT ENERGY     -1041.545161682846

DIPOLE MOMENT
-------------
                                X             Y             Z
Electronic contribution:    -12.62933     -20.26836     -14.30749
Nuclear contribution   :     10.70731      19.84772      14.63855
                        -----------------------------------------
Total Dipole Moment    :     -1.92202      -0.42065       0.33106
                        -----------------------------------------
Magnitude (a.u.)       :      1.99517
Magnitude (Debye)      :      5.07132

Rotational constants in cm-1:     0.026014     0.014812     0.010477
Rotational constants in MHz :   779.874765   444.063394   314.081855

                             ****ORCA TERMINATED NORMALLY****
TOTAL RUN TIME: 0 days 0 hours 7 minutes 36 seconds 962 msec
