                         Program Version 5.0.0 -  RELEASE  -
|  1> !PBE D3BJ RIJCOSX def2-SVP def2/J TightSCF
|  2> *xyz 1 1
|  3> C          1.64703       -2.34528       -5.02041
|  4> C          2.20996       -2.81239       -3.66571
|  5> C          2.48901       -1.66851       -2.73754
|  6> N          3.59631       -0.94761       -2.95225
|  7> N          1.66394       -1.41369       -1.77781
|  8> H          0.81164       -1.96318       -1.70275
|  9> H          1.84550       -0.63508       -1.15875
| 10> H          4.20535       -1.17600       -3.73383
| 11> H          3.81723       -0.12585       -2.40604
| 12> H          3.14311       -3.36280       -3.81152
| 13> H          1.48768       -3.45893       -3.16521
| 14> H          1.46566       -3.19589       -5.64368
| 15> H          2.35406       -1.69850       -5.49654
| 16> H          0.73014       -1.81680       -4.86253
| 17> *
| 18>
| 19> %MaxCore 64000
| 20> %pal nprocs 4
| 21> end
| 22>
| 23> %scf
| 24>   MaxIter 150
| 25> end
| 26>
| 27>
| 28>                          ****END OF INPUT****

CARTESIAN COORDINATES (ANGSTROEM)
---------------------------------
  C      1.647030   -2.345280   -5.020410
  C      2.209960   -2.812390   -3.665710
  C      2.489010   -1.668510   -2.737540
  N      3.596310   -0.947610   -2.952250
  N      1.663940   -1.413690   -1.777810
  H      0.811640   -1.963180   -1.702750
  H      1.845500   -0.635080   -1.158750
  H      4.205350   -1.176000   -3.733830
  H      3.817230   -0.125850   -2.406040
  H      3.143110   -3.362800   -3.811520
  H      1.487680   -3.458930   -3.165210
  H      1.465660   -3.195890   -5.643680
  H      2.354060   -1.698500   -5.496540
  H      0.730140   -1.816800   -4.862530

 Total Charge           Charge          ....    1
 Multiplicity           Mult            ....    1
 Number of Electrons    NEL             ....   40
 Basis Dimension        Dim             ....  115

ORBITAL ENERGIES
----------------

  NO   OCC          E(Eh)            E(eV)
   0   2.0000     -14.248596      -387.7240
   1   2.0000     -14.240164      -387.4946
   2   2.0000     -10.205534      -277.7067
   3   2.0000     -10.092546      -274.6321
   4   2.0000     -10.051109      -273.5046
   5   2.0000      -1.113436       -30.2981
   6   2.0000      -1.023285       -27.8450
   7   2.0000      -0.890319       -24.2268
   8   2.0000      -0.793100       -21.5814
   9   2.0000      -0.755616       -20.5613
  10   2.0000      -0.722304       -19.6549
  11   2.0000      -0.693462       -18.8701
  12   2.0000      -0.655799       -17.8452
  13   2.0000      -0.599654       -16.3174
  14   2.0000      -0.573151       -15.5962
  15   2.0000      -0.566014       -15.4020
  16   2.0000      -0.501701       -13.6520
  17   2.0000      -0.490330       -13.3426
  18   2.0000      -0.484609       -13.1869
  19   2.0000      -0.452149       -12.3036
  20   0.0000      -0.236156        -6.4261
  21   0.0000      -0.169834        -4.6214
  22   0.0000      -0.126523        -3.4429
  23   0.0000      -0.123518        -3.3611
  24   0.0000      -0.097441        -2.6515

MULLIKEN ATOMIC CHARGES
-----------------------
   0 C :    0.010069
   1 C :   -0.026920
   2 C :   -0.126183
   3 N :    0.029093
   4 N :    0.093722
   5 H :    0.182855
   6 H :    0.167245
   7 H :    0.177540
   8 H :    0.164677
   9 H :    0.088350
  10 H :    0.059574
  11 H :    0.085658
  12 H :    0.044028
  13 H :    0.050292
Sum of atomic charges:    1.0000000

LOEWDIN ATOMIC CHARGES
----------------------
   0 C :   -0.027309
   1 C :   -0.035201
   2 C :    0.117185
   3 N :    0.099483
   4 N :    0.134262
   5 H :    0.125622
   6 H :    0.113053
   7 H :    0.120099
   8 H :    0.108157
   9 H :    0.063851
  10 H :    0.052692
  11 H :    0.055589
  12 H :    0.033655
  13 H :    0.038861

  Mayer bond orders larger than 0.100000
B(  0-C ,  1-C ) :   1.0877 B(  0-C , 11-H ) :   0.9567 B(  0-C , 12-H ) :   0.9676
B(  0-C , 13-H ) :   0.9641 B(  1-C ,  2-C ) :   1.0382 B(  1-C ,  9-H ) :   0.9113
B(  1-C , 10-H ) :   0.9137 B(  2-C ,  3-N ) :   1.4897 B(  2-C ,  4-N ) :   1.5579
B(  3-N ,  7-H ) :   0.9200 B(  3-N ,  8-H ) :   0.9298 B(  4-N ,  5-H ) :   0.9086
B(  4-N ,  6-H ) :   0.9232

Dispersion correction           -0.010135027
FINAL SINGLE POINT ENERGY      -228.575739333780

DIPOLE MOMENT
-------------
                                X             Y             Z
Electronic contribution:      1.21409       1.70873       3.66137
Nuclear contribution   :     -0.98617      -1.03178      -2.77619
                        -----------------------------------------
Total Dipole Moment    :      0.22792       0.67695       0.88518
                        -----------------------------------------
Magnitude (a.u.)       :      1.13744
Magnitude (Debye)      :      2.89113

Rotational constants in cm-1:     0.257311     0.127495     0.099037
Rotational constants in MHz :  7713.982239  3822.189706  2969.039713

                             ****ORCA TERMINATED NORMALLY****
TOTAL RUN TIME: 0 days 0 hours 0 minutes 7 seconds 170 msec
