                         Program Version 5.0.0 -  RELEASE  -
|  1> !PBE D3BJ RIJCOSX def2-TZVP def2/J TightSCF xyzfile
|  2>
|  3> *xyzfile 0 1 B.xyz
|  4>
|  5> %MaxCore 64000
|  6>
|  7> %pal nprocs 18
|  8> end
|  9>
| 10> %scf
| 11>   MaxIter 150
| 12> end
| 13>
| 14>
| 15>                          ****END OF INPUT****

CARTESIAN COORDINATES (ANGSTROEM)
---------------------------------
  C      1.647032   -2.345276   -5.020411
  C      0.217628   -1.814022   -4.924389
  C      2.209964   -2.812388   -3.665708
  C     -0.811356   -2.908780   -4.607625
  C     -1.916579   -2.485081   -3.643665
  H     -2.554525   -1.712428   -4.091993
  C     -1.363531   -1.981337   -2.293608
  H     -2.553448   -3.355667   -3.458815
  O     -0.350395   -2.749689   -1.796006
  H      2.308385   -1.588704   -5.457128
  H      1.674286   -3.203478   -5.697392
  C      2.489007   -1.668510   -2.737538
  N      3.596314   -0.947608   -2.952247
  N      1.663936   -1.413685   -1.777806
  H      0.811642   -1.963178   -1.702755
  H      1.845503   -0.635078   -1.158749
  H      4.205351   -1.176003   -3.733825
  H      3.817230   -0.125845   -2.406041
  H     -1.244829   -3.280884   -5.541040
  H     -0.306331   -3.757746   -4.142734
  H     -0.036244   -1.318555   -5.865303
  H      0.175004   -1.035382   -4.158095
  H      3.143106   -3.362803   -3.811524
  H      1.487683   -3.458935   -3.165211
  H     -2.226220   -1.908386   -1.602039
  H     -1.051353   -0.915671   -2.443331

 Total Charge           Charge          ....    0
 Multiplicity           Mult            ....    1
 Number of Electrons    NEL             ....   80
 Basis Dimension        Dim             ....  406

ORBITAL ENERGIES
----------------

  NO   OCC          E(Eh)            E(eV)
   0   2.0000     -18.610684      -506.4225
   1   2.0000     -14.058376      -382.5479
   2   2.0000     -14.013570      -381.3286
   3   2.0000     -10.009080      -272.3609
   4   2.0000      -9.905040      -269.5299
   5   2.0000      -9.893534      -269.2168
   6   2.0000      -9.864266      -268.4203
   7   2.0000      -9.853597      -268.1300
   8   2.0000      -9.845428      -267.9077
   9   2.0000      -9.828261      -267.4406
  10   2.0000      -0.937524       -25.5113
  11   2.0000      -0.850523       -23.1439
  12   2.0000      -0.796683       -21.6788
  13   2.0000      -0.741876       -20.1875
  14   2.0000      -0.683124       -18.5887
  15   2.0000      -0.637158       -17.3379
  16   2.0000      -0.590230       -16.0610
  17   2.0000      -0.568472       -15.4689
  18   2.0000      -0.543898       -14.8002
  19   2.0000      -0.530567       -14.4375
  20   2.0000      -0.505396       -13.7525
  21   2.0000      -0.468985       -12.7617
  22   2.0000      -0.445232       -12.1154
  23   2.0000      -0.434908       -11.8344
  24   2.0000      -0.414588       -11.2815
  25   2.0000      -0.392558       -10.6820
  26   2.0000      -0.380917       -10.3653
  27   2.0000      -0.356110        -9.6902
  28   2.0000      -0.344648        -9.3784
  29   2.0000      -0.341737        -9.2991
  30   2.0000      -0.313089        -8.5196
  31   2.0000      -0.304037        -8.2733
  32   2.0000      -0.294220        -8.0061
  33   2.0000      -0.276505        -7.5241
  34   2.0000      -0.271570        -7.3898
  35   2.0000      -0.257000        -6.9933
  36   2.0000      -0.249370        -6.7857
  37   2.0000      -0.242419        -6.5965
  38   2.0000      -0.128086        -3.4854
  39   2.0000      -0.119129        -3.2417
  40   0.0000      -0.062760        -1.7078
  41   0.0000      -0.035180        -0.9573
  42   0.0000       0.002983         0.0812
  43   0.0000       0.027685         0.7533
  44   0.0000       0.040596         1.1047

MULLIKEN ATOMIC CHARGES
-----------------------
   0 C :   -0.159590
   1 C :   -0.181246
   2 C :   -0.242352
   3 C :   -0.175959
   4 C :   -0.076681
   5 H :    0.044325
   6 C :   -0.070785
   7 H :    0.066263
   8 O :   -0.619732
   9 H :    0.078718
  10 H :    0.105951
  11 C :    0.209456
  12 N :   -0.351770
  13 N :   -0.243802
  14 H :    0.270666
  15 H :    0.200139
  16 H :    0.248470
  17 H :    0.232168
  18 H :    0.077575
  19 H :    0.084826
  20 H :    0.086956
  21 H :    0.091648
  22 H :    0.118213
  23 H :    0.167044
  24 H :    0.039621
  25 H :   -0.000121
Sum of atomic charges:    0.0000000

LOEWDIN ATOMIC CHARGES
----------------------
   0 C :   -0.261349
   1 C :   -0.263811
   2 C :   -0.216340
   3 C :   -0.279145
   4 C :   -0.290962
   5 H :    0.123854
   6 C :   -0.499315
   7 H :    0.130802
   8 O :   -0.241588
   9 H :    0.128855
  10 H :    0.144605
  11 C :   -0.337335
  12 N :    0.051499
  13 N :    0.157321
  14 H :    0.097045
  15 H :    0.168910
  16 H :    0.183855
  17 H :    0.171761
  18 H :    0.129143
  19 H :    0.140207
  20 H :    0.133974
  21 H :    0.138523
  22 H :    0.147767
  23 H :    0.165746
  24 H :    0.099564
  25 H :    0.076416

  Mayer bond orders larger than 0.100000
B(  0-C ,  1-C ) :   1.0034 B(  0-C ,  2-C ) :   0.9838 B(  0-C ,  9-H ) :   0.9473
B(  0-C , 10-H ) :   0.9392 B(  1-C ,  3-C ) :   0.9974 B(  1-C , 20-H ) :   0.9403
B(  1-C , 21-H ) :   0.9635 B(  2-C , 11-C ) :   0.9933 B(  2-C , 22-H ) :   0.9326
B(  2-C , 23-H ) :   0.9296 B(  3-C ,  4-C ) :   1.0107 B(  3-C , 18-H ) :   0.9432
B(  3-C , 19-H ) :   0.9506 B(  4-C ,  5-H ) :   0.9321 B(  4-C ,  6-C ) :   0.9599
B(  4-C ,  7-H ) :   0.9320 B(  4-C ,  8-O ) :  -0.1353 B(  6-C ,  8-O ) :   1.3015
B(  6-C , 24-H ) :   0.9352 B(  6-C , 25-H ) :   0.9404 B(  8-O , 14-H ) :   0.4029
B( 11-C , 12-N ) :   1.3198 B( 11-C , 13-N ) :   1.6917 B( 12-N , 16-H ) :   0.8969
B( 12-N , 17-H ) :   0.9007 B( 13-N , 14-H ) :   0.6288 B( 13-N , 15-H ) :   0.8998

Dispersion correction           -0.026822833
FINAL SINGLE POINT ENERGY      -460.676932535353

DIPOLE MOMENT
-------------
                                X             Y             Z
Electronic contribution:      5.54310       0.81599       4.42215
Nuclear contribution   :     -2.25948       0.71378      -5.15247
                        -----------------------------------------
Total Dipole Moment    :      3.28361       1.52977      -0.73032
                        -----------------------------------------
Magnitude (a.u.)       :      3.69536
Magnitude (Debye)      :      9.39286

Rotational constants in cm-1:     0.063973     0.031829     0.024059
Rotational constants in MHz :  1917.874550   954.201145   721.285252

                             ****ORCA TERMINATED NORMALLY****
TOTAL RUN TIME: 0 days 0 hours 0 minutes 11 seconds 820 msec
