                         Program Version 5.0.0 -  RELEASE  -
|  1> !PBE D3BJ RIJCOSX def2-SVP def2/J TightSCF
|  2> *xyz 0 1
|  3> C         -1.91658       -2.48508       -3.64367
|  4> C         -1.36353       -1.98134       -2.29361
|  5> F         -0.35039       -2.74969       -1.79601
|  6> H         -2.22622       -1.90839       -1.60204
|  7> H         -1.05135       -0.91567       -2.44333
|  8> H         -1.11522       -2.57167       -4.34739
|  9> H         -2.64227       -1.79099       -4.01314
| 10> H         -2.37564       -3.44180       -3.50640
| 11> *
| 12>
| 13> %MaxCore 64000
| 14> %pal nprocs 4
| 15> end
| 16>
| 17> %scf
| 18>   MaxIter 150
| 19> end
| 20>
| 21>
| 22>                          ****END OF INPUT****

CARTESIAN COORDINATES (ANGSTROEM)
---------------------------------
  C     -1.916580   -2.485080   -3.643670
  C     -1.363530   -1.981340   -2.293610
  F     -0.350390   -2.749690   -1.796010
  H     -2.226220   -1.908390   -1.602040
  H     -1.051350   -0.915670   -2.443330
  H     -1.115220   -2.571670   -4.347390
  H     -2.642270   -1.790990   -4.013140
  H     -2.375640   -3.441800   -3.506400

 Total Charge           Charge          ....    0
 Multiplicity           Mult            ....    1
 Number of Electrons    NEL             ....   26
 Basis Dimension        Dim             ....   67

ORBITAL ENERGIES
----------------

  NO   OCC          E(Eh)            E(eV)
   0   2.0000     -24.240491      -659.6173
   1   2.0000      -9.965484      -271.1746
   2   2.0000      -9.888672      -269.0845
   3   2.0000      -1.069563       -29.1043
   4   2.0000      -0.680836       -18.5265
   5   2.0000      -0.556089       -15.1320
   6   2.0000      -0.445297       -12.1172
   7   2.0000      -0.430662       -11.7189
   8   2.0000      -0.394002       -10.7213
   9   2.0000      -0.350229        -9.5302
  10   2.0000      -0.345875        -9.4117
  11   2.0000      -0.276045        -7.5116
  12   2.0000      -0.270233        -7.3534
  13   0.0000       0.043874         1.1939
  14   0.0000       0.087006         2.3676
  15   0.0000       0.092125         2.5068
  16   0.0000       0.101273         2.7558
  17   0.0000       0.120528         3.2797

MULLIKEN ATOMIC CHARGES
-----------------------
   0 C :   -0.062745
   1 C :    0.176660
   2 F :   -0.224688
   3 H :    0.011182
   4 H :    0.012076
   5 H :    0.033192
   6 H :    0.021702
   7 H :    0.032621
Sum of atomic charges:   -0.0000000

LOEWDIN ATOMIC CHARGES
----------------------
   0 C :   -0.082143
   1 C :    0.087328
   2 F :   -0.110018
   3 H :    0.009091
   4 H :    0.010133
   5 H :    0.027152
   6 H :    0.032260
   7 H :    0.026197

  Mayer bond orders larger than 0.100000
B(  0-C ,  1-C ) :   1.1033 B(  0-C ,  5-H ) :   0.9667 B(  0-C ,  6-H ) :   0.9544
B(  0-C ,  7-H ) :   0.9684 B(  1-C ,  2-F ) :   1.0440 B(  1-C ,  3-H ) :   0.9477
B(  1-C ,  4-H ) :   0.9485

Dispersion correction           -0.003476669
FINAL SINGLE POINT ENERGY      -178.708260316222

DIPOLE MOMENT
-------------
                                X             Y             Z
Electronic contribution:      3.69795      -1.41146       3.47802
Nuclear contribution   :     -4.15401       1.70894      -3.75000
                        -----------------------------------------
Total Dipole Moment    :     -0.45607       0.29748      -0.27198
                        -----------------------------------------
Magnitude (a.u.)       :      0.60866
Magnitude (Debye)      :      1.54708

Rotational constants in cm-1:     1.266842     0.300492     0.266603
Rotational constants in MHz : 37978.968232  9008.526876  7992.551454

                             ****ORCA TERMINATED NORMALLY****
TOTAL RUN TIME: 0 days 0 hours 0 minutes 5 seconds 395 msec
