                         Program Version 5.0.0 -  RELEASE  -
|  1> !PBE D3BJ RIJCOSX def2-SVP def2/J TightSCF
|  2> *xyz 0 1
|  3> C          1.64703       -2.34528       -5.02041
|  4> C          2.20996       -2.81239       -3.66571
|  5> C          2.48901       -1.66851       -2.73754
|  6> C          3.59631       -0.94761       -2.95225
|  7> N          1.66394       -1.41369       -1.77781
|  8> H          0.81164       -1.96318       -1.70275
|  9> H          1.84550       -0.63508       -1.15875
| 10> H          4.20535       -1.17600       -3.73383
| 11> H          3.81723       -0.12585       -2.40604
| 12> H          3.14311       -3.36280       -3.81152
| 13> H          1.48768       -3.45893       -3.16521
| 14> H          1.46566       -3.19589       -5.64368
| 15> H          2.35406       -1.69850       -5.49654
| 16> H          0.73014       -1.81680       -4.86253
| 17> *
| 18>
| 19> %MaxCore 64000
| 20> %pal nprocs 4
| 21> end
| 22>
| 23> %scf
| 24>   MaxIter 150
| 25> end
| 26>
| 27>
| 28>                          ****END OF INPUT****

CARTESIAN COORDINATES (ANGSTROEM)
---------------------------------
  C      1.647030   -2.345280   -5.020410
  C      2.209960   -2.812390   -3.665710
  C      2.489010   -1.668510   -2.737540
  C      3.596310   -0.947610   -2.952250
  N      1.663940   -1.413690   -1.777810
  H      0.811640   -1.963180   -1.702750
  H      1.845500   -0.635080   -1.158750
  H      4.205350   -1.176000   -3.733830
  H      3.817230   -0.125850   -2.406040
  H      3.143110   -3.362800   -3.811520
  H      1.487680   -3.458930   -3.165210
  H      1.465660   -3.195890   -5.643680
  H      2.354060   -1.698500   -5.496540
  H      0.730140   -1.816800   -4.862530

 Total Charge           Charge          ....    0
 Multiplicity           Mult            ....    1
 Number of Electrons    NEL             ....   40
 Basis Dimension        Dim             ....  115

ORBITAL ENERGIES
----------------

  NO   OCC          E(Eh)            E(eV)
   0   2.0000     -13.998361      -380.9148
   1   2.0000      -9.903333      -269.4834
   2   2.0000      -9.891256      -269.1547
   3   2.0000      -9.877982      -268.7936
   4   2.0000      -9.819428      -267.2002
   5   2.0000      -0.843638       -22.9565
   6   2.0000      -0.695546       -18.9268
   7   2.0000      -0.626303       -17.0426
   8   2.0000      -0.565975       -15.4010
   9   2.0000      -0.504603       -13.7309
  10   2.0000      -0.474246       -12.9049
  11   2.0000      -0.421958       -11.4821
  12   2.0000      -0.389072       -10.5872
  13   2.0000      -0.358821        -9.7640
  14   2.0000      -0.342392        -9.3170
  15   2.0000      -0.328867        -8.9489
  16   2.0000      -0.303661        -8.2630
  17   2.0000      -0.286567        -7.7979
  18   2.0000      -0.285357        -7.7649
  19   2.0000      -0.143334        -3.9003
  20   0.0000       0.022399         0.6095
  21   0.0000       0.035611         0.9690
  22   0.0000       0.070320         1.9135
  23   0.0000       0.076159         2.0724
  24   0.0000       0.099208         2.6996

MULLIKEN ATOMIC CHARGES
-----------------------
   0 C :    0.025125
   1 C :    0.020842
   2 C :   -0.196844
   3 C :   -0.028394
   4 N :    0.007422
   5 H :    0.103425
   6 H :    0.107930
   7 H :   -0.042065
   8 H :   -0.058455
   9 H :    0.030005
  10 H :   -0.015304
  11 H :    0.014675
  12 H :    0.021922
  13 H :    0.009715
Sum of atomic charges:    0.0000000

LOEWDIN ATOMIC CHARGES
----------------------
   0 C :   -0.048814
   1 C :   -0.033319
   2 C :   -0.020237
   3 C :   -0.188023
   4 N :    0.029408
   5 H :    0.072085
   6 H :    0.078281
   7 H :   -0.001306
   8 H :   -0.010381
   9 H :    0.038466
  10 H :    0.015346
  11 H :    0.021248
  12 H :    0.025709
  13 H :    0.021536

  Mayer bond orders larger than 0.100000
B(  0-C ,  1-C ) :   1.1120 B(  0-C , 11-H ) :   0.9609 B(  0-C , 12-H ) :   0.9684
B(  0-C , 13-H ) :   0.9639 B(  1-C ,  2-C ) :   1.0245 B(  1-C ,  9-H ) :   0.9261
B(  1-C , 10-H ) :   0.9198 B(  2-C ,  3-C ) :   1.8217 B(  2-C ,  4-N ) :   1.3296
B(  3-C ,  4-N ) :   0.1041 B(  3-C ,  7-H ) :   0.9303 B(  3-C ,  8-H ) :   0.9408
B(  4-N ,  5-H ) :   0.9378 B(  4-N ,  6-H ) :   0.9388

Dispersion correction           -0.010518775
FINAL SINGLE POINT ENERGY      -212.117066749334

DIPOLE MOMENT
-------------
                                X             Y             Z
Electronic contribution:     -0.10087       0.67165       3.09929
Nuclear contribution   :     -0.69146      -0.83112      -2.71336
                        -----------------------------------------
Total Dipole Moment    :     -0.79233      -0.15946       0.38593
                        -----------------------------------------
Magnitude (a.u.)       :      0.89564
Magnitude (Debye)      :      2.27652

Rotational constants in cm-1:     0.270661     0.129240     0.102040
Rotational constants in MHz :  8114.202941  3874.518141  3059.074383

                             ****ORCA TERMINATED NORMALLY****
TOTAL RUN TIME: 0 days 0 hours 0 minutes 7 seconds 321 msec
