                         Program Version 5.0.0 -  RELEASE  -
|  1> !PBE D3BJ RIJCOSX def2-SVP def2/J TightSCF
|  2> *xyz 0 1
|  3> C          1.64703       -2.34528       -5.02041
|  4> C          2.20996       -2.81239       -3.66571
|  5> C          2.48901       -1.66851       -2.73754
|  6> N          3.59631       -0.94761       -2.95225
|  7> C          1.66394       -1.41369       -1.77781
|  8> H          0.81164       -1.96318       -1.70275
|  9> H          1.84550       -0.63508       -1.15875
| 10> H          4.20535       -1.17600       -3.73383
| 11> H          3.81723       -0.12585       -2.40604
| 12> H          3.14311       -3.36280       -3.81152
| 13> H          1.48768       -3.45893       -3.16521
| 14> H          1.46566       -3.19589       -5.64368
| 15> H          2.35406       -1.69850       -5.49654
| 16> H          0.73014       -1.81680       -4.86253
| 17> *
| 18>
| 19> %MaxCore 64000
| 20> %pal nprocs 4
| 21> end
| 22>
| 23> %scf
| 24>   MaxIter 150
| 25> end
| 26>
| 27>
| 28>                          ****END OF INPUT****

CARTESIAN COORDINATES (ANGSTROEM)
---------------------------------
  C      1.647030   -2.345280   -5.020410
  C      2.209960   -2.812390   -3.665710
  C      2.489010   -1.668510   -2.737540
  N      3.596310   -0.947610   -2.952250
  C      1.663940   -1.413690   -1.777810
  H      0.811640   -1.963180   -1.702750
  H      1.845500   -0.635080   -1.158750
  H      4.205350   -1.176000   -3.733830
  H      3.817230   -0.125850   -2.406040
  H      3.143110   -3.362800   -3.811520
  H      1.487680   -3.458930   -3.165210
  H      1.465660   -3.195890   -5.643680
  H      2.354060   -1.698500   -5.496540
  H      0.730140   -1.816800   -4.862530

 Total Charge           Charge          ....    0
 Multiplicity           Mult            ....    1
 Number of Electrons    NEL             ....   40
 Basis Dimension        Dim             ....  115

ORBITAL ENERGIES
----------------

  NO   OCC          E(Eh)            E(eV)
   0   2.0000     -13.991924      -380.7396
   1   2.0000      -9.901114      -269.4230
   2   2.0000      -9.889724      -269.1131
   3   2.0000      -9.879659      -268.8392
   4   2.0000      -9.822681      -267.2887
   5   2.0000      -0.826039       -22.4777
   6   2.0000      -0.695793       -18.9335
   7   2.0000      -0.639781       -17.4093
   8   2.0000      -0.561444       -15.2777
   9   2.0000      -0.501611       -13.6495
  10   2.0000      -0.463163       -12.6033
  11   2.0000      -0.422199       -11.4886
  12   2.0000      -0.383023       -10.4226
  13   2.0000      -0.369575       -10.0566
  14   2.0000      -0.343775        -9.3546
  15   2.0000      -0.333985        -9.0882
  16   2.0000      -0.303970        -8.2714
  17   2.0000      -0.285870        -7.7789
  18   2.0000      -0.276636        -7.5277
  19   2.0000      -0.153557        -4.1785
  20   0.0000       0.024821         0.6754
  21   0.0000       0.038407         1.0451
  22   0.0000       0.073697         2.0054
  23   0.0000       0.080402         2.1878
  24   0.0000       0.095352         2.5947

MULLIKEN ATOMIC CHARGES
-----------------------
   0 C :    0.023781
   1 C :    0.023080
   2 C :   -0.145003
   3 N :   -0.054223
   4 C :   -0.004431
   5 H :   -0.043322
   6 H :   -0.058740
   7 H :    0.100340
   8 H :    0.104396
   9 H :    0.004490
  10 H :    0.010357
  11 H :    0.018174
  12 H :    0.003109
  13 H :    0.017993
Sum of atomic charges:    0.0000000

LOEWDIN ATOMIC CHARGES
----------------------
   0 C :   -0.052684
   1 C :   -0.033649
   2 C :   -0.009554
   3 N :   -0.003089
   4 C :   -0.162045
   5 H :    0.003549
   6 H :   -0.005769
   7 H :    0.068265
   8 H :    0.072578
   9 H :    0.021853
  10 H :    0.034163
  11 H :    0.023179
  12 H :    0.016986
  13 H :    0.026217

  Mayer bond orders larger than 0.100000
B(  0-C ,  1-C ) :   1.1063 B(  0-C , 11-H ) :   0.9627 B(  0-C , 12-H ) :   0.9659
B(  0-C , 13-H ) :   0.9650 B(  1-C ,  2-C ) :   1.0418 B(  1-C ,  9-H ) :   0.9184
B(  1-C , 10-H ) :   0.9213 B(  2-C ,  3-N ) :   1.2674 B(  2-C ,  4-C ) :   1.8772
B(  3-N ,  7-H ) :   0.9471 B(  3-N ,  8-H ) :   0.9464 B(  4-C ,  5-H ) :   0.9151
B(  4-C ,  6-H ) :   0.9328

Dispersion correction           -0.010507685
FINAL SINGLE POINT ENERGY      -212.120037365318

DIPOLE MOMENT
-------------
                                X             Y             Z
Electronic contribution:      1.73719       1.12583       1.97987
Nuclear contribution   :     -1.13902      -0.93906      -2.44135
                        -----------------------------------------
Total Dipole Moment    :      0.59817       0.18677      -0.46148
                        -----------------------------------------
Magnitude (a.u.)       :      0.77823
Magnitude (Debye)      :      1.97811

Rotational constants in cm-1:     0.267243     0.130607     0.102304
Rotational constants in MHz :  8011.748167  3915.504600  3066.999841

                             ****ORCA TERMINATED NORMALLY****
TOTAL RUN TIME: 0 days 0 hours 0 minutes 7 seconds 473 msec
