                         Program Version 5.0.0 -  RELEASE  -
|  1> !PBE D3BJ RIJCOSX def2-TZVP def2/J TightSCF xyzfile
|  2>
|  3> *xyzfile 0 1 D1.xyz
|  4>
|  5> %MaxCore 64000
|  6>
|  7> %pal nprocs 18
|  8> end
|  9>
| 10> %scf
| 11>   MaxIter 150
| 12> end
| 13>
| 14>
| 15>                          ****END OF INPUT****

CARTESIAN COORDINATES (ANGSTROEM)
---------------------------------
  C      1.647032   -2.345276   -5.020411
  C      0.217628   -1.814022   -4.924389
  C      2.209964   -2.812388   -3.665708
  C     -0.811356   -2.908780   -4.607625
  C     -1.916579   -2.485081   -3.643665
  H     -2.554525   -1.712428   -4.091993
  C     -1.363531   -1.981337   -2.293608
  H     -2.553448   -3.355667   -3.458815
  F     -0.350395   -2.749689   -1.796006
  H      2.308385   -1.588704   -5.457128
  H      1.674286   -3.203478   -5.697392
  C      2.489007   -1.668510   -2.737538
  C      3.596314   -0.947608   -2.952247
  N      1.663936   -1.413685   -1.777806
  H      0.811642   -1.963178   -1.702755
  H      1.845503   -0.635078   -1.158749
  H      4.205351   -1.176003   -3.733825
  H      3.817230   -0.125845   -2.406041
  H     -1.244829   -3.280884   -5.541040
  H     -0.306331   -3.757746   -4.142734
  H     -0.036244   -1.318555   -5.865303
  H      0.175004   -1.035382   -4.158095
  H      3.143106   -3.362803   -3.811524
  H      1.487683   -3.458935   -3.165211
  H     -2.226220   -1.908386   -1.602039
  H     -1.051353   -0.915671   -2.443331

 Total Charge           Charge          ....    0
 Multiplicity           Mult            ....    1
 Number of Electrons    NEL             ....   80
 Basis Dimension        Dim             ....  406

ORBITAL ENERGIES
----------------

  NO   OCC          E(Eh)            E(eV)
   0   2.0000     -24.293766      -661.0670
   1   2.0000     -13.954476      -379.7206
   2   2.0000      -9.976180      -271.4657
   3   2.0000      -9.898785      -269.3596
   4   2.0000      -9.883324      -268.9389
   5   2.0000      -9.879995      -268.8483
   6   2.0000      -9.874781      -268.7065
   7   2.0000      -9.871458      -268.6160
   8   2.0000      -9.867461      -268.5073
   9   2.0000      -9.793774      -266.5022
  10   2.0000      -1.156506       -31.4701
  11   2.0000      -0.837328       -22.7848
  12   2.0000      -0.747325       -20.3357
  13   2.0000      -0.708017       -19.2661
  14   2.0000      -0.666310       -18.1312
  15   2.0000      -0.624607       -16.9964
  16   2.0000      -0.601290       -16.3619
  17   2.0000      -0.552031       -15.0215
  18   2.0000      -0.531206       -14.4548
  19   2.0000      -0.516494       -14.0545
  20   2.0000      -0.479145       -13.0382
  21   2.0000      -0.476404       -12.9636
  22   2.0000      -0.456899       -12.4329
  23   2.0000      -0.435761       -11.8577
  24   2.0000      -0.415831       -11.3153
  25   2.0000      -0.407596       -11.0913
  26   2.0000      -0.388724       -10.5777
  27   2.0000      -0.373345       -10.1592
  28   2.0000      -0.369645       -10.0585
  29   2.0000      -0.342833        -9.3290
  30   2.0000      -0.325197        -8.8490
  31   2.0000      -0.318801        -8.6750
  32   2.0000      -0.314807        -8.5663
  33   2.0000      -0.309340        -8.4176
  34   2.0000      -0.296575        -8.0702
  35   2.0000      -0.289172        -7.8688
  36   2.0000      -0.280459        -7.6317
  37   2.0000      -0.269154        -7.3240
  38   2.0000      -0.267016        -7.2659
  39   2.0000      -0.136625        -3.7178
  40   0.0000       0.006799         0.1850
  41   0.0000       0.016859         0.4587
  42   0.0000       0.028487         0.7752
  43   0.0000       0.033724         0.9177
  44   0.0000       0.040455         1.1008

MULLIKEN ATOMIC CHARGES
-----------------------
   0 C :   -0.124507
   1 C :   -0.199943
   2 C :   -0.210901
   3 C :   -0.205680
   4 C :   -0.176742
   5 H :    0.104425
   6 C :   -0.088164
   7 H :    0.106173
   8 F :   -0.165713
   9 H :    0.098790
  10 H :    0.079634
  11 C :    0.157255
  12 C :   -0.440246
  13 N :   -0.405075
  14 H :    0.258404
  15 H :    0.198419
  16 H :    0.089726
  17 H :    0.073430
  18 H :    0.104048
  19 H :    0.109049
  20 H :    0.094263
  21 H :    0.101414
  22 H :    0.110875
  23 H :    0.089980
  24 H :    0.117727
  25 H :    0.123362
Sum of atomic charges:   -0.0000000

LOEWDIN ATOMIC CHARGES
----------------------
   0 C :   -0.258171
   1 C :   -0.264113
   2 C :   -0.219674
   3 C :   -0.273817
   4 C :   -0.280122
   5 H :    0.146124
   6 C :   -0.370068
   7 H :    0.139194
   8 F :    0.190553
   9 H :    0.140872
  10 H :    0.135340
  11 C :   -0.390931
  12 C :   -0.302335
  13 N :    0.032167
  14 H :    0.116330
  15 H :    0.166445
  16 H :    0.102497
  17 H :    0.091783
  18 H :    0.138952
  19 H :    0.141977
  20 H :    0.135813
  21 H :    0.140171
  22 H :    0.151078
  23 H :    0.135664
  24 H :    0.127286
  25 H :    0.126986

  Mayer bond orders larger than 0.100000
B(  0-C ,  1-C ) :   1.0175 B(  0-C ,  2-C ) :   0.9895 B(  0-C ,  9-H ) :   0.9379
B(  0-C , 10-H ) :   0.9379 B(  1-C ,  3-C ) :   0.9781 B(  1-C , 20-H ) :   0.9424
B(  1-C , 21-H ) :   0.9650 B(  2-C , 11-C ) :   0.9616 B(  2-C , 22-H ) :   0.9519
B(  2-C , 23-H ) :   0.9660 B(  3-C ,  4-C ) :   0.9967 B(  3-C , 18-H ) :   0.9478
B(  3-C , 19-H ) :   0.9642 B(  4-C ,  5-H ) :   0.9336 B(  4-C ,  6-C ) :   1.0161
B(  4-C ,  7-H ) :   0.9490 B(  6-C ,  8-F ) :   0.9568 B(  6-C , 24-H ) :   0.9528
B(  6-C , 25-H ) :   0.9662 B(  8-F , 14-H ) :   0.1307 B( 11-C , 12-C ) :   1.7138
B( 11-C , 13-N ) :   1.2934 B( 12-C , 16-H ) :   0.9799 B( 12-C , 17-H ) :   0.9730
B( 13-N , 14-H ) :   0.8325 B( 13-N , 15-H ) :   0.9139

Dispersion correction           -0.026552459
FINAL SINGLE POINT ENERGY      -468.620113741824

DIPOLE MOMENT
-------------
                                X             Y             Z
Electronic contribution:     -1.26613      -1.75397       6.97963
Nuclear contribution   :     -0.37390       1.73388      -6.94752
                        -----------------------------------------
Total Dipole Moment    :     -1.64003      -0.02009       0.03211
                        -----------------------------------------
Magnitude (a.u.)       :      1.64047
Magnitude (Debye)      :      4.16974

Rotational constants in cm-1:     0.062220     0.032742     0.024374
Rotational constants in MHz :  1865.297979   981.573941   730.711364

                             ****ORCA TERMINATED NORMALLY****
TOTAL RUN TIME: 0 days 0 hours 0 minutes 15 seconds 724 msec
