                         Program Version 5.0.0 -  RELEASE  -
|  1> !LC-BLYP RIJCOSX def2-SVPD def2/J TightSCF
|  2> *xyz -1 1
|  3> C         -0.87096        0.24804       -2.66280
|  4> C         -0.47749        0.60819       -4.10105
|  5> H          0.20677        1.45830       -4.11875
|  6> H         -1.36844        0.92942       -4.64785
|  7> C          0.18467       -0.50664       -4.91676
|  8> O         -0.15869       -1.70109       -4.65798
|  9> O          1.05594       -0.17441       -5.74037
| 10> C          0.10016       -0.67355       -1.91581
| 11> H         -1.00105        1.18104       -2.10407
| 12> H         -1.84465       -0.24659       -2.66328
| 13> H          0.22336       -1.58297       -2.46597
| 14> H         -0.29270       -0.89423       -0.94532
| 15> H          1.04759       -0.18666       -1.81480
| 16> *
| 17>
| 18> %MaxCore 64000
| 19>
| 20> %pal nprocs 4
| 21> end
| 22>
| 23> %scf
| 24>   MaxIter 150
| 25> end
| 26>
| 27>
| 28>                          ****END OF INPUT****

CARTESIAN COORDINATES (ANGSTROEM)
---------------------------------
  C     -0.870960    0.248040   -2.662800
  C     -0.477490    0.608190   -4.101050
  H      0.206770    1.458300   -4.118750
  H     -1.368440    0.929420   -4.647850
  C      0.184670   -0.506640   -4.916760
  O     -0.158690   -1.701090   -4.657980
  O      1.055940   -0.174410   -5.740370
  C      0.100160   -0.673550   -1.915810
  H     -1.001050    1.181040   -2.104070
  H     -1.844650   -0.246590   -2.663280
  H      0.223360   -1.582970   -2.465970
  H     -0.292700   -0.894230   -0.945320
  H      1.047590   -0.186660   -1.814800

 Total Charge           Charge          ....   -1
 Multiplicity           Mult            ....    1
 Number of Electrons    NEL             ....   48
 Basis Dimension        Dim             ....  182

ORBITAL ENERGIES
----------------

  NO   OCC          E(Eh)            E(eV)
   0   2.0000     -18.702249      -508.9141
   1   2.0000     -18.698619      -508.8153
   2   2.0000      -9.979895      -271.5668
   3   2.0000      -9.937220      -270.4055
   4   2.0000      -9.919862      -269.9332
   5   2.0000      -9.915720      -269.8204
   6   2.0000      -0.912714       -24.8362
   7   2.0000      -0.816881       -22.2285
   8   2.0000      -0.737529       -20.0692
   9   2.0000      -0.645300       -17.5595
  10   2.0000      -0.549169       -14.9436
  11   2.0000      -0.428287       -11.6543
  12   2.0000      -0.411765       -11.2047
  13   2.0000      -0.396253       -10.7826
  14   2.0000      -0.360251        -9.8029
  15   2.0000      -0.335377        -9.1261
  16   2.0000      -0.317466        -8.6387
  17   2.0000      -0.308449        -8.3933
  18   2.0000      -0.292176        -7.9505
  19   2.0000      -0.279074        -7.5940
  20   2.0000      -0.264250        -7.1906
  21   2.0000      -0.154317        -4.1992
  22   2.0000      -0.148003        -4.0274
  23   2.0000      -0.134495        -3.6598
  24   0.0000       0.198477         5.4008
  25   0.0000       0.222125         6.0443
  26   0.0000       0.238103         6.4791
  27   0.0000       0.249185         6.7807
  28   0.0000       0.272269         7.4088

MULLIKEN ATOMIC CHARGES
-----------------------
   0 C :   -0.222535
   1 C :    0.322597
   2 H :   -0.027453
   3 H :   -0.130724
   4 C :    0.045150
   5 O :   -0.613524
   6 O :   -0.527867
   7 C :    0.947914
   8 H :   -0.230509
   9 H :   -0.104626
  10 H :   -0.189377
  11 H :   -0.139629
  12 H :   -0.129417
Sum of atomic charges:   -1.0000000

LOEWDIN ATOMIC CHARGES
----------------------
   0 C :   -0.095961
   1 C :   -0.007981
   2 H :    0.007644
   3 H :    0.016832
   4 C :   -0.331161
   5 O :   -0.302794
   6 O :   -0.299495
   7 C :    0.099743
   8 H :    0.002082
   9 H :    0.012722
  10 H :   -0.046798
  11 H :   -0.034440
  12 H :   -0.020395

  Mayer bond orders larger than 0.100000
B(  0-C ,  1-C ) :   1.2099 B(  0-C ,  2-H ) :   0.1428 B(  0-C ,  3-H ) :   0.1465
B(  0-C ,  7-C ) :   1.3275 B(  0-C ,  8-H ) :   0.8849 B(  0-C ,  9-H ) :   0.8503
B(  0-C , 10-H ) :   0.2191 B(  0-C , 11-H ) :   0.2717 B(  0-C , 12-H ) :   0.2207
B(  1-C ,  2-H ) :   0.8150 B(  1-C ,  3-H ) :   0.7939 B(  1-C ,  4-C ) :   1.0538
B(  1-C ,  8-H ) :   0.1308 B(  1-C ,  9-H ) :   0.1184 B(  2-H ,  4-C ) :   0.2305
B(  3-H ,  4-C ) :   0.1021 B(  4-C ,  5-O ) :   1.6331 B(  4-C ,  6-O ) :   1.5827
B(  7-C ,  8-H ) :   0.1098 B(  7-C ,  9-H ) :   0.1047 B(  7-C , 10-H ) :   0.7860
B(  7-C , 11-H ) :   0.6378 B(  7-C , 12-H ) :   0.7036

FINAL SINGLE POINT ENERGY      -306.228801909948

DIPOLE MOMENT
-------------
                                X             Y             Z
Electronic contribution:      1.78245      -1.96329      -6.67734
Nuclear contribution   :     -2.71698       3.10699       8.64748
                        -----------------------------------------
Total Dipole Moment    :     -0.93453       1.14371       1.97014
                        -----------------------------------------
Magnitude (a.u.)       :      2.46229
Magnitude (Debye)      :      6.25864

Rotational constants in cm-1:     0.212307     0.084237     0.072775
Rotational constants in MHz :  6364.813744  2525.362351  2181.751235

                             ****ORCA TERMINATED NORMALLY****
TOTAL RUN TIME: 0 days 0 hours 0 minutes 18 seconds 276 msec
