                         Program Version 5.0.0 -  RELEASE  -
|  1> !LC-BLYP RIJCOSX def2-SVPD def2/J TightSCF
|  2> *xyz 1 1
|  3> C          2.48645       -2.67712       -2.56345
|  4> C          3.03764       -2.36672       -3.92351
|  5> N          2.28036       -2.45441       -4.96769
|  6> N          4.32174       -2.01793       -4.01664
|  7> H          4.87994       -1.91167       -3.17382
|  8> H          4.71015       -1.67088       -4.88356
|  9> H          1.27042       -2.41265       -4.86614
| 10> H          2.58183       -2.05528       -5.84688
| 11> C          2.49799       -1.46946       -1.61030
| 12> C          1.58284       -0.32199       -2.04262
| 13> H          2.19308       -1.83391       -0.62542
| 14> H          3.52336       -1.10398       -1.49039
| 15> H          1.47259       -3.05153       -2.69437
| 16> H          3.08320       -3.49064       -2.14147
| 17> H          1.88480        0.03130       -3.00642
| 18> H          1.65140        0.47571       -1.33278
| 19> H          0.57235       -0.67052       -2.09099
| 20> *
| 21>
| 22> %MaxCore 64000
| 23>
| 24> %pal nprocs 4
| 25> end
| 26>
| 27> %scf
| 28>   MaxIter 150
| 29> end
| 30>
| 31>
| 32>                          ****END OF INPUT****

CARTESIAN COORDINATES (ANGSTROEM)
---------------------------------
  C      2.486450   -2.677120   -2.563450
  C      3.037640   -2.366720   -3.923510
  N      2.280360   -2.454410   -4.967690
  N      4.321740   -2.017930   -4.016640
  H      4.879940   -1.911670   -3.173820
  H      4.710150   -1.670880   -4.883560
  H      1.270420   -2.412650   -4.866140
  H      2.581830   -2.055280   -5.846880
  C      2.497990   -1.469460   -1.610300
  C      1.582840   -0.321990   -2.042620
  H      2.193080   -1.833910   -0.625420
  H      3.523360   -1.103980   -1.490390
  H      1.472590   -3.051530   -2.694370
  H      3.083200   -3.490640   -2.141470
  H      1.884800    0.031300   -3.006420
  H      1.651400    0.475710   -1.332780
  H      0.572350   -0.670520   -2.090990

 Total Charge           Charge          ....    1
 Multiplicity           Mult            ....    1
 Number of Electrons    NEL             ....   48
 Basis Dimension        Dim             ....  208

ORBITAL ENERGIES
----------------

  NO   OCC          E(Eh)            E(eV)
   0   2.0000     -14.436436      -392.8354
   1   2.0000     -14.430775      -392.6813
   2   2.0000     -10.410530      -283.2849
   3   2.0000     -10.278715      -279.6981
   4   2.0000     -10.248675      -278.8806
   5   2.0000     -10.213729      -277.9297
   6   2.0000      -1.300285       -35.3825
   7   2.0000      -1.202101       -32.7108
   8   2.0000      -1.078238       -29.3403
   9   2.0000      -0.993396       -27.0317
  10   2.0000      -0.940003       -25.5788
  11   2.0000      -0.887595       -24.1527
  12   2.0000      -0.876180       -23.8421
  13   2.0000      -0.837244       -22.7826
  14   2.0000      -0.800530       -21.7835
  15   2.0000      -0.764998       -20.8167
  16   2.0000      -0.732444       -19.9308
  17   2.0000      -0.697181       -18.9713
  18   2.0000      -0.678495       -18.4628
  19   2.0000      -0.664620       -18.0852
  20   2.0000      -0.604851       -16.4588
  21   2.0000      -0.600263       -16.3340
  22   2.0000      -0.596861       -16.2414
  23   2.0000      -0.588553       -16.0153
  24   0.0000      -0.134201        -3.6518
  25   0.0000      -0.097098        -2.6422
  26   0.0000      -0.059722        -1.6251
  27   0.0000      -0.053370        -1.4523
  28   0.0000      -0.029182        -0.7941

MULLIKEN ATOMIC CHARGES
-----------------------
   0 C :    0.294999
   1 C :    0.278873
   2 N :    0.322859
   3 N :    0.275886
   4 H :    0.007431
   5 H :   -0.169932
   6 H :    0.008702
   7 H :   -0.115435
   8 C :   -0.161453
   9 C :    1.002547
  10 H :   -0.143679
  11 H :   -0.143092
  12 H :   -0.010061
  13 H :   -0.079927
  14 H :   -0.181628
  15 H :   -0.148502
  16 H :   -0.037590
Sum of atomic charges:    1.0000000

LOEWDIN ATOMIC CHARGES
----------------------
   0 C :    0.034233
   1 C :   -0.071432
   2 N :    0.296094
   3 N :    0.299683
   4 H :    0.048770
   5 H :    0.046379
   6 H :    0.060107
   7 H :    0.053033
   8 C :   -0.057795
   9 C :    0.133785
  10 H :    0.046127
  11 H :    0.025040
  12 H :    0.042294
  13 H :    0.058629
  14 H :   -0.018272
  15 H :    0.004928
  16 H :   -0.001603

  Mayer bond orders larger than 0.100000
B(  0-C ,  1-C ) :   1.1788 B(  0-C ,  2-N ) :   0.1064 B(  0-C ,  8-C ) :   1.1784
B(  0-C , 10-H ) :   0.1382 B(  0-C , 11-H ) :   0.1288 B(  0-C , 12-H ) :   0.7309
B(  0-C , 13-H ) :   0.7969 B(  1-C ,  2-N ) :   1.1865 B(  1-C ,  3-N ) :   1.2408
B(  1-C ,  5-H ) :  -0.1392 B(  1-C , 12-H ) :   0.2455 B(  1-C , 13-H ) :   0.1545
B(  2-N ,  3-N ) :   0.1481 B(  2-N ,  6-H ) :   1.0579 B(  2-N ,  7-H ) :   1.1588
B(  3-N ,  4-H ) :   1.1015 B(  3-N ,  5-H ) :   1.2754 B(  4-H ,  5-H ) :  -0.1917
B(  6-H ,  7-H ) :  -0.1381 B(  8-C ,  9-C ) :   1.3583 B(  8-C , 10-H ) :   0.9211
B(  8-C , 11-H ) :   0.8390 B(  8-C , 12-H ) :   0.1514 B(  8-C , 13-H ) :   0.1079
B(  8-C , 14-H ) :   0.2691 B(  8-C , 15-H ) :   0.2674 B(  8-C , 16-H ) :   0.2367
B(  9-C , 14-H ) :   0.7347 B(  9-C , 15-H ) :   0.6958 B(  9-C , 16-H ) :   0.7112

FINAL SINGLE POINT ENERGY      -267.431975033348

DIPOLE MOMENT
-------------
                                X             Y             Z
Electronic contribution:      2.37880      -2.81311      -4.29332
Nuclear contribution   :     -1.82438       2.64851       2.98450
                        -----------------------------------------
Total Dipole Moment    :      0.55442      -0.16460      -1.30882
                        -----------------------------------------
Magnitude (a.u.)       :      1.43090
Magnitude (Debye)      :      3.63705

Rotational constants in cm-1:     0.176712     0.077069     0.069669
Rotational constants in MHz :  5297.698588  2310.466480  2088.633881

                             ****ORCA TERMINATED NORMALLY****
TOTAL RUN TIME: 0 days 0 hours 0 minutes 27 seconds 236 msec
