                         Program Version 5.0.0 -  RELEASE  -
|  1> !LC-BLYP RIJCOSX def2-SVPD def2/J TightSCF xyzfile
|  2>
|  3> *xyzfile 0 1 B.xyz
|  4>
|  5> %MaxCore 64000
|  6>
|  7> %pal nprocs 4
|  8> end
|  9>
| 10> %scf
| 11>   MaxIter 150
| 12> end
| 13>
| 14>
| 15>                          ****END OF INPUT****

CARTESIAN COORDINATES (ANGSTROEM)
---------------------------------
  C      2.486452   -2.677121   -2.563447
  C     -0.870963    0.248043   -2.662804
  C     -0.477492    0.608191   -4.101052
  H      0.206773    1.458299   -4.118748
  H     -1.368442    0.929419   -4.647855
  C      0.184673   -0.506640   -4.916760
  C      3.037640   -2.366715   -3.923509
  N      2.280360   -2.454408   -4.967692
  N      4.321736   -2.017932   -4.016641
  H      4.879940   -1.911668   -3.173823
  H      4.710148   -1.670882   -4.883561
  H      1.270423   -2.412650   -4.866143
  H      2.581829   -2.055282   -5.846878
  O     -0.158685   -1.701088   -4.657981
  O      1.055938   -0.174410   -5.740373
  C      2.497991   -1.469464   -1.610303
  C      1.582841   -0.321986   -2.042619
  H      2.193083   -1.833912   -0.625420
  H      3.523356   -1.103982   -1.490392
  C      0.100160   -0.673551   -1.915815
  H      1.822311   -0.040361   -3.072834
  H      1.813180    0.557019   -1.433266
  H     -0.063284   -1.679120   -2.301112
  H     -0.168820   -0.691680   -0.853831
  H     -1.001048    1.181040   -2.104071
  H     -1.844645   -0.246592   -2.663281
  H      1.472592   -3.051527   -2.694366
  H      3.083201   -3.490638   -2.141472

 Total Charge           Charge          ....    0
 Multiplicity           Mult            ....    1
 Number of Electrons    NEL             ....   94
 Basis Dimension        Dim             ....  374

ORBITAL ENERGIES
----------------

  NO   OCC          E(Eh)            E(eV)
   0   2.0000     -18.872782      -513.5545
   1   2.0000     -18.867095      -513.3998
   2   2.0000     -14.273831      -388.4107
   3   2.0000     -14.236264      -387.3884
   4   2.0000     -10.239578      -278.6331
   5   2.0000     -10.142696      -275.9968
   6   2.0000     -10.130704      -275.6705
   7   2.0000     -10.112916      -275.1864
   8   2.0000     -10.082481      -274.3582
   9   2.0000     -10.063993      -273.8552
  10   2.0000     -10.059703      -273.7384
  11   2.0000     -10.048272      -273.4274
  12   2.0000      -1.129059       -30.7233
  13   2.0000      -1.087250       -29.5856
  14   2.0000      -1.028279       -27.9809
  15   2.0000      -0.989302       -26.9203
  16   2.0000      -0.937723       -25.5167
  17   2.0000      -0.883623       -24.0446
  18   2.0000      -0.839149       -22.8344
  19   2.0000      -0.783215       -21.3124
  20   2.0000      -0.766369       -20.8540
  21   2.0000      -0.723761       -19.6945
  22   2.0000      -0.715414       -19.4674
  23   2.0000      -0.685190       -18.6450
  24   2.0000      -0.661772       -18.0077
  25   2.0000      -0.631068       -17.1722
  26   2.0000      -0.610986       -16.6258
  27   2.0000      -0.586107       -15.9488
  28   2.0000      -0.565625       -15.3914
  29   2.0000      -0.560222       -15.2444
  30   2.0000      -0.549037       -14.9401
  31   2.0000      -0.529248       -14.4016
  32   2.0000      -0.517162       -14.0727
  33   2.0000      -0.513076       -13.9615
  34   2.0000      -0.496539       -13.5115
  35   2.0000      -0.483478       -13.1561
  36   2.0000      -0.473324       -12.8798
  37   2.0000      -0.459365       -12.5000
  38   2.0000      -0.452703       -12.3187
  39   2.0000      -0.437285       -11.8991
  40   2.0000      -0.424046       -11.5389
  41   2.0000      -0.412597       -11.2273
  42   2.0000      -0.405447       -11.0328
  43   2.0000      -0.394576       -10.7370
  44   2.0000      -0.328617        -8.9421
  45   2.0000      -0.314432        -8.5561
  46   2.0000      -0.303788        -8.2665
  47   0.0000       0.028328         0.7708
  48   0.0000       0.039605         1.0777
  49   0.0000       0.072625         1.9762
  50   0.0000       0.084717         2.3053
  51   0.0000       0.090220         2.4550

MULLIKEN ATOMIC CHARGES
-----------------------
   0 C :    0.462145
   1 C :    0.689938
   2 C :    0.494306
   3 H :    0.155930
   4 H :   -0.409092
   5 C :   -0.150890
   6 C :    0.242228
   7 N :    0.600939
   8 N :    0.296657
   9 H :   -0.053511
  10 H :   -0.178485
  11 H :   -0.376713
  12 H :   -0.043086
  13 O :   -0.636164
  14 O :   -0.427863
  15 C :    0.457257
  16 C :    0.452107
  17 H :   -0.141404
  18 H :   -0.201544
  19 C :    0.215210
  20 H :   -0.292284
  21 H :   -0.290177
  22 H :   -0.113308
  23 H :   -0.278908
  24 H :   -0.229763
  25 H :   -0.028795
  26 H :   -0.044637
  27 H :   -0.170092
Sum of atomic charges:    0.0000000

LOEWDIN ATOMIC CHARGES
----------------------
   0 C :    0.044868
   1 C :   -0.028157
   2 C :    0.019670
   3 H :    0.023195
   4 H :    0.034067
   5 C :   -0.276863
   6 C :   -0.066883
   7 N :    0.320701
   8 N :    0.264984
   9 H :    0.024632
  10 H :    0.030362
  11 H :   -0.103636
  12 H :    0.033580
  13 O :   -0.234831
  14 O :   -0.241962
  15 C :   -0.023857
  16 C :   -0.019255
  17 H :    0.036008
  18 H :    0.015035
  19 C :   -0.039041
  20 H :    0.013824
  21 H :    0.033797
  22 H :   -0.008760
  23 H :    0.027213
  24 H :    0.021071
  25 H :    0.028415
  26 H :    0.029332
  27 H :    0.042491

  Mayer bond orders larger than 0.100000
B(  0-C ,  6-C ) :   1.1166 B(  0-C ,  7-N ) :   0.1286 B(  0-C , 15-C ) :   1.1388
B(  0-C , 16-C ) :   0.1686 B(  0-C , 17-H ) :   0.1837 B(  0-C , 18-H ) :   0.1559
B(  0-C , 26-H ) :   0.7231 B(  0-C , 27-H ) :   0.6392 B(  1-C ,  2-C ) :   1.1320
B(  1-C ,  4-H ) :   0.1298 B(  1-C , 19-C ) :   1.2654 B(  1-C , 22-H ) :   0.1069
B(  1-C , 24-H ) :   0.6876 B(  1-C , 25-H ) :   0.5950 B(  2-C ,  3-H ) :   0.7140
B(  2-C ,  4-H ) :   0.6559 B(  2-C ,  5-C ) :   1.1673 B(  2-C , 19-C ) :   0.1672
B(  2-C , 24-H ) :   0.1700 B(  3-H ,  4-H ) :  -0.1211 B(  3-H ,  5-C ) :   0.3310
B(  4-H ,  5-C ) :   0.3041 B(  4-H , 20-H ) :  -0.1024 B(  5-C , 13-O ) :   1.4387
B(  5-C , 14-O ) :   1.7510 B(  6-C ,  7-N ) :   1.2761 B(  6-C ,  8-N ) :   1.1170
B(  6-C ,  9-H ) :  -0.1047 B(  6-C , 12-H ) :  -0.1332 B(  6-C , 26-H ) :   0.2545
B(  6-C , 27-H ) :   0.1838 B(  7-N ,  8-N ) :   0.1915 B(  7-N , 11-H ) :   1.0198
B(  7-N , 12-H ) :   1.0455 B(  8-N ,  9-H ) :   1.1591 B(  8-N , 10-H ) :   1.2357
B(  9-H , 10-H ) :  -0.1913 B( 11-H , 12-H ) :  -0.1459 B( 11-H , 13-O ) :   0.3075
B( 13-O , 14-O ) :   0.1099 B( 15-C , 16-C ) :   1.1855 B( 15-C , 17-H ) :   0.8108
B( 15-C , 18-H ) :   0.6053 B( 15-C , 20-H ) :   0.2018 B( 15-C , 26-H ) :   0.1783
B( 15-C , 27-H ) :   0.1384 B( 16-C , 18-H ) :   0.2662 B( 16-C , 19-C ) :   1.1424
B( 16-C , 20-H ) :   0.7248 B( 16-C , 21-H ) :   0.7814 B( 16-C , 22-H ) :   0.1545
B( 16-C , 23-H ) :   0.2812 B( 17-H , 18-H ) :  -0.1277 B( 19-C , 20-H ) :   0.1695
B( 19-C , 21-H ) :   0.1175 B( 19-C , 22-H ) :   0.7983 B( 19-C , 23-H ) :   0.7178
B( 19-C , 24-H ) :   0.2285 B( 19-C , 25-H ) :   0.2732 B( 21-H , 27-H ) :   0.1091
B( 22-H , 26-H ) :   0.1366 B( 24-H , 25-H ) :  -0.1441

FINAL SINGLE POINT ENERGY      -572.671995323165

DIPOLE MOMENT
-------------
                                X             Y             Z
Electronic contribution:      1.73142      -2.90654      -8.76865
Nuclear contribution   :      1.39386       1.90489      10.36520
                        -----------------------------------------
Total Dipole Moment    :      3.12528      -1.00165       1.59655
                        -----------------------------------------
Magnitude (a.u.)       :      3.64961
Magnitude (Debye)      :      9.27657

Rotational constants in cm-1:     0.041165     0.025922     0.019001
Rotational constants in MHz :  1234.086888   777.109255   569.639629

                             ****ORCA TERMINATED NORMALLY****
TOTAL RUN TIME: 0 days 0 hours 2 minutes 41 seconds 466 msec
