                         Program Version 5.0.0 -  RELEASE  -
|  1> !LC-BLYP RIJCOSX def2-SVPD def2/J TightSCF
|  2> *xyz 0 1
|  3> C         -0.87096        0.24804       -2.66280
|  4> C         -0.47749        0.60819       -4.10105
|  5> H          0.20677        1.45830       -4.11875
|  6> H         -1.36844        0.92942       -4.64785
|  7> C          0.18467       -0.50664       -4.91676
|  8> F         -0.15869       -1.70109       -4.65798
|  9> O          1.05594       -0.17441       -5.74037
| 10> C          0.10016       -0.67355       -1.91581
| 11> H         -1.00105        1.18104       -2.10407
| 12> H         -1.84465       -0.24659       -2.66328
| 13> H          0.22336       -1.58297       -2.46597
| 14> H         -0.29270       -0.89423       -0.94532
| 15> H          1.04759       -0.18666       -1.81480
| 16> *
| 17>
| 18> %MaxCore 64000
| 19>
| 20> %pal nprocs 4
| 21> end
| 22>
| 23> %scf
| 24>   MaxIter 150
| 25> end
| 26>
| 27>
| 28>                          ****END OF INPUT****

CARTESIAN COORDINATES (ANGSTROEM)
---------------------------------
  C     -0.870960    0.248040   -2.662800
  C     -0.477490    0.608190   -4.101050
  H      0.206770    1.458300   -4.118750
  H     -1.368440    0.929420   -4.647850
  C      0.184670   -0.506640   -4.916760
  F     -0.158690   -1.701090   -4.657980
  O      1.055940   -0.174410   -5.740370
  C      0.100160   -0.673550   -1.915810
  H     -1.001050    1.181040   -2.104070
  H     -1.844650   -0.246590   -2.663280
  H      0.223360   -1.582970   -2.465970
  H     -0.292700   -0.894230   -0.945320
  H      1.047590   -0.186660   -1.814800

 Total Charge           Charge          ....    0
 Multiplicity           Mult            ....    1
 Number of Electrons    NEL             ....   48
 Basis Dimension        Dim             ....  182

ORBITAL ENERGIES
----------------

  NO   OCC          E(Eh)            E(eV)
   0   2.0000     -24.545228      -667.9096
   1   2.0000     -18.970947      -516.2257
   2   2.0000     -10.271531      -279.5026
   3   2.0000     -10.118114      -275.3279
   4   2.0000     -10.103667      -274.9348
   5   2.0000     -10.081120      -274.3212
   6   2.0000      -1.380942       -37.5774
   7   2.0000      -1.127931       -30.6926
   8   2.0000      -0.922044       -25.0901
   9   2.0000      -0.834913       -22.7191
  10   2.0000      -0.762612       -20.7517
  11   2.0000      -0.724801       -19.7229
  12   2.0000      -0.658817       -17.9273
  13   2.0000      -0.646595       -17.5947
  14   2.0000      -0.595786       -16.2122
  15   2.0000      -0.583532       -15.8787
  16   2.0000      -0.557271       -15.1641
  17   2.0000      -0.524399       -14.2696
  18   2.0000      -0.510945       -13.9035
  19   2.0000      -0.483910       -13.1679
  20   2.0000      -0.466419       -12.6919
  21   2.0000      -0.458042       -12.4640
  22   2.0000      -0.439090       -11.9482
  23   2.0000      -0.396657       -10.7936
  24   0.0000       0.049437         1.3453
  25   0.0000       0.062400         1.6980
  26   0.0000       0.093828         2.5532
  27   0.0000       0.095943         2.6107
  28   0.0000       0.110215         2.9991

MULLIKEN ATOMIC CHARGES
-----------------------
   0 C :   -0.158884
   1 C :    0.258083
   2 H :    0.000955
   3 H :   -0.078577
   4 C :    0.427118
   5 F :   -0.339490
   6 O :   -0.321855
   7 C :    0.976959
   8 H :   -0.216940
   9 H :   -0.097918
  10 H :   -0.220449
  11 H :   -0.122856
  12 H :   -0.106146
Sum of atomic charges:   -0.0000000

LOEWDIN ATOMIC CHARGES
----------------------
   0 C :   -0.075351
   1 C :    0.039000
   2 H :    0.041327
   3 H :    0.045419
   4 C :   -0.047831
   5 F :   -0.021982
   6 O :   -0.105384
   7 C :    0.120204
   8 H :    0.028394
   9 H :    0.025855
  10 H :   -0.034366
  11 H :   -0.009356
  12 H :   -0.005930

  Mayer bond orders larger than 0.100000
B(  0-C ,  1-C ) :   1.2357 B(  0-C ,  2-H ) :   0.1357 B(  0-C ,  3-H ) :   0.1365
B(  0-C ,  7-C ) :   1.3408 B(  0-C ,  8-H ) :   0.8765 B(  0-C ,  9-H ) :   0.8495
B(  0-C , 10-H ) :   0.2074 B(  0-C , 11-H ) :   0.2613 B(  0-C , 12-H ) :   0.2180
B(  1-C ,  2-H ) :   0.8342 B(  1-C ,  3-H ) :   0.8019 B(  1-C ,  4-C ) :   1.0667
B(  1-C ,  8-H ) :   0.1376 B(  1-C ,  9-H ) :   0.1157 B(  2-H ,  4-C ) :   0.1728
B(  4-C ,  5-F ) :   0.8238 B(  4-C ,  6-O ) :   1.9274 B(  5-F ,  6-O ) :   0.1177
B(  7-C , 10-H ) :   0.7764 B(  7-C , 11-H ) :   0.6517 B(  7-C , 12-H ) :   0.7092

FINAL SINGLE POINT ENERGY      -330.747122250923

DIPOLE MOMENT
-------------
                                X             Y             Z
Electronic contribution:      1.72073      -4.29507      -8.45891
Nuclear contribution   :     -2.55684       4.59749       9.38828
                        -----------------------------------------
Total Dipole Moment    :     -0.83611       0.30242       0.92936
                        -----------------------------------------
Magnitude (a.u.)       :      1.28618
Magnitude (Debye)      :      3.26920

Rotational constants in cm-1:     0.200184     0.083263     0.071070
Rotational constants in MHz :  6001.373539  2496.169674  2130.635527

                             ****ORCA TERMINATED NORMALLY****
TOTAL RUN TIME: 0 days 0 hours 0 minutes 19 seconds 637 msec
