                         Program Version 5.0.0 -  RELEASE  -
|  1> !LC-BLYP RIJCOSX def2-SVPD def2/J TightSCF
|  2> *xyz 0 1
|  3> C          2.48645       -2.67712       -2.56345
|  4> C          3.03764       -2.36672       -3.92351
|  5> C          2.28036       -2.45441       -4.96769
|  6> N          4.32174       -2.01793       -4.01664
|  7> H          4.87994       -1.91167       -3.17382
|  8> H          4.71015       -1.67088       -4.88356
|  9> H          1.27042       -2.41265       -4.86614
| 10> H          2.58183       -2.05528       -5.84688
| 11> C          2.49799       -1.46946       -1.61030
| 12> C          1.58284       -0.32199       -2.04262
| 13> H          2.19308       -1.83391       -0.62542
| 14> H          3.52336       -1.10398       -1.49039
| 15> H          1.47259       -3.05153       -2.69437
| 16> H          3.08320       -3.49064       -2.14147
| 17> H          1.88480        0.03130       -3.00642
| 18> H          1.65140        0.47571       -1.33278
| 19> H          0.57235       -0.67052       -2.09099
| 20> *
| 21>
| 22> %MaxCore 64000
| 23>
| 24> %pal nprocs 4
| 25> end
| 26>
| 27> %scf
| 28>   MaxIter 150
| 29> end
| 30>
| 31>
| 32>                          ****END OF INPUT****

CARTESIAN COORDINATES (ANGSTROEM)
---------------------------------
  C      2.486450   -2.677120   -2.563450
  C      3.037640   -2.366720   -3.923510
  C      2.280360   -2.454410   -4.967690
  N      4.321740   -2.017930   -4.016640
  H      4.879940   -1.911670   -3.173820
  H      4.710150   -1.670880   -4.883560
  H      1.270420   -2.412650   -4.866140
  H      2.581830   -2.055280   -5.846880
  C      2.497990   -1.469460   -1.610300
  C      1.582840   -0.321990   -2.042620
  H      2.193080   -1.833910   -0.625420
  H      3.523360   -1.103980   -1.490390
  H      1.472590   -3.051530   -2.694370
  H      3.083200   -3.490640   -2.141470
  H      1.884800    0.031300   -3.006420
  H      1.651400    0.475710   -1.332780
  H      0.572350   -0.670520   -2.090990

 Total Charge           Charge          ....    0
 Multiplicity           Mult            ....    1
 Number of Electrons    NEL             ....   48
 Basis Dimension        Dim             ....  208

ORBITAL ENERGIES
----------------

  NO   OCC          E(Eh)            E(eV)
   0   2.0000     -14.189677      -386.1207
   1   2.0000     -10.108173      -275.0574
   2   2.0000     -10.085279      -274.4344
   3   2.0000     -10.082358      -274.3549
   4   2.0000     -10.066193      -273.9150
   5   2.0000     -10.017790      -272.5979
   6   2.0000      -1.020569       -27.7711
   7   2.0000      -0.897173       -24.4133
   8   2.0000      -0.841270       -22.8921
   9   2.0000      -0.790073       -21.4990
  10   2.0000      -0.703836       -19.1524
  11   2.0000      -0.669949       -18.2302
  12   2.0000      -0.630347       -17.1526
  13   2.0000      -0.577759       -15.7216
  14   2.0000      -0.558649       -15.2016
  15   2.0000      -0.554923       -15.1002
  16   2.0000      -0.499158       -13.5828
  17   2.0000      -0.490588       -13.3496
  18   2.0000      -0.471312       -12.8251
  19   2.0000      -0.469780       -12.7834
  20   2.0000      -0.434459       -11.8222
  21   2.0000      -0.424003       -11.5377
  22   2.0000      -0.419049       -11.4029
  23   2.0000      -0.294316        -8.0088
  24   0.0000       0.069742         1.8978
  25   0.0000       0.094681         2.5764
  26   0.0000       0.098214         2.6725
  27   0.0000       0.103669         2.8210
  28   0.0000       0.129226         3.5164

MULLIKEN ATOMIC CHARGES
-----------------------
   0 C :    0.350104
   1 C :   -0.307763
   2 C :    0.562000
   3 N :    0.401878
   4 H :   -0.153466
   5 H :   -0.217490
   6 H :   -0.118288
   7 H :   -0.531718
   8 C :   -0.166034
   9 C :    1.000580
  10 H :   -0.194937
  11 H :   -0.134917
  12 H :    0.060614
  13 H :   -0.154916
  14 H :   -0.169848
  15 H :   -0.161045
  16 H :   -0.064753
Sum of atomic charges:   -0.0000000

LOEWDIN ATOMIC CHARGES
----------------------
   0 C :   -0.006124
   1 C :   -0.275857
   2 C :    0.158610
   3 N :    0.191960
   4 H :   -0.004926
   5 H :    0.004529
   6 H :   -0.072194
   7 H :   -0.079192
   8 C :   -0.081139
   9 C :    0.116644
  10 H :    0.022392
  11 H :    0.011975
  12 H :    0.027763
  13 H :    0.030566
  14 H :   -0.017209
  15 H :   -0.016404
  16 H :   -0.011393

  Mayer bond orders larger than 0.100000
B(  0-C ,  1-C ) :   1.2375 B(  0-C ,  2-C ) :   0.1355 B(  0-C ,  3-N ) :   0.1054
B(  0-C ,  8-C ) :   1.1322 B(  0-C , 10-H ) :   0.1788 B(  0-C , 11-H ) :   0.1581
B(  0-C , 12-H ) :   0.7330 B(  0-C , 13-H ) :   0.8472 B(  1-C ,  2-C ) :   2.0175
B(  1-C ,  3-N ) :   1.2907 B(  1-C ,  6-H ) :   0.1438 B(  1-C ,  7-H ) :   0.3116
B(  1-C ,  8-C ) :   0.1306 B(  1-C , 12-H ) :   0.1833 B(  1-C , 13-H ) :   0.1783
B(  2-C ,  3-N ) :   0.2875 B(  2-C ,  6-H ) :   0.8107 B(  2-C ,  7-H ) :   0.4905
B(  3-N ,  4-H ) :   1.1333 B(  3-N ,  5-H ) :   1.1883 B(  4-H ,  5-H ) :  -0.1669
B(  6-H ,  7-H ) :   0.1482 B(  8-C ,  9-C ) :   1.3294 B(  8-C , 10-H ) :   0.8823
B(  8-C , 11-H ) :   0.8259 B(  8-C , 12-H ) :   0.1622 B(  8-C , 14-H ) :   0.2758
B(  8-C , 15-H ) :   0.2714 B(  8-C , 16-H ) :   0.2419 B(  9-C , 14-H ) :   0.7544
B(  9-C , 15-H ) :   0.6797 B(  9-C , 16-H ) :   0.7131 B( 14-H , 16-H ) :   0.1094

FINAL SINGLE POINT ENERGY      -250.977768803678

DIPOLE MOMENT
-------------
                                X             Y             Z
Electronic contribution:      2.45356      -2.10384      -2.13172
Nuclear contribution   :     -1.92525       2.50924       2.56958
                        -----------------------------------------
Total Dipole Moment    :      0.52832       0.40540       0.43786
                        -----------------------------------------
Magnitude (a.u.)       :      0.79699
Magnitude (Debye)      :      2.02578

Rotational constants in cm-1:     0.181985     0.078726     0.071856
Rotational constants in MHz :  5455.785660  2360.157292  2154.177820

                             ****ORCA TERMINATED NORMALLY****
TOTAL RUN TIME: 0 days 0 hours 0 minutes 26 seconds 882 msec
