                         Program Version 5.0.0 -  RELEASE  -
|  1> !LC-BLYP RIJCOSX def2-SVPD def2/J TightSCF
|  2> *xyz 0 1
|  3> C         -0.87096        0.24804       -2.66280
|  4> C         -0.47749        0.60819       -4.10105
|  5> H          0.20677        1.45830       -4.11875
|  6> H         -1.36844        0.92942       -4.64785
|  7> C          0.18467       -0.50664       -4.91676
|  8> O         -0.15869       -1.70109       -4.65798
|  9> F          1.05594       -0.17441       -5.74037
| 10> C          0.10016       -0.67355       -1.91581
| 11> H         -1.00105        1.18104       -2.10407
| 12> H         -1.84465       -0.24659       -2.66328
| 13> H          0.22336       -1.58297       -2.46597
| 14> H         -0.29270       -0.89423       -0.94532
| 15> H          1.04759       -0.18666       -1.81480
| 16> *
| 17>
| 18> %MaxCore 64000
| 19>
| 20> %pal nprocs 4
| 21> end
| 22>
| 23> %scf
| 24>   MaxIter 150
| 25> end
| 26>
| 27>
| 28>                          ****END OF INPUT****

CARTESIAN COORDINATES (ANGSTROEM)
---------------------------------
  C     -0.870960    0.248040   -2.662800
  C     -0.477490    0.608190   -4.101050
  H      0.206770    1.458300   -4.118750
  H     -1.368440    0.929420   -4.647850
  C      0.184670   -0.506640   -4.916760
  O     -0.158690   -1.701090   -4.657980
  F      1.055940   -0.174410   -5.740370
  C      0.100160   -0.673550   -1.915810
  H     -1.001050    1.181040   -2.104070
  H     -1.844650   -0.246590   -2.663280
  H      0.223360   -1.582970   -2.465970
  H     -0.292700   -0.894230   -0.945320
  H      1.047590   -0.186660   -1.814800

 Total Charge           Charge          ....    0
 Multiplicity           Mult            ....    1
 Number of Electrons    NEL             ....   48
 Basis Dimension        Dim             ....  182

ORBITAL ENERGIES
----------------

  NO   OCC          E(Eh)            E(eV)
   0   2.0000     -24.554211      -668.1540
   1   2.0000     -18.968224      -516.1516
   2   2.0000     -10.274399      -279.5806
   3   2.0000     -10.120030      -275.3800
   4   2.0000     -10.098404      -274.7915
   5   2.0000     -10.068437      -273.9761
   6   2.0000      -1.398770       -38.0625
   7   2.0000      -1.115352       -30.3503
   8   2.0000      -0.915565       -24.9138
   9   2.0000      -0.834749       -22.7147
  10   2.0000      -0.769162       -20.9300
  11   2.0000      -0.718533       -19.5523
  12   2.0000      -0.666797       -18.1445
  13   2.0000      -0.639641       -17.4055
  14   2.0000      -0.613716       -16.7001
  15   2.0000      -0.577492       -15.7144
  16   2.0000      -0.560363       -15.2483
  17   2.0000      -0.519186       -14.1278
  18   2.0000      -0.501694       -13.6518
  19   2.0000      -0.467154       -12.7119
  20   2.0000      -0.458654       -12.4806
  21   2.0000      -0.446383       -12.1467
  22   2.0000      -0.439332       -11.9548
  23   2.0000      -0.394059       -10.7229
  24   0.0000       0.045573         1.2401
  25   0.0000       0.064384         1.7520
  26   0.0000       0.091267         2.4835
  27   0.0000       0.099455         2.7063
  28   0.0000       0.113910         3.0996

MULLIKEN ATOMIC CHARGES
-----------------------
   0 C :   -0.173465
   1 C :    0.238881
   2 H :    0.004733
   3 H :   -0.061756
   4 C :    0.423903
   5 O :   -0.410858
   6 F :   -0.257761
   7 C :    0.985076
   8 H :   -0.202573
   9 H :   -0.086922
  10 H :   -0.216127
  11 H :   -0.120302
  12 H :   -0.122830
Sum of atomic charges:   -0.0000000

LOEWDIN ATOMIC CHARGES
----------------------
   0 C :   -0.066394
   1 C :    0.032432
   2 H :    0.031418
   3 H :    0.045765
   4 C :   -0.040612
   5 O :   -0.118909
   6 F :   -0.001508
   7 C :    0.120444
   8 H :    0.027922
   9 H :    0.030466
  10 H :   -0.040189
  11 H :   -0.010568
  12 H :   -0.010266

  Mayer bond orders larger than 0.100000
B(  0-C ,  1-C ) :   1.2565 B(  0-C ,  2-H ) :   0.1380 B(  0-C ,  3-H ) :   0.1469
B(  0-C ,  7-C ) :   1.3501 B(  0-C ,  8-H ) :   0.8696 B(  0-C ,  9-H ) :   0.8420
B(  0-C , 10-H ) :   0.2060 B(  0-C , 11-H ) :   0.2599 B(  0-C , 12-H ) :   0.2118
B(  1-C ,  2-H ) :   0.8202 B(  1-C ,  3-H ) :   0.7830 B(  1-C ,  4-C ) :   1.1061
B(  1-C ,  8-H ) :   0.1320 B(  1-C ,  9-H ) :   0.1216 B(  2-H ,  4-C ) :   0.1414
B(  4-C ,  5-O ) :   1.9342 B(  4-C ,  6-F ) :   0.8688 B(  5-O ,  6-F ) :   0.1089
B(  7-C ,  8-H ) :   0.1036 B(  7-C ,  9-H ) :   0.1004 B(  7-C , 10-H ) :   0.7738
B(  7-C , 11-H ) :   0.6458 B(  7-C , 12-H ) :   0.7015

FINAL SINGLE POINT ENERGY      -330.740622644994

DIPOLE MOMENT
-------------
                                X             Y             Z
Electronic contribution:      3.79563      -1.73196     -10.37047
Nuclear contribution   :     -3.92885       2.87300      10.61091
                        -----------------------------------------
Total Dipole Moment    :     -0.13323       1.14104       0.24045
                        -----------------------------------------
Magnitude (a.u.)       :      1.17368
Magnitude (Debye)      :      2.98327

Rotational constants in cm-1:     0.209332     0.079487     0.069375
Rotational constants in MHz :  6275.605762  2382.960864  2079.805430

                             ****ORCA TERMINATED NORMALLY****
TOTAL RUN TIME: 0 days 0 hours 0 minutes 21 seconds 259 msec
