                         Program Version 5.0.0 -  RELEASE  -
|  1> !LC-BLYP RIJCOSX def2-SVPD def2/J TightSCF
|  2> *xyz 0 1
|  3> C          2.48645       -2.67712       -2.56345
|  4> C          3.03764       -2.36672       -3.92351
|  5> N          2.28036       -2.45441       -4.96769
|  6> C          4.32174       -2.01793       -4.01664
|  7> H          4.87994       -1.91167       -3.17382
|  8> H          4.71015       -1.67088       -4.88356
|  9> H          1.27042       -2.41265       -4.86614
| 10> H          2.58183       -2.05528       -5.84688
| 11> C          2.49799       -1.46946       -1.61030
| 12> C          1.58284       -0.32199       -2.04262
| 13> H          2.19308       -1.83391       -0.62542
| 14> H          3.52336       -1.10398       -1.49039
| 15> H          1.47259       -3.05153       -2.69437
| 16> H          3.08320       -3.49064       -2.14147
| 17> H          1.88480        0.03130       -3.00642
| 18> H          1.65140        0.47571       -1.33278
| 19> H          0.57235       -0.67052       -2.09099
| 20> *
| 21>
| 22> %MaxCore 64000
| 23>
| 24> %pal nprocs 4
| 25> end
| 26>
| 27> %scf
| 28>   MaxIter 150
| 29> end
| 30>
| 31>
| 32>                          ****END OF INPUT****

CARTESIAN COORDINATES (ANGSTROEM)
---------------------------------
  C      2.486450   -2.677120   -2.563450
  C      3.037640   -2.366720   -3.923510
  N      2.280360   -2.454410   -4.967690
  C      4.321740   -2.017930   -4.016640
  H      4.879940   -1.911670   -3.173820
  H      4.710150   -1.670880   -4.883560
  H      1.270420   -2.412650   -4.866140
  H      2.581830   -2.055280   -5.846880
  C      2.497990   -1.469460   -1.610300
  C      1.582840   -0.321990   -2.042620
  H      2.193080   -1.833910   -0.625420
  H      3.523360   -1.103980   -1.490390
  H      1.472590   -3.051530   -2.694370
  H      3.083200   -3.490640   -2.141470
  H      1.884800    0.031300   -3.006420
  H      1.651400    0.475710   -1.332780
  H      0.572350   -0.670520   -2.090990

 Total Charge           Charge          ....    0
 Multiplicity           Mult            ....    1
 Number of Electrons    NEL             ....   48
 Basis Dimension        Dim             ....  208

ORBITAL ENERGIES
----------------

  NO   OCC          E(Eh)            E(eV)
   0   2.0000     -14.193590      -386.2272
   1   2.0000     -10.108882      -275.0767
   2   2.0000     -10.083236      -274.3788
   3   2.0000     -10.081546      -274.3328
   4   2.0000     -10.067416      -273.9483
   5   2.0000     -10.017802      -272.5982
   6   2.0000      -1.035119       -28.1670
   7   2.0000      -0.898852       -24.4590
   8   2.0000      -0.832938       -22.6654
   9   2.0000      -0.784961       -21.3599
  10   2.0000      -0.714586       -19.4449
  11   2.0000      -0.667320       -18.1587
  12   2.0000      -0.624208       -16.9856
  13   2.0000      -0.592586       -16.1251
  14   2.0000      -0.561118       -15.2688
  15   2.0000      -0.537082       -14.6147
  16   2.0000      -0.504416       -13.7258
  17   2.0000      -0.493323       -13.4240
  18   2.0000      -0.475100       -12.9281
  19   2.0000      -0.459225       -12.4961
  20   2.0000      -0.435233       -11.8433
  21   2.0000      -0.429146       -11.6776
  22   2.0000      -0.423450       -11.5226
  23   2.0000      -0.284569        -7.7435
  24   0.0000       0.070617         1.9216
  25   0.0000       0.092495         2.5169
  26   0.0000       0.100060         2.7228
  27   0.0000       0.103904         2.8274
  28   0.0000       0.126575         3.4443

MULLIKEN ATOMIC CHARGES
-----------------------
   0 C :    0.590038
   1 C :   -0.264835
   2 N :    0.330095
   3 C :    0.588573
   4 H :   -0.233737
   5 H :   -0.613674
   6 H :   -0.071165
   7 H :   -0.133926
   8 C :   -0.263946
   9 C :    0.975656
  10 H :   -0.165052
  11 H :   -0.153154
  12 H :   -0.136176
  13 H :   -0.056586
  14 H :   -0.156943
  15 H :   -0.180672
  16 H :   -0.054496
Sum of atomic charges:   -0.0000000

LOEWDIN ATOMIC CHARGES
----------------------
   0 C :   -0.005107
   1 C :   -0.278718
   2 N :    0.181889
   3 C :    0.174022
   4 H :   -0.080453
   5 H :   -0.086758
   6 H :    0.004251
   7 H :    0.011676
   8 C :   -0.076743
   9 C :    0.113551
  10 H :    0.022632
  11 H :    0.018772
  12 H :    0.016761
  13 H :    0.035032
  14 H :   -0.018945
  15 H :   -0.015560
  16 H :   -0.016303

  Mayer bond orders larger than 0.100000
B(  0-C ,  1-C ) :   1.0791 B(  0-C ,  2-N ) :   0.1286 B(  0-C ,  3-C ) :   0.1881
B(  0-C ,  8-C ) :   1.1564 B(  0-C , 10-H ) :   0.1216 B(  0-C , 11-H ) :   0.1480
B(  0-C , 12-H ) :   0.5455 B(  0-C , 13-H ) :   0.7482 B(  1-C ,  2-N ) :   1.0931
B(  1-C ,  3-C ) :   1.7354 B(  1-C ,  5-H ) :   0.1708 B(  1-C , 12-H ) :   0.3373
B(  1-C , 13-H ) :   0.1678 B(  2-N ,  3-C ) :   0.2934 B(  2-N ,  6-H ) :   0.9909
B(  2-N ,  7-H ) :   1.0871 B(  3-C ,  4-H ) :   0.7501 B(  3-C ,  5-H ) :   0.6558
B(  4-H ,  5-H ) :  -0.1195 B(  6-H ,  7-H ) :  -0.1273 B(  8-C ,  9-C ) :   1.3276
B(  8-C , 10-H ) :   0.9039 B(  8-C , 11-H ) :   0.8854 B(  8-C , 12-H ) :   0.2194
B(  8-C , 13-H ) :   0.1294 B(  8-C , 14-H ) :   0.2754 B(  8-C , 15-H ) :   0.2716
B(  8-C , 16-H ) :   0.2516 B(  9-C , 11-H ) :   0.1055 B(  9-C , 14-H ) :   0.7532
B(  9-C , 15-H ) :   0.6922 B(  9-C , 16-H ) :   0.7207

FINAL SINGLE POINT ENERGY      -250.977949929892

DIPOLE MOMENT
-------------
                                X             Y             Z
Electronic contribution:      0.70307      -2.41315      -2.94606
Nuclear contribution   :     -1.44240       2.61248       2.79453
                        -----------------------------------------
Total Dipole Moment    :     -0.73932       0.19932      -0.15153
                        -----------------------------------------
Magnitude (a.u.)       :      0.78057
Magnitude (Debye)      :      1.98405

Rotational constants in cm-1:     0.182540     0.078634     0.071436
Rotational constants in MHz :  5472.425685  2357.397154  2141.608207

                             ****ORCA TERMINATED NORMALLY****
TOTAL RUN TIME: 0 days 0 hours 0 minutes 27 seconds 577 msec
