                         Program Version 5.0.0 -  RELEASE  -
|  1> !LC-BLYP RIJCOSX def2-SVPD def2/J TightSCF xyzfile
|  2>
|  3> *xyzfile 0 1 D3.xyz
|  4>
|  5> %MaxCore 64000
|  6>
|  7> %pal nprocs 4
|  8> end
|  9>
| 10> %scf
| 11>   MaxIter 150
| 12> end
| 13>
| 14>
| 15>                          ****END OF INPUT****

CARTESIAN COORDINATES (ANGSTROEM)
---------------------------------
  C      2.486452   -2.677121   -2.563447
  C     -0.870963    0.248043   -2.662804
  C     -0.477492    0.608191   -4.101052
  H      0.206773    1.458299   -4.118748
  H     -1.368442    0.929419   -4.647855
  C      0.184673   -0.506640   -4.916760
  C      3.037640   -2.366715   -3.923509
  C      2.280360   -2.454408   -4.967692
  N      4.321736   -2.017932   -4.016641
  H      4.879940   -1.911668   -3.173823
  H      4.710148   -1.670882   -4.883561
  H      1.270423   -2.412650   -4.866143
  H      2.581829   -2.055282   -5.846878
  O     -0.158685   -1.701088   -4.657981
  F      1.055938   -0.174410   -5.740373
  C      2.497991   -1.469464   -1.610303
  C      1.582841   -0.321986   -2.042619
  H      2.193083   -1.833912   -0.625420
  H      3.523356   -1.103982   -1.490392
  C      0.100160   -0.673551   -1.915815
  H      1.822311   -0.040361   -3.072834
  H      1.813180    0.557019   -1.433266
  H     -0.063284   -1.679120   -2.301112
  H     -0.168820   -0.691680   -0.853831
  H     -1.001048    1.181040   -2.104071
  H     -1.844645   -0.246592   -2.663281
  H      1.472592   -3.051527   -2.694366
  H      3.083201   -3.490638   -2.141472

 Total Charge           Charge          ....    0
 Multiplicity           Mult            ....    1
 Number of Electrons    NEL             ....   94
 Basis Dimension        Dim             ....  374

ORBITAL ENERGIES
----------------

  NO   OCC          E(Eh)            E(eV)
   0   2.0000     -24.553612      -668.1377
   1   2.0000     -18.965519      -516.0780
   2   2.0000     -14.176715      -385.7680
   3   2.0000     -10.274811      -279.5918
   4   2.0000     -10.118099      -275.3275
   5   2.0000     -10.096528      -274.7405
   6   2.0000     -10.090679      -274.5813
   7   2.0000     -10.081551      -274.3329
   8   2.0000     -10.081465      -274.3306
   9   2.0000     -10.078432      -274.2481
  10   2.0000     -10.072930      -274.0984
  11   2.0000      -9.988762      -271.8080
  12   2.0000      -1.398110       -38.0445
  13   2.0000      -1.121610       -30.5206
  14   2.0000      -1.007583       -27.4177
  15   2.0000      -0.928007       -25.2523
  16   2.0000      -0.894773       -24.3480
  17   2.0000      -0.845001       -22.9936
  18   2.0000      -0.822600       -22.3841
  19   2.0000      -0.783069       -21.3084
  20   2.0000      -0.758328       -20.6351
  21   2.0000      -0.719487       -19.5782
  22   2.0000      -0.682551       -18.5732
  23   2.0000      -0.674158       -18.3448
  24   2.0000      -0.657833       -17.9006
  25   2.0000      -0.634501       -17.2656
  26   2.0000      -0.624822       -17.0023
  27   2.0000      -0.611939       -16.6517
  28   2.0000      -0.586953       -15.9718
  29   2.0000      -0.577316       -15.7096
  30   2.0000      -0.558870       -15.2076
  31   2.0000      -0.544726       -14.8227
  32   2.0000      -0.538922       -14.6648
  33   2.0000      -0.507399       -13.8070
  34   2.0000      -0.501425       -13.6445
  35   2.0000      -0.497620       -13.5409
  36   2.0000      -0.479828       -13.0568
  37   2.0000      -0.467910       -12.7325
  38   2.0000      -0.457903       -12.4602
  39   2.0000      -0.456724       -12.4281
  40   2.0000      -0.435393       -11.8476
  41   2.0000      -0.430164       -11.7054
  42   2.0000      -0.414605       -11.2820
  43   2.0000      -0.410538       -11.1713
  44   2.0000      -0.407309       -11.0834
  45   2.0000      -0.366502        -9.9730
  46   2.0000      -0.277671        -7.5558
  47   0.0000       0.044039         1.1984
  48   0.0000       0.065732         1.7887
  49   0.0000       0.078946         2.1482
  50   0.0000       0.085207         2.3186
  51   0.0000       0.093035         2.5316

MULLIKEN ATOMIC CHARGES
-----------------------
   0 C :    0.495520
   1 C :    0.722054
   2 C :    0.435736
   3 H :    0.148311
   4 H :   -0.383113
   5 C :    0.205916
   6 C :   -0.397067
   7 C :    1.353215
   8 N :    0.432105
   9 H :   -0.123341
  10 H :   -0.207992
  11 H :   -0.731460
  12 H :   -0.523814
  13 O :   -0.539395
  14 F :   -0.283457
  15 C :    0.477547
  16 C :    0.414086
  17 H :   -0.172083
  18 H :   -0.181786
  19 C :    0.202595
  20 H :   -0.235325
  21 H :   -0.280839
  22 H :   -0.143947
  23 H :   -0.279375
  24 H :   -0.197091
  25 H :   -0.010571
  26 H :    0.057690
  27 H :   -0.254119
Sum of atomic charges:    0.0000000

LOEWDIN ATOMIC CHARGES
----------------------
   0 C :    0.016011
   1 C :   -0.016913
   2 C :    0.041452
   3 H :    0.033331
   4 H :    0.044828
   5 C :   -0.016784
   6 C :   -0.254498
   7 C :    0.170823
   8 N :    0.186244
   9 H :   -0.010037
  10 H :    0.001108
  11 H :   -0.171240
  12 H :   -0.067098
  13 O :   -0.110923
  14 F :    0.011795
  15 C :   -0.028988
  16 C :   -0.025188
  17 H :    0.027964
  18 H :    0.014563
  19 C :   -0.033981
  20 H :    0.009561
  21 H :    0.030580
  22 H :   -0.002653
  23 H :    0.033727
  24 H :    0.030665
  25 H :    0.033637
  26 H :    0.020362
  27 H :    0.031651

  Mayer bond orders larger than 0.100000
B(  0-C ,  6-C ) :   1.2877 B(  0-C ,  7-C ) :   0.1893 B(  0-C ,  8-N ) :   0.1284
B(  0-C , 11-H ) :  -0.1051 B(  0-C , 15-C ) :   1.0673 B(  0-C , 16-C ) :   0.1712
B(  0-C , 17-H ) :   0.2194 B(  0-C , 18-H ) :   0.2223 B(  0-C , 20-H ) :  -0.1161
B(  0-C , 26-H ) :   0.7090 B(  0-C , 27-H ) :   0.7360 B(  1-C ,  2-C ) :   1.1572
B(  1-C ,  3-H ) :   0.1185 B(  1-C ,  4-H ) :   0.1441 B(  1-C , 19-C ) :   1.2722
B(  1-C , 24-H ) :   0.6652 B(  1-C , 25-H ) :   0.5892 B(  2-C ,  3-H ) :   0.7624
B(  2-C ,  4-H ) :   0.6166 B(  2-C ,  5-C ) :   1.2226 B(  2-C , 19-C ) :   0.1675
B(  2-C , 24-H ) :   0.1712 B(  3-H ,  4-H ) :  -0.1208 B(  3-H ,  5-C ) :   0.1918
B(  4-H ,  5-C ) :   0.3387 B(  4-H , 20-H ) :  -0.1090 B(  5-C , 13-O ) :   1.8308
B(  5-C , 14-F ) :   0.8634 B(  5-C , 22-H ) :   0.1031 B(  6-C ,  7-C ) :   1.9754
B(  6-C ,  8-N ) :   1.2087 B(  6-C , 11-H ) :   0.2438 B(  6-C , 12-H ) :   0.5240
B(  6-C , 15-C ) :   0.2182 B(  6-C , 20-H ) :   0.1248 B(  6-C , 26-H ) :   0.2161
B(  6-C , 27-H ) :   0.2385 B(  7-C ,  8-N ) :   0.4274 B(  7-C , 11-H ) :   0.1470
B(  7-C , 12-H ) :  -0.1193 B(  7-C , 26-H ) :  -0.1764 B(  8-N ,  9-H ) :   1.1258
B(  8-N , 10-H ) :   1.1573 B(  9-H , 10-H ) :  -0.1763 B( 11-H , 12-H ) :   0.3408
B( 11-H , 13-O ) :   0.2355 B( 12-H , 20-H ) :  -0.1051 B( 13-O , 14-F ) :   0.1231
B( 15-C , 16-C ) :   1.1963 B( 15-C , 17-H ) :   0.7797 B( 15-C , 18-H ) :   0.5972
B( 15-C , 20-H ) :   0.1971 B( 15-C , 21-H ) :   0.1079 B( 15-C , 26-H ) :   0.1958
B( 16-C , 18-H ) :   0.2814 B( 16-C , 19-C ) :   1.1586 B( 16-C , 20-H ) :   0.7566
B( 16-C , 21-H ) :   0.7704 B( 16-C , 22-H ) :   0.1341 B( 16-C , 23-H ) :   0.2663
B( 16-C , 26-H ) :  -0.1352 B( 17-H , 18-H ) :  -0.1156 B( 19-C , 20-H ) :   0.1491
B( 19-C , 21-H ) :   0.1234 B( 19-C , 22-H ) :   0.8122 B( 19-C , 23-H ) :   0.7243
B( 19-C , 24-H ) :   0.2284 B( 19-C , 25-H ) :   0.2767 B( 21-H , 27-H ) :   0.1115
B( 22-H , 26-H ) :   0.1416 B( 24-H , 25-H ) :  -0.1464

FINAL SINGLE POINT ENERGY      -580.532175671515

DIPOLE MOMENT
-------------
                                X             Y             Z
Electronic contribution:     -1.76252       0.92690     -12.08789
Nuclear contribution   :      1.88979       0.56282      12.66056
                        -----------------------------------------
Total Dipole Moment    :      0.12726       1.48972       0.57267
                        -----------------------------------------
Magnitude (a.u.)       :      1.60106
Magnitude (Debye)      :      4.06958

Rotational constants in cm-1:     0.040271     0.025954     0.018866
Rotational constants in MHz :  1207.302496   778.083475   565.600538

                             ****ORCA TERMINATED NORMALLY****
TOTAL RUN TIME: 0 days 0 hours 2 minutes 32 seconds 501 msec
