                         Program Version 5.0.0 -  RELEASE  -
|  1> !PBE D3BJ RIJCOSX def2-TZVPD def2/J TightSCF
|  2> *xyz -1 1
|  3> C         -5.57236       -5.80780       -0.81644
|  4> S         -6.90318       -4.61903       -0.52846
|  5> O         -8.11485       -5.25093       -0.95701
|  6> O         -6.53271       -3.42684       -1.31485
|  7> O         -6.86563       -4.29496        0.91412
|  8> C         -4.45780       -5.94187        0.22919
|  9> H         -5.17735       -5.54257       -1.79771
| 10> H         -6.07420       -6.76889       -0.92127
| 11> H         -3.75515       -6.68239       -0.09144
| 12> H         -4.88182       -6.23486        1.16689
| 13> H         -3.95908       -5.00189        0.34143
| 14> *
| 15> %MaxCore 64000
| 16>
| 17> %pal nprocs 4
| 18> end
| 19>
| 20> %scf
| 21>   MaxIter 150
| 22> end
| 23>
| 24>                          ****END OF INPUT****

CARTESIAN COORDINATES (ANGSTROEM)
---------------------------------
  C     -5.572360   -5.807800   -0.816440
  S     -6.903180   -4.619030   -0.528460
  O     -8.114850   -5.250930   -0.957010
  O     -6.532710   -3.426840   -1.314850
  O     -6.865630   -4.294960    0.914120
  C     -4.457800   -5.941870    0.229190
  H     -5.177350   -5.542570   -1.797710
  H     -6.074200   -6.768890   -0.921270
  H     -3.755150   -6.682390   -0.091440
  H     -4.881820   -6.234860    1.166890
  H     -3.959080   -5.001890    0.341430

 Total Charge           Charge          ....   -1
 Multiplicity           Mult            ....    1
 Number of Electrons    NEL             ....   58
 Basis Dimension        Dim             ....  285

ORBITAL ENERGIES
----------------

  NO   OCC          E(Eh)            E(eV)
   0   2.0000     -88.011294     -2394.9091
   1   2.0000     -18.534581      -504.3516
   2   2.0000     -18.521860      -504.0054
   3   2.0000     -18.520909      -503.9796
   4   2.0000      -9.741923      -265.0912
   5   2.0000      -9.737772      -264.9783
   6   2.0000      -7.606386      -206.9803
   7   2.0000      -5.627364      -153.1284
   8   2.0000      -5.626242      -153.0978
   9   2.0000      -5.626010      -153.0915
  10   2.0000      -0.830738       -22.6055
  11   2.0000      -0.704953       -19.1827
  12   2.0000      -0.682771       -18.5792
  13   2.0000      -0.558805       -15.2059
  14   2.0000      -0.444094       -12.0844
  15   2.0000      -0.322737        -8.7821
  16   2.0000      -0.268326        -7.3015
  17   2.0000      -0.258742        -7.0407
  18   2.0000      -0.226129        -6.1533
  19   2.0000      -0.207443        -5.6448
  20   2.0000      -0.205314        -5.5869
  21   2.0000      -0.180393        -4.9087
  22   2.0000      -0.173615        -4.7243
  23   2.0000      -0.102758        -2.7962
  24   2.0000      -0.099903        -2.7185
  25   2.0000      -0.072873        -1.9830
  26   2.0000      -0.061986        -1.6867
  27   2.0000      -0.054209        -1.4751
  28   2.0000      -0.017544        -0.4774
  29   0.0000       0.108104         2.9416
  30   0.0000       0.133481         3.6322
  31   0.0000       0.140812         3.8317
  32   0.0000       0.148976         4.0538
  33   0.0000       0.165320         4.4986

MULLIKEN ATOMIC CHARGES
-----------------------
   0 C :   -0.319169
   1 S :    1.028422
   2 O :   -0.634291
   3 O :   -0.679744
   4 O :   -0.684139
   5 C :   -0.755431
   6 H :    0.202010
   7 H :    0.195574
   8 H :    0.222334
   9 H :    0.215763
  10 H :    0.208672
Sum of atomic charges:   -1.0000000

LOEWDIN ATOMIC CHARGES
----------------------
   0 C :   -0.326487
   1 S :    0.306819
   2 O :   -0.360989
   3 O :   -0.395898
   4 O :   -0.388189
   5 C :   -0.146571
   6 H :    0.075996
   7 H :    0.072131
   8 H :    0.046809
   9 H :    0.055663
  10 H :    0.060715

  Mayer bond orders larger than 0.100000
B(  0-C ,  1-S ) :   0.8700 B(  0-C ,  2-O ) :   0.1470 B(  0-C ,  3-O ) :   0.1417
B(  0-C ,  5-C ) :   0.7823 B(  0-C ,  6-H ) :   0.9823 B(  0-C ,  7-H ) :   0.9789
B(  1-S ,  2-O ) :   1.5723 B(  1-S ,  3-O ) :   1.5283 B(  1-S ,  4-O ) :   1.5136
B(  5-C ,  8-H ) :   0.9628 B(  5-C ,  9-H ) :   0.9871 B(  5-C , 10-H ) :   0.9900

Dispersion correction           -0.009519763
FINAL SINGLE POINT ENERGY      -702.811393097203

DIPOLE MOMENT
-------------
                                X             Y             Z
Electronic contribution:     -6.76282       4.39099      -0.90807
Nuclear contribution   :      8.13140      -5.68016       0.80206
                        -----------------------------------------
Total Dipole Moment    :      1.36858      -1.28917      -0.10601
                        -----------------------------------------
Magnitude (a.u.)       :      1.88314
Magnitude (Debye)      :      4.78656

Rotational constants in cm-1:     0.162101     0.080498     0.079099
Rotational constants in MHz :  4859.669771  2413.267251  2371.338602

                             ****ORCA TERMINATED NORMALLY****
TOTAL RUN TIME: 0 days 0 hours 0 minutes 24 seconds 902 msec
