                         Program Version 5.0.0 -  RELEASE  -
|  1> !PBE D3BJ RIJCOSX def2-TZVPD def2/J TightSCF
|  2> *xyz 1 1
|  3> C         -4.38262       -1.67089        1.21620
|  4> N         -5.76354       -1.91517        0.70501
|  5> C         -3.28173       -2.19127        0.29436
|  6> H         -5.84081       -2.11520       -0.30065
|  7> H         -6.40882       -1.14866        0.93612
|  8> H         -6.17478       -2.79061        1.05143
|  9> H         -4.32862       -2.13922        2.19810
| 10> H         -4.26158       -0.59740        1.35725
| 11> H         -3.36057       -1.71407       -0.66008
| 12> H         -3.38775       -3.24919        0.17403
| 13> H         -2.32559       -1.97514        0.72329
| 14> *
| 15> %MaxCore 64000
| 16>
| 17> %pal nprocs 4
| 18> end
| 19>
| 20> %scf
| 21>   MaxIter 150
| 22> end
| 23>
| 24>                          ****END OF INPUT****

CARTESIAN COORDINATES (ANGSTROEM)
---------------------------------
  C     -4.382620   -1.670890    1.216200
  N     -5.763540   -1.915170    0.705010
  C     -3.281730   -2.191270    0.294360
  H     -5.840810   -2.115200   -0.300650
  H     -6.408820   -1.148660    0.936120
  H     -6.174780   -2.790610    1.051430
  H     -4.328620   -2.139220    2.198100
  H     -4.261580   -0.597400    1.357250
  H     -3.360570   -1.714070   -0.660080
  H     -3.387750   -3.249190    0.174030
  H     -2.325590   -1.975140    0.723290

 Total Charge           Charge          ....    1
 Multiplicity           Mult            ....    1
 Number of Electrons    NEL             ....   26
 Basis Dimension        Dim             ....  183

ORBITAL ENERGIES
----------------

  NO   OCC          E(Eh)            E(eV)
   0   2.0000     -14.317971      -389.6118
   1   2.0000     -10.135088      -275.7898
   2   2.0000     -10.055256      -273.6174
   3   2.0000      -1.136441       -30.9241
   4   2.0000      -0.898711       -24.4552
   5   2.0000      -0.790176       -21.5018
   6   2.0000      -0.744977       -20.2719
   7   2.0000      -0.724646       -19.7186
   8   2.0000      -0.655557       -17.8386
   9   2.0000      -0.593389       -16.1469
  10   2.0000      -0.540807       -14.7161
  11   2.0000      -0.524429       -14.2704
  12   2.0000      -0.505843       -13.7647
  13   0.0000      -0.223171        -6.0728
  14   0.0000      -0.169648        -4.6164
  15   0.0000      -0.166169        -4.5217
  16   0.0000      -0.151758        -4.1295
  17   0.0000      -0.123896        -3.3714

MULLIKEN ATOMIC CHARGES
-----------------------
   0 C :   -0.198331
   1 N :   -0.175050
   2 C :   -0.842723
   3 H :    0.308676
   4 H :    0.314568
   5 H :    0.341860
   6 H :    0.214768
   7 H :    0.222327
   8 H :    0.294820
   9 H :    0.286487
  10 H :    0.232598
Sum of atomic charges:    1.0000000

LOEWDIN ATOMIC CHARGES
----------------------
   0 C :   -0.195576
   1 N :    0.185986
   2 C :   -0.051420
   3 H :    0.176108
   4 H :    0.180736
   5 H :    0.178099
   6 H :    0.134845
   7 H :    0.133599
   8 H :    0.082864
   9 H :    0.082109
  10 H :    0.092650

  Mayer bond orders larger than 0.100000
B(  0-C ,  1-N ) :   1.0529 B(  0-C ,  2-C ) :   0.8348 B(  0-C ,  6-H ) :   0.9526
B(  0-C ,  7-H ) :   0.9238 B(  1-N ,  3-H ) :   0.8716 B(  1-N ,  4-H ) :   0.8766
B(  1-N ,  5-H ) :   0.8573 B(  2-C ,  8-H ) :   0.9407 B(  2-C ,  9-H ) :   0.9617
B(  2-C , 10-H ) :   0.9790

Dispersion correction           -0.006098973
FINAL SINGLE POINT ENERGY      -135.396571483645

DIPOLE MOMENT
-------------
                                X             Y             Z
Electronic contribution:     -1.76505       0.23959       0.30599
Nuclear contribution   :      0.19437      -0.25358      -0.32106
                        -----------------------------------------
Total Dipole Moment    :     -1.57068      -0.01399      -0.01507
                        -----------------------------------------
Magnitude (a.u.)       :      1.57082
Magnitude (Debye)      :      3.99270

Rotational constants in cm-1:     1.030014     0.272489     0.242697
Rotational constants in MHz : 30879.030706  8169.007780  7275.865152

                             ****ORCA TERMINATED NORMALLY****
TOTAL RUN TIME: 0 days 0 hours 0 minutes 8 seconds 910 msec
