                         Program Version 5.0.0 -  RELEASE  -
|  1> !PBE D3BJ RIJCOSX def2-TZVPD def2/J TightSCF xyzfile
|  2>
|  3> *xyzfile 0 1 B.xyz
|  4>
|  5> %MaxCore 64000
|  6>
|  7> %pal nprocs 4
|  8> end
|  9>
| 10> %scf
| 11>   MaxIter 150
| 12> end
| 13>
| 14>
| 15>                          ****END OF INPUT****

CARTESIAN COORDINATES (ANGSTROEM)
---------------------------------
  C     -4.382623   -1.670889    1.216201
  N     -5.763539   -1.915170    0.705012
  C     -3.281728   -2.191272    0.294361
  C     -5.572364   -5.807798   -0.816445
  S     -6.903179   -4.619033   -0.528458
  H     -5.840812   -2.115205   -0.300646
  H     -6.408823   -1.148656    0.936124
  H     -6.174781   -2.790606    1.051433
  O     -8.114853   -5.250932   -0.957007
  O     -6.532715   -3.426838   -1.314848
  H     -4.328618   -2.139223    2.198103
  H     -4.261583   -0.597399    1.357248
  O     -6.865632   -4.294957    0.914118
  C     -3.474641   -3.605898   -0.259608
  H     -2.354548   -2.127602    0.871433
  H     -3.166611   -1.499693   -0.545037
  C     -3.827078   -4.661097    0.786174
  H     -2.560559   -3.889391   -0.788050
  H     -4.255932   -3.570040   -1.019300
  C     -4.457800   -5.941875    0.229195
  H     -5.177347   -5.542575   -1.797714
  H     -6.074202   -6.768894   -0.921272
  H     -4.530506   -4.253640    1.511979
  H     -2.933400   -4.932302    1.356825
  H     -3.681064   -6.562236   -0.229885
  H     -4.843942   -6.512728    1.075805

 Total Charge           Charge          ....    0
 Multiplicity           Mult            ....    1
 Number of Electrons    NEL             ....   98
 Basis Dimension        Dim             ....  560

ORBITAL ENERGIES
----------------

  NO   OCC          E(Eh)            E(eV)
   0   2.0000     -88.181850     -2399.5501
   1   2.0000     -18.707366      -509.0533
   2   2.0000     -18.703437      -508.9464
   3   2.0000     -18.692083      -508.6374
   4   2.0000     -14.087633      -383.3440
   5   2.0000      -9.967067      -271.2177
   6   2.0000      -9.916305      -269.8364
   7   2.0000      -9.890949      -269.1464
   8   2.0000      -9.886182      -269.0167
   9   2.0000      -9.885831      -269.0071
  10   2.0000      -9.885013      -268.9849
  11   2.0000      -7.777641      -211.6404
  12   2.0000      -5.798624      -157.7886
  13   2.0000      -5.797900      -157.7689
  14   2.0000      -5.796650      -157.7349
  15   2.0000      -1.006927       -27.3999
  16   2.0000      -0.925928       -25.1958
  17   2.0000      -0.875022       -23.8105
  18   2.0000      -0.871427       -23.7127
  19   2.0000      -0.758418       -20.6376
  20   2.0000      -0.720110       -19.5952
  21   2.0000      -0.673843       -18.3362
  22   2.0000      -0.626260       -17.0414
  23   2.0000      -0.576720       -15.6934
  24   2.0000      -0.547056       -14.8862
  25   2.0000      -0.529250       -14.4016
  26   2.0000      -0.521412       -14.1883
  27   2.0000      -0.483672       -13.1614
  28   2.0000      -0.461918       -12.5694
  29   2.0000      -0.439791       -11.9673
  30   2.0000      -0.434321       -11.8185
  31   2.0000      -0.419317       -11.4102
  32   2.0000      -0.399953       -10.8833
  33   2.0000      -0.390512       -10.6264
  34   2.0000      -0.383548       -10.4369
  35   2.0000      -0.376056       -10.2330
  36   2.0000      -0.367533       -10.0011
  37   2.0000      -0.345180        -9.3928
  38   2.0000      -0.333654        -9.0792
  39   2.0000      -0.329495        -8.9660
  40   2.0000      -0.305683        -8.3181
  41   2.0000      -0.297048        -8.0831
  42   2.0000      -0.290908        -7.9160
  43   2.0000      -0.278803        -7.5866
  44   2.0000      -0.271064        -7.3760
  45   2.0000      -0.236831        -6.4445
  46   2.0000      -0.233497        -6.3538
  47   2.0000      -0.227400        -6.1879
  48   2.0000      -0.201600        -5.4858
  49   0.0000      -0.048584        -1.3221
  50   0.0000      -0.015305        -0.4165
  51   0.0000      -0.008849        -0.2408
  52   0.0000      -0.005081        -0.1383
  53   0.0000       0.010839         0.2950

MULLIKEN ATOMIC CHARGES
-----------------------
   0 C :   -0.588347
   1 N :   -0.023361
   2 C :   -0.229923
   3 C :   -0.635523
   4 S :    1.134985
   5 H :    0.303675
   6 H :    0.297566
   7 H :    0.244295
   8 O :   -0.562374
   9 O :   -0.787587
  10 H :    0.302099
  11 H :    0.162304
  12 O :   -0.800760
  13 C :   -0.380261
  14 H :    0.152693
  15 H :    0.174403
  16 C :   -0.199068
  17 H :    0.168247
  18 H :    0.349481
  19 C :   -0.317497
  20 H :    0.330533
  21 H :    0.158745
  22 H :    0.263186
  23 H :    0.155813
  24 H :    0.134745
  25 H :    0.191930
Sum of atomic charges:    0.0000000

LOEWDIN ATOMIC CHARGES
----------------------
   0 C :   -0.166605
   1 N :    0.156687
   2 C :   -0.181444
   3 C :   -0.240281
   4 S :    0.417277
   5 H :    0.096973
   6 H :    0.168783
   7 H :    0.057849
   8 O :   -0.282221
   9 O :   -0.361661
  10 H :    0.123235
  11 H :    0.120042
  12 O :   -0.342668
  13 C :   -0.200966
  14 H :    0.117999
  15 H :    0.116177
  16 C :   -0.211517
  17 H :    0.121460
  18 H :    0.086810
  19 C :   -0.215556
  20 H :    0.096300
  21 H :    0.095308
  22 H :    0.085484
  23 H :    0.117405
  24 H :    0.112103
  25 H :    0.113027

  Mayer bond orders larger than 0.100000
B(  0-C ,  1-N ) :   1.0558 B(  0-C ,  2-C ) :   0.9928 B(  0-C , 10-H ) :   0.8904
B(  0-C , 11-H ) :   0.9384 B(  0-C , 16-C ) :   0.2491 B(  1-N ,  5-H ) :   0.8218
B(  1-N ,  6-H ) :   0.8297 B(  1-N ,  7-H ) :   0.9032 B(  2-C , 13-C ) :   1.0461
B(  2-C , 14-H ) :   0.9215 B(  2-C , 15-H ) :   0.9346 B(  2-C , 18-H ) :   0.1262
B(  3-C ,  4-S ) :   0.8385 B(  3-C ,  8-O ) :   0.2162 B(  3-C ,  9-O ) :   0.1476
B(  3-C , 13-C ) :   0.1439 B(  3-C , 19-C ) :   0.9691 B(  3-C , 20-H ) :   0.8736
B(  3-C , 21-H ) :   1.0070 B(  4-S ,  8-O ) :   1.4677 B(  4-S ,  9-O ) :   1.3944
B(  4-S , 12-O ) :   1.4007 B(  7-H , 12-O ) :   0.1317 B(  9-O , 12-O ) :   0.1443
B( 13-C , 16-C ) :   0.6087 B( 13-C , 17-H ) :   0.9015 B( 13-C , 18-H ) :   0.9733
B( 13-C , 19-C ) :   0.2432 B( 16-C , 19-C ) :   1.1103 B( 16-C , 22-H ) :   0.9390
B( 16-C , 23-H ) :   0.9023 B( 19-C , 22-H ) :   0.1087 B( 19-C , 24-H ) :   0.9260
B( 19-C , 25-H ) :   0.8991

Dispersion correction           -0.031108572
FINAL SINGLE POINT ENERGY      -915.750831198936

DIPOLE MOMENT
-------------
                                X             Y             Z
Electronic contribution:    -13.64140      -2.97098      -3.71316
Nuclear contribution   :     16.18863       5.15617       4.97370
                        -----------------------------------------
Total Dipole Moment    :      2.54723       2.18519       1.26055
                        -----------------------------------------
Magnitude (a.u.)       :      3.58503
Magnitude (Debye)      :      9.11241

Rotational constants in cm-1:     0.048546     0.025588     0.020102
Rotational constants in MHz :  1455.374030   767.095631   602.645620

                             ****ORCA TERMINATED NORMALLY****
TOTAL RUN TIME: 0 days 0 hours 0 minutes 57 seconds 53 msec
