                         Program Version 5.0.0 -  RELEASE  -
|  1> !PBE D3BJ RIJCOSX def2-TZVPD def2/J TightSCF
|  2> *xyz 0 1
|  3> C         -5.57236       -5.80780       -0.81644
|  4> S         -6.90318       -4.61903       -0.52846
|  5> F         -8.11485       -5.25093       -0.95701
|  6> O         -6.53271       -3.42684       -1.31485
|  7> O         -6.86563       -4.29496        0.91412
|  8> C         -4.45780       -5.94187        0.22919
|  9> H         -5.17735       -5.54257       -1.79771
| 10> H         -6.07420       -6.76889       -0.92127
| 11> H         -3.75515       -6.68239       -0.09144
| 12> H         -4.88182       -6.23486        1.16689
| 13> H         -3.95908       -5.00189        0.34143
| 14> *
| 15> %MaxCore 64000
| 16>
| 17> %pal nprocs 4
| 18> end
| 19>
| 20> %scf
| 21>   MaxIter 150
| 22> end
| 23>
| 24>                          ****END OF INPUT****

CARTESIAN COORDINATES (ANGSTROEM)
---------------------------------
  C     -5.572360   -5.807800   -0.816440
  S     -6.903180   -4.619030   -0.528460
  F     -8.114850   -5.250930   -0.957010
  O     -6.532710   -3.426840   -1.314850
  O     -6.865630   -4.294960    0.914120
  C     -4.457800   -5.941870    0.229190
  H     -5.177350   -5.542570   -1.797710
  H     -6.074200   -6.768890   -0.921270
  H     -3.755150   -6.682390   -0.091440
  H     -4.881820   -6.234860    1.166890
  H     -3.959080   -5.001890    0.341430

 Total Charge           Charge          ....    0
 Multiplicity           Mult            ....    1
 Number of Electrons    NEL             ....   58
 Basis Dimension        Dim             ....  285

ORBITAL ENERGIES
----------------

  NO   OCC          E(Eh)            E(eV)
   0   2.0000     -88.270558     -2401.9640
   1   2.0000     -24.379413      -663.3976
   2   2.0000     -18.753998      -510.3222
   3   2.0000     -18.753789      -510.3165
   4   2.0000      -9.942666      -270.5537
   5   2.0000      -9.899929      -269.3908
   6   2.0000      -7.866105      -214.0476
   7   2.0000      -5.890423      -160.2866
   8   2.0000      -5.883991      -160.1115
   9   2.0000      -5.883655      -160.1024
  10   2.0000      -1.286050       -34.9952
  11   2.0000      -1.003928       -27.3183
  12   2.0000      -0.911040       -24.7907
  13   2.0000      -0.747984       -20.3537
  14   2.0000      -0.672636       -18.3034
  15   2.0000      -0.615192       -16.7402
  16   2.0000      -0.528994       -14.3947
  17   2.0000      -0.525914       -14.3108
  18   2.0000      -0.497977       -13.5507
  19   2.0000      -0.443062       -12.0563
  20   2.0000      -0.427035       -11.6202
  21   2.0000      -0.395384       -10.7589
  22   2.0000      -0.382211       -10.4005
  23   2.0000      -0.361317        -9.8319
  24   2.0000      -0.346772        -9.4361
  25   2.0000      -0.332242        -9.0408
  26   2.0000      -0.282319        -7.6823
  27   2.0000      -0.277563        -7.5529
  28   2.0000      -0.255002        -6.9390
  29   0.0000      -0.030595        -0.8325
  30   0.0000      -0.019029        -0.5178
  31   0.0000       0.004803         0.1307
  32   0.0000       0.012099         0.3292
  33   0.0000       0.019514         0.5310

MULLIKEN ATOMIC CHARGES
-----------------------
   0 C :   -0.285473
   1 S :    0.984000
   2 F :   -0.075687
   3 O :   -0.521398
   4 O :   -0.530560
   5 C :   -0.773090
   6 H :    0.241777
   7 H :    0.248621
   8 H :    0.223020
   9 H :    0.244659
  10 H :    0.244131
Sum of atomic charges:   -0.0000000

LOEWDIN ATOMIC CHARGES
----------------------
   0 C :   -0.284270
   1 S :    0.553253
   2 F :   -0.031921
   3 O :   -0.274372
   4 O :   -0.272323
   5 C :   -0.099916
   6 H :    0.097324
   7 H :    0.089671
   8 H :    0.073978
   9 H :    0.071290
  10 H :    0.077287

  Mayer bond orders larger than 0.100000
B(  0-C ,  1-S ) :   0.8675 B(  0-C ,  3-O ) :   0.1135 B(  0-C ,  5-C ) :   0.8712
B(  0-C ,  6-H ) :   0.9587 B(  0-C ,  7-H ) :   0.9010 B(  1-S ,  2-F ) :   1.1051
B(  1-S ,  3-O ) :   1.7270 B(  1-S ,  4-O ) :   1.7146 B(  3-O ,  4-O ) :   0.1243
B(  5-C ,  8-H ) :   0.9544 B(  5-C ,  9-H ) :   0.9587 B(  5-C , 10-H ) :   0.9654

Dispersion correction           -0.009110558
FINAL SINGLE POINT ENERGY      -727.312336500350

DIPOLE MOMENT
-------------
                                X             Y             Z
Electronic contribution:     -9.41261       3.66337      -1.82635
Nuclear contribution   :      9.80704      -5.24335       1.35017
                        -----------------------------------------
Total Dipole Moment    :      0.39443      -1.57997      -0.47617
                        -----------------------------------------
Magnitude (a.u.)       :      1.69665
Magnitude (Debye)      :      4.31255

Rotational constants in cm-1:     0.156316     0.078308     0.076228
Rotational constants in MHz :  4686.224999  2347.601204  2285.245115

                             ****ORCA TERMINATED NORMALLY****
TOTAL RUN TIME: 0 days 0 hours 0 minutes 24 seconds 988 msec
