                         Program Version 5.0.0 -  RELEASE  -
|  1> !PBE D3BJ RIJCOSX def2-TZVPD def2/J TightSCF
|  2> *xyz 0 1
|  3> C         -4.38262       -1.67089        1.21620
|  4> C         -5.76354       -1.91517        0.70501
|  5> C         -3.28173       -2.19127        0.29436
|  6> H         -5.84081       -2.11520       -0.30065
|  7> H         -6.40882       -1.14866        0.93612
|  8> H         -6.17478       -2.79061        1.05143
|  9> H         -4.32862       -2.13922        2.19810
| 10> H         -4.26158       -0.59740        1.35725
| 11> H         -3.36057       -1.71407       -0.66008
| 12> H         -3.38775       -3.24919        0.17403
| 13> H         -2.32559       -1.97514        0.72329
| 14> *
| 15> %MaxCore 64000
| 16>
| 17> %pal nprocs 4
| 18> end
| 19>
| 20> %scf
| 21>   MaxIter 150
| 22> end
| 23>
| 24>                          ****END OF INPUT****

CARTESIAN COORDINATES (ANGSTROEM)
---------------------------------
  C     -4.382620   -1.670890    1.216200
  C     -5.763540   -1.915170    0.705010
  C     -3.281730   -2.191270    0.294360
  H     -5.840810   -2.115200   -0.300650
  H     -6.408820   -1.148660    0.936120
  H     -6.174780   -2.790610    1.051430
  H     -4.328620   -2.139220    2.198100
  H     -4.261580   -0.597400    1.357250
  H     -3.360570   -1.714070   -0.660080
  H     -3.387750   -3.249190    0.174030
  H     -2.325590   -1.975140    0.723290

 Total Charge           Charge          ....    0
 Multiplicity           Mult            ....    1
 Number of Electrons    NEL             ....   26
 Basis Dimension        Dim             ....  183

ORBITAL ENERGIES
----------------

  NO   OCC          E(Eh)            E(eV)
   0   2.0000      -9.869301      -268.5573
   1   2.0000      -9.858544      -268.2646
   2   2.0000      -9.839839      -267.7556
   3   2.0000      -0.715424       -19.4677
   4   2.0000      -0.625096       -17.0097
   5   2.0000      -0.530042       -14.4232
   6   2.0000      -0.413479       -11.2513
   7   2.0000      -0.393912       -10.7189
   8   2.0000      -0.364383        -9.9154
   9   2.0000      -0.340281        -9.2595
  10   2.0000      -0.299083        -8.1385
  11   2.0000      -0.292626        -7.9627
  12   2.0000      -0.279326        -7.6009
  13   0.0000      -0.002296        -0.0625
  14   0.0000       0.024250         0.6599
  15   0.0000       0.026891         0.7318
  16   0.0000       0.044238         1.2038
  17   0.0000       0.068470         1.8632

MULLIKEN ATOMIC CHARGES
-----------------------
   0 C :    0.226708
   1 C :   -1.099390
   2 C :   -0.918875
   3 H :    0.305170
   4 H :    0.244720
   5 H :    0.280804
   6 H :    0.122477
   7 H :    0.143572
   8 H :    0.245262
   9 H :    0.239279
  10 H :    0.210273
Sum of atomic charges:    0.0000000

LOEWDIN ATOMIC CHARGES
----------------------
   0 C :   -0.308335
   1 C :   -0.125351
   2 C :   -0.114354
   3 H :    0.051217
   4 H :    0.052244
   5 H :    0.051130
   6 H :    0.102025
   7 H :    0.100393
   8 H :    0.065601
   9 H :    0.065781
  10 H :    0.059650

  Mayer bond orders larger than 0.100000
B(  0-C ,  1-C ) :   0.8110 B(  0-C ,  2-C ) :   0.7232 B(  0-C ,  6-H ) :   0.9693
B(  0-C ,  7-H ) :   0.9626 B(  1-C ,  2-C ) :   0.2391 B(  1-C ,  3-H ) :   0.9334
B(  1-C ,  4-H ) :   0.9641 B(  1-C ,  5-H ) :   0.9675 B(  2-C ,  8-H ) :   0.9923
B(  2-C ,  9-H ) :   1.0011 B(  2-C , 10-H ) :   0.9979

Dispersion correction           -0.006097765
FINAL SINGLE POINT ENERGY      -118.987671611948

DIPOLE MOMENT
-------------
                                X             Y             Z
Electronic contribution:      0.18634       0.23961       0.34172
Nuclear contribution   :     -0.21528      -0.24783      -0.32864
                        -----------------------------------------
Total Dipole Moment    :     -0.02893      -0.00821       0.01308
                        -----------------------------------------
Magnitude (a.u.)       :      0.03279
Magnitude (Debye)      :      0.08336

Rotational constants in cm-1:     1.037566     0.286459     0.254172
Rotational constants in MHz : 31105.431429  8587.814531  7619.871198

                             ****ORCA TERMINATED NORMALLY****
TOTAL RUN TIME: 0 days 0 hours 0 minutes 8 seconds 999 msec
