                         Program Version 5.0.0 -  RELEASE  -
|  1> !PBE D3BJ RIJCOSX def2-TZVPD def2/J TightSCF
|  2> *xyz 0 1
|  3> C         -5.57236       -5.80780       -0.81644
|  4> S         -6.90318       -4.61903       -0.52846
|  5> O         -8.11485       -5.25093       -0.95701
|  6> F         -6.53271       -3.42684       -1.31485
|  7> O         -6.86563       -4.29496        0.91412
|  8> C         -4.45780       -5.94187        0.22919
|  9> H         -5.17735       -5.54257       -1.79771
| 10> H         -6.07420       -6.76889       -0.92127
| 11> H         -3.75515       -6.68239       -0.09144
| 12> H         -4.88182       -6.23486        1.16689
| 13> H         -3.95908       -5.00189        0.34143
| 14> *
| 15> %MaxCore 64000
| 16>
| 17> %pal nprocs 4
| 18> end
| 19>
| 20> %scf
| 21>   MaxIter 150
| 22> end
| 23>
| 24>                          ****END OF INPUT****

CARTESIAN COORDINATES (ANGSTROEM)
---------------------------------
  C     -5.572360   -5.807800   -0.816440
  S     -6.903180   -4.619030   -0.528460
  O     -8.114850   -5.250930   -0.957010
  F     -6.532710   -3.426840   -1.314850
  O     -6.865630   -4.294960    0.914120
  C     -4.457800   -5.941870    0.229190
  H     -5.177350   -5.542570   -1.797710
  H     -6.074200   -6.768890   -0.921270
  H     -3.755150   -6.682390   -0.091440
  H     -4.881820   -6.234860    1.166890
  H     -3.959080   -5.001890    0.341430

 Total Charge           Charge          ....    0
 Multiplicity           Mult            ....    1
 Number of Electrons    NEL             ....   58
 Basis Dimension        Dim             ....  285

ORBITAL ENERGIES
----------------

  NO   OCC          E(Eh)            E(eV)
   0   2.0000     -88.267946     -2401.8929
   1   2.0000     -24.357728      -662.8075
   2   2.0000     -18.767199      -510.6814
   3   2.0000     -18.753741      -510.3152
   4   2.0000      -9.941967      -270.5347
   5   2.0000      -9.899274      -269.3729
   6   2.0000      -7.863660      -213.9811
   7   2.0000      -5.888063      -160.2223
   8   2.0000      -5.881660      -160.0481
   9   2.0000      -5.881113      -160.0332
  10   2.0000      -1.250510       -34.0281
  11   2.0000      -1.020160       -27.7600
  12   2.0000      -0.925794       -25.1921
  13   2.0000      -0.747593       -20.3430
  14   2.0000      -0.659545       -17.9471
  15   2.0000      -0.607995       -16.5444
  16   2.0000      -0.515817       -14.0361
  17   2.0000      -0.500725       -13.6254
  18   2.0000      -0.492381       -13.3984
  19   2.0000      -0.441675       -12.0186
  20   2.0000      -0.427041       -11.6204
  21   2.0000      -0.403458       -10.9786
  22   2.0000      -0.384795       -10.4708
  23   2.0000      -0.359146        -9.7729
  24   2.0000      -0.353715        -9.6251
  25   2.0000      -0.337015        -9.1706
  26   2.0000      -0.294571        -8.0157
  27   2.0000      -0.282269        -7.6809
  28   2.0000      -0.267337        -7.2746
  29   0.0000      -0.030575        -0.8320
  30   0.0000      -0.014611        -0.3976
  31   0.0000       0.004117         0.1120
  32   0.0000       0.012253         0.3334
  33   0.0000       0.019754         0.5375

MULLIKEN ATOMIC CHARGES
-----------------------
   0 C :   -0.286175
   1 S :    0.984992
   2 O :   -0.493488
   3 F :   -0.116475
   4 O :   -0.532449
   5 C :   -0.753514
   6 H :    0.271076
   7 H :    0.222066
   8 H :    0.221961
   9 H :    0.243019
  10 H :    0.238987
Sum of atomic charges:   -0.0000000

LOEWDIN ATOMIC CHARGES
----------------------
   0 C :   -0.278999
   1 S :    0.554777
   2 O :   -0.243630
   3 F :   -0.066086
   4 O :   -0.271106
   5 C :   -0.105681
   6 H :    0.093686
   7 H :    0.099442
   8 H :    0.072632
   9 H :    0.072433
  10 H :    0.072533

  Mayer bond orders larger than 0.100000
B(  0-C ,  1-S ) :   0.8679 B(  0-C ,  2-O ) :   0.1246 B(  0-C ,  5-C ) :   0.8592
B(  0-C ,  6-H ) :   0.8956 B(  0-C ,  7-H ) :   0.9610 B(  1-S ,  2-O ) :   1.7692
B(  1-S ,  3-F ) :   1.0535 B(  1-S ,  4-O ) :   1.7105 B(  2-O ,  4-O ) :   0.1280
B(  5-C ,  8-H ) :   0.9642 B(  5-C ,  9-H ) :   0.9736 B(  5-C , 10-H ) :   0.9531

Dispersion correction           -0.009096535
FINAL SINGLE POINT ENERGY      -727.330196326174

DIPOLE MOMENT
-------------
                                X             Y             Z
Electronic contribution:     -6.79016       6.70302      -2.43894
Nuclear contribution   :      8.15840      -7.14411       1.72305
                        -----------------------------------------
Total Dipole Moment    :      1.36824      -0.44109      -0.71589
                        -----------------------------------------
Magnitude (a.u.)       :      1.60597
Magnitude (Debye)      :      4.08205

Rotational constants in cm-1:     0.153926     0.078297     0.077402
Rotational constants in MHz :  4614.585804  2347.272644  2320.438903

                             ****ORCA TERMINATED NORMALLY****
TOTAL RUN TIME: 0 days 0 hours 0 minutes 25 seconds 804 msec
