                         Program Version 5.0.0 -  RELEASE  -
|  1> !PBE D3BJ RIJCOSX def2-TZVPD def2/J TightSCF
|  2> *xyz 0 1
|  3> C         -5.57236       -5.80780       -0.81644
|  4> S         -6.90318       -4.61903       -0.52846
|  5> O         -8.11485       -5.25093       -0.95701
|  6> O         -6.53271       -3.42684       -1.31485
|  7> F         -6.86563       -4.29496        0.91412
|  8> C         -4.45780       -5.94187        0.22919
|  9> H         -5.17735       -5.54257       -1.79771
| 10> H         -6.07420       -6.76889       -0.92127
| 11> H         -3.75515       -6.68239       -0.09144
| 12> H         -4.88182       -6.23486        1.16689
| 13> H         -3.95908       -5.00189        0.34143
| 14> *
| 15> %MaxCore 64000
| 16>
| 17> %pal nprocs 4
| 18> end
| 19>
| 20> %scf
| 21>   MaxIter 150
| 22> end
| 23>
| 24>                          ****END OF INPUT****

CARTESIAN COORDINATES (ANGSTROEM)
---------------------------------
  C     -5.572360   -5.807800   -0.816440
  S     -6.903180   -4.619030   -0.528460
  O     -8.114850   -5.250930   -0.957010
  O     -6.532710   -3.426840   -1.314850
  F     -6.865630   -4.294960    0.914120
  C     -4.457800   -5.941870    0.229190
  H     -5.177350   -5.542570   -1.797710
  H     -6.074200   -6.768890   -0.921270
  H     -3.755150   -6.682390   -0.091440
  H     -4.881820   -6.234860    1.166890
  H     -3.959080   -5.001890    0.341430

 Total Charge           Charge          ....    0
 Multiplicity           Mult            ....    1
 Number of Electrons    NEL             ....   58
 Basis Dimension        Dim             ....  285

ORBITAL ENERGIES
----------------

  NO   OCC          E(Eh)            E(eV)
   0   2.0000     -88.267524     -2401.8814
   1   2.0000     -24.356639      -662.7778
   2   2.0000     -18.766926      -510.6740
   3   2.0000     -18.752995      -510.2949
   4   2.0000      -9.941276      -270.5159
   5   2.0000      -9.905966      -269.5550
   6   2.0000      -7.863271      -213.9705
   7   2.0000      -5.887749      -160.2138
   8   2.0000      -5.881084      -160.0324
   9   2.0000      -5.880851      -160.0261
  10   2.0000      -1.247887       -33.9567
  11   2.0000      -1.020736       -27.7756
  12   2.0000      -0.926442       -25.2098
  13   2.0000      -0.750276       -20.4160
  14   2.0000      -0.656900       -17.8752
  15   2.0000      -0.612221       -16.6594
  16   2.0000      -0.520689       -14.1687
  17   2.0000      -0.500084       -13.6080
  18   2.0000      -0.485442       -13.2096
  19   2.0000      -0.445636       -12.1264
  20   2.0000      -0.420725       -11.4485
  21   2.0000      -0.402751       -10.9594
  22   2.0000      -0.394952       -10.7472
  23   2.0000      -0.367241        -9.9931
  24   2.0000      -0.353068        -9.6075
  25   2.0000      -0.339680        -9.2432
  26   2.0000      -0.295416        -8.0387
  27   2.0000      -0.280266        -7.6264
  28   2.0000      -0.267013        -7.2658
  29   0.0000      -0.037953        -1.0328
  30   0.0000      -0.001947        -0.0530
  31   0.0000       0.008184         0.2227
  32   0.0000       0.011764         0.3201
  33   0.0000       0.017358         0.4723

MULLIKEN ATOMIC CHARGES
-----------------------
   0 C :   -0.209901
   1 S :    0.992926
   2 O :   -0.492989
   3 O :   -0.530095
   4 F :   -0.129026
   5 C :   -0.824046
   6 H :    0.227975
   7 H :    0.233377
   8 H :    0.216555
   9 H :    0.261046
  10 H :    0.254178
Sum of atomic charges:    0.0000000

LOEWDIN ATOMIC CHARGES
----------------------
   0 C :   -0.274915
   1 S :    0.553948
   2 O :   -0.243482
   3 O :   -0.275768
   4 F :   -0.064809
   5 C :   -0.108757
   6 H :    0.103742
   7 H :    0.095409
   8 H :    0.073120
   9 H :    0.068279
  10 H :    0.073233

  Mayer bond orders larger than 0.100000
B(  0-C ,  1-S ) :   0.8466 B(  0-C ,  2-O ) :   0.1199 B(  0-C ,  3-O ) :   0.1080
B(  0-C ,  5-C ) :   0.8122 B(  0-C ,  6-H ) :   0.9539 B(  0-C ,  7-H ) :   0.9502
B(  1-S ,  2-O ) :   1.7697 B(  1-S ,  3-O ) :   1.7194 B(  1-S ,  4-F ) :   1.0514
B(  2-O ,  3-O ) :   0.1231 B(  5-C ,  8-H ) :   0.9749 B(  5-C ,  9-H ) :   0.9426
B(  5-C , 10-H ) :   0.9677

Dispersion correction           -0.009057189
FINAL SINGLE POINT ENERGY      -727.330329697342

DIPOLE MOMENT
-------------
                                X             Y             Z
Electronic contribution:     -7.32542       5.22917       1.26634
Nuclear contribution   :      8.50531      -6.23950      -0.59960
                        -----------------------------------------
Total Dipole Moment    :      1.17989      -1.01033       0.66674
                        -----------------------------------------
Magnitude (a.u.)       :      1.69040
Magnitude (Debye)      :      4.29665

Rotational constants in cm-1:     0.152799     0.080212     0.076962
Rotational constants in MHz :  4580.804531  2404.707790  2307.252710

                             ****ORCA TERMINATED NORMALLY****
TOTAL RUN TIME: 0 days 0 hours 0 minutes 26 seconds 613 msec
