                         Program Version 5.0.0 -  RELEASE  -
|  1> !PBE D3BJ RIJCOSX def2-TZVPD def2/J TightSCF xyzfile
|  2>
|  3> *xyzfile 0 1 D1.xyz
|  4>
|  5> %MaxCore 64000
|  6>
|  7> %pal nprocs 4
|  8> end
|  9>
| 10> %scf
| 11>   MaxIter 150
| 12> end
| 13>
| 14>
| 15>                          ****END OF INPUT****

CARTESIAN COORDINATES (ANGSTROEM)
---------------------------------
  C     -4.382623   -1.670889    1.216201
  C     -5.763539   -1.915170    0.705012
  C     -3.281728   -2.191272    0.294361
  C     -5.572364   -5.807798   -0.816445
  S     -6.903179   -4.619033   -0.528458
  H     -5.840812   -2.115205   -0.300646
  H     -6.408823   -1.148656    0.936124
  H     -6.174781   -2.790606    1.051433
  F     -8.114853   -5.250932   -0.957007
  O     -6.532715   -3.426838   -1.314848
  H     -4.328618   -2.139223    2.198103
  H     -4.261583   -0.597399    1.357248
  O     -6.865632   -4.294957    0.914118
  C     -3.474641   -3.605898   -0.259608
  H     -2.354548   -2.127602    0.871433
  H     -3.166611   -1.499693   -0.545037
  C     -3.827078   -4.661097    0.786174
  H     -2.560559   -3.889391   -0.788050
  H     -4.255932   -3.570040   -1.019300
  C     -4.457800   -5.941875    0.229195
  H     -5.177347   -5.542575   -1.797714
  H     -6.074202   -6.768894   -0.921272
  H     -4.530506   -4.253640    1.511979
  H     -2.933400   -4.932302    1.356825
  H     -3.681064   -6.562236   -0.229885
  H     -4.843942   -6.512728    1.075805

 Total Charge           Charge          ....    0
 Multiplicity           Mult            ....    1
 Number of Electrons    NEL             ....   98
 Basis Dimension        Dim             ....  560

ORBITAL ENERGIES
----------------

  NO   OCC          E(Eh)            E(eV)
   0   2.0000     -88.277006     -2402.1394
   1   2.0000     -24.383433      -663.5069
   2   2.0000     -18.762610      -510.5566
   3   2.0000     -18.761267      -510.5200
   4   2.0000      -9.943321      -270.5715
   5   2.0000      -9.909238      -269.6441
   6   2.0000      -9.878204      -268.7996
   7   2.0000      -9.868056      -268.5234
   8   2.0000      -9.860303      -268.3125
   9   2.0000      -9.846948      -267.9491
  10   2.0000      -9.790393      -266.4101
  11   2.0000      -7.872880      -214.2319
  12   2.0000      -5.897079      -160.4677
  13   2.0000      -5.890809      -160.2971
  14   2.0000      -5.890464      -160.2877
  15   2.0000      -1.290396       -35.1135
  16   2.0000      -1.016978       -27.6734
  17   2.0000      -0.924286       -25.1511
  18   2.0000      -0.760677       -20.6991
  19   2.0000      -0.722719       -19.6662
  20   2.0000      -0.685096       -18.6424
  21   2.0000      -0.660069       -17.9614
  22   2.0000      -0.626062       -17.0360
  23   2.0000      -0.582391       -15.8477
  24   2.0000      -0.550803       -14.9881
  25   2.0000      -0.533638       -14.5210
  26   2.0000      -0.523166       -14.2361
  27   2.0000      -0.498337       -13.5604
  28   2.0000      -0.483802       -13.1649
  29   2.0000      -0.443696       -12.0736
  30   2.0000      -0.442945       -12.0531
  31   2.0000      -0.419365       -11.4115
  32   2.0000      -0.416215       -11.3258
  33   2.0000      -0.394028       -10.7221
  34   2.0000      -0.387105       -10.5337
  35   2.0000      -0.368168       -10.0184
  36   2.0000      -0.365052        -9.9336
  37   2.0000      -0.343557        -9.3486
  38   2.0000      -0.335323        -9.1246
  39   2.0000      -0.330911        -9.0045
  40   2.0000      -0.301936        -8.2161
  41   2.0000      -0.297484        -8.0950
  42   2.0000      -0.293674        -7.9913
  43   2.0000      -0.291529        -7.9329
  44   2.0000      -0.281819        -7.6687
  45   2.0000      -0.269647        -7.3375
  46   2.0000      -0.255230        -6.9452
  47   2.0000      -0.249067        -6.7775
  48   2.0000      -0.227367        -6.1870
  49   0.0000      -0.033102        -0.9007
  50   0.0000      -0.023733        -0.6458
  51   0.0000       0.001414         0.0385
  52   0.0000       0.001678         0.0457
  53   0.0000       0.006354         0.1729

MULLIKEN ATOMIC CHARGES
-----------------------
   0 C :    0.005893
   1 C :   -1.453474
   2 C :   -0.501698
   3 C :   -0.641818
   4 S :    0.980303
   5 H :    0.551684
   6 H :    0.250405
   7 H :    0.491206
   8 F :   -0.040033
   9 O :   -0.596854
  10 H :    0.209038
  11 H :    0.087676
  12 O :   -0.601241
  13 C :   -0.221802
  14 H :    0.118681
  15 H :    0.162591
  16 C :   -0.224163
  17 H :    0.168844
  18 H :    0.231061
  19 C :   -0.264828
  20 H :    0.335343
  21 H :    0.218213
  22 H :    0.255131
  23 H :    0.154511
  24 H :    0.132581
  25 H :    0.192747
Sum of atomic charges:   -0.0000000

LOEWDIN ATOMIC CHARGES
----------------------
   0 C :   -0.242728
   1 C :   -0.124981
   2 C :   -0.204695
   3 C :   -0.223680
   4 S :    0.612978
   5 H :    0.022328
   6 H :    0.066847
   7 H :   -0.007221
   8 F :   -0.019473
   9 O :   -0.278933
  10 H :    0.103732
  11 H :    0.103890
  12 O :   -0.268012
  13 C :   -0.202148
  14 H :    0.105061
  15 H :    0.112626
  16 C :   -0.200490
  17 H :    0.114716
  18 H :    0.085891
  19 C :   -0.205491
  20 H :    0.104223
  21 H :    0.095774
  22 H :    0.095427
  23 H :    0.120749
  24 H :    0.119463
  25 H :    0.114145

  Mayer bond orders larger than 0.100000
B(  0-C ,  1-C ) :   0.5727 B(  0-C ,  2-C ) :   0.9889 B(  0-C , 10-H ) :   0.8498
B(  0-C , 11-H ) :   0.9751 B(  0-C , 16-C ) :   0.2383 B(  1-C ,  2-C ) :   0.1714
B(  1-C ,  5-H ) :   0.8074 B(  1-C ,  6-H ) :   0.8848 B(  1-C ,  7-H ) :   0.9877
B(  1-C ,  9-O ) :   0.1382 B(  1-C , 12-O ) :   0.1422 B(  2-C , 13-C ) :   1.0609
B(  2-C , 14-H ) :   0.9347 B(  2-C , 15-H ) :   0.9238 B(  2-C , 16-C ) :   0.1861
B(  2-C , 18-H ) :   0.1721 B(  3-C ,  4-S ) :   0.8623 B(  3-C ,  8-F ) :   0.1149
B(  3-C ,  9-O ) :   0.1394 B(  3-C , 13-C ) :   0.1801 B(  3-C , 19-C ) :   0.9909
B(  3-C , 20-H ) :   0.8707 B(  3-C , 21-H ) :   0.9306 B(  4-S ,  8-F ) :   0.9811
B(  4-S ,  9-O ) :   1.7208 B(  4-S , 12-O ) :   1.7490 B(  5-H ,  9-O ) :  -0.1178
B(  7-H , 12-O ) :  -0.1886 B(  9-O , 12-O ) :   0.2084 B( 13-C , 16-C ) :   0.6636
B( 13-C , 17-H ) :   0.8962 B( 13-C , 18-H ) :   0.9856 B( 13-C , 19-C ) :   0.2182
B( 16-C , 19-C ) :   1.0645 B( 16-C , 22-H ) :   0.9595 B( 16-C , 23-H ) :   0.8922
B( 19-C , 24-H ) :   0.9181 B( 19-C , 25-H ) :   0.8968

Dispersion correction           -0.030668229
FINAL SINGLE POINT ENERGY      -923.622368493692

DIPOLE MOMENT
-------------
                                X             Y             Z
Electronic contribution:    -18.97409      -8.56100      -6.69012
Nuclear contribution   :     19.08524       6.89775       6.14221
                        -----------------------------------------
Total Dipole Moment    :      0.11115      -1.66325      -0.54791
                        -----------------------------------------
Magnitude (a.u.)       :      1.75470
Magnitude (Debye)      :      4.46009

Rotational constants in cm-1:     0.049343     0.024787     0.019726
Rotational constants in MHz :  1479.262779   743.087234   591.370705

                             ****ORCA TERMINATED NORMALLY****
TOTAL RUN TIME: 0 days 0 hours 0 minutes 59 seconds 361 msec
