                         Program Version 5.0.0 -  RELEASE  -
|  1> !PBE D3BJ RIJCOSX def2-TZVPD def2/J TightSCF xyzfile
|  2>
|  3> *xyzfile 0 1 D2.xyz
|  4>
|  5> %MaxCore 64000
|  6>
|  7> %pal nprocs 4
|  8> end
|  9>
| 10> %scf
| 11>   MaxIter 150
| 12> end
| 13>
| 14>
| 15>                          ****END OF INPUT****

CARTESIAN COORDINATES (ANGSTROEM)
---------------------------------
  C     -4.382623   -1.670889    1.216201
  C     -5.763539   -1.915170    0.705012
  C     -3.281728   -2.191272    0.294361
  C     -5.572364   -5.807798   -0.816445
  S     -6.903179   -4.619033   -0.528458
  H     -5.840812   -2.115205   -0.300646
  H     -6.408823   -1.148656    0.936124
  H     -6.174781   -2.790606    1.051433
  O     -8.114853   -5.250932   -0.957007
  F     -6.532715   -3.426838   -1.314848
  H     -4.328618   -2.139223    2.198103
  H     -4.261583   -0.597399    1.357248
  O     -6.865632   -4.294957    0.914118
  C     -3.474641   -3.605898   -0.259608
  H     -2.354548   -2.127602    0.871433
  H     -3.166611   -1.499693   -0.545037
  C     -3.827078   -4.661097    0.786174
  H     -2.560559   -3.889391   -0.788050
  H     -4.255932   -3.570040   -1.019300
  C     -4.457800   -5.941875    0.229195
  H     -5.177347   -5.542575   -1.797714
  H     -6.074202   -6.768894   -0.921272
  H     -4.530506   -4.253640    1.511979
  H     -2.933400   -4.932302    1.356825
  H     -3.681064   -6.562236   -0.229885
  H     -4.843942   -6.512728    1.075805

 Total Charge           Charge          ....    0
 Multiplicity           Mult            ....    1
 Number of Electrons    NEL             ....   98
 Basis Dimension        Dim             ....  560

ORBITAL ENERGIES
----------------

  NO   OCC          E(Eh)            E(eV)
   0   2.0000     -88.272283     -2402.0109
   1   2.0000     -24.361610      -662.9131
   2   2.0000     -18.770686      -510.7763
   3   2.0000     -18.758541      -510.4458
   4   2.0000      -9.942030      -270.5364
   5   2.0000      -9.908973      -269.6369
   6   2.0000      -9.884862      -268.9808
   7   2.0000      -9.883308      -268.9385
   8   2.0000      -9.873205      -268.6636
   9   2.0000      -9.860820      -268.3266
  10   2.0000      -9.810864      -266.9672
  11   2.0000      -7.868326      -214.1080
  12   2.0000      -5.892657      -160.3473
  13   2.0000      -5.886326      -160.1751
  14   2.0000      -5.885738      -160.1591
  15   2.0000      -1.258282       -34.2396
  16   2.0000      -1.026069       -27.9208
  17   2.0000      -0.935635       -25.4599
  18   2.0000      -0.763262       -20.7694
  19   2.0000      -0.731093       -19.8941
  20   2.0000      -0.686475       -18.6799
  21   2.0000      -0.662317       -18.0225
  22   2.0000      -0.628352       -17.0983
  23   2.0000      -0.592619       -16.1260
  24   2.0000      -0.555507       -15.1161
  25   2.0000      -0.519473       -14.1356
  26   2.0000      -0.508327       -13.8323
  27   2.0000      -0.497241       -13.5306
  28   2.0000      -0.496936       -13.5223
  29   2.0000      -0.446903       -12.1609
  30   2.0000      -0.439283       -11.9535
  31   2.0000      -0.420152       -11.4329
  32   2.0000      -0.412585       -11.2270
  33   2.0000      -0.407984       -11.1018
  34   2.0000      -0.390474       -10.6253
  35   2.0000      -0.378968       -10.3122
  36   2.0000      -0.358461        -9.7542
  37   2.0000      -0.351084        -9.5535
  38   2.0000      -0.346989        -9.4421
  39   2.0000      -0.342250        -9.3131
  40   2.0000      -0.317007        -8.6262
  41   2.0000      -0.311031        -8.4636
  42   2.0000      -0.308866        -8.4047
  43   2.0000      -0.293365        -7.9829
  44   2.0000      -0.287769        -7.8306
  45   2.0000      -0.279266        -7.5992
  46   2.0000      -0.271847        -7.3973
  47   2.0000      -0.270595        -7.3633
  48   2.0000      -0.235962        -6.4209
  49   0.0000      -0.028962        -0.7881
  50   0.0000      -0.019575        -0.5327
  51   0.0000      -0.007159        -0.1948
  52   0.0000      -0.000403        -0.0110
  53   0.0000       0.007133         0.1941

MULLIKEN ATOMIC CHARGES
-----------------------
   0 C :    0.015460
   1 C :   -1.551806
   2 C :   -0.500847
   3 C :   -0.626808
   4 S :    0.974792
   5 H :    0.541926
   6 H :    0.254153
   7 H :    0.585681
   8 O :   -0.476808
   9 F :   -0.177105
  10 H :    0.213107
  11 H :    0.084376
  12 O :   -0.588833
  13 C :   -0.217741
  14 H :    0.118839
  15 H :    0.163966
  16 C :   -0.218418
  17 H :    0.174388
  18 H :    0.193409
  19 C :   -0.251925
  20 H :    0.390707
  21 H :    0.146441
  22 H :    0.258007
  23 H :    0.149667
  24 H :    0.145704
  25 H :    0.199667
Sum of atomic charges:   -0.0000000

LOEWDIN ATOMIC CHARGES
----------------------
   0 C :   -0.239993
   1 C :   -0.123580
   2 C :   -0.205094
   3 C :   -0.219666
   4 S :    0.597999
   5 H :    0.032885
   6 H :    0.068660
   7 H :   -0.008974
   8 O :   -0.226889
   9 F :   -0.087508
  10 H :    0.106810
  11 H :    0.105662
  12 O :   -0.264594
  13 C :   -0.204081
  14 H :    0.107719
  15 H :    0.112452
  16 C :   -0.202390
  17 H :    0.116901
  18 H :    0.083960
  19 C :   -0.207670
  20 H :    0.100903
  21 H :    0.105260
  22 H :    0.095374
  23 H :    0.121754
  24 H :    0.117908
  25 H :    0.116190

  Mayer bond orders larger than 0.100000
B(  0-C ,  1-C ) :   0.5841 B(  0-C ,  2-C ) :   0.9875 B(  0-C , 10-H ) :   0.8519
B(  0-C , 11-H ) :   0.9822 B(  0-C , 16-C ) :   0.2385 B(  1-C ,  2-C ) :   0.1825
B(  1-C ,  4-S ) :   0.1377 B(  1-C ,  5-H ) :   0.7783 B(  1-C ,  6-H ) :   0.8795
B(  1-C ,  7-H ) :   0.8381 B(  1-C ,  9-F ) :   0.1876 B(  1-C , 12-O ) :   0.2135
B(  2-C , 13-C ) :   1.0640 B(  2-C , 14-H ) :   0.9255 B(  2-C , 15-H ) :   0.9286
B(  2-C , 16-C ) :   0.1785 B(  2-C , 18-H ) :   0.1666 B(  3-C ,  4-S ) :   0.8610
B(  3-C ,  8-O ) :   0.1827 B(  3-C , 13-C ) :   0.1694 B(  3-C , 19-C ) :   0.9579
B(  3-C , 20-H ) :   0.7925 B(  3-C , 21-H ) :   1.0159 B(  4-S ,  8-O ) :   1.5639
B(  4-S ,  9-F ) :   1.0791 B(  4-S , 12-O ) :   1.7125 B(  5-H ,  9-F ) :  -0.1093
B(  7-H , 12-O ) :  -0.2036 B(  9-F , 12-O ) :   0.1090 B( 13-C , 16-C ) :   0.6779
B( 13-C , 17-H ) :   0.8956 B( 13-C , 18-H ) :   1.0006 B( 13-C , 19-C ) :   0.1963
B( 16-C , 19-C ) :   1.0699 B( 16-C , 22-H ) :   0.9585 B( 16-C , 23-H ) :   0.8843
B( 19-C , 24-H ) :   0.9374 B( 19-C , 25-H ) :   0.8965

Dispersion correction           -0.030379386
FINAL SINGLE POINT ENERGY      -923.638657006595

DIPOLE MOMENT
-------------
                                X             Y             Z
Electronic contribution:    -16.05216      -5.33841      -7.17103
Nuclear contribution   :     17.25367       4.78608       6.55647
                        -----------------------------------------
Total Dipole Moment    :      1.20151      -0.55233      -0.61456
                        -----------------------------------------
Magnitude (a.u.)       :      1.45821
Magnitude (Debye)      :      3.70647

Rotational constants in cm-1:     0.048508     0.025517     0.020225
Rotational constants in MHz :  1454.219007   764.979652   606.316599

                             ****ORCA TERMINATED NORMALLY****
TOTAL RUN TIME: 0 days 0 hours 0 minutes 54 seconds 466 msec
