                         Program Version 5.0.0 -  RELEASE  -
|  1> !PBE D3BJ RIJCOSX def2-TZVPD def2/J TightSCF xyzfile
|  2>
|  3> *xyzfile 0 1 D3.xyz
|  4>
|  5> %MaxCore 64000
|  6>
|  7> %pal nprocs 4
|  8> end
|  9>
| 10> %scf
| 11>   MaxIter 150
| 12> end
| 13>
| 14>
| 15>                          ****END OF INPUT****

CARTESIAN COORDINATES (ANGSTROEM)
---------------------------------
  C     -4.382623   -1.670889    1.216201
  C     -5.763539   -1.915170    0.705012
  C     -3.281728   -2.191272    0.294361
  C     -5.572364   -5.807798   -0.816445
  S     -6.903179   -4.619033   -0.528458
  H     -5.840812   -2.115205   -0.300646
  H     -6.408823   -1.148656    0.936124
  H     -6.174781   -2.790606    1.051433
  O     -8.114853   -5.250932   -0.957007
  O     -6.532715   -3.426838   -1.314848
  H     -4.328618   -2.139223    2.198103
  H     -4.261583   -0.597399    1.357248
  F     -6.865632   -4.294957    0.914118
  C     -3.474641   -3.605898   -0.259608
  H     -2.354548   -2.127602    0.871433
  H     -3.166611   -1.499693   -0.545037
  C     -3.827078   -4.661097    0.786174
  H     -2.560559   -3.889391   -0.788050
  H     -4.255932   -3.570040   -1.019300
  C     -4.457800   -5.941875    0.229195
  H     -5.177347   -5.542575   -1.797714
  H     -6.074202   -6.768894   -0.921272
  H     -4.530506   -4.253640    1.511979
  H     -2.933400   -4.932302    1.356825
  H     -3.681064   -6.562236   -0.229885
  H     -4.843942   -6.512728    1.075805

 Total Charge           Charge          ....    0
 Multiplicity           Mult            ....    1
 Number of Electrons    NEL             ....   98
 Basis Dimension        Dim             ....  560

ORBITAL ENERGIES
----------------

  NO   OCC          E(Eh)            E(eV)
   0   2.0000     -88.271614     -2401.9927
   1   2.0000     -24.361939      -662.9221
   2   2.0000     -18.770411      -510.7689
   3   2.0000     -18.756569      -510.3922
   4   2.0000      -9.941218      -270.5143
   5   2.0000      -9.913306      -269.7548
   6   2.0000      -9.891151      -269.1519
   7   2.0000      -9.876911      -268.7644
   8   2.0000      -9.870536      -268.5909
   9   2.0000      -9.861174      -268.3362
  10   2.0000      -9.812537      -267.0127
  11   2.0000      -7.867729      -214.0918
  12   2.0000      -5.892202      -160.3350
  13   2.0000      -5.885501      -160.1526
  14   2.0000      -5.885215      -160.1448
  15   2.0000      -1.258081       -34.2341
  16   2.0000      -1.026220       -27.9249
  17   2.0000      -0.934463       -25.4280
  18   2.0000      -0.765878       -20.8406
  19   2.0000      -0.730000       -19.8643
  20   2.0000      -0.686260       -18.6741
  21   2.0000      -0.662025       -18.0146
  22   2.0000      -0.629340       -17.1252
  23   2.0000      -0.592576       -16.1248
  24   2.0000      -0.559182       -15.2161
  25   2.0000      -0.521447       -14.1893
  26   2.0000      -0.516546       -14.0559
  27   2.0000      -0.494592       -13.4585
  28   2.0000      -0.488425       -13.2907
  29   2.0000      -0.445791       -12.1306
  30   2.0000      -0.439345       -11.9552
  31   2.0000      -0.422643       -11.5007
  32   2.0000      -0.409113       -11.1325
  33   2.0000      -0.403257       -10.9732
  34   2.0000      -0.399117       -10.8605
  35   2.0000      -0.380639       -10.3577
  36   2.0000      -0.357986        -9.7413
  37   2.0000      -0.351444        -9.5633
  38   2.0000      -0.345831        -9.4105
  39   2.0000      -0.343720        -9.3531
  40   2.0000      -0.317725        -8.6457
  41   2.0000      -0.310763        -8.4563
  42   2.0000      -0.305157        -8.3037
  43   2.0000      -0.292302        -7.9540
  44   2.0000      -0.288607        -7.8534
  45   2.0000      -0.282131        -7.6772
  46   2.0000      -0.266712        -7.2576
  47   2.0000      -0.263616        -7.1734
  48   2.0000      -0.246349        -6.7035
  49   0.0000      -0.037360        -1.0166
  50   0.0000      -0.010770        -0.2931
  51   0.0000      -0.003985        -0.1084
  52   0.0000      -0.001169        -0.0318
  53   0.0000       0.008491         0.2311

MULLIKEN ATOMIC CHARGES
-----------------------
   0 C :    0.045268
   1 C :   -1.638469
   2 C :   -0.515039
   3 C :   -0.536057
   4 S :    1.002418
   5 H :    0.649905
   6 H :    0.277400
   7 H :    0.513395
   8 O :   -0.487926
   9 O :   -0.588952
  10 H :    0.213952
  11 H :    0.084648
  12 F :   -0.191189
  13 C :   -0.190347
  14 H :    0.123745
  15 H :    0.169619
  16 C :   -0.196048
  17 H :    0.166190
  18 H :    0.246542
  19 C :   -0.351658
  20 H :    0.337327
  21 H :    0.162791
  22 H :    0.218401
  23 H :    0.144601
  24 H :    0.141187
  25 H :    0.198297
Sum of atomic charges:    0.0000000

LOEWDIN ATOMIC CHARGES
----------------------
   0 C :   -0.242024
   1 C :   -0.121969
   2 C :   -0.202929
   3 C :   -0.213698
   4 S :    0.596942
   5 H :    0.022085
   6 H :    0.068839
   7 H :    0.009353
   8 O :   -0.226810
   9 O :   -0.278098
  10 H :    0.103223
  11 H :    0.106446
  12 F :   -0.082533
  13 C :   -0.202257
  14 H :    0.106421
  15 H :    0.114395
  16 C :   -0.204174
  17 H :    0.116971
  18 H :    0.086465
  19 C :   -0.214332
  20 H :    0.110841
  21 H :    0.101277
  22 H :    0.093121
  23 H :    0.121725
  24 H :    0.118345
  25 H :    0.112373

  Mayer bond orders larger than 0.100000
B(  0-C ,  1-C ) :   0.5510 B(  0-C ,  2-C ) :   0.9844 B(  0-C , 10-H ) :   0.8515
B(  0-C , 11-H ) :   0.9707 B(  0-C , 16-C ) :   0.2206 B(  1-C ,  2-C ) :   0.1777
B(  1-C ,  4-S ) :   0.1206 B(  1-C ,  5-H ) :   0.6547 B(  1-C ,  6-H ) :   0.8400
B(  1-C ,  7-H ) :   0.9298 B(  1-C ,  9-O ) :   0.2216 B(  1-C , 12-F ) :   0.1926
B(  2-C , 13-C ) :   1.0735 B(  2-C , 14-H ) :   0.9362 B(  2-C , 15-H ) :   0.9199
B(  2-C , 16-C ) :   0.2035 B(  2-C , 18-H ) :   0.1651 B(  3-C ,  4-S ) :   0.8181
B(  3-C ,  8-O ) :   0.1905 B(  3-C ,  9-O ) :   0.1495 B(  3-C , 13-C ) :   0.1562
B(  3-C , 19-C ) :   0.9722 B(  3-C , 20-H ) :   0.8559 B(  3-C , 21-H ) :   1.0380
B(  4-S ,  8-O ) :   1.5601 B(  4-S ,  9-O ) :   1.6873 B(  4-S , 12-F ) :   1.1320
B(  5-H ,  9-O ) :  -0.1579 B(  7-H , 12-F ) :  -0.1755 B(  9-O , 12-F ) :   0.1117
B( 13-C , 16-C ) :   0.6391 B( 13-C , 17-H ) :   0.8924 B( 13-C , 18-H ) :   0.9938
B( 13-C , 19-C ) :   0.1924 B( 16-C , 19-C ) :   1.0173 B( 16-C , 22-H ) :   0.9771
B( 16-C , 23-H ) :   0.9016 B( 19-C , 24-H ) :   0.9139 B( 19-C , 25-H ) :   0.9363

Dispersion correction           -0.030347526
FINAL SINGLE POINT ENERGY      -923.637729351428

DIPOLE MOMENT
-------------
                                X             Y             Z
Electronic contribution:    -16.60404      -6.78994      -3.48049
Nuclear contribution   :     17.63907       5.79106       3.97609
                        -----------------------------------------
Total Dipole Moment    :      1.03504      -0.99888       0.49560
                        -----------------------------------------
Magnitude (a.u.)       :      1.52140
Magnitude (Debye)      :      3.86710

Rotational constants in cm-1:     0.048663     0.025472     0.020259
Rotational constants in MHz :  1458.892793   763.621130   607.350055

                             ****ORCA TERMINATED NORMALLY****
TOTAL RUN TIME: 0 days 0 hours 0 minutes 57 seconds 535 msec
