                         Program Version 5.0.0 -  RELEASE  -
|  1> !B3LYP D3BJ RIJCOSX def2-SVPD def2/J TightSCF
|  2> *xyz -1 1
|  3> C         -0.95121        1.33498       -0.97250
|  4> C         -0.77455        2.78833       -0.54394
|  5> H         -1.35261        3.45937       -1.19259
|  6> H         -1.17101        2.90233        0.46997
|  7> C          0.69721        3.22791       -0.52513
|  8> O          1.48929        2.37470        0.19919
|  9> H          0.71600        4.26403       -0.13077
| 10> H          1.03615        3.33092       -1.58367
| 11> H         -0.56808        1.20618       -1.96322
| 12> H         -1.99081        1.08225       -0.95647
| 13> H         -0.41866        0.69710       -0.29841
| 14> *
| 15>
| 16> %MaxCore 64000
| 17> %pal nprocs 4
| 18> end
| 19>
| 20> %scf
| 21>   MaxIter 150
| 22> end
| 23>
| 24>
| 25>                          ****END OF INPUT****

CARTESIAN COORDINATES (ANGSTROEM)
---------------------------------
  C     -0.951210    1.334980   -0.972500
  C     -0.774550    2.788330   -0.543940
  H     -1.352610    3.459370   -1.192590
  H     -1.171010    2.902330    0.469970
  C      0.697210    3.227910   -0.525130
  O      1.489290    2.374700    0.199190
  H      0.716000    4.264030   -0.130770
  H      1.036150    3.330920   -1.583670
  H     -0.568080    1.206180   -1.963220
  H     -1.990810    1.082250   -0.956470
  H     -0.418660    0.697100   -0.298410

 Total Charge           Charge          ....   -1
 Multiplicity           Mult            ....    1
 Number of Electrons    NEL             ....   34
 Basis Dimension        Dim             ....  139

ORBITAL ENERGIES
----------------

  NO   OCC          E(Eh)            E(eV)
   0   2.0000     -18.812892      -511.9248
   1   2.0000     -10.000294      -272.1218
   2   2.0000      -9.998103      -272.0622
   3   2.0000      -9.991163      -271.8734
   4   2.0000      -0.675987       -18.3945
   5   2.0000      -0.574486       -15.6326
   6   2.0000      -0.461353       -12.5541
   7   2.0000      -0.358995        -9.7688
   8   2.0000      -0.273699        -7.4477
   9   2.0000      -0.264564        -7.1991
  10   2.0000      -0.216543        -5.8924
  11   2.0000      -0.188469        -5.1285
  12   2.0000      -0.162278        -4.4158
  13   2.0000      -0.151208        -4.1146
  14   2.0000      -0.114141        -3.1059
  15   2.0000       0.024217         0.6590
  16   2.0000       0.027314         0.7433
  17   0.0000       0.165127         4.4933
  18   0.0000       0.189223         5.1490
  19   0.0000       0.205836         5.6011
  20   0.0000       0.230896         6.2830
  21   0.0000       0.249704         6.7948

MULLIKEN ATOMIC CHARGES
-----------------------
   0 C :    0.838438
   1 C :   -0.382492
   2 H :   -0.165060
   3 H :   -0.133079
   4 C :    0.573237
   5 O :   -0.882691
   6 H :   -0.244523
   7 H :   -0.181252
   8 H :   -0.145671
   9 H :   -0.182997
  10 H :   -0.093911
Sum of atomic charges:   -1.0000000

LOEWDIN ATOMIC CHARGES
----------------------
   0 C :    0.092329
   1 C :   -0.111072
   2 H :   -0.016570
   3 H :   -0.003542
   4 C :   -0.212382
   5 O :   -0.549700
   6 H :   -0.038849
   7 H :   -0.032667
   8 H :   -0.036264
   9 H :   -0.053598
  10 H :   -0.037683

  Mayer bond orders larger than 0.100000
B(  0-C ,  1-C ) :   1.2635 B(  0-C ,  8-H ) :   0.7727 B(  0-C ,  9-H ) :   0.7388
B(  0-C , 10-H ) :   0.7860 B(  1-C ,  2-H ) :   0.9859 B(  1-C ,  3-H ) :   0.9243
B(  1-C ,  4-C ) :   1.0543 B(  1-C ,  5-O ) :   0.1337 B(  1-C ,  6-H ) :   0.1749
B(  1-C ,  7-H ) :   0.1595 B(  1-C ,  8-H ) :   0.2229 B(  1-C ,  9-H ) :   0.2332
B(  1-C , 10-H ) :   0.2337 B(  2-H ,  4-C ) :   0.1174 B(  3-H ,  4-C ) :   0.1357
B(  4-C ,  5-O ) :   1.1440 B(  4-C ,  6-H ) :   0.9104 B(  4-C ,  7-H ) :   0.9147

Dispersion correction           -0.010990698
FINAL SINGLE POINT ENERGY      -193.501906252430

DIPOLE MOMENT
-------------
                                X             Y             Z
Electronic contribution:      2.54231       0.00604       1.46282
Nuclear contribution   :     -4.35230      -0.04018      -2.29108
                        -----------------------------------------
Total Dipole Moment    :     -1.80999      -0.03414      -0.82826
                        -----------------------------------------
Magnitude (a.u.)       :      1.99079
Magnitude (Debye)      :      5.06020

Rotational constants in cm-1:     0.489965     0.184028     0.151025
Rotational constants in MHz : 14688.769521  5517.006179  4527.605157

                             ****ORCA TERMINATED NORMALLY****
TOTAL RUN TIME: 0 days 0 hours 0 minutes 10 seconds 290 msec
