                         Program Version 5.0.0 -  RELEASE  -
|  1> !B3LYP D3BJ RIJCOSX def2-SVPD def2/J TightSCF
|  2> *xyz 1 1
|  3> C          3.95643        0.50147       -0.37910
|  4> H          3.16840        0.02920        0.20738
|  5> N          3.80389        1.96157       -0.15675
|  6> C          3.84232        0.14849       -1.85406
|  7> H          4.92323        0.17798        0.00937
|  8> H          4.62002        0.69450       -2.40215
|  9> H          4.09601       -0.91093       -1.95510
| 10> C          2.47562        0.41271       -2.48538
| 11> H          4.20643        2.24441        0.74536
| 12> H          2.80827        2.21132       -0.09610
| 13> H          4.28076        2.50155       -0.89104
| 14> H          2.49958        0.13290       -3.51787
| 15> H          2.23992        1.45318       -2.40319
| 16> H          1.73061       -0.16300       -1.97702
| 17> *
| 18>
| 19> %MaxCore 64000
| 20> %pal nprocs 4
| 21> end
| 22>
| 23> %scf
| 24>   MaxIter 150
| 25> end
| 26>
| 27>
| 28>                          ****END OF INPUT****

CARTESIAN COORDINATES (ANGSTROEM)
---------------------------------
  C      3.956430    0.501470   -0.379100
  H      3.168400    0.029200    0.207380
  N      3.803890    1.961570   -0.156750
  C      3.842320    0.148490   -1.854060
  H      4.923230    0.177980    0.009370
  H      4.620020    0.694500   -2.402150
  H      4.096010   -0.910930   -1.955100
  C      2.475620    0.412710   -2.485380
  H      4.206430    2.244410    0.745360
  H      2.808270    2.211320   -0.096100
  H      4.280760    2.501550   -0.891040
  H      2.499580    0.132900   -3.517870
  H      2.239920    1.453180   -2.403190
  H      1.730610   -0.163000   -1.977020

 Total Charge           Charge          ....    1
 Multiplicity           Mult            ....    1
 Number of Electrons    NEL             ....   34
 Basis Dimension        Dim             ....  160

ORBITAL ENERGIES
----------------

  NO   OCC          E(Eh)            E(eV)
   0   2.0000     -14.660976      -398.9454
   1   2.0000     -10.430505      -283.8285
   2   2.0000     -10.362087      -281.9667
   3   2.0000     -10.328808      -281.0612
   4   2.0000      -1.204287       -32.7703
   5   2.0000      -0.967255       -26.3204
   6   2.0000      -0.877922       -23.8895
   7   2.0000      -0.808023       -21.9874
   8   2.0000      -0.789329       -21.4787
   9   2.0000      -0.768201       -20.9038
  10   2.0000      -0.689914       -18.7735
  11   2.0000      -0.632028       -17.1984
  12   2.0000      -0.608815       -16.5667
  13   2.0000      -0.587097       -15.9757
  14   2.0000      -0.527456       -14.3528
  15   2.0000      -0.521458       -14.1896
  16   2.0000      -0.514418       -13.9980
  17   0.0000      -0.193123        -5.2551
  18   0.0000      -0.137322        -3.7367
  19   0.0000      -0.134664        -3.6644
  20   0.0000      -0.120399        -3.2762
  21   0.0000      -0.095044        -2.5863

MULLIKEN ATOMIC CHARGES
-----------------------
   0 C :    0.769622
   1 H :   -0.142037
   2 N :   -0.682149
   3 C :   -0.198119
   4 H :   -0.151816
   5 H :   -0.124040
   6 H :   -0.155233
   7 C :    0.970131
   8 H :    0.301873
   9 H :    0.364273
  10 H :    0.389091
  11 H :   -0.119808
  12 H :   -0.164459
  13 H :   -0.057329
Sum of atomic charges:    1.0000000

LOEWDIN ATOMIC CHARGES
----------------------
   0 C :    0.089390
   1 H :    0.051962
   2 N :    0.336203
   3 C :   -0.044175
   4 H :    0.051601
   5 H :    0.031740
   6 H :    0.043792
   7 C :    0.157212
   8 H :    0.104635
   9 H :    0.102106
  10 H :    0.104566
  11 H :    0.002824
  12 H :   -0.027412
  13 H :   -0.004443

  Mayer bond orders larger than 0.100000
B(  0-C ,  1-H ) :   0.8137 B(  0-C ,  2-N ) :   0.7912 B(  0-C ,  3-C ) :   1.1581
B(  0-C ,  4-H ) :   0.8736 B(  0-C ,  5-H ) :   0.1102 B(  0-C ,  6-H ) :   0.1324
B(  1-H ,  2-N ) :   0.1485 B(  1-H ,  3-C ) :   0.1036 B(  2-N ,  8-H ) :   0.8188
B(  2-N ,  9-H ) :   0.7864 B(  2-N , 10-H ) :   0.7132 B(  3-C ,  5-H ) :   0.8968
B(  3-C ,  6-H ) :   0.9403 B(  3-C ,  7-C ) :   1.2827 B(  3-C , 11-H ) :   0.2348
B(  3-C , 12-H ) :   0.2156 B(  3-C , 13-H ) :   0.2115 B(  7-C , 11-H ) :   0.7416
B(  7-C , 12-H ) :   0.7683 B(  7-C , 13-H ) :   0.7593

Dispersion correction           -0.015273357
FINAL SINGLE POINT ENERGY      -174.625277317235

DIPOLE MOMENT
-------------
                                X             Y             Z
Electronic contribution:      1.01373       1.16356       1.82586
Nuclear contribution   :     -0.57302       0.26376      -0.39709
                        -----------------------------------------
Total Dipole Moment    :      0.44071       1.42733       1.42877
                        -----------------------------------------
Magnitude (a.u.)       :      2.06709
Magnitude (Debye)      :      5.25413

Rotational constants in cm-1:     0.449370     0.157244     0.134525
Rotational constants in MHz : 13471.775278  4714.062641  4032.958796

                             ****ORCA TERMINATED NORMALLY****
TOTAL RUN TIME: 0 days 0 hours 0 minutes 12 seconds 784 msec
