                         Program Version 5.0.0 -  RELEASE  -
|  1> !B3LYP D3BJ RIJCOSX def2-SVPD def2/J TightSCF xyzfile
|  2>
|  3> *xyzfile 0 1 B.xyz
|  4>
|  5> %MaxCore 64000
|  6>
|  7> %pal nprocs 4
|  8> end
|  9>
| 10> %scf
| 11>   MaxIter 150
| 12> end
| 13>
| 14>
| 15>                          ****END OF INPUT****

CARTESIAN COORDINATES (ANGSTROEM)
---------------------------------
  C      3.956426    0.501466   -0.379100
  H      3.168398    0.029201    0.207383
  N      3.803893    1.961572   -0.156747
  C      3.842322    0.148490   -1.854058
  H      4.923231    0.177982    0.009371
  H      4.620021    0.694502   -2.402150
  H      4.096015   -0.910930   -1.955103
  C      2.475619    0.412708   -2.485377
  H      2.174689    1.445076   -2.287971
  C      1.383931   -0.532740   -1.995203
  H      2.575613    0.318574   -3.571460
  H      1.264698   -0.412309   -0.915491
  H      1.705223   -1.566885   -2.164984
  C      0.031398   -0.317260   -2.677791
  C     -0.587292    1.060853   -2.436460
  H     -0.662815   -1.089530   -2.329985
  H      0.149465   -0.478040   -3.755648
  H      0.104376    1.828590   -2.793130
  C     -0.951213    1.334978   -0.972500
  H     -1.478832    1.161355   -3.062484
  H     -0.317007    0.741648   -0.311389
  H     -1.980916    1.012842   -0.788958
  C     -0.774550    2.788332   -0.543943
  H     -1.352609    3.459372   -1.192585
  H     -1.171014    2.902331    0.469968
  C      0.697208    3.227911   -0.525126
  O      1.489294    2.374703    0.199189
  H      0.715998    4.264030   -0.130774
  H      1.036148    3.330920   -1.583669
  H      4.206425    2.244406    0.745359
  H      2.808269    2.211323   -0.096097
  H      4.280757    2.501552   -0.891037

 Total Charge           Charge          ....    0
 Multiplicity           Mult            ....    1
 Number of Electrons    NEL             ....   90
 Basis Dimension        Dim             ....  391

ORBITAL ENERGIES
----------------

  NO   OCC          E(Eh)            E(eV)
   0   2.0000     -19.010220      -517.2944
   1   2.0000     -14.409724      -392.1085
   2   2.0000     -10.250744      -278.9369
   3   2.0000     -10.206280      -277.7270
   4   2.0000     -10.180371      -277.0220
   5   2.0000     -10.167828      -276.6807
   6   2.0000     -10.166768      -276.6518
   7   2.0000     -10.162031      -276.5229
   8   2.0000     -10.149658      -276.1862
   9   2.0000     -10.136668      -275.8328
  10   2.0000     -10.129876      -275.6479
  11   2.0000      -0.981240       -26.7009
  12   2.0000      -0.879666       -23.9369
  13   2.0000      -0.810644       -22.0587
  14   2.0000      -0.771569       -20.9954
  15   2.0000      -0.733866       -19.9695
  16   2.0000      -0.691936       -18.8285
  17   2.0000      -0.654743       -17.8165
  18   2.0000      -0.617273       -16.7969
  19   2.0000      -0.589427       -16.0391
  20   2.0000      -0.571422       -15.5492
  21   2.0000      -0.566999       -15.4288
  22   2.0000      -0.542913       -14.7734
  23   2.0000      -0.506021       -13.7695
  24   2.0000      -0.492877       -13.4119
  25   2.0000      -0.467016       -12.7082
  26   2.0000      -0.466500       -12.6941
  27   2.0000      -0.436605       -11.8806
  28   2.0000      -0.423159       -11.5148
  29   2.0000      -0.418036       -11.3753
  30   2.0000      -0.401565       -10.9271
  31   2.0000      -0.391255       -10.6466
  32   2.0000      -0.382033       -10.3957
  33   2.0000      -0.365000        -9.9321
  34   2.0000      -0.356300        -9.6954
  35   2.0000      -0.344846        -9.3837
  36   2.0000      -0.336163        -9.1475
  37   2.0000      -0.326306        -8.8792
  38   2.0000      -0.316632        -8.6160
  39   2.0000      -0.310926        -8.4607
  40   2.0000      -0.290721        -7.9109
  41   2.0000      -0.285371        -7.7653
  42   2.0000      -0.281701        -7.6655
  43   2.0000      -0.183502        -4.9933
  44   2.0000      -0.175423        -4.7735
  45   0.0000      -0.015659        -0.4261
  46   0.0000       0.018481         0.5029
  47   0.0000       0.023366         0.6358
  48   0.0000       0.037915         1.0317
  49   0.0000       0.051002         1.3878

MULLIKEN ATOMIC CHARGES
-----------------------
   0 C :    1.057322
   1 H :   -0.075293
   2 N :    0.119599
   3 C :    0.398703
   4 H :   -0.375800
   5 H :   -0.170863
   6 H :   -0.170003
   7 C :    0.685225
   8 H :   -0.690886
   9 C :    0.095831
  10 H :   -0.156709
  11 H :   -0.140681
  12 H :   -0.229815
  13 C :    0.760421
  14 C :    0.304343
  15 H :   -0.303521
  16 H :   -0.054634
  17 H :   -0.182577
  18 C :    0.278366
  19 H :   -0.330277
  20 H :   -0.153417
  21 H :   -0.228195
  22 C :    0.418624
  23 H :   -0.236884
  24 H :   -0.040903
  25 C :    0.632580
  26 O :   -0.650748
  27 H :   -0.455517
  28 H :   -0.026837
  29 H :    0.305224
  30 H :   -0.700840
  31 H :    0.318161
Sum of atomic charges:    0.0000000

LOEWDIN ATOMIC CHARGES
----------------------
   0 C :    0.091396
   1 H :    0.035975
   2 N :    0.320574
   3 C :   -0.012144
   4 H :    0.024910
   5 H :    0.018272
   6 H :    0.025724
   7 C :   -0.013112
   8 H :   -0.006581
   9 C :   -0.022024
  10 H :    0.026718
  11 H :    0.000058
  12 H :    0.019928
  13 C :   -0.025250
  14 C :   -0.016532
  15 H :    0.019470
  16 H :    0.015301
  17 H :   -0.009057
  18 C :   -0.021494
  19 H :    0.015331
  20 H :   -0.009320
  21 H :    0.013399
  22 C :   -0.025746
  23 H :    0.015112
  24 H :    0.017077
  25 C :   -0.073016
  26 O :   -0.380638
  27 H :    0.001196
  28 H :   -0.012156
  29 H :    0.085469
  30 H :   -0.200587
  31 H :    0.081744

  Mayer bond orders larger than 0.100000
B(  0-C ,  1-H ) :   0.7445 B(  0-C ,  2-N ) :   0.8442 B(  0-C ,  3-C ) :   1.1254
B(  0-C ,  4-H ) :   0.7520 B(  0-C ,  6-H ) :   0.1529 B(  0-C , 30-H ) :  -0.1074
B(  1-H ,  2-N ) :   0.1429 B(  1-H ,  3-C ) :   0.1214 B(  1-H ,  4-H ) :  -0.1636
B(  2-N ,  4-H ) :   0.1013 B(  2-N , 10-H ) :  -0.1104 B(  2-N , 29-H ) :   0.8013
B(  2-N , 30-H ) :   1.4258 B(  2-N , 31-H ) :   0.7965 B(  3-C ,  4-H ) :   0.1251
B(  3-C ,  5-H ) :   0.6819 B(  3-C ,  6-H ) :   0.8327 B(  3-C ,  7-C ) :   1.1481
B(  3-C ,  8-H ) :   0.1150 B(  5-H ,  6-H ) :  -0.1202 B(  5-H ,  7-C ) :   0.2726
B(  7-C ,  8-H ) :   0.5902 B(  7-C ,  9-C ) :   1.1468 B(  7-C , 10-H ) :   0.5844
B(  7-C , 11-H ) :   0.1411 B(  7-C , 12-H ) :   0.1626 B(  8-H ,  9-C ) :   0.2811
B(  8-H , 10-H ) :   0.1391 B(  9-C , 10-H ) :   0.1738 B(  9-C , 11-H ) :   0.8108
B(  9-C , 12-H ) :   0.7982 B(  9-C , 13-C ) :   1.1657 B(  9-C , 14-C ) :   0.1324
B(  9-C , 15-H ) :   0.3324 B(  9-C , 16-H ) :   0.1448 B( 11-H , 20-H ) :   0.1517
B( 13-C , 14-C ) :   1.1671 B( 13-C , 15-H ) :   0.6221 B( 13-C , 16-H ) :   0.6232
B( 13-C , 17-H ) :   0.1235 B( 13-C , 19-H ) :   0.1076 B( 14-C , 15-H ) :   0.1062
B( 14-C , 16-H ) :   0.2554 B( 14-C , 17-H ) :   0.8141 B( 14-C , 18-C ) :   1.1844
B( 14-C , 19-H ) :   0.7369 B( 14-C , 20-H ) :   0.1248 B( 14-C , 21-H ) :   0.2434
B( 15-H , 16-H ) :  -0.1651 B( 17-H , 18-C ) :   0.1434 B( 18-C , 19-H ) :   0.2123
B( 18-C , 20-H ) :   0.7845 B( 18-C , 21-H ) :   0.7102 B( 18-C , 22-C ) :   1.2272
B( 18-C , 23-H ) :   0.1232 B( 18-C , 24-H ) :   0.2516 B( 18-C , 25-C ) :   0.1222
B( 20-H , 22-C ) :   0.1611 B( 21-H , 22-C ) :   0.1239 B( 22-C , 23-H ) :   0.7700
B( 22-C , 24-H ) :   0.6157 B( 22-C , 25-C ) :   1.1524 B( 22-C , 27-H ) :   0.1121
B( 22-C , 28-H ) :   0.1118 B( 23-H , 24-H ) :  -0.1001 B( 23-H , 25-C ) :   0.1979
B( 24-H , 25-C ) :   0.1364 B( 25-C , 26-O ) :   1.0091 B( 25-C , 27-H ) :   0.9354
B( 25-C , 28-H ) :   0.7751 B( 26-O , 30-H ) :   0.4346 B( 30-H , 31-H ) :  -0.1128

Dispersion correction           -0.053571103
FINAL SINGLE POINT ENERGY      -484.946443740733

DIPOLE MOMENT
-------------
                                X             Y             Z
Electronic contribution:      2.10944       0.89979       2.54888
Nuclear contribution   :      0.61785      -1.47632      -2.91844
                        -----------------------------------------
Total Dipole Moment    :      2.72728      -0.57654      -0.36956
                        -----------------------------------------
Magnitude (a.u.)       :      2.81195
Magnitude (Debye)      :      7.14740

Rotational constants in cm-1:     0.040993     0.027400     0.018162
Rotational constants in MHz :  1228.944366   821.418004   544.476857

                             ****ORCA TERMINATED NORMALLY****
TOTAL RUN TIME: 0 days 0 hours 2 minutes 16 seconds 156 msec
