                         Program Version 5.0.0 -  RELEASE  -
|  1> !B3LYP D3BJ RIJCOSX def2-SVPD def2/J TightSCF
|  2> *xyz 0 1
|  3> C         -0.95121        1.33498       -0.97250
|  4> C         -0.77455        2.78833       -0.54394
|  5> H         -1.35261        3.45937       -1.19259
|  6> H         -1.17101        2.90233        0.46997
|  7> C          0.69721        3.22791       -0.52513
|  8> F          1.48929        2.37470        0.19919
|  9> H          0.71600        4.26403       -0.13077
| 10> H          1.03615        3.33092       -1.58367
| 11> H         -0.56808        1.20618       -1.96322
| 12> H         -1.99081        1.08225       -0.95647
| 13> H         -0.41866        0.69710       -0.29841
| 14> *
| 15>
| 16> %MaxCore 64000
| 17> %pal nprocs 4
| 18> end
| 19>
| 20> %scf
| 21>   MaxIter 150
| 22> end
| 23>
| 24>
| 25>                          ****END OF INPUT****

CARTESIAN COORDINATES (ANGSTROEM)
---------------------------------
  C     -0.951210    1.334980   -0.972500
  C     -0.774550    2.788330   -0.543940
  H     -1.352610    3.459370   -1.192590
  H     -1.171010    2.902330    0.469970
  C      0.697210    3.227910   -0.525130
  F      1.489290    2.374700    0.199190
  H      0.716000    4.264030   -0.130770
  H      1.036150    3.330920   -1.583670
  H     -0.568080    1.206180   -1.963220
  H     -1.990810    1.082250   -0.956470
  H     -0.418660    0.697100   -0.298410

 Total Charge           Charge          ....    0
 Multiplicity           Mult            ....    1
 Number of Electrons    NEL             ....   34
 Basis Dimension        Dim             ....  139

ORBITAL ENERGIES
----------------

  NO   OCC          E(Eh)            E(eV)
   0   2.0000     -24.687305      -671.7757
   1   2.0000     -10.262638      -279.2606
   2   2.0000     -10.189514      -277.2708
   3   2.0000     -10.169807      -276.7345
   4   2.0000      -1.184990       -32.2452
   5   2.0000      -0.782705       -21.2985
   6   2.0000      -0.684623       -18.6295
   7   2.0000      -0.592126       -16.1126
   8   2.0000      -0.512110       -13.9352
   9   2.0000      -0.494457       -13.4549
  10   2.0000      -0.473290       -12.8789
  11   2.0000      -0.437217       -11.8973
  12   2.0000      -0.400380       -10.8949
  13   2.0000      -0.376772       -10.2525
  14   2.0000      -0.356513        -9.7012
  15   2.0000      -0.329499        -8.9661
  16   2.0000      -0.327314        -8.9067
  17   0.0000       0.019561         0.5323
  18   0.0000       0.045091         1.2270
  19   0.0000       0.055258         1.5036
  20   0.0000       0.067030         1.8240
  21   0.0000       0.089136         2.4255

MULLIKEN ATOMIC CHARGES
-----------------------
   0 C :    0.854844
   1 C :   -0.331488
   2 H :   -0.157740
   3 H :   -0.138747
   4 C :    0.867891
   5 F :   -0.443530
   6 H :   -0.161320
   7 H :   -0.102165
   8 H :   -0.132055
   9 H :   -0.156292
  10 H :   -0.099398
Sum of atomic charges:   -0.0000000

LOEWDIN ATOMIC CHARGES
----------------------
   0 C :    0.129005
   1 C :   -0.062324
   2 H :    0.024554
   3 H :    0.018969
   4 C :    0.099660
   5 F :   -0.208829
   6 H :    0.026525
   7 H :    0.033383
   8 H :   -0.019010
   9 H :   -0.021985
  10 H :   -0.019950

  Mayer bond orders larger than 0.100000
B(  0-C ,  1-C ) :   1.3058 B(  0-C ,  8-H ) :   0.7688 B(  0-C ,  9-H ) :   0.7640
B(  0-C , 10-H ) :   0.7819 B(  1-C ,  2-H ) :   0.9370 B(  1-C ,  3-H ) :   0.9066
B(  1-C ,  4-C ) :   1.1915 B(  1-C ,  6-H ) :   0.1348 B(  1-C ,  7-H ) :   0.1264
B(  1-C ,  8-H ) :   0.2025 B(  1-C ,  9-H ) :   0.2180 B(  1-C , 10-H ) :   0.2061
B(  4-C ,  5-F ) :   0.7284 B(  4-C ,  6-H ) :   0.8728 B(  4-C ,  7-H ) :   0.8653

Dispersion correction           -0.010350443
FINAL SINGLE POINT ENERGY      -218.110457696872

DIPOLE MOMENT
-------------
                                X             Y             Z
Electronic contribution:      5.50358       0.35260       2.73888
Nuclear contribution   :     -6.00193       0.02246      -3.08821
                        -----------------------------------------
Total Dipole Moment    :     -0.49835       0.37506      -0.34932
                        -----------------------------------------
Magnitude (a.u.)       :      0.71488
Magnitude (Debye)      :      1.81707

Rotational constants in cm-1:     0.475356     0.173608     0.142756
Rotational constants in MHz : 14250.818869  5204.623090  4279.716550

                             ****ORCA TERMINATED NORMALLY****
TOTAL RUN TIME: 0 days 0 hours 0 minutes 8 seconds 703 msec
