                         Program Version 5.0.0 -  RELEASE  -
|  1> !B3LYP D3BJ RIJCOSX def2-SVPD def2/J TightSCF
|  2> *xyz 0 1
|  3> C          3.95643        0.50147       -0.37910
|  4> H          3.16840        0.02920        0.20738
|  5> C          3.80389        1.96157       -0.15675
|  6> C          3.84232        0.14849       -1.85406
|  7> H          4.92323        0.17798        0.00937
|  8> H          4.62002        0.69450       -2.40215
|  9> H          4.09601       -0.91093       -1.95510
| 10> C          2.47562        0.41271       -2.48538
| 11> H          4.20643        2.24441        0.74536
| 12> H          2.80827        2.21132       -0.09610
| 13> H          4.28076        2.50155       -0.89104
| 14> H          2.49958        0.13290       -3.51787
| 15> H          2.23992        1.45318       -2.40319
| 16> H          1.73061       -0.16300       -1.97702
| 17> *
| 18>
| 19> %MaxCore 64000
| 20> %pal nprocs 4
| 21> end
| 22>
| 23> %scf
| 24>   MaxIter 150
| 25> end
| 26>
| 27>
| 28>                          ****END OF INPUT****

CARTESIAN COORDINATES (ANGSTROEM)
---------------------------------
  C      3.956430    0.501470   -0.379100
  H      3.168400    0.029200    0.207380
  C      3.803890    1.961570   -0.156750
  C      3.842320    0.148490   -1.854060
  H      4.923230    0.177980    0.009370
  H      4.620020    0.694500   -2.402150
  H      4.096010   -0.910930   -1.955100
  C      2.475620    0.412710   -2.485380
  H      4.206430    2.244410    0.745360
  H      2.808270    2.211320   -0.096100
  H      4.280760    2.501550   -0.891040
  H      2.499580    0.132900   -3.517870
  H      2.239920    1.453180   -2.403190
  H      1.730610   -0.163000   -1.977020

 Total Charge           Charge          ....    0
 Multiplicity           Mult            ....    1
 Number of Electrons    NEL             ....   34
 Basis Dimension        Dim             ....  160

ORBITAL ENERGIES
----------------

  NO   OCC          E(Eh)            E(eV)
   0   2.0000     -10.171656      -276.7848
   1   2.0000     -10.167433      -276.6699
   2   2.0000     -10.163217      -276.5552
   3   2.0000     -10.144476      -276.0452
   4   2.0000      -0.795222       -21.6391
   5   2.0000      -0.722113       -19.6497
   6   2.0000      -0.638153       -17.3650
   7   2.0000      -0.561445       -15.2777
   8   2.0000      -0.464489       -12.6394
   9   2.0000      -0.460981       -12.5439
  10   2.0000      -0.426071       -11.5940
  11   2.0000      -0.390198       -10.6178
  12   2.0000      -0.382965       -10.4210
  13   2.0000      -0.363330        -9.8867
  14   2.0000      -0.324981        -8.8432
  15   2.0000      -0.321604        -8.7513
  16   2.0000      -0.319453        -8.6928
  17   0.0000       0.024368         0.6631
  18   0.0000       0.051138         1.3915
  19   0.0000       0.051174         1.3925
  20   0.0000       0.060118         1.6359
  21   0.0000       0.092926         2.5286

MULLIKEN ATOMIC CHARGES
-----------------------
   0 C :   -0.053630
   1 H :   -0.144486
   2 C :    1.226586
   3 C :   -0.202623
   4 H :   -0.206833
   5 H :   -0.071222
   6 H :   -0.213546
   7 C :    0.926991
   8 H :   -0.407877
   9 H :   -0.195146
  10 H :   -0.271288
  11 H :   -0.140664
  12 H :   -0.152970
  13 H :   -0.093292
Sum of atomic charges:    0.0000000

LOEWDIN ATOMIC CHARGES
----------------------
   0 C :   -0.073615
   1 H :    0.020685
   2 C :    0.123188
   3 C :   -0.080884
   4 H :    0.019179
   5 H :    0.018851
   6 H :    0.011383
   7 C :    0.134271
   8 H :   -0.038002
   9 H :   -0.033801
  10 H :   -0.030964
  11 H :   -0.022990
  12 H :   -0.027772
  13 H :   -0.019529

  Mayer bond orders larger than 0.100000
B(  0-C ,  1-H ) :   0.8298 B(  0-C ,  2-C ) :   1.2364 B(  0-C ,  3-C ) :   1.1718
B(  0-C ,  4-H ) :   0.8788 B(  0-C ,  5-H ) :   0.1192 B(  0-C ,  6-H ) :   0.1558
B(  0-C ,  8-H ) :   0.2635 B(  0-C ,  9-H ) :   0.2952 B(  0-C , 10-H ) :   0.2688
B(  1-H ,  2-C ) :   0.1600 B(  1-H ,  3-C ) :   0.1317 B(  2-C ,  8-H ) :   0.5950
B(  2-C ,  9-H ) :   0.6021 B(  2-C , 10-H ) :   0.6429 B(  3-C ,  5-H ) :   0.8624
B(  3-C ,  6-H ) :   0.9196 B(  3-C ,  7-C ) :   1.2828 B(  3-C , 11-H ) :   0.2412
B(  3-C , 12-H ) :   0.2262 B(  3-C , 13-H ) :   0.2199 B(  7-C , 11-H ) :   0.7013
B(  7-C , 12-H ) :   0.7932 B(  7-C , 13-H ) :   0.7527

Dispersion correction           -0.015385526
FINAL SINGLE POINT ENERGY      -158.226031768656

DIPOLE MOMENT
-------------
                                X             Y             Z
Electronic contribution:      0.49710      -0.62585       0.09721
Nuclear contribution   :     -0.48267       0.62853      -0.07145
                        -----------------------------------------
Total Dipole Moment    :      0.01443       0.00268       0.02576
                        -----------------------------------------
Magnitude (a.u.)       :      0.02965
Magnitude (Debye)      :      0.07535

Rotational constants in cm-1:     0.457318     0.164089     0.140183
Rotational constants in MHz : 13710.038687  4919.250587  4202.581436

                             ****ORCA TERMINATED NORMALLY****
TOTAL RUN TIME: 0 days 0 hours 0 minutes 12 seconds 187 msec
