                         Program Version 5.0.0 -  RELEASE  -
|  1> !DLPNO-CCSD(T) aug-cc-pVTZ aug-cc-pVTZ/C TightSCF TightPNO RIJCOSX def2/J
|  2> *xyz -1 1
|  3> C         -5.57236       -5.80780       -0.81644
|  4> S         -6.90318       -4.61903       -0.52846
|  5> O         -8.11485       -5.25093       -0.95701
|  6> O         -6.53271       -3.42684       -1.31485
|  7> O         -6.86563       -4.29496        0.91412
|  8> C         -4.45780       -5.94187        0.22919
|  9> H         -5.17735       -5.54257       -1.79771
| 10> H         -6.07420       -6.76889       -0.92127
| 11> H         -3.75515       -6.68239       -0.09144
| 12> H         -4.88182       -6.23486        1.16689
| 13> H         -3.95908       -5.00189        0.34143
| 14> *
| 15> %MaxCore 64000
| 16>
| 17> %pal nprocs 18
| 18> end
| 19>
| 20> %scf
| 21>   MaxIter 150
| 22> end
| 23>
| 24>                          ****END OF INPUT****

CARTESIAN COORDINATES (ANGSTROEM)
---------------------------------
  C     -5.572360   -5.807800   -0.816440
  S     -6.903180   -4.619030   -0.528460
  O     -8.114850   -5.250930   -0.957010
  O     -6.532710   -3.426840   -1.314850
  O     -6.865630   -4.294960    0.914120
  C     -4.457800   -5.941870    0.229190
  H     -5.177350   -5.542570   -1.797710
  H     -6.074200   -6.768890   -0.921270
  H     -3.755150   -6.682390   -0.091440
  H     -4.881820   -6.234860    1.166890
  H     -3.959080   -5.001890    0.341430

 Total Charge           Charge          ....   -1
 Multiplicity           Mult            ....    1
 Number of Electrons    NEL             ....   58
 Basis Dimension        Dim             ....  395

ORBITAL ENERGIES
----------------

  NO   OCC          E(Eh)            E(eV)
   0   2.0000     -91.983397     -2502.9955
   1   2.0000     -20.337036      -553.3989
   2   2.0000     -20.321961      -552.9887
   3   2.0000     -20.321578      -552.9782
   4   2.0000     -11.095672      -301.9286
   5   2.0000     -11.087862      -301.7161
   6   2.0000      -8.946532      -243.4475
   7   2.0000      -6.632646      -180.4835
   8   2.0000      -6.631394      -180.4494
   9   2.0000      -6.631274      -180.4461
  10   2.0000      -1.270017       -34.5589
  11   2.0000      -1.126944       -30.6657
  12   2.0000      -1.100733       -29.9525
  13   2.0000      -0.906247       -24.6602
  14   2.0000      -0.750865       -20.4321
  15   2.0000      -0.596182       -16.2229
  16   2.0000      -0.498180       -13.5562
  17   2.0000      -0.493361       -13.4250
  18   2.0000      -0.456159       -12.4127
  19   2.0000      -0.444035       -12.0828
  20   2.0000      -0.430391       -11.7115
  21   2.0000      -0.379770       -10.3341
  22   2.0000      -0.376781       -10.2527
  23   2.0000      -0.318510        -8.6671
  24   2.0000      -0.317170        -8.6306
  25   2.0000      -0.276409        -7.5215
  26   2.0000      -0.262475        -7.1423
  27   2.0000      -0.250383        -6.8133
  28   2.0000      -0.226503        -6.1635
  29   0.0000       0.112112         3.0507
  30   0.0000       0.131938         3.5902
  31   0.0000       0.133938         3.6446
  32   0.0000       0.145200         3.9511
  33   0.0000       0.155373         4.2279

MULLIKEN ATOMIC CHARGES
-----------------------
   0 C :   -0.576754
   1 S :    2.216873
   2 O :   -1.037548
   3 O :   -1.038603
   4 O :   -1.036068
   5 C :   -0.915598
   6 H :    0.245069
   7 H :    0.237126
   8 H :    0.284034
   9 H :    0.318167
  10 H :    0.303301
Sum of atomic charges:   -1.0000000

LOEWDIN ATOMIC CHARGES
----------------------
   0 C :    0.126536
   1 S :   -0.388975
   2 O :   -0.051266
   3 O :   -0.083862
   4 O :   -0.077610
   5 C :    0.539217
   6 H :   -0.222157
   7 H :   -0.229435
   8 H :   -0.207079
   9 H :   -0.206665
  10 H :   -0.198704

  Mayer bond orders larger than 0.100000
B(  0-C ,  1-S ) :   0.7936 B(  0-C ,  5-C ) :   0.8524 B(  0-C ,  6-H ) :   0.9587
B(  0-C ,  7-H ) :   0.9709 B(  1-S ,  2-O ) :   1.3014 B(  1-S ,  3-O ) :   1.3110
B(  1-S ,  4-O ) :   1.3040 B(  5-C ,  8-H ) :   0.9669 B(  5-C ,  9-H ) :   0.9137
B(  5-C , 10-H ) :   0.9239

E(0)                                       ...   -700.919399728
E(0)                                       ...   -700.919399728
E(CORR)(strong-pairs)                      ...     -1.302729394
E(CORR)(weak-pairs)                        ...     -0.001281136
E(CORR)(corrected)                         ...     -1.304010530
E(TOT)                                     ...   -702.223410258
E(CCSD(T))                                 ...   -702.279211911
FINAL SINGLE POINT ENERGY      -702.279211911440

DIPOLE MOMENT
-------------
                                X             Y             Z
Electronic contribution:     -6.51302       4.15848      -0.93671
Nuclear contribution   :      8.13140      -5.68016       0.80206
                        -----------------------------------------
Total Dipole Moment    :      1.61839      -1.52168      -0.13465
                        -----------------------------------------
Magnitude (a.u.)       :      2.22549
Magnitude (Debye)      :      5.65676

Rotational constants in cm-1:     0.162101     0.080498     0.079099
Rotational constants in MHz :  4859.669771  2413.267251  2371.338602

                             ****ORCA TERMINATED NORMALLY****
TOTAL RUN TIME: 0 days 0 hours 6 minutes 21 seconds 500 msec
