                         Program Version 5.0.0 -  RELEASE  -
|  1> !DLPNO-CCSD(T) aug-cc-pVTZ aug-cc-pVTZ/C TightSCF TightPNO RIJCOSX def2/J
|  2> *xyz 1 1
|  3> C         -4.38262       -1.67089        1.21620
|  4> N         -5.76354       -1.91517        0.70501
|  5> C         -3.28173       -2.19127        0.29436
|  6> H         -5.84081       -2.11520       -0.30065
|  7> H         -6.40882       -1.14866        0.93612
|  8> H         -6.17478       -2.79061        1.05143
|  9> H         -4.32862       -2.13922        2.19810
| 10> H         -4.26158       -0.59740        1.35725
| 11> H         -3.36057       -1.71407       -0.66008
| 12> H         -3.38775       -3.24919        0.17403
| 13> H         -2.32559       -1.97514        0.72329
| 14> *
| 15> %MaxCore 64000
| 16>
| 17> %pal nprocs 18
| 18> end
| 19>
| 20> %scf
| 21>   MaxIter 150
| 22> end
| 23>
| 24>                          ****END OF INPUT****

CARTESIAN COORDINATES (ANGSTROEM)
---------------------------------
  C     -4.382620   -1.670890    1.216200
  N     -5.763540   -1.915170    0.705010
  C     -3.281730   -2.191270    0.294360
  H     -5.840810   -2.115200   -0.300650
  H     -6.408820   -1.148660    0.936120
  H     -6.174780   -2.790610    1.051430
  H     -4.328620   -2.139220    2.198100
  H     -4.261580   -0.597400    1.357250
  H     -3.360570   -1.714070   -0.660080
  H     -3.387750   -3.249190    0.174030
  H     -2.325590   -1.975140    0.723290

 Total Charge           Charge          ....    1
 Multiplicity           Mult            ....    1
 Number of Electrons    NEL             ....   26
 Basis Dimension        Dim             ....  322

ORBITAL ENERGIES
----------------

  NO   OCC          E(Eh)            E(eV)
   0   2.0000     -15.901419      -432.6996
   1   2.0000     -11.481295      -312.4219
   2   2.0000     -11.396467      -310.1136
   3   2.0000      -1.519574       -41.3497
   4   2.0000      -1.226518       -33.3753
   5   2.0000      -1.071134       -29.1470
   6   2.0000      -0.977592       -26.6016
   7   2.0000      -0.953542       -25.9472
   8   2.0000      -0.867452       -23.6046
   9   2.0000      -0.803492       -21.8641
  10   2.0000      -0.734411       -19.9844
  11   2.0000      -0.712103       -19.3773
  12   2.0000      -0.696825       -18.9616
  13   0.0000      -0.120104        -3.2682
  14   0.0000      -0.083816        -2.2808
  15   0.0000      -0.082159        -2.2357
  16   0.0000      -0.074346        -2.0231
  17   0.0000      -0.046366        -1.2617

MULLIKEN ATOMIC CHARGES
-----------------------
   0 C :   -0.347579
   1 N :    0.104426
   2 C :   -0.896523
   3 H :    0.144223
   4 H :    0.152203
   5 H :    0.157836
   6 H :    0.344738
   7 H :    0.339064
   8 H :    0.334601
   9 H :    0.312552
  10 H :    0.354460
Sum of atomic charges:    1.0000000

LOEWDIN ATOMIC CHARGES
----------------------
   0 C :    0.339836
   1 N :    1.105521
   2 C :    0.665493
   3 H :   -0.134271
   4 H :   -0.119948
   5 H :   -0.130598
   6 H :   -0.116277
   7 H :   -0.117249
   8 H :   -0.169201
   9 H :   -0.169301
  10 H :   -0.154004

  Mayer bond orders larger than 0.100000
B(  0-C ,  1-N ) :   0.8153 B(  0-C ,  2-C ) :   0.8700 B(  0-C ,  6-H ) :   0.8807
B(  0-C ,  7-H ) :   0.8816 B(  1-N ,  3-H ) :   0.9930 B(  1-N ,  4-H ) :   1.0095
B(  1-N ,  5-H ) :   0.9943 B(  2-C ,  8-H ) :   0.8935 B(  2-C ,  9-H ) :   0.9291
B(  2-C , 10-H ) :   0.9011

E(0)                                       ...   -134.667523171
E(0)                                       ...   -134.667523171
E(CORR)(strong-pairs)                      ...     -0.615548227
E(CORR)(weak-pairs)                        ...     -0.000452335
E(CORR)(corrected)                         ...     -0.616000562
E(TOT)                                     ...   -135.283523734
E(CCSD(T))                                 ...   -135.304432055
FINAL SINGLE POINT ENERGY      -135.304432054537

DIPOLE MOMENT
-------------
                                X             Y             Z
Electronic contribution:     -1.81277       0.24172       0.31012
Nuclear contribution   :      0.19437      -0.25358      -0.32106
                        -----------------------------------------
Total Dipole Moment    :     -1.61840      -0.01186      -0.01094
                        -----------------------------------------
Magnitude (a.u.)       :      1.61848
Magnitude (Debye)      :      4.11384

Rotational constants in cm-1:     1.030014     0.272489     0.242697
Rotational constants in MHz : 30879.030706  8169.007780  7275.865152

                             ****ORCA TERMINATED NORMALLY****
TOTAL RUN TIME: 0 days 0 hours 1 minutes 43 seconds 98 msec
