                         Program Version 5.0.0 -  RELEASE  -
|  1> !DLPNO-CCSD(T) aug-cc-pVTZ aug-cc-pVTZ/C TightSCF TightPNO RIJCOSX def2/J
|  2> *xyz 0 1
|  3> C         -5.57236       -5.80780       -0.81644
|  4> S         -6.90318       -4.61903       -0.52846
|  5> F         -8.11485       -5.25093       -0.95701
|  6> O         -6.53271       -3.42684       -1.31485
|  7> O         -6.86563       -4.29496        0.91412
|  8> C         -4.45780       -5.94187        0.22919
|  9> H         -5.17735       -5.54257       -1.79771
| 10> H         -6.07420       -6.76889       -0.92127
| 11> H         -3.75515       -6.68239       -0.09144
| 12> H         -4.88182       -6.23486        1.16689
| 13> H         -3.95908       -5.00189        0.34143
| 14> *
| 15> %MaxCore 64000
| 16>
| 17> %pal nprocs 18
| 18> end
| 19>
| 20> %scf
| 21>   MaxIter 150
| 22> end
| 23>
| 24>                          ****END OF INPUT****

CARTESIAN COORDINATES (ANGSTROEM)
---------------------------------
  C     -5.572360   -5.807800   -0.816440
  S     -6.903180   -4.619030   -0.528460
  F     -8.114850   -5.250930   -0.957010
  O     -6.532710   -3.426840   -1.314850
  O     -6.865630   -4.294960    0.914120
  C     -4.457800   -5.941870    0.229190
  H     -5.177350   -5.542570   -1.797710
  H     -6.074200   -6.768890   -0.921270
  H     -3.755150   -6.682390   -0.091440
  H     -4.881820   -6.234860    1.166890
  H     -3.959080   -5.001890    0.341430

 Total Charge           Charge          ....    0
 Multiplicity           Mult            ....    1
 Number of Electrons    NEL             ....   58
 Basis Dimension        Dim             ....  395

ORBITAL ENERGIES
----------------

  NO   OCC          E(Eh)            E(eV)
   0   2.0000     -92.252593     -2510.3207
   1   2.0000     -26.440421      -719.4804
   2   2.0000     -20.558703      -559.4308
   3   2.0000     -20.558579      -559.4274
   4   2.0000     -11.299579      -307.4772
   5   2.0000     -11.249525      -306.1151
   6   2.0000      -9.215909      -250.7776
   7   2.0000      -6.903341      -187.8495
   8   2.0000      -6.899488      -187.7446
   9   2.0000      -6.898577      -187.7198
  10   2.0000      -1.812759       -49.3277
  11   2.0000      -1.438806       -39.1519
  12   2.0000      -1.330901       -36.2157
  13   2.0000      -1.098830       -29.9007
  14   2.0000      -0.997583       -27.1456
  15   2.0000      -0.918545       -24.9949
  16   2.0000      -0.837897       -22.8003
  17   2.0000      -0.829969       -22.5846
  18   2.0000      -0.763314       -20.7708
  19   2.0000      -0.670459       -18.2441
  20   2.0000      -0.664702       -18.0874
  21   2.0000      -0.621658       -16.9162
  22   2.0000      -0.594081       -16.1658
  23   2.0000      -0.562632       -15.3100
  24   2.0000      -0.549537       -14.9537
  25   2.0000      -0.544441       -14.8150
  26   2.0000      -0.490527       -13.3479
  27   2.0000      -0.475013       -12.9258
  28   2.0000      -0.467718       -12.7273
  29   0.0000       0.021674         0.5898
  30   0.0000       0.035918         0.9774
  31   0.0000       0.039817         1.0835
  32   0.0000       0.049312         1.3418
  33   0.0000       0.063820         1.7366

MULLIKEN ATOMIC CHARGES
-----------------------
   0 C :   -0.537489
   1 S :    2.121406
   2 F :   -0.483091
   3 O :   -0.879605
   4 O :   -0.877042
   5 C :   -0.876015
   6 H :    0.284432
   7 H :    0.278287
   8 H :    0.316923
   9 H :    0.330887
  10 H :    0.321308
Sum of atomic charges:   -0.0000000

LOEWDIN ATOMIC CHARGES
----------------------
   0 C :    0.179915
   1 S :   -0.100786
   2 F :    0.291482
   3 O :    0.003556
   4 O :    0.006222
   5 C :    0.587506
   6 H :   -0.202212
   7 H :   -0.211008
   8 H :   -0.179442
   9 H :   -0.192115
  10 H :   -0.183119

  Mayer bond orders larger than 0.100000
B(  0-C ,  1-S ) :   0.8659 B(  0-C ,  5-C ) :   0.8658 B(  0-C ,  6-H ) :   0.9350
B(  0-C ,  7-H ) :   0.9216 B(  1-S ,  2-F ) :   0.5596 B(  1-S ,  3-O ) :   1.5096
B(  1-S ,  4-O ) :   1.5069 B(  5-C ,  8-H ) :   0.9338 B(  5-C ,  9-H ) :   0.9022
B(  5-C , 10-H ) :   0.9136

E(0)                                       ...   -725.411576477
E(0)                                       ...   -725.411576477
E(CORR)(strong-pairs)                      ...     -1.308132324
E(CORR)(weak-pairs)                        ...     -0.001264059
E(CORR)(corrected)                         ...     -1.309396383
E(TOT)                                     ...   -726.720972860
E(CCSD(T))                                 ...   -726.774504294
FINAL SINGLE POINT ENERGY      -726.774504293964

DIPOLE MOMENT
-------------
                                X             Y             Z
Electronic contribution:     -9.34838       3.37721      -1.91881
Nuclear contribution   :      9.80704      -5.24335       1.35017
                        -----------------------------------------
Total Dipole Moment    :      0.45866      -1.86614      -0.56864
                        -----------------------------------------
Magnitude (a.u.)       :      2.00405
Magnitude (Debye)      :      5.09388

Rotational constants in cm-1:     0.156316     0.078308     0.076228
Rotational constants in MHz :  4686.224999  2347.601204  2285.245115

                             ****ORCA TERMINATED NORMALLY****
TOTAL RUN TIME: 0 days 0 hours 5 minutes 41 seconds 670 msec
