                         Program Version 5.0.0 -  RELEASE  -
|  1> !DLPNO-CCSD(T) aug-cc-pVTZ aug-cc-pVTZ/C TightSCF TightPNO RIJCOSX def2/J
|  2> *xyz 0 1
|  3> C         -4.38262       -1.67089        1.21620
|  4> C         -5.76354       -1.91517        0.70501
|  5> C         -3.28173       -2.19127        0.29436
|  6> H         -5.84081       -2.11520       -0.30065
|  7> H         -6.40882       -1.14866        0.93612
|  8> H         -6.17478       -2.79061        1.05143
|  9> H         -4.32862       -2.13922        2.19810
| 10> H         -4.26158       -0.59740        1.35725
| 11> H         -3.36057       -1.71407       -0.66008
| 12> H         -3.38775       -3.24919        0.17403
| 13> H         -2.32559       -1.97514        0.72329
| 14> *
| 15> %MaxCore 64000
| 16>
| 17> %pal nprocs 18
| 18> end
| 19>
| 20> %scf
| 21>   MaxIter 150
| 22> end
| 23>
| 24>                          ****END OF INPUT****

CARTESIAN COORDINATES (ANGSTROEM)
---------------------------------
  C     -4.382620   -1.670890    1.216200
  C     -5.763540   -1.915170    0.705010
  C     -3.281730   -2.191270    0.294360
  H     -5.840810   -2.115200   -0.300650
  H     -6.408820   -1.148660    0.936120
  H     -6.174780   -2.790610    1.051430
  H     -4.328620   -2.139220    2.198100
  H     -4.261580   -0.597400    1.357250
  H     -3.360570   -1.714070   -0.660080
  H     -3.387750   -3.249190    0.174030
  H     -2.325590   -1.975140    0.723290

 Total Charge           Charge          ....    0
 Multiplicity           Mult            ....    1
 Number of Electrons    NEL             ....   26
 Basis Dimension        Dim             ....  322

ORBITAL ENERGIES
----------------

  NO   OCC          E(Eh)            E(eV)
   0   2.0000     -11.209183      -305.0174
   1   2.0000     -11.200421      -304.7789
   2   2.0000     -11.178256      -304.1758
   3   2.0000      -1.062768       -28.9194
   4   2.0000      -0.941812       -25.6280
   5   2.0000      -0.808990       -22.0137
   6   2.0000      -0.631086       -17.1727
   7   2.0000      -0.605467       -16.4756
   8   2.0000      -0.566650       -15.4193
   9   2.0000      -0.539310       -14.6754
  10   2.0000      -0.482551       -13.1309
  11   2.0000      -0.472799       -12.8655
  12   2.0000      -0.463517       -12.6129
  13   0.0000       0.032928         0.8960
  14   0.0000       0.040578         1.1042
  15   0.0000       0.041897         1.1401
  16   0.0000       0.043279         1.1777
  17   0.0000       0.063368         1.7243

MULLIKEN ATOMIC CHARGES
-----------------------
   0 C :   -0.344166
   1 C :   -1.041639
   2 C :   -0.929039
   3 H :    0.322719
   4 H :    0.291688
   5 H :    0.313313
   6 H :    0.268379
   7 H :    0.237933
   8 H :    0.298989
   9 H :    0.290695
  10 H :    0.291128
Sum of atomic charges:    0.0000000

LOEWDIN ATOMIC CHARGES
----------------------
   0 C :    0.268735
   1 C :    0.613310
   2 C :    0.601945
   3 H :   -0.214689
   4 H :   -0.202759
   5 H :   -0.213725
   6 H :   -0.149148
   7 H :   -0.151250
   8 H :   -0.183791
   9 H :   -0.181791
  10 H :   -0.186839

  Mayer bond orders larger than 0.100000
B(  0-C ,  1-C ) :   0.7949 B(  0-C ,  2-C ) :   0.8377 B(  0-C ,  6-H ) :   0.9484
B(  0-C ,  7-H ) :   0.9684 B(  1-C ,  3-H ) :   0.9063 B(  1-C ,  4-H ) :   0.9622
B(  1-C ,  5-H ) :   0.9448 B(  2-C ,  8-H ) :   0.9313 B(  2-C ,  9-H ) :   0.9318
B(  2-C , 10-H ) :   0.9678

E(0)                                       ...   -118.292831276
E(0)                                       ...   -118.292831276
E(CORR)(strong-pairs)                      ...     -0.590417865
E(CORR)(weak-pairs)                        ...     -0.000441851
E(CORR)(corrected)                         ...     -0.590859716
E(TOT)                                     ...   -118.883690992
E(CCSD(T))                                 ...   -118.904197264
FINAL SINGLE POINT ENERGY      -118.904197264157

DIPOLE MOMENT
-------------
                                X             Y             Z
Electronic contribution:      0.18892       0.23850       0.33449
Nuclear contribution   :     -0.21528      -0.24783      -0.32864
                        -----------------------------------------
Total Dipole Moment    :     -0.02636      -0.00932       0.00585
                        -----------------------------------------
Magnitude (a.u.)       :      0.02856
Magnitude (Debye)      :      0.07260

Rotational constants in cm-1:     1.037566     0.286459     0.254172
Rotational constants in MHz : 31105.431429  8587.814531  7619.871198

                             ****ORCA TERMINATED NORMALLY****
TOTAL RUN TIME: 0 days 0 hours 1 minutes 58 seconds 259 msec
