                         Program Version 5.0.0 -  RELEASE  -
|  1> !DLPNO-CCSD(T) aug-cc-pVTZ aug-cc-pVTZ/C TightSCF TightPNO RIJCOSX def2/J
|  2> *xyz 0 1
|  3> C         -5.57236       -5.80780       -0.81644
|  4> S         -6.90318       -4.61903       -0.52846
|  5> O         -8.11485       -5.25093       -0.95701
|  6> F         -6.53271       -3.42684       -1.31485
|  7> O         -6.86563       -4.29496        0.91412
|  8> C         -4.45780       -5.94187        0.22919
|  9> H         -5.17735       -5.54257       -1.79771
| 10> H         -6.07420       -6.76889       -0.92127
| 11> H         -3.75515       -6.68239       -0.09144
| 12> H         -4.88182       -6.23486        1.16689
| 13> H         -3.95908       -5.00189        0.34143
| 14> *
| 15> %MaxCore 64000
| 16>
| 17> %pal nprocs 18
| 18> end
| 19>
| 20> %scf
| 21>   MaxIter 150
| 22> end
| 23>
| 24>                          ****END OF INPUT****

CARTESIAN COORDINATES (ANGSTROEM)
---------------------------------
  C     -5.572360   -5.807800   -0.816440
  S     -6.903180   -4.619030   -0.528460
  O     -8.114850   -5.250930   -0.957010
  F     -6.532710   -3.426840   -1.314850
  O     -6.865630   -4.294960    0.914120
  C     -4.457800   -5.941870    0.229190
  H     -5.177350   -5.542570   -1.797710
  H     -6.074200   -6.768890   -0.921270
  H     -3.755150   -6.682390   -0.091440
  H     -4.881820   -6.234860    1.166890
  H     -3.959080   -5.001890    0.341430

 Total Charge           Charge          ....    0
 Multiplicity           Mult            ....    1
 Number of Electrons    NEL             ....   58
 Basis Dimension        Dim             ....  395

ORBITAL ENERGIES
----------------

  NO   OCC          E(Eh)            E(eV)
   0   2.0000     -92.251397     -2510.2881
   1   2.0000     -26.417015      -718.8435
   2   2.0000     -20.574078      -559.8491
   3   2.0000     -20.558043      -559.4128
   4   2.0000     -11.298792      -307.4558
   5   2.0000     -11.249275      -306.1083
   6   2.0000      -9.214432      -250.7374
   7   2.0000      -6.901992      -187.8128
   8   2.0000      -6.898142      -187.7080
   9   2.0000      -6.897115      -187.6800
  10   2.0000      -1.772614       -48.2353
  11   2.0000      -1.459473       -39.7143
  12   2.0000      -1.348286       -36.6887
  13   2.0000      -1.098361       -29.8879
  14   2.0000      -0.979935       -26.6654
  15   2.0000      -0.908512       -24.7219
  16   2.0000      -0.810683       -22.0598
  17   2.0000      -0.807564       -21.9749
  18   2.0000      -0.761280       -20.7155
  19   2.0000      -0.673964       -18.3395
  20   2.0000      -0.663204       -18.0467
  21   2.0000      -0.640637       -17.4326
  22   2.0000      -0.598117       -16.2756
  23   2.0000      -0.566777       -15.4228
  24   2.0000      -0.558221       -15.1900
  25   2.0000      -0.544149       -14.8070
  26   2.0000      -0.500855       -13.6289
  27   2.0000      -0.481758       -13.1093
  28   2.0000      -0.479570       -13.0498
  29   0.0000       0.022132         0.6023
  30   0.0000       0.036540         0.9943
  31   0.0000       0.039271         1.0686
  32   0.0000       0.048560         1.3214
  33   0.0000       0.062839         1.7099

MULLIKEN ATOMIC CHARGES
-----------------------
   0 C :   -0.537171
   1 S :    2.169318
   2 O :   -0.890910
   3 F :   -0.498778
   4 O :   -0.883314
   5 C :   -0.882807
   6 H :    0.280919
   7 H :    0.282859
   8 H :    0.316838
   9 H :    0.339108
  10 H :    0.303940
Sum of atomic charges:    0.0000000

LOEWDIN ATOMIC CHARGES
----------------------
   0 C :    0.183070
   1 S :   -0.096888
   2 O :    0.032442
   3 F :    0.256503
   4 O :    0.007058
   5 C :    0.581396
   6 H :   -0.203774
   7 H :   -0.199422
   8 H :   -0.180879
   9 H :   -0.190587
  10 H :   -0.188919

  Mayer bond orders larger than 0.100000
B(  0-C ,  1-S ) :   0.8708 B(  0-C ,  5-C ) :   0.8749 B(  0-C ,  6-H ) :   0.9147
B(  0-C ,  7-H ) :   0.9320 B(  1-S ,  2-O ) :   1.5018 B(  1-S ,  3-F ) :   0.5823
B(  1-S ,  4-O ) :   1.5011 B(  5-C ,  8-H ) :   0.9344 B(  5-C ,  9-H ) :   0.9023
B(  5-C , 10-H ) :   0.9256

E(0)                                       ...   -725.430668795
E(0)                                       ...   -725.430668795
E(CORR)(strong-pairs)                      ...     -1.307102788
E(CORR)(weak-pairs)                        ...     -0.001255422
E(CORR)(corrected)                         ...     -1.308358210
E(TOT)                                     ...   -726.739027005
E(CCSD(T))                                 ...   -726.792256174
FINAL SINGLE POINT ENERGY      -726.792256173686

DIPOLE MOMENT
-------------
                                X             Y             Z
Electronic contribution:     -6.54410       6.62673      -2.57495
Nuclear contribution   :      8.15840      -7.14411       1.72305
                        -----------------------------------------
Total Dipole Moment    :      1.61430      -0.51738      -0.85190
                        -----------------------------------------
Magnitude (a.u.)       :      1.89720
Magnitude (Debye)      :      4.82230

Rotational constants in cm-1:     0.153926     0.078297     0.077402
Rotational constants in MHz :  4614.585804  2347.272644  2320.438903

                             ****ORCA TERMINATED NORMALLY****
TOTAL RUN TIME: 0 days 0 hours 6 minutes 29 seconds 53 msec
