                         Program Version 5.0.0 -  RELEASE  -
|  1> !DLPNO-CCSD(T) aug-cc-pVTZ aug-cc-pVTZ/C TightSCF TightPNO RIJCOSX def2/J
|  2> *xyz 0 1
|  3> C         -5.57236       -5.80780       -0.81644
|  4> S         -6.90318       -4.61903       -0.52846
|  5> O         -8.11485       -5.25093       -0.95701
|  6> O         -6.53271       -3.42684       -1.31485
|  7> F         -6.86563       -4.29496        0.91412
|  8> C         -4.45780       -5.94187        0.22919
|  9> H         -5.17735       -5.54257       -1.79771
| 10> H         -6.07420       -6.76889       -0.92127
| 11> H         -3.75515       -6.68239       -0.09144
| 12> H         -4.88182       -6.23486        1.16689
| 13> H         -3.95908       -5.00189        0.34143
| 14> *
| 15> %MaxCore 64000
| 16>
| 17> %pal nprocs 18
| 18> end
| 19>
| 20> %scf
| 21>   MaxIter 150
| 22> end
| 23>
| 24>                          ****END OF INPUT****

CARTESIAN COORDINATES (ANGSTROEM)
---------------------------------
  C     -5.572360   -5.807800   -0.816440
  S     -6.903180   -4.619030   -0.528460
  O     -8.114850   -5.250930   -0.957010
  O     -6.532710   -3.426840   -1.314850
  F     -6.865630   -4.294960    0.914120
  C     -4.457800   -5.941870    0.229190
  H     -5.177350   -5.542570   -1.797710
  H     -6.074200   -6.768890   -0.921270
  H     -3.755150   -6.682390   -0.091440
  H     -4.881820   -6.234860    1.166890
  H     -3.959080   -5.001890    0.341430

 Total Charge           Charge          ....    0
 Multiplicity           Mult            ....    1
 Number of Electrons    NEL             ....   58
 Basis Dimension        Dim             ....  395

ORBITAL ENERGIES
----------------

  NO   OCC          E(Eh)            E(eV)
   0   2.0000     -92.250724     -2510.2698
   1   2.0000     -26.415284      -718.7964
   2   2.0000     -20.573817      -559.8420
   3   2.0000     -20.557629      -559.4015
   4   2.0000     -11.298039      -307.4353
   5   2.0000     -11.257090      -306.3210
   6   2.0000      -9.213856      -250.7218
   7   2.0000      -6.901544      -187.8006
   8   2.0000      -6.897331      -187.6859
   9   2.0000      -6.896632      -187.6669
  10   2.0000      -1.769411       -48.1481
  11   2.0000      -1.460168       -39.7332
  12   2.0000      -1.349221       -36.7142
  13   2.0000      -1.101700       -29.9788
  14   2.0000      -0.976707       -26.5776
  15   2.0000      -0.912835       -24.8395
  16   2.0000      -0.814258       -22.1571
  17   2.0000      -0.807001       -21.9596
  18   2.0000      -0.754442       -20.5294
  19   2.0000      -0.676126       -18.3983
  20   2.0000      -0.663437       -18.0530
  21   2.0000      -0.631795       -17.1920
  22   2.0000      -0.614992       -16.7348
  23   2.0000      -0.574688       -15.6381
  24   2.0000      -0.556196       -15.1349
  25   2.0000      -0.550048       -14.9676
  26   2.0000      -0.499644       -13.5960
  27   2.0000      -0.483132       -13.1467
  28   2.0000      -0.478470       -13.0198
  29   0.0000       0.021635         0.5887
  30   0.0000       0.035916         0.9773
  31   0.0000       0.038906         1.0587
  32   0.0000       0.047267         1.2862
  33   0.0000       0.061266         1.6671

MULLIKEN ATOMIC CHARGES
-----------------------
   0 C :   -0.517634
   1 S :    2.191888
   2 O :   -0.890715
   3 O :   -0.889999
   4 F :   -0.517763
   5 C :   -0.899745
   6 H :    0.300456
   7 H :    0.280384
   8 H :    0.314547
   9 H :    0.319839
  10 H :    0.308741
Sum of atomic charges:    0.0000000

LOEWDIN ATOMIC CHARGES
----------------------
   0 C :    0.183445
   1 S :   -0.097907
   2 O :    0.032578
   3 O :    0.002727
   4 F :    0.255380
   5 C :    0.581273
   6 H :   -0.190833
   7 H :   -0.206406
   8 H :   -0.178327
   9 H :   -0.193476
  10 H :   -0.188454

  Mayer bond orders larger than 0.100000
B(  0-C ,  1-S ) :   0.8522 B(  0-C ,  5-C ) :   0.8601 B(  0-C ,  6-H ) :   0.9167
B(  0-C ,  7-H ) :   0.9395 B(  1-S ,  2-O ) :   1.5006 B(  1-S ,  3-O ) :   1.4978
B(  1-S ,  4-F ) :   0.5671 B(  5-C ,  8-H ) :   0.9486 B(  5-C ,  9-H ) :   0.9090
B(  5-C , 10-H ) :   0.9176

E(0)                                       ...   -725.431222930
E(0)                                       ...   -725.431222930
E(CORR)(strong-pairs)                      ...     -1.306740880
E(CORR)(weak-pairs)                        ...     -0.001254260
E(CORR)(corrected)                         ...     -1.307995140
E(TOT)                                     ...   -726.739218070
E(CCSD(T))                                 ...   -726.792342378
FINAL SINGLE POINT ENERGY      -726.792342377999

DIPOLE MOMENT
-------------
                                X             Y             Z
Electronic contribution:     -7.11423       5.04946       1.39105
Nuclear contribution   :      8.50531      -6.23950      -0.59960
                        -----------------------------------------
Total Dipole Moment    :      1.39108      -1.19004       0.79145
                        -----------------------------------------
Magnitude (a.u.)       :      1.99441
Magnitude (Debye)      :      5.06940

Rotational constants in cm-1:     0.152799     0.080212     0.076962
Rotational constants in MHz :  4580.804531  2404.707790  2307.252710

                             ****ORCA TERMINATED NORMALLY****
TOTAL RUN TIME: 0 days 0 hours 6 minutes 26 seconds 997 msec
