                         Program Version 5.0.0 -  RELEASE  -
|  1> !DLPNO-CCSD(T) aug-cc-pVTZ aug-cc-pVTZ/C TightSCF TightPNO RIJCOSX def2/J
|  2>
|  3> *xyzfile 0 1 D2.xyz
|  4>
|  5> %MaxCore 64000
|  6>
|  7> %pal nprocs 18
|  8> end
|  9>
| 10> %scf
| 11>   MaxIter 150
| 12> end
| 13>
| 14>
| 15>                          ****END OF INPUT****

CARTESIAN COORDINATES (ANGSTROEM)
---------------------------------
  C     -4.382623   -1.670889    1.216201
  C     -5.763539   -1.915170    0.705012
  C     -3.281728   -2.191272    0.294361
  C     -5.572364   -5.807798   -0.816445
  S     -6.903179   -4.619033   -0.528458
  H     -5.840812   -2.115205   -0.300646
  H     -6.408823   -1.148656    0.936124
  H     -6.174781   -2.790606    1.051433
  O     -8.114853   -5.250932   -0.957007
  F     -6.532715   -3.426838   -1.314848
  H     -4.328618   -2.139223    2.198103
  H     -4.261583   -0.597399    1.357248
  O     -6.865632   -4.294957    0.914118
  C     -3.474641   -3.605898   -0.259608
  H     -2.354548   -2.127602    0.871433
  H     -3.166611   -1.499693   -0.545037
  C     -3.827078   -4.661097    0.786174
  H     -2.560559   -3.889391   -0.788050
  H     -4.255932   -3.570040   -1.019300
  C     -4.457800   -5.941875    0.229195
  H     -5.177347   -5.542575   -1.797714
  H     -6.074202   -6.768894   -0.921272
  H     -4.530506   -4.253640    1.511979
  H     -2.933400   -4.932302    1.356825
  H     -3.681064   -6.562236   -0.229885
  H     -4.843942   -6.512728    1.075805

 Total Charge           Charge          ....    0
 Multiplicity           Mult            ....    1
 Number of Electrons    NEL             ....   98
 Basis Dimension        Dim             ....  855

ORBITAL ENERGIES
----------------

  NO   OCC          E(Eh)            E(eV)
   0   2.0000     -92.255702     -2510.4053
   1   2.0000     -26.419038      -718.8986
   2   2.0000     -20.577154      -559.9328
   3   2.0000     -20.559449      -559.4511
   4   2.0000     -11.298252      -307.4411
   5   2.0000     -11.256444      -306.3034
   6   2.0000     -11.227679      -305.5207
   7   2.0000     -11.226090      -305.4774
   8   2.0000     -11.214486      -305.1617
   9   2.0000     -11.199141      -304.7441
  10   2.0000     -11.142973      -303.2157
  11   2.0000      -9.218881      -250.8585
  12   2.0000      -6.906444      -187.9339
  13   2.0000      -6.902512      -187.8269
  14   2.0000      -6.901521      -187.7999
  15   2.0000      -1.780591       -48.4524
  16   2.0000      -1.465467       -39.8774
  17   2.0000      -1.359028       -36.9810
  18   2.0000      -1.120936       -30.5022
  19   2.0000      -1.081254       -29.4224
  20   2.0000      -1.021452       -27.7951
  21   2.0000      -0.986345       -26.8398
  22   2.0000      -0.939134       -25.5551
  23   2.0000      -0.893981       -24.3265
  24   2.0000      -0.844977       -22.9930
  25   2.0000      -0.818650       -22.2766
  26   2.0000      -0.802427       -21.8352
  27   2.0000      -0.766690       -20.8627
  28   2.0000      -0.762578       -20.7508
  29   2.0000      -0.681073       -18.5329
  30   2.0000      -0.665402       -18.1065
  31   2.0000      -0.650921       -17.7125
  32   2.0000      -0.646067       -17.5804
  33   2.0000      -0.625685       -17.0257
  34   2.0000      -0.603382       -16.4189
  35   2.0000      -0.584969       -15.9178
  36   2.0000      -0.571242       -15.5443
  37   2.0000      -0.557036       -15.1577
  38   2.0000      -0.547651       -14.9023
  39   2.0000      -0.542373       -14.7587
  40   2.0000      -0.513340       -13.9687
  41   2.0000      -0.509824       -13.8730
  42   2.0000      -0.502668       -13.6783
  43   2.0000      -0.491808       -13.3828
  44   2.0000      -0.471158       -12.8209
  45   2.0000      -0.465497       -12.6668
  46   2.0000      -0.449136       -12.2216
  47   2.0000      -0.447215       -12.1693
  48   2.0000      -0.419663       -11.4196
  49   0.0000       0.022105         0.6015
  50   0.0000       0.031441         0.8556
  51   0.0000       0.032153         0.8749
  52   0.0000       0.038634         1.0513
  53   0.0000       0.047153         1.2831

MULLIKEN ATOMIC CHARGES
-----------------------
   0 C :   -0.301510
   1 C :   -1.166224
   2 C :   -0.573896
   3 C :   -0.534881
   4 S :    2.561876
   5 H :    0.340618
   6 H :    0.223607
   7 H :    0.581259
   8 O :   -1.066833
   9 F :   -0.578854
  10 H :    0.132852
  11 H :    0.273689
  12 O :   -0.956895
  13 C :   -0.336628
  14 H :    0.135697
  15 H :    0.181856
  16 C :   -0.258969
  17 H :    0.355017
  18 H :    0.134309
  19 C :   -0.584845
  20 H :    0.212443
  21 H :    0.232231
  22 H :    0.152236
  23 H :    0.400839
  24 H :    0.231814
  25 H :    0.209196
Sum of atomic charges:    0.0000000

LOEWDIN ATOMIC CHARGES
----------------------
   0 C :    0.300307
   1 C :    0.577490
   2 C :    0.307976
   3 C :    0.223269
   4 S :    0.075777
   5 H :   -0.378810
   6 H :   -0.178037
   7 H :   -0.536130
   8 O :    0.055331
   9 F :    0.391252
  10 H :   -0.145689
  11 H :   -0.141987
  12 O :    0.216564
  13 C :    0.290594
  14 H :   -0.144616
  15 H :   -0.138869
  16 C :    0.291916
  17 H :   -0.132295
  18 H :   -0.217130
  19 C :    0.284332
  20 H :   -0.195576
  21 H :   -0.187597
  22 H :   -0.207359
  23 H :   -0.125568
  24 H :   -0.139458
  25 H :   -0.145685

  Mayer bond orders larger than 0.100000
B(  0-C ,  1-C ) :   0.7682 B(  0-C ,  2-C ) :   0.8045 B(  0-C , 10-H ) :   1.1007
B(  0-C , 11-H ) :   0.9578 B(  1-C ,  5-H ) :   1.1208 B(  1-C ,  6-H ) :   1.0359
B(  1-C ,  7-H ) :   0.6341 B(  2-C , 13-C ) :   0.8246 B(  2-C , 14-H ) :   1.1205
B(  2-C , 15-H ) :   1.0689 B(  3-C ,  4-S ) :   0.8928 B(  3-C ,  8-O ) :   0.1477
B(  3-C , 12-O ) :   0.1020 B(  3-C , 19-C ) :   0.8745 B(  3-C , 20-H ) :   1.0379
B(  3-C , 21-H ) :   0.8986 B(  4-S ,  8-O ) :   0.8828 B(  4-S ,  9-F ) :   0.6290
B(  4-S , 12-O ) :   1.4313 B(  5-H ,  9-F ) :  -0.2639 B(  7-H ,  9-F ) :   0.1078
B(  8-O , 21-H ) :   0.1612 B( 13-C , 16-C ) :   0.7923 B( 13-C , 17-H ) :   0.8831
B( 13-C , 18-H ) :   1.1775 B( 14-H , 15-H ) :   0.1028 B( 16-C , 19-C ) :   0.8642
B( 16-C , 22-H ) :   1.1498 B( 16-C , 23-H ) :   0.8208 B( 19-C , 24-H ) :   1.0021
B( 19-C , 25-H ) :   1.0490 B( 24-H , 25-H ) :   0.1033

E(0)                                       ...   -920.596071092
E(0)                                       ...   -920.596071092
E(CORR)(strong-pairs)                      ...     -2.258416657
E(CORR)(weak-pairs)                        ...     -0.003267957
E(CORR)(corrected)                         ...     -2.261684614
E(TOT)                                     ...   -922.857755707
E(CCSD(T))                                 ...   -922.950931883
FINAL SINGLE POINT ENERGY      -922.950931882974

DIPOLE MOMENT
-------------
                                X             Y             Z
Electronic contribution:    -15.82359      -5.40630      -7.29452
Nuclear contribution   :     17.25367       4.78608       6.55647
                        -----------------------------------------
Total Dipole Moment    :      1.43008      -0.62022      -0.73805
                        -----------------------------------------
Magnitude (a.u.)       :      1.72468
Magnitude (Debye)      :      4.38378

Rotational constants in cm-1:     0.048508     0.025517     0.020225
Rotational constants in MHz :  1454.219007   764.979652   606.316599

                             ****ORCA TERMINATED NORMALLY****
TOTAL RUN TIME: 0 days 2 hours 12 minutes 38 seconds 253 msec
