                         Program Version 5.0.0 -  RELEASE  -
|  1> !DLPNO-CCSD(T) aug-cc-pVTZ aug-cc-pVTZ/C TightSCF TightPNO RIJCOSX def2/J
|  2>
|  3> *xyzfile 0 1 D3.xyz
|  4>
|  5> %MaxCore 64000
|  6>
|  7> %pal nprocs 18
|  8> end
|  9>
| 10> %scf
| 11>   MaxIter 150
| 12> end
| 13>
| 14>
| 15>                          ****END OF INPUT****

CARTESIAN COORDINATES (ANGSTROEM)
---------------------------------
  C     -4.382623   -1.670889    1.216201
  C     -5.763539   -1.915170    0.705012
  C     -3.281728   -2.191272    0.294361
  C     -5.572364   -5.807798   -0.816445
  S     -6.903179   -4.619033   -0.528458
  H     -5.840812   -2.115205   -0.300646
  H     -6.408823   -1.148656    0.936124
  H     -6.174781   -2.790606    1.051433
  O     -8.114853   -5.250932   -0.957007
  O     -6.532715   -3.426838   -1.314848
  H     -4.328618   -2.139223    2.198103
  H     -4.261583   -0.597399    1.357248
  F     -6.865632   -4.294957    0.914118
  C     -3.474641   -3.605898   -0.259608
  H     -2.354548   -2.127602    0.871433
  H     -3.166611   -1.499693   -0.545037
  C     -3.827078   -4.661097    0.786174
  H     -2.560559   -3.889391   -0.788050
  H     -4.255932   -3.570040   -1.019300
  C     -4.457800   -5.941875    0.229195
  H     -5.177347   -5.542575   -1.797714
  H     -6.074202   -6.768894   -0.921272
  H     -4.530506   -4.253640    1.511979
  H     -2.933400   -4.932302    1.356825
  H     -3.681064   -6.562236   -0.229885
  H     -4.843942   -6.512728    1.075805

 Total Charge           Charge          ....    0
 Multiplicity           Mult            ....    1
 Number of Electrons    NEL             ....   98
 Basis Dimension        Dim             ....  855

ORBITAL ENERGIES
----------------

  NO   OCC          E(Eh)            E(eV)
   0   2.0000     -92.254682     -2510.3775
   1   2.0000     -26.418336      -718.8795
   2   2.0000     -20.576714      -559.9208
   3   2.0000     -20.557904      -559.4090
   4   2.0000     -11.297336      -307.4161
   5   2.0000     -11.261686      -306.4460
   6   2.0000     -11.235279      -305.7275
   7   2.0000     -11.218541      -305.2720
   8   2.0000     -11.211437      -305.0787
   9   2.0000     -11.199634      -304.7575
  10   2.0000     -11.145274      -303.2783
  11   2.0000      -9.217954      -250.8333
  12   2.0000      -6.905667      -187.9127
  13   2.0000      -6.901343      -187.7951
  14   2.0000      -6.900659      -187.7765
  15   2.0000      -1.779999       -48.4362
  16   2.0000      -1.465448       -39.8769
  17   2.0000      -1.357660       -36.9438
  18   2.0000      -1.124179       -30.5905
  19   2.0000      -1.080228       -29.3945
  20   2.0000      -1.021334       -27.7919
  21   2.0000      -0.985366       -26.8132
  22   2.0000      -0.940061       -25.5804
  23   2.0000      -0.893328       -24.3087
  24   2.0000      -0.847914       -23.0729
  25   2.0000      -0.823846       -22.4180
  26   2.0000      -0.810275       -22.0487
  27   2.0000      -0.763265       -20.7695
  28   2.0000      -0.751534       -20.4503
  29   2.0000      -0.675754       -18.3882
  30   2.0000      -0.671449       -18.2711
  31   2.0000      -0.655399       -17.8343
  32   2.0000      -0.640855       -17.4385
  33   2.0000      -0.620631       -16.8882
  34   2.0000      -0.609885       -16.5958
  35   2.0000      -0.590403       -16.0657
  36   2.0000      -0.570881       -15.5345
  37   2.0000      -0.550584       -14.9821
  38   2.0000      -0.548616       -14.9286
  39   2.0000      -0.545538       -14.8448
  40   2.0000      -0.515482       -14.0270
  41   2.0000      -0.511084       -13.9073
  42   2.0000      -0.496328       -13.5058
  43   2.0000      -0.483769       -13.1640
  44   2.0000      -0.478653       -13.0248
  45   2.0000      -0.468413       -12.7462
  46   2.0000      -0.444250       -12.0886
  47   2.0000      -0.443147       -12.0586
  48   2.0000      -0.431486       -11.7413
  49   0.0000       0.021425         0.5830
  50   0.0000       0.031467         0.8563
  51   0.0000       0.031864         0.8671
  52   0.0000       0.038485         1.0472
  53   0.0000       0.047079         1.2811

MULLIKEN ATOMIC CHARGES
-----------------------
   0 C :   -0.306743
   1 C :   -1.159050
   2 C :   -0.587587
   3 C :   -0.516546
   4 S :    2.510226
   5 H :    0.371961
   6 H :    0.217939
   7 H :    0.582722
   8 O :   -1.066909
   9 O :   -0.965979
  10 H :    0.117871
  11 H :    0.280925
  12 F :   -0.577155
  13 C :   -0.306395
  14 H :    0.143543
  15 H :    0.180567
  16 C :   -0.245081
  17 H :    0.365644
  18 H :    0.181373
  19 C :   -0.587391
  20 H :    0.232971
  21 H :    0.236072
  22 H :    0.115613
  23 H :    0.372353
  24 H :    0.209501
  25 H :    0.199556
Sum of atomic charges:    0.0000000

LOEWDIN ATOMIC CHARGES
----------------------
   0 C :    0.297845
   1 C :    0.576160
   2 C :    0.310192
   3 C :    0.224677
   4 S :    0.072220
   5 H :   -0.428448
   6 H :   -0.177786
   7 H :   -0.472094
   8 O :    0.055124
   9 O :    0.188579
  10 H :   -0.150345
  11 H :   -0.140824
  12 F :    0.413736
  13 C :    0.294739
  14 H :   -0.146275
  15 H :   -0.136238
  16 C :    0.290670
  17 H :   -0.132405
  18 H :   -0.228948
  19 C :    0.279501
  20 H :   -0.182020
  21 H :   -0.194104
  22 H :   -0.201054
  23 H :   -0.124744
  24 H :   -0.137362
  25 H :   -0.150793

  Mayer bond orders larger than 0.100000
B(  0-C ,  1-C ) :   0.7760 B(  0-C ,  2-C ) :   0.8007 B(  0-C , 10-H ) :   1.1096
B(  0-C , 11-H ) :   0.9527 B(  1-C ,  5-H ) :   1.0035 B(  1-C ,  6-H ) :   1.0648
B(  1-C ,  7-H ) :   0.7309 B(  2-C , 13-C ) :   0.8283 B(  2-C , 14-H ) :   1.1119
B(  2-C , 15-H ) :   1.0721 B(  3-C ,  4-S ) :   0.8999 B(  3-C ,  8-O ) :   0.1435
B(  3-C , 19-C ) :   0.8548 B(  3-C , 20-H ) :   1.0361 B(  3-C , 21-H ) :   0.9028
B(  4-S ,  8-O ) :   0.8854 B(  4-S ,  9-O ) :   1.4636 B(  4-S , 12-F ) :   0.6771
B(  7-H ,  9-O ) :   0.1687 B(  7-H , 12-F ) :  -0.3062 B(  8-O , 21-H ) :   0.1560
B(  9-O , 18-H ) :  -0.1228 B( 13-C , 16-C ) :   0.7899 B( 13-C , 17-H ) :   0.8628
B( 13-C , 18-H ) :   1.1669 B( 14-H , 15-H ) :   0.1040 B( 16-C , 19-C ) :   0.8622
B( 16-C , 22-H ) :   1.1510 B( 16-C , 23-H ) :   0.8673 B( 19-C , 24-H ) :   1.0314
B( 19-C , 25-H ) :   1.0478

E(0)                                       ...   -920.595831847
E(0)                                       ...   -920.595831847
E(CORR)(strong-pairs)                      ...     -2.257987320
E(CORR)(weak-pairs)                        ...     -0.003286546
E(CORR)(corrected)                         ...     -2.261273866
E(TOT)                                     ...   -922.857105712
E(CCSD(T))                                 ...   -922.950161651
FINAL SINGLE POINT ENERGY      -922.950161651087

DIPOLE MOMENT
-------------
                                X             Y             Z
Electronic contribution:    -16.40193      -6.95069      -3.37138
Nuclear contribution   :     17.63907       5.79106       3.97609
                        -----------------------------------------
Total Dipole Moment    :      1.23714      -1.15963       0.60471
                        -----------------------------------------
Magnitude (a.u.)       :      1.80026
Magnitude (Debye)      :      4.57590

Rotational constants in cm-1:     0.048663     0.025472     0.020259
Rotational constants in MHz :  1458.892793   763.621130   607.350055

                             ****ORCA TERMINATED NORMALLY****
TOTAL RUN TIME: 0 days 2 hours 19 minutes 53 seconds 240 msec
