                         Program Version 5.0.0 -  RELEASE  -
|  1> !DLPNO-CCSD(T) aug-cc-pVTZ aug-cc-pVTZ/C TightSCF TightPNO RIJCOSX def2/J
|  2> *xyz -1 1
|  3> C          1.22302        2.46987       -3.75691
|  4> O          2.35381        1.71203       -3.93448
|  5> H          1.26998        3.33359       -4.38673
|  6> H          1.15671        2.77738       -2.73420
|  7> H          0.36099        1.88932       -4.01140
|  8> *
|  9>
| 10> %MaxCore 64000
| 11>
| 12> %pal nprocs 8
| 13> end
| 14>
| 15> %scf
| 16>   MaxIter 150
| 17> end
| 18>
| 19>
| 20>                          ****END OF INPUT****

CARTESIAN COORDINATES (ANGSTROEM)
---------------------------------
  C      1.223020    2.469870   -3.756910
  O      2.353810    1.712030   -3.934480
  H      1.269980    3.333590   -4.386730
  H      1.156710    2.777380   -2.734200
  H      0.360990    1.889320   -4.011400

 Total Charge           Charge          ....   -1
 Multiplicity           Mult            ....    1
 Number of Electrons    NEL             ....   18
 Basis Dimension        Dim             ....  161

ORBITAL ENERGIES
----------------

  NO   OCC          E(Eh)            E(eV)
   0   2.0000     -20.186100      -549.2917
   1   2.0000     -11.004884      -299.4581
   2   2.0000      -0.972710       -26.4688
   3   2.0000      -0.633337       -17.2340
   4   2.0000      -0.356957        -9.7133
   5   2.0000      -0.356905        -9.7119
   6   2.0000      -0.248160        -6.7528
   7   2.0000      -0.096438        -2.6242
   8   2.0000      -0.096401        -2.6232
   9   0.0000       0.144741         3.9386
  10   0.0000       0.154627         4.2076
  11   0.0000       0.154629         4.2077
  12   0.0000       0.215858         5.8738
  13   0.0000       0.262354         7.1390

MULLIKEN ATOMIC CHARGES
-----------------------
   0 C :   -0.663645
   1 O :   -1.051647
   2 H :    0.237815
   3 H :    0.243515
   4 H :    0.233961
Sum of atomic charges:   -1.0000000

LOEWDIN ATOMIC CHARGES
----------------------
   0 C :   -0.135522
   1 O :    0.036373
   2 H :   -0.300272
   3 H :   -0.300303
   4 H :   -0.300276

  Mayer bond orders larger than 0.100000
B(  0-C ,  1-O ) :   1.0978 B(  0-C ,  2-H ) :   0.9415 B(  0-C ,  3-H ) :   0.9394
B(  0-C ,  4-H ) :   0.9478

E(0)                                       ...   -114.448439317
E(0)                                       ...   -114.448439317
E(CORR)(strong-pairs)                      ...     -0.463355378
E(CORR)(weak-pairs)                        ...     -0.000191096
E(CORR)(corrected)                         ...     -0.463546473
E(TOT)                                     ...   -114.911985791
E(CCSD(T))                                 ...   -114.930131290
FINAL SINGLE POINT ENERGY      -114.930131289684

DIPOLE MOMENT
-------------
                                X             Y             Z
Electronic contribution:      1.49022      -0.99914      -0.23402
Nuclear contribution   :     -2.37854       1.59406       0.37350
                        -----------------------------------------
Total Dipole Moment    :     -0.88832       0.59492       0.13948
                        -----------------------------------------
Magnitude (a.u.)       :      1.07819
Magnitude (Debye)      :      2.74054

Rotational constants in cm-1:     5.477743     0.935515     0.935515
Rotational constants in MHz : 164218.600605 28046.042741 28046.034116

                             ****ORCA TERMINATED NORMALLY****
TOTAL RUN TIME: 0 days 0 hours 1 minutes 5 seconds 970 msec
