                         Program Version 5.0.0 -  RELEASE  -
|  1> !DLPNO-CCSD(T) aug-cc-pVTZ aug-cc-pVTZ/C TightSCF TightPNO RIJCOSX def2/J
|  2> *xyz 1 1
|  3> C          1.63556       -1.67040       -5.29211
|  4> N          2.48451       -0.50741       -5.14039
|  5> C          3.45115       -0.14953       -5.95259
|  6> N          3.92267        1.08956       -5.85071
|  7> N          3.96616       -1.00618       -6.86788
|  8> H          3.52139       -1.90647       -6.99527
|  9> H          4.44482       -0.62347       -7.67035
| 10> H          2.25200        0.24080       -4.49879
| 11> H          3.46428        1.64078       -5.13639
| 12> H          4.83447        1.31375       -6.22465
| 13> H          2.06372       -2.33262       -6.01532
| 14> H          0.66479       -1.36293       -5.62068
| 15> H          1.55078       -2.17513       -4.35245
| 16> *
| 17>
| 18> %MaxCore 64000
| 19>
| 20> %pal nprocs 2
| 21> end
| 22>
| 23> %scf
| 24>   MaxIter 150
| 25> end
| 26>
| 27>
| 28>                          ****END OF INPUT****

CARTESIAN COORDINATES (ANGSTROEM)
---------------------------------
  C      1.635560   -1.670400   -5.292110
  N      2.484510   -0.507410   -5.140390
  C      3.451150   -0.149530   -5.952590
  N      3.922670    1.089560   -5.850710
  N      3.966160   -1.006180   -6.867880
  H      3.521390   -1.906470   -6.995270
  H      4.444820   -0.623470   -7.670350
  H      2.252000    0.240800   -4.498790
  H      3.464280    1.640780   -5.136390
  H      4.834470    1.313750   -6.224650
  H      2.063720   -2.332620   -6.015320
  H      0.664790   -1.362930   -5.620680
  H      1.550780   -2.175130   -4.352450

 Total Charge           Charge          ....    1
 Multiplicity           Mult            ....    1
 Number of Electrons    NEL             ....   40
 Basis Dimension        Dim             ....  414

ORBITAL ENERGIES
----------------

  NO   OCC          E(Eh)            E(eV)
   0   2.0000     -15.795304      -429.8121
   1   2.0000     -15.790200      -429.6732
   2   2.0000     -15.786870      -429.5826
   3   2.0000     -11.591191      -315.4123
   4   2.0000     -11.435356      -311.1719
   5   2.0000      -1.550246       -42.1844
   6   2.0000      -1.410827       -38.3906
   7   2.0000      -1.393669       -37.9237
   8   2.0000      -1.160025       -31.5659
   9   2.0000      -1.040716       -28.3193
  10   2.0000      -0.974489       -26.5172
  11   2.0000      -0.948664       -25.8145
  12   2.0000      -0.864137       -23.5144
  13   2.0000      -0.861325       -23.4378
  14   2.0000      -0.831754       -22.6332
  15   2.0000      -0.811154       -22.0726
  16   2.0000      -0.753289       -20.4980
  17   2.0000      -0.743395       -20.2288
  18   2.0000      -0.627877       -17.0854
  19   2.0000      -0.598353       -16.2820
  20   0.0000      -0.096408        -2.6234
  21   0.0000      -0.077446        -2.1074
  22   0.0000      -0.071179        -1.9369
  23   0.0000      -0.060917        -1.6576
  24   0.0000      -0.048778        -1.3273

MULLIKEN ATOMIC CHARGES
-----------------------
   0 C :   -0.849509
   1 N :    0.033445
   2 C :    0.457726
   3 N :   -0.302490
   4 N :   -0.310677
   5 H :    0.210247
   6 H :    0.154296
   7 H :    0.105401
   8 H :    0.149464
   9 H :    0.215511
  10 H :    0.428154
  11 H :    0.347147
  12 H :    0.361286
Sum of atomic charges:    1.0000000

LOEWDIN ATOMIC CHARGES
----------------------
   0 C :    0.604977
   1 N :    0.619221
   2 C :   -0.358955
   3 N :    0.942268
   4 N :    0.951814
   5 H :   -0.293634
   6 H :   -0.243965
   7 H :   -0.245842
   8 H :   -0.256933
   9 H :   -0.232491
  10 H :   -0.193805
  11 H :   -0.146684
  12 H :   -0.145970

  Mayer bond orders larger than 0.100000
B(  0-C ,  1-N ) :   0.8549 B(  0-C ,  2-C ) :  -0.1212 B(  0-C , 10-H ) :   0.7956
B(  0-C , 11-H ) :   0.9020 B(  0-C , 12-H ) :   0.9017 B(  1-N ,  2-C ) :   1.1224
B(  1-N ,  3-N ) :  -0.1013 B(  1-N ,  7-H ) :   1.0643 B(  2-C ,  3-N ) :   1.1004
B(  2-C ,  4-N ) :   0.9906 B(  3-N ,  8-H ) :   1.0597 B(  3-N ,  9-H ) :   1.0036
B(  4-N ,  5-H ) :   1.0032 B(  4-N ,  6-H ) :   1.0563

E(0)                                       ...   -243.650049620
E(0)                                       ...   -243.650049620
E(CORR)(strong-pairs)                      ...     -0.996115750
E(CORR)(weak-pairs)                        ...     -0.000987008
E(CORR)(corrected)                         ...     -0.997102758
E(TOT)                                     ...   -244.647152378
E(CCSD(T))                                 ...   -244.686979958
FINAL SINGLE POINT ENERGY      -244.686979958161

DIPOLE MOMENT
-------------
                                X             Y             Z
Electronic contribution:      1.96847       1.92504      -0.27617
Nuclear contribution   :     -1.83770      -1.53167       0.12165
                        -----------------------------------------
Total Dipole Moment    :      0.13077       0.39338      -0.15452
                        -----------------------------------------
Magnitude (a.u.)       :      0.44240
Magnitude (Debye)      :      1.12450

Rotational constants in cm-1:     0.307545     0.135665     0.096412
Rotational constants in MHz :  9219.967860  4067.145400  2890.348280

                             ****ORCA TERMINATED NORMALLY****
TOTAL RUN TIME: 0 days 1 hours 59 minutes 40 seconds 415 msec
