                         Program Version 5.0.0 -  RELEASE  -
|  1> !DLPNO-CCSD(T) aug-cc-pVTZ aug-cc-pVTZ/C TightSCF TightPNO RIJCOSX def2/J
|  2> *xyz 0 1
|  3> C          1.22302        2.46987       -3.75691
|  4> F          2.35381        1.71203       -3.93448
|  5> H          1.26998        3.33359       -4.38673
|  6> H          1.15671        2.77738       -2.73420
|  7> H          0.36099        1.88932       -4.01140
|  8> *
|  9>
| 10> %MaxCore 64000
| 11>
| 12> %pal nprocs 8
| 13> end
| 14>
| 15> %scf
| 16>   MaxIter 150
| 17> end
| 18>
| 19>
| 20>                          ****END OF INPUT****

CARTESIAN COORDINATES (ANGSTROEM)
---------------------------------
  C      1.223020    2.469870   -3.756910
  F      2.353810    1.712030   -3.934480
  H      1.269980    3.333590   -4.386730
  H      1.156710    2.777380   -2.734200
  H      0.360990    1.889320   -4.011400

 Total Charge           Charge          ....    0
 Multiplicity           Mult            ....    1
 Number of Electrons    NEL             ....   18
 Basis Dimension        Dim             ....  161

ORBITAL ENERGIES
----------------

  NO   OCC          E(Eh)            E(eV)
   0   2.0000     -26.279515      -715.1019
   1   2.0000     -11.297976      -307.4335
   2   2.0000      -1.591431       -43.3050
   3   2.0000      -0.961783       -26.1715
   4   2.0000      -0.699839       -19.0436
   5   2.0000      -0.699811       -19.0428
   6   2.0000      -0.680303       -18.5120
   7   2.0000      -0.533109       -14.5066
   8   2.0000      -0.533070       -14.5056
   9   0.0000       0.029376         0.7994
  10   0.0000       0.047152         1.2831
  11   0.0000       0.047154         1.2831
  12   0.0000       0.074936         2.0391
  13   0.0000       0.124026         3.3749

MULLIKEN ATOMIC CHARGES
-----------------------
   0 C :   -0.477547
   1 F :   -0.426049
   2 H :    0.299284
   3 H :    0.306431
   4 H :    0.297880
Sum of atomic charges:    0.0000000

LOEWDIN ATOMIC CHARGES
----------------------
   0 C :    0.222295
   1 F :    0.426876
   2 H :   -0.216412
   3 H :   -0.216389
   4 H :   -0.216369

  Mayer bond orders larger than 0.100000
B(  0-C ,  1-F ) :   0.6706 B(  0-C ,  2-H ) :   0.9165 B(  0-C ,  3-H ) :   0.9103
B(  0-C ,  4-H ) :   0.9176

E(0)                                       ...   -139.097630357
E(0)                                       ...   -139.097630357
E(CORR)(strong-pairs)                      ...     -0.458514492
E(CORR)(weak-pairs)                        ...     -0.000195219
E(CORR)(corrected)                         ...     -0.458709710
E(TOT)                                     ...   -139.556340068
E(CCSD(T))                                 ...   -139.569998609
FINAL SINGLE POINT ENERGY      -139.569998609118

DIPOLE MOMENT
-------------
                                X             Y             Z
Electronic contribution:      2.36228      -1.58333      -0.37111
Nuclear contribution   :     -3.01708       2.02200       0.47377
                        -----------------------------------------
Total Dipole Moment    :     -0.65480       0.43867       0.10267
                        -----------------------------------------
Magnitude (a.u.)       :      0.79482
Magnitude (Debye)      :      2.02027

Rotational constants in cm-1:     5.477743     0.870792     0.870792
Rotational constants in MHz : 164218.600605 26105.683059 26105.675587

                             ****ORCA TERMINATED NORMALLY****
TOTAL RUN TIME: 0 days 0 hours 0 minutes 36 seconds 824 msec
