                         Program Version 5.0.0 -  RELEASE  -
|  1> !DLPNO-CCSD(T) aug-cc-pVTZ aug-cc-pVTZ/C TightSCF TightPNO RIJCOSX def2/J
|  2> *xyz 0 1
|  3> C          1.63556       -1.67040       -5.29211
|  4> C          2.48451       -0.50741       -5.14039
|  5> C          3.45115       -0.14953       -5.95259
|  6> N          3.92267        1.08956       -5.85071
|  7> N          3.96616       -1.00618       -6.86788
|  8> H          3.52139       -1.90647       -6.99527
|  9> H          4.44482       -0.62347       -7.67035
| 10> H          2.25200        0.24080       -4.49879
| 11> H          3.46428        1.64078       -5.13639
| 12> H          4.83447        1.31375       -6.22465
| 13> H          2.06372       -2.33262       -6.01532
| 14> H          0.66479       -1.36293       -5.62068
| 15> H          1.55078       -2.17513       -4.35245
| 16> *
| 17>
| 18> %MaxCore 64000
| 19>
| 20> %pal nprocs 2
| 21> end
| 22>
| 23> %scf
| 24>   MaxIter 150
| 25> end
| 26>
| 27>
| 28>                          ****END OF INPUT****

CARTESIAN COORDINATES (ANGSTROEM)
---------------------------------
  C      1.635560   -1.670400   -5.292110
  C      2.484510   -0.507410   -5.140390
  C      3.451150   -0.149530   -5.952590
  N      3.922670    1.089560   -5.850710
  N      3.966160   -1.006180   -6.867880
  H      3.521390   -1.906470   -6.995270
  H      4.444820   -0.623470   -7.670350
  H      2.252000    0.240800   -4.498790
  H      3.464280    1.640780   -5.136390
  H      4.834470    1.313750   -6.224650
  H      2.063720   -2.332620   -6.015320
  H      0.664790   -1.362930   -5.620680
  H      1.550780   -2.175130   -4.352450

 Total Charge           Charge          ....    0
 Multiplicity           Mult            ....    1
 Number of Electrons    NEL             ....   40
 Basis Dimension        Dim             ....  414

ORBITAL ENERGIES
----------------

  NO   OCC          E(Eh)            E(eV)
   0   2.0000     -15.558473      -423.3676
   1   2.0000     -15.555902      -423.2976
   2   2.0000     -11.276063      -306.8373
   3   2.0000     -11.188624      -304.4579
   4   2.0000     -11.141425      -303.1736
   5   2.0000      -1.272495       -34.6264
   6   2.0000      -1.162090       -31.6221
   7   2.0000      -1.028319       -27.9820
   8   2.0000      -0.899008       -24.4632
   9   2.0000      -0.780435       -21.2367
  10   2.0000      -0.717941       -19.5362
  11   2.0000      -0.693243       -18.8641
  12   2.0000      -0.631891       -17.1946
  13   2.0000      -0.590232       -16.0610
  14   2.0000      -0.570962       -15.5367
  15   2.0000      -0.537891       -14.6368
  16   2.0000      -0.513854       -13.9827
  17   2.0000      -0.495990       -13.4966
  18   2.0000      -0.412435       -11.2229
  19   2.0000      -0.262119        -7.1326
  20   0.0000       0.025946         0.7060
  21   0.0000       0.036558         0.9948
  22   0.0000       0.040556         1.1036
  23   0.0000       0.052088         1.4174
  24   0.0000       0.054575         1.4851

MULLIKEN ATOMIC CHARGES
-----------------------
   0 C :   -0.872516
   1 C :   -0.241695
   2 C :    0.405531
   3 N :   -0.470024
   4 N :   -0.431546
   5 H :    0.129694
   6 H :    0.140759
   7 H :    0.329760
   8 H :    0.063848
   9 H :    0.109091
  10 H :    0.379212
  11 H :    0.236185
  12 H :    0.221702
Sum of atomic charges:   -0.0000000

LOEWDIN ATOMIC CHARGES
----------------------
   0 C :    0.555714
   1 C :    0.196655
   2 C :   -0.429189
   3 N :    0.850699
   4 N :    0.871668
   5 H :   -0.320073
   6 H :   -0.286012
   7 H :   -0.284561
   8 H :   -0.293134
   9 H :   -0.278295
  10 H :   -0.220765
  11 H :   -0.179724
  12 H :   -0.182983

  Mayer bond orders larger than 0.100000
B(  0-C ,  1-C ) :   0.7702 B(  0-C ,  2-C ) :   0.1116 B(  0-C , 10-H ) :   0.8043
B(  0-C , 11-H ) :   0.9997 B(  0-C , 12-H ) :   1.0984 B(  1-C ,  2-C ) :   1.2305
B(  1-C ,  3-N ) :  -0.2537 B(  1-C ,  4-N ) :  -0.2103 B(  1-C ,  7-H ) :   0.9183
B(  2-C ,  3-N ) :   0.9193 B(  2-C ,  4-N ) :   0.8773 B(  3-N ,  4-N ) :  -0.1429
B(  3-N ,  8-H ) :   1.1293 B(  3-N ,  9-H ) :   1.1110 B(  4-N ,  5-H ) :   1.0925
B(  4-N ,  6-H ) :   1.0244

E(0)                                       ...   -227.203819395
E(0)                                       ...   -227.203819395
E(CORR)(strong-pairs)                      ...     -0.979093508
E(CORR)(weak-pairs)                        ...     -0.000975861
E(CORR)(corrected)                         ...     -0.980069369
E(TOT)                                     ...   -228.183888764
E(CCSD(T))                                 ...   -228.223884294
FINAL SINGLE POINT ENERGY      -228.223884293772

DIPOLE MOMENT
-------------
                                X             Y             Z
Electronic contribution:      2.41179       1.87300      -0.80179
Nuclear contribution   :     -1.96139      -1.54412       0.26148
                        -----------------------------------------
Total Dipole Moment    :      0.45040       0.32888      -0.54031
                        -----------------------------------------
Magnitude (a.u.)       :      0.77650
Magnitude (Debye)      :      1.97371

Rotational constants in cm-1:     0.312277     0.136708     0.097371
Rotational constants in MHz :  9361.815989  4098.393303  2919.105491

                             ****ORCA TERMINATED NORMALLY****
TOTAL RUN TIME: 0 days 2 hours 11 minutes 51 seconds 237 msec
