                         Program Version 5.0.0 -  RELEASE  -
|  1> !DLPNO-CCSD(T) aug-cc-pVTZ aug-cc-pVTZ/C TightSCF TightPNO RIJCOSX def2/J
|  2> *xyz 0 1
|  3> C          1.63556       -1.67040       -5.29211
|  4> N          2.48451       -0.50741       -5.14039
|  5> C          3.45115       -0.14953       -5.95259
|  6> C          3.92267        1.08956       -5.85071
|  7> N          3.96616       -1.00618       -6.86788
|  8> H          3.52139       -1.90647       -6.99527
|  9> H          4.44482       -0.62347       -7.67035
| 10> H          2.25200        0.24080       -4.49879
| 11> H          3.46428        1.64078       -5.13639
| 12> H          4.83447        1.31375       -6.22465
| 13> H          2.06372       -2.33262       -6.01532
| 14> H          0.66479       -1.36293       -5.62068
| 15> H          1.55078       -2.17513       -4.35245
| 16> *
| 17>
| 18> %MaxCore 64000
| 19>
| 20> %pal nprocs 2
| 21> end
| 22>
| 23> %scf
| 24>   MaxIter 150
| 25> end
| 26>
| 27>
| 28>                          ****END OF INPUT****

CARTESIAN COORDINATES (ANGSTROEM)
---------------------------------
  C      1.635560   -1.670400   -5.292110
  N      2.484510   -0.507410   -5.140390
  C      3.451150   -0.149530   -5.952590
  C      3.922670    1.089560   -5.850710
  N      3.966160   -1.006180   -6.867880
  H      3.521390   -1.906470   -6.995270
  H      4.444820   -0.623470   -7.670350
  H      2.252000    0.240800   -4.498790
  H      3.464280    1.640780   -5.136390
  H      4.834470    1.313750   -6.224650
  H      2.063720   -2.332620   -6.015320
  H      0.664790   -1.362930   -5.620680
  H      1.550780   -2.175130   -4.352450

 Total Charge           Charge          ....    0
 Multiplicity           Mult            ....    1
 Number of Electrons    NEL             ....   40
 Basis Dimension        Dim             ....  414

ORBITAL ENERGIES
----------------

  NO   OCC          E(Eh)            E(eV)
   0   2.0000     -15.562349      -423.4730
   1   2.0000     -15.561816      -423.4585
   2   2.0000     -11.286625      -307.1247
   3   2.0000     -11.261945      -306.4531
   4   2.0000     -11.126435      -302.7657
   5   2.0000      -1.290191       -35.1079
   6   2.0000      -1.179591       -32.0983
   7   2.0000      -1.012605       -27.5544
   8   2.0000      -0.913266       -24.8512
   9   2.0000      -0.801211       -21.8021
  10   2.0000      -0.720525       -19.6065
  11   2.0000      -0.669915       -18.2293
  12   2.0000      -0.644703       -17.5433
  13   2.0000      -0.627250       -17.0684
  14   2.0000      -0.566409       -15.4128
  15   2.0000      -0.550955       -14.9922
  16   2.0000      -0.540860       -14.7176
  17   2.0000      -0.518581       -14.1113
  18   2.0000      -0.402566       -10.9544
  19   2.0000      -0.263996        -7.1837
  20   0.0000       0.025145         0.6842
  21   0.0000       0.035217         0.9583
  22   0.0000       0.043268         1.1774
  23   0.0000       0.045042         1.2257
  24   0.0000       0.056171         1.5285

MULLIKEN ATOMIC CHARGES
-----------------------
   0 C :   -0.919989
   1 N :   -0.012448
   2 C :    0.298223
   3 C :   -1.098949
   4 N :   -0.436110
   5 H :    0.184720
   6 H :    0.096716
   7 H :    0.017801
   8 H :    0.375354
   9 H :    0.427414
  10 H :    0.433260
  11 H :    0.309371
  12 H :    0.324636
Sum of atomic charges:    0.0000000

LOEWDIN ATOMIC CHARGES
----------------------
   0 C :    0.549629
   1 N :    0.560121
   2 C :   -0.455296
   3 C :    0.540053
   4 N :    0.873856
   5 H :   -0.332061
   6 H :   -0.272843
   7 H :   -0.274860
   8 H :   -0.325478
   9 H :   -0.307716
  10 H :   -0.212450
  11 H :   -0.171379
  12 H :   -0.171577

  Mayer bond orders larger than 0.100000
B(  0-C ,  1-N ) :   0.8708 B(  0-C ,  2-C ) :  -0.1078 B(  0-C , 10-H ) :   0.7860
B(  0-C , 11-H ) :   0.9340 B(  0-C , 12-H ) :   0.9470 B(  1-N ,  2-C ) :   0.8707
B(  1-N ,  3-C ) :  -0.2117 B(  1-N ,  4-N ) :  -0.1712 B(  1-N ,  7-H ) :   1.1446
B(  2-C ,  3-C ) :   1.2309 B(  2-C ,  4-N ) :   0.8242 B(  3-C ,  4-N ) :  -0.1995
B(  3-C ,  8-H ) :   0.9114 B(  3-C ,  9-H ) :   0.8788 B(  4-N ,  5-H ) :   1.0151
B(  4-N ,  6-H ) :   1.1180

E(0)                                       ...   -227.191968678
E(0)                                       ...   -227.191968678
E(CORR)(strong-pairs)                      ...     -0.976047015
E(CORR)(weak-pairs)                        ...     -0.000982080
E(CORR)(corrected)                         ...     -0.977029095
E(TOT)                                     ...   -228.168997773
E(CCSD(T))                                 ...   -228.208949398
FINAL SINGLE POINT ENERGY      -228.208949398233

DIPOLE MOMENT
-------------
                                X             Y             Z
Electronic contribution:      0.96743       0.20929      -0.21926
Nuclear contribution   :     -1.67010      -1.22066       0.11760
                        -----------------------------------------
Total Dipole Moment    :     -0.70267      -1.01137      -0.10166
                        -----------------------------------------
Magnitude (a.u.)       :      1.23570
Magnitude (Debye)      :      3.14091

Rotational constants in cm-1:     0.314526     0.141398     0.099973
Rotational constants in MHz :  9429.255015  4239.015262  2997.111162

                             ****ORCA TERMINATED NORMALLY****
TOTAL RUN TIME: 0 days 2 hours 13 minutes 52 seconds 930 msec
