                         Program Version 5.0.0 -  RELEASE  -
|  1> !DLPNO-CCSD(T) aug-cc-pVTZ aug-cc-pVTZ/C TightSCF TightPNO RIJCOSX def2/J
|  2> *xyz 0 1
|  3> C          1.63556       -1.67040       -5.29211
|  4> N          2.48451       -0.50741       -5.14039
|  5> C          3.45115       -0.14953       -5.95259
|  6> N          3.92267        1.08956       -5.85071
|  7> C          3.96616       -1.00618       -6.86788
|  8> H          3.52139       -1.90647       -6.99527
|  9> H          4.44482       -0.62347       -7.67035
| 10> H          2.25200        0.24080       -4.49879
| 11> H          3.46428        1.64078       -5.13639
| 12> H          4.83447        1.31375       -6.22465
| 13> H          2.06372       -2.33262       -6.01532
| 14> H          0.66479       -1.36293       -5.62068
| 15> H          1.55078       -2.17513       -4.35245
| 16> *
| 17>
| 18> %MaxCore 64000
| 19>
| 20> %pal nprocs 2
| 21> end
| 22>
| 23> %scf
| 24>   MaxIter 150
| 25> end
| 26>
| 27>
| 28>                          ****END OF INPUT****

CARTESIAN COORDINATES (ANGSTROEM)
---------------------------------
  C      1.635560   -1.670400   -5.292110
  N      2.484510   -0.507410   -5.140390
  C      3.451150   -0.149530   -5.952590
  N      3.922670    1.089560   -5.850710
  C      3.966160   -1.006180   -6.867880
  H      3.521390   -1.906470   -6.995270
  H      4.444820   -0.623470   -7.670350
  H      2.252000    0.240800   -4.498790
  H      3.464280    1.640780   -5.136390
  H      4.834470    1.313750   -6.224650
  H      2.063720   -2.332620   -6.015320
  H      0.664790   -1.362930   -5.620680
  H      1.550780   -2.175130   -4.352450

 Total Charge           Charge          ....    0
 Multiplicity           Mult            ....    1
 Number of Electrons    NEL             ....   40
 Basis Dimension        Dim             ....  414

ORBITAL ENERGIES
----------------

  NO   OCC          E(Eh)            E(eV)
   0   2.0000     -15.567540      -423.6143
   1   2.0000     -15.565948      -423.5710
   2   2.0000     -11.290011      -307.2168
   3   2.0000     -11.252792      -306.2040
   4   2.0000     -11.126846      -302.7769
   5   2.0000      -1.299799       -35.3693
   6   2.0000      -1.185300       -32.2537
   7   2.0000      -0.977202       -26.5910
   8   2.0000      -0.948869       -25.8200
   9   2.0000      -0.768919       -20.9233
  10   2.0000      -0.726728       -19.7753
  11   2.0000      -0.714319       -19.4376
  12   2.0000      -0.627435       -17.0734
  13   2.0000      -0.615716       -16.7545
  14   2.0000      -0.580632       -15.7998
  15   2.0000      -0.543132       -14.7794
  16   2.0000      -0.527870       -14.3641
  17   2.0000      -0.517180       -14.0732
  18   2.0000      -0.399325       -10.8662
  19   2.0000      -0.263861        -7.1800
  20   0.0000       0.023330         0.6348
  21   0.0000       0.035161         0.9568
  22   0.0000       0.041781         1.1369
  23   0.0000       0.046198         1.2571
  24   0.0000       0.057386         1.5616

MULLIKEN ATOMIC CHARGES
-----------------------
   0 C :   -0.968988
   1 N :   -0.046812
   2 C :    0.589950
   3 N :   -0.445122
   4 C :   -1.328276
   5 H :    0.466084
   6 H :    0.283841
   7 H :    0.074544
   8 H :    0.084116
   9 H :    0.141339
  10 H :    0.504580
  11 H :    0.315066
  12 H :    0.329677
Sum of atomic charges:    0.0000000

LOEWDIN ATOMIC CHARGES
----------------------
   0 C :    0.553163
   1 N :    0.557723
   2 C :   -0.460629
   3 N :    0.863090
   4 C :    0.553485
   5 H :   -0.354562
   6 H :   -0.317511
   7 H :   -0.279173
   8 H :   -0.296936
   9 H :   -0.262210
  10 H :   -0.217308
  11 H :   -0.168760
  12 H :   -0.170371

  Mayer bond orders larger than 0.100000
B(  0-C ,  1-N ) :   0.9478 B(  0-C , 10-H ) :   0.7496 B(  0-C , 11-H ) :   0.9354
B(  0-C , 12-H ) :   0.9347 B(  1-N ,  2-C ) :   0.8742 B(  1-N ,  3-N ) :  -0.1811
B(  1-N ,  4-C ) :  -0.1493 B(  1-N ,  7-H ) :   1.1104 B(  2-C ,  3-N ) :   0.9150
B(  2-C ,  4-C ) :   1.1823 B(  3-N ,  4-C ) :  -0.1319 B(  3-N ,  8-H ) :   1.1255
B(  3-N ,  9-H ) :   1.0755 B(  4-C ,  5-H ) :   0.7737 B(  4-C ,  6-H ) :   1.0874

E(0)                                       ...   -227.191093166
E(0)                                       ...   -227.191093166
E(CORR)(strong-pairs)                      ...     -0.976526513
E(CORR)(weak-pairs)                        ...     -0.000986946
E(CORR)(corrected)                         ...     -0.977513459
E(TOT)                                     ...   -228.168606625
E(CCSD(T))                                 ...   -228.208738918
FINAL SINGLE POINT ENERGY      -228.208738918259

DIPOLE MOMENT
-------------
                                X             Y             Z
Electronic contribution:      0.98778       2.38817       0.89932
Nuclear contribution   :     -1.66129      -1.64514      -0.08842
                        -----------------------------------------
Total Dipole Moment    :     -0.67351       0.74303       0.81090
                        -----------------------------------------
Magnitude (a.u.)       :      1.28968
Magnitude (Debye)      :      3.27810

Rotational constants in cm-1:     0.330436     0.136339     0.098902
Rotational constants in MHz :  9906.231858  4087.333233  2964.994979

                             ****ORCA TERMINATED NORMALLY****
TOTAL RUN TIME: 0 days 2 hours 12 minutes 51 seconds 592 msec
