                         Program Version 5.0.0 -  RELEASE  -
|  1> !DLPNO-CCSD(T) aug-cc-pVTZ aug-cc-pVTZ/C TightSCF TightPNO RIJCOSX def2/J
|  2>
|  3> *xyzfile 0 1 D3.xyz
|  4>
|  5> %MaxCore 64000
|  6>
|  7> %pal nprocs 18
|  8> end
|  9>
| 10> %scf
| 11>   MaxIter 150
| 12> end
| 13>
| 14>
| 15>                          ****END OF INPUT****

CARTESIAN COORDINATES (ANGSTROEM)
---------------------------------
  C      1.635557   -1.670396   -5.292109
  C      0.338484   -1.500907   -4.505398
  N      2.484511   -0.507410   -5.140392
  C     -0.684873   -0.528026   -5.099889
  C     -0.290406    0.951335   -5.153423
  H      0.607991    1.070692   -5.764412
  C     -0.055168    1.619420   -3.788577
  H     -1.080912    1.483775   -5.689436
  H      0.045006    0.862302   -3.003015
  H     -0.922936    2.230329   -3.517028
  C      1.223022    2.469865   -3.756911
  H      1.114701    3.258074   -4.532999
  H      1.237732    3.011242   -2.792157
  F      2.353815    1.712032   -3.934477
  H      1.398337   -1.829239   -6.352591
  H      2.155864   -2.565398   -4.932091
  C      3.451149   -0.149530   -5.952589
  N      3.922667    1.089559   -5.850711
  C      3.966162   -1.006183   -6.867880
  H      3.521391   -1.906467   -6.995270
  H      4.444824   -0.623472   -7.670348
  H      2.251995    0.240804   -4.498792
  H      3.464277    1.640782   -5.136392
  H      4.834470    1.313745   -6.224653
  H     -0.937999   -0.869056   -6.110838
  H     -1.604638   -0.622496   -4.513132
  H      0.594887   -1.211578   -3.482312
  H     -0.126530   -2.487656   -4.434176

 Total Charge           Charge          ....    0
 Multiplicity           Mult            ....    1
 Number of Electrons    NEL             ....   88
 Basis Dimension        Dim             ....  897

ORBITAL ENERGIES
----------------

  NO   OCC          E(Eh)            E(eV)
   0   2.0000     -26.338177      -716.6982
   1   2.0000     -15.533893      -422.6987
   2   2.0000     -15.533751      -422.6949
   3   2.0000     -11.340125      -308.5805
   4   2.0000     -11.267301      -306.5989
   5   2.0000     -11.249684      -306.1195
   6   2.0000     -11.249243      -306.1075
   7   2.0000     -11.231623      -305.6280
   8   2.0000     -11.228566      -305.5448
   9   2.0000     -11.224722      -305.4402
  10   2.0000     -11.109499      -302.3048
  11   2.0000      -1.663392       -45.2632
  12   2.0000      -1.277449       -34.7611
  13   2.0000      -1.167140       -31.7595
  14   2.0000      -1.103438       -30.0261
  15   2.0000      -1.050126       -28.5754
  16   2.0000      -0.983771       -26.7698
  17   2.0000      -0.950967       -25.8771
  18   2.0000      -0.898495       -24.4493
  19   2.0000      -0.859399       -23.3854
  20   2.0000      -0.789220       -21.4758
  21   2.0000      -0.777267       -21.1505
  22   2.0000      -0.769751       -20.9460
  23   2.0000      -0.742113       -20.1939
  24   2.0000      -0.726688       -19.7742
  25   2.0000      -0.683382       -18.5958
  26   2.0000      -0.669047       -18.2057
  27   2.0000      -0.646675       -17.5969
  28   2.0000      -0.633454       -17.2372
  29   2.0000      -0.601215       -16.3599
  30   2.0000      -0.595168       -16.1953
  31   2.0000      -0.585918       -15.9436
  32   2.0000      -0.560807       -15.2603
  33   2.0000      -0.533066       -14.5055
  34   2.0000      -0.528294       -14.3756
  35   2.0000      -0.514570       -14.0022
  36   2.0000      -0.512382       -13.9426
  37   2.0000      -0.509010       -13.8509
  38   2.0000      -0.491980       -13.3875
  39   2.0000      -0.470305       -12.7977
  40   2.0000      -0.462410       -12.5828
  41   2.0000      -0.460647       -12.5348
  42   2.0000      -0.369742       -10.0612
  43   2.0000      -0.246242        -6.7006
  44   0.0000       0.019787         0.5384
  45   0.0000       0.028949         0.7877
  46   0.0000       0.031018         0.8440
  47   0.0000       0.035705         0.9716
  48   0.0000       0.046302         1.2599

MULLIKEN ATOMIC CHARGES
-----------------------
   0 C :   -0.577389
   1 C :   -0.399624
   2 N :    0.016652
   3 C :   -0.519070
   4 C :   -0.417545
   5 H :    0.166201
   6 C :   -0.560202
   7 H :    0.401204
   8 H :    0.286348
   9 H :    0.276654
  10 C :   -0.393114
  11 H :    0.303552
  12 H :    0.348994
  13 F :   -0.517491
  14 H :    0.251608
  15 H :    0.284240
  16 C :    0.538692
  17 N :   -0.725877
  18 C :   -1.462144
  19 H :    0.424974
  20 H :    0.286905
  21 H :    0.782067
  22 H :    0.283823
  23 H :    0.059052
  24 H :    0.263834
  25 H :    0.174756
  26 H :    0.089404
  27 H :    0.333494
Sum of atomic charges:    0.0000000

LOEWDIN ATOMIC CHARGES
----------------------
   0 C :    0.215360
   1 C :    0.301235
   2 N :    0.577337
   3 C :    0.305265
   4 C :    0.297700
   5 H :   -0.172618
   6 C :    0.300008
   7 H :   -0.140063
   8 H :   -0.165660
   9 H :   -0.134764
  10 C :    0.019381
  11 H :   -0.136075
  12 H :   -0.148456
  13 F :    0.753106
  14 H :   -0.141034
  15 H :   -0.127749
  16 C :   -0.444119
  17 N :    0.872192
  18 C :    0.547939
  19 H :   -0.338869
  20 H :   -0.323393
  21 H :   -0.564966
  22 H :   -0.518938
  23 H :   -0.259123
  24 H :   -0.137402
  25 H :   -0.142029
  26 H :   -0.154461
  27 H :   -0.139803

  Mayer bond orders larger than 0.100000
B(  0-C ,  1-C ) :   0.8553 B(  0-C ,  2-N ) :   0.9547 B(  0-C , 14-H ) :   1.0205
B(  0-C , 15-H ) :   0.9718 B(  0-C , 16-C ) :  -0.1649 B(  1-C ,  3-C ) :   0.8342
B(  1-C , 26-H ) :   1.1520 B(  1-C , 27-H ) :   0.8772 B(  2-N , 13-F ) :  -0.1029
B(  2-N , 16-C ) :   0.9202 B(  2-N , 17-N ) :  -0.1411 B(  2-N , 21-H ) :   0.5643
B(  3-C ,  4-C ) :   0.8269 B(  3-C ,  5-H ) :   0.1095 B(  3-C , 24-H ) :   0.9507
B(  3-C , 25-H ) :   1.0628 B(  4-C ,  5-H ) :   1.0658 B(  4-C ,  6-C ) :   0.8120
B(  4-C ,  7-H ) :   0.8326 B(  6-C ,  8-H ) :   0.9325 B(  6-C ,  9-H ) :   0.9529
B(  6-C , 10-C ) :   1.0109 B( 10-C , 11-H ) :   0.9274 B( 10-C , 12-H ) :   0.9178
B( 10-C , 13-F ) :   0.8216 B( 13-F , 21-H ) :  -0.3444 B( 16-C , 17-N ) :   0.8149
B( 16-C , 18-C ) :   1.0452 B( 16-C , 21-H ) :  -0.3376 B( 16-C , 22-H ) :  -0.1164
B( 16-C , 23-H ) :  -0.1048 B( 17-N , 18-C ) :  -0.1319 B( 17-N , 21-H ) :  -0.1203
B( 17-N , 22-H ) :   0.9133 B( 17-N , 23-H ) :   1.2080 B( 18-C , 19-H ) :   0.8517
B( 18-C , 20-H ) :   1.0838

E(0)                                       ...   -521.292926229
E(0)                                       ...   -521.292926229
E(CORR)(strong-pairs)                      ...     -2.162633803
E(CORR)(weak-pairs)                        ...     -0.003276472
E(CORR)(corrected)                         ...     -2.165910275
E(TOT)                                     ...   -523.458836504
E(CCSD(T))                                 ...   -523.546429155
FINAL SINGLE POINT ENERGY      -523.546429154613

DIPOLE MOMENT
-------------
                                X             Y             Z
Electronic contribution:      6.15036       4.53604       2.86577
Nuclear contribution   :     -7.84660      -3.08098      -1.66782
                        -----------------------------------------
Total Dipole Moment    :     -1.69624       1.45505       1.19795
                        -----------------------------------------
Magnitude (a.u.)       :      2.53564
Magnitude (Debye)      :      6.44509

Rotational constants in cm-1:     0.043547     0.029898     0.020008
Rotational constants in MHz :  1305.520367   896.323854   599.829375

                             ****ORCA TERMINATED NORMALLY****
TOTAL RUN TIME: 0 days 2 hours 50 minutes 27 seconds 813 msec
