                         Program Version 5.0.0 -  RELEASE  -
|  1> !LC-PBE RIJCOSX def2-TZVP def2/J TightSCF
|  2> *xyz -1 1
|  3> C          0.61188        1.65763       -4.50029
|  4> C          1.69499        1.54179       -5.57045
|  5> H          2.69733        1.73466       -5.18400
|  6> H          1.50666        2.27224       -6.35808
|  7> S          1.78029       -0.03313       -6.42874
|  8> O          2.56929        0.21366       -7.60736
|  9> O          0.41688       -0.46297       -6.61859
| 10> O          2.50513       -0.93326       -5.48257
| 11> H         -0.34424        1.45871       -4.93752
| 12> H          0.61845        2.64655       -4.09174
| 13> H          0.80247        0.94882       -3.72173
| 14> *
| 15> %MaxCore 64000
| 16>
| 17> %pal nprocs 4
| 18> end
| 19>
| 20> %scf
| 21>   MaxIter 150
| 22> end
| 23>
| 24>
| 25>                          ****END OF INPUT****

CARTESIAN COORDINATES (ANGSTROEM)
---------------------------------
  C      0.611880    1.657630   -4.500290
  C      1.694990    1.541790   -5.570450
  H      2.697330    1.734660   -5.184000
  H      1.506660    2.272240   -6.358080
  S      1.780290   -0.033130   -6.428740
  O      2.569290    0.213660   -7.607360
  O      0.416880   -0.462970   -6.618590
  O      2.505130   -0.933260   -5.482570
  H     -0.344240    1.458710   -4.937520
  H      0.618450    2.646550   -4.091740
  H      0.802470    0.948820   -3.721730

 Total Charge           Charge          ....   -1
 Multiplicity           Mult            ....    1
 Number of Electrons    NEL             ....   58
 Basis Dimension        Dim             ....  222

ORBITAL ENERGIES
----------------

  NO   OCC          E(Eh)            E(eV)
   0   2.0000     -88.265502     -2401.8264
   1   2.0000     -18.753877      -510.3189
   2   2.0000     -18.753129      -510.2986
   3   2.0000     -18.732447      -509.7358
   4   2.0000      -9.976541      -271.4755
   5   2.0000      -9.968815      -271.2652
   6   2.0000      -7.876168      -214.3214
   7   2.0000      -5.893095      -160.3593
   8   2.0000      -5.891610      -160.3189
   9   2.0000      -5.891188      -160.3074
  10   2.0000      -1.095793       -29.8180
  11   2.0000      -0.955795       -26.0085
  12   2.0000      -0.921637       -25.0790
  13   2.0000      -0.810138       -22.0450
  14   2.0000      -0.672182       -18.2910
  15   2.0000      -0.530352       -14.4316
  16   2.0000      -0.464283       -12.6338
  17   2.0000      -0.461916       -12.5694
  18   2.0000      -0.418803       -11.3962
  19   2.0000      -0.403510       -10.9801
  20   2.0000      -0.394398       -10.7321
  21   2.0000      -0.363407        -9.8888
  22   2.0000      -0.344639        -9.3781
  23   2.0000      -0.290172        -7.8960
  24   2.0000      -0.287515        -7.8237
  25   2.0000      -0.251430        -6.8418
  26   2.0000      -0.237348        -6.4586
  27   2.0000      -0.224245        -6.1020
  28   2.0000      -0.191102        -5.2002
  29   0.0000       0.254937         6.9372
  30   0.0000       0.300436         8.1753
  31   0.0000       0.315390         8.5822
  32   0.0000       0.320182         8.7126
  33   0.0000       0.347592         9.4584

MULLIKEN ATOMIC CHARGES
-----------------------
   0 C :   -0.424932
   1 C :   -0.308902
   2 H :    0.130346
   3 H :    0.120106
   4 S :    0.727548
   5 O :   -0.522275
   6 O :   -0.529799
   7 O :   -0.589735
   8 H :    0.152133
   9 H :    0.102544
  10 H :    0.142967
Sum of atomic charges:   -1.0000000

LOEWDIN ATOMIC CHARGES
----------------------
   0 C :   -0.362126
   1 C :   -0.443692
   2 H :    0.128765
   3 H :    0.126659
   4 S :    0.387266
   5 O :   -0.371847
   6 O :   -0.371387
   7 O :   -0.447243
   8 H :    0.123271
   9 H :    0.107621
  10 H :    0.122713

  Mayer bond orders larger than 0.100000
B(  0-C ,  1-C ) :   0.9431 B(  0-C ,  8-H ) :   0.9692 B(  0-C ,  9-H ) :   0.9733
B(  0-C , 10-H ) :   0.9718 B(  1-C ,  2-H ) :   0.9648 B(  1-C ,  3-H ) :   0.9589
B(  1-C ,  4-S ) :   0.9038 B(  4-S ,  5-O ) :   1.8494 B(  4-S ,  6-O ) :   1.7987
B(  4-S ,  7-O ) :   1.7571

FINAL SINGLE POINT ENERGY      -702.100396444463

DIPOLE MOMENT
-------------
                                X             Y             Z
Electronic contribution:      2.22791      -5.56947      -4.98008
Nuclear contribution   :     -2.69163       7.29476       5.86550
                        -----------------------------------------
Total Dipole Moment    :     -0.46371       1.72528       0.88542
                        -----------------------------------------
Magnitude (a.u.)       :      1.99389
Magnitude (Debye)      :      5.06807

Rotational constants in cm-1:     0.163060     0.082831     0.081111
Rotational constants in MHz :  4888.419330  2483.225008  2431.646841

                             ****ORCA TERMINATED NORMALLY****
TOTAL RUN TIME: 0 days 0 hours 0 minutes 23 seconds 507 msec
