                         Program Version 5.0.0 -  RELEASE  -
|  1> !LC-PBE RIJCOSX def2-TZVP def2/J TightSCF
|  2> *xyz 1 1
|  3> C          1.96337       -1.74915       -1.89689
|  4> N          2.73849       -2.01517       -3.09711
|  5> C          4.04974       -2.15472       -3.15204
|  6> N          4.65821       -1.98629       -4.31866
|  7> N          4.76423       -2.45444       -2.05049
|  8> H          4.28736       -2.77626       -1.21750
|  9> H          5.75082       -2.65835       -2.12599
| 10> H          2.34518       -1.69027       -3.97145
| 11> H          4.10900       -1.59268       -5.07176
| 12> H          5.64910       -2.15646       -4.42724
| 13> C          2.08852       -0.30091       -1.41520
| 14> H          2.23127       -2.45162       -1.10264
| 15> H          0.93025       -1.97780       -2.15544
| 16> H          1.82118        0.36368       -2.21003
| 17> H          3.09792       -0.11068       -1.11551
| 18> H          1.43391       -0.14382       -0.58352
| 19> *
| 20> %MaxCore 64000
| 21>
| 22> %pal nprocs 4
| 23> end
| 24>
| 25> %scf
| 26>   MaxIter 150
| 27> end
| 28>
| 29>
| 30>                          ****END OF INPUT****

CARTESIAN COORDINATES (ANGSTROEM)
---------------------------------
  C      1.963370   -1.749150   -1.896890
  N      2.738490   -2.015170   -3.097110
  C      4.049740   -2.154720   -3.152040
  N      4.658210   -1.986290   -4.318660
  N      4.764230   -2.454440   -2.050490
  H      4.287360   -2.776260   -1.217500
  H      5.750820   -2.658350   -2.125990
  H      2.345180   -1.690270   -3.971450
  H      4.109000   -1.592680   -5.071760
  H      5.649100   -2.156460   -4.427240
  C      2.088520   -0.300910   -1.415200
  H      2.231270   -2.451620   -1.102640
  H      0.930250   -1.977800   -2.155440
  H      1.821180    0.363680   -2.210030
  H      3.097920   -0.110680   -1.115510
  H      1.433910   -0.143820   -0.583520

 Total Charge           Charge          ....    1
 Multiplicity           Mult            ....    1
 Number of Electrons    NEL             ....   48
 Basis Dimension        Dim             ....  246

ORBITAL ENERGIES
----------------

  NO   OCC          E(Eh)            E(eV)
   0   2.0000     -14.440310      -392.9408
   1   2.0000     -14.439668      -392.9233
   2   2.0000     -14.437146      -392.8547
   3   2.0000     -10.459785      -284.6252
   4   2.0000     -10.322680      -280.8944
   5   2.0000     -10.247465      -278.8477
   6   2.0000      -1.399129       -38.0722
   7   2.0000      -1.278851       -34.7993
   8   2.0000      -1.263733       -34.3879
   9   2.0000      -1.104121       -30.0447
  10   2.0000      -1.002466       -27.2785
  11   2.0000      -0.963919       -26.2296
  12   2.0000      -0.936977       -25.4964
  13   2.0000      -0.895363       -24.3641
  14   2.0000      -0.837444       -22.7880
  15   2.0000      -0.827297       -22.5119
  16   2.0000      -0.806689       -21.9511
  17   2.0000      -0.773040       -21.0355
  18   2.0000      -0.742073       -20.1928
  19   2.0000      -0.703755       -19.1501
  20   2.0000      -0.664839       -18.0912
  21   2.0000      -0.641558       -17.4577
  22   2.0000      -0.611968       -16.6525
  23   2.0000      -0.578172       -15.7329
  24   0.0000      -0.072727        -1.9790
  25   0.0000      -0.066115        -1.7991
  26   0.0000      -0.034538        -0.9398
  27   0.0000      -0.024199        -0.6585
  28   0.0000       0.002976         0.0810

MULLIKEN ATOMIC CHARGES
-----------------------
   0 C :   -0.285927
   1 N :   -0.219238
   2 C :    0.376509
   3 N :   -0.411862
   4 N :   -0.428391
   5 H :    0.307089
   6 H :    0.300407
   7 H :    0.265506
   8 H :    0.298174
   9 H :    0.308901
  10 C :   -0.407767
  11 H :    0.169145
  12 H :    0.204465
  13 H :    0.165942
  14 H :    0.162989
  15 H :    0.194057
Sum of atomic charges:    1.0000000

LOEWDIN ATOMIC CHARGES
----------------------
   0 C :   -0.303731
   1 N :    0.165922
   2 C :   -0.408194
   3 N :    0.061999
   4 N :    0.051975
   5 H :    0.201074
   6 H :    0.200469
   7 H :    0.216512
   8 H :    0.203610
   9 H :    0.204058
  10 C :   -0.304540
  11 H :    0.146390
  12 H :    0.159332
  13 H :    0.132253
  14 H :    0.129633
  15 H :    0.143239

  Mayer bond orders larger than 0.100000
B(  0-C ,  1-N ) :   0.8871 B(  0-C , 10-C ) :   0.9520 B(  0-C , 11-H ) :   0.9743
B(  0-C , 12-H ) :   0.9552 B(  1-N ,  2-C ) :   1.3901 B(  1-N ,  7-H ) :   0.9028
B(  2-C ,  3-N ) :   1.3491 B(  2-C ,  4-N ) :   1.3358 B(  3-N ,  8-H ) :   0.8932
B(  3-N ,  9-H ) :   0.8885 B(  4-N ,  5-H ) :   0.8846 B(  4-N ,  6-H ) :   0.8937
B( 10-C , 13-H ) :   0.9624 B( 10-C , 14-H ) :   0.9563 B( 10-C , 15-H ) :   0.9651

FINAL SINGLE POINT ENERGY      -283.600222583255

DIPOLE MOMENT
-------------
                                X             Y             Z
Electronic contribution:      3.03490      -2.72106      -3.11592
Nuclear contribution   :     -2.17768       2.37118       2.44574
                        -----------------------------------------
Total Dipole Moment    :      0.85722      -0.34988      -0.67018
                        -----------------------------------------
Magnitude (a.u.)       :      1.14297
Magnitude (Debye)      :      2.90520

Rotational constants in cm-1:     0.215650     0.075183     0.066454
Rotational constants in MHz :  6465.033740  2253.919004  1992.232519

                             ****ORCA TERMINATED NORMALLY****
TOTAL RUN TIME: 0 days 0 hours 0 minutes 32 seconds 812 msec
