                         Program Version 5.0.0 -  RELEASE  -
|  1> !LC-PBE RIJCOSX def2-TZVP def2/J TightSCF xyzfile
|  2>
|  3> *xyzfile 0 1 B.xyz
|  4>
|  5> %MaxCore 64000
|  6>
|  7> %pal nprocs 18
|  8> end
|  9>
| 10> %scf
| 11>   MaxIter 150
| 12> end
| 13>
| 14>
| 15>                          ****END OF INPUT****

CARTESIAN COORDINATES (ANGSTROEM)
---------------------------------
  C      1.963365   -1.749150   -1.896887
  N      2.738490   -2.015170   -3.097113
  C      0.611877    1.657634   -4.500288
  C      1.694991    1.541794   -5.570447
  H      2.697326    1.734659   -5.183996
  H      1.506656    2.272239   -6.358076
  S      1.780287   -0.033128   -6.428739
  C      4.049736   -2.154717   -3.152044
  N      4.658206   -1.986293   -4.318655
  N      4.764231   -2.454435   -2.050491
  H      4.287363   -2.776259   -1.217496
  H      5.750825   -2.658351   -2.125988
  H      2.345176   -1.690274   -3.971447
  H      4.109004   -1.592677   -5.071760
  H      5.649095   -2.156462   -4.427237
  O      2.569287    0.213657   -7.607360
  O      0.416880   -0.462969   -6.618595
  C      2.088520   -0.300912   -1.415204
  H      2.231272   -2.451616   -1.102643
  H      0.930249   -1.977801   -2.155438
  C      0.680356    0.655418   -3.348038
  H     -0.356865    1.549231   -4.991128
  H      0.650228    2.675438   -4.096000
  C      1.968993    0.733582   -2.535654
  H      3.051356   -0.168602   -0.911868
  H      1.316501   -0.136231   -0.657252
  O      2.505129   -0.933263   -5.482570
  H      2.824195    0.624726   -3.208464
  H      2.058919    1.730331   -2.093112
  H      0.542252   -0.344731   -3.766662
  H     -0.174219    0.829692   -2.685182

 Total Charge           Charge          ....    0
 Multiplicity           Mult            ....    1
 Number of Electrons    NEL             ....  120
 Basis Dimension        Dim             ....  542

ORBITAL ENERGIES
----------------

  NO   OCC          E(Eh)            E(eV)
   0   2.0000     -88.416241     -2405.9282
   1   2.0000     -18.917066      -514.7595
   2   2.0000     -18.894596      -514.1481
   3   2.0000     -18.893214      -514.1105
   4   2.0000     -14.302887      -389.2013
   5   2.0000     -14.273177      -388.3929
   6   2.0000     -14.271359      -388.3434
   7   2.0000     -10.307669      -280.4859
   8   2.0000     -10.188728      -277.2494
   9   2.0000     -10.138497      -275.8825
  10   2.0000     -10.118708      -275.3440
  11   2.0000     -10.106732      -275.0182
  12   2.0000     -10.105133      -274.9746
  13   2.0000     -10.103345      -274.9260
  14   2.0000      -8.027200      -218.4312
  15   2.0000      -6.044380      -164.4759
  16   2.0000      -6.043015      -164.4388
  17   2.0000      -6.041496      -164.3975
  18   2.0000      -1.250007       -34.0144
  19   2.0000      -1.244590       -33.8670
  20   2.0000      -1.130300       -30.7570
  21   2.0000      -1.115109       -30.3437
  22   2.0000      -1.095835       -29.8192
  23   2.0000      -1.095388       -29.8070
  24   2.0000      -1.003066       -27.2948
  25   2.0000      -0.960739       -26.1430
  26   2.0000      -0.906915       -24.6784
  27   2.0000      -0.862232       -23.4625
  28   2.0000      -0.831543       -22.6274
  29   2.0000      -0.793928       -21.6039
  30   2.0000      -0.785285       -21.3687
  31   2.0000      -0.749983       -20.4081
  32   2.0000      -0.728425       -19.8214
  33   2.0000      -0.705320       -19.1927
  34   2.0000      -0.685245       -18.6465
  35   2.0000      -0.672768       -18.3069
  36   2.0000      -0.651545       -17.7295
  37   2.0000      -0.626192       -17.0396
  38   2.0000      -0.624706       -16.9991
  39   2.0000      -0.618669       -16.8348
  40   2.0000      -0.601747       -16.3744
  41   2.0000      -0.584716       -15.9109
  42   2.0000      -0.572046       -15.5662
  43   2.0000      -0.559027       -15.2119
  44   2.0000      -0.542772       -14.7696
  45   2.0000      -0.531971       -14.4757
  46   2.0000      -0.512642       -13.9497
  47   2.0000      -0.503753       -13.7078
  48   2.0000      -0.496300       -13.5050
  49   2.0000      -0.471230       -12.8228
  50   2.0000      -0.465610       -12.6699
  51   2.0000      -0.459753       -12.5105
  52   2.0000      -0.442985       -12.0542
  53   2.0000      -0.439651       -11.9635
  54   2.0000      -0.436515       -11.8782
  55   2.0000      -0.423186       -11.5155
  56   2.0000      -0.397663       -10.8210
  57   2.0000      -0.388588       -10.5740
  58   2.0000      -0.373772       -10.1709
  59   2.0000      -0.351751        -9.5716
  60   0.0000       0.057808         1.5730
  61   0.0000       0.073733         2.0064
  62   0.0000       0.090123         2.4524
  63   0.0000       0.120232         3.2717
  64   0.0000       0.129401         3.5212

MULLIKEN ATOMIC CHARGES
-----------------------
   0 C :   -0.407879
   1 N :   -0.188580
   2 C :   -0.281305
   3 C :   -0.384781
   4 H :    0.166098
   5 H :    0.186559
   6 S :    0.777204
   7 C :    0.346237
   8 N :   -0.411210
   9 N :   -0.463423
  10 H :    0.287790
  11 H :    0.276565
  12 H :    0.319473
  13 H :    0.335378
  14 H :    0.265078
  15 O :   -0.479641
  16 O :   -0.472225
  17 C :   -0.213260
  18 H :    0.164977
  19 H :    0.225572
  20 C :   -0.332949
  21 H :    0.184594
  22 H :    0.144225
  23 C :   -0.355235
  24 H :    0.155518
  25 H :    0.162056
  26 O :   -0.672255
  27 H :    0.172517
  28 H :    0.161318
  29 H :    0.183906
  30 H :    0.147676
Sum of atomic charges:    0.0000000

LOEWDIN ATOMIC CHARGES
----------------------
   0 C :   -0.296946
   1 N :    0.174171
   2 C :   -0.305938
   3 C :   -0.402692
   4 H :    0.134731
   5 H :    0.147352
   6 S :    0.431994
   7 C :   -0.419476
   8 N :    0.053558
   9 N :    0.016469
  10 H :    0.189341
  11 H :    0.187054
  12 H :    0.188384
  13 H :    0.183213
  14 H :    0.184472
  15 O :   -0.329570
  16 O :   -0.327212
  17 C :   -0.286242
  18 H :    0.135474
  19 H :    0.156678
  20 C :   -0.290471
  21 H :    0.155558
  22 H :    0.144775
  23 C :   -0.288002
  24 H :    0.143290
  25 H :    0.151360
  26 O :   -0.418422
  27 H :    0.147317
  28 H :    0.148166
  29 H :    0.146750
  30 H :    0.144865

  Mayer bond orders larger than 0.100000
B(  0-C ,  1-N ) :   0.8928 B(  0-C , 17-C ) :   0.8862 B(  0-C , 18-H ) :   0.9970
B(  0-C , 19-H ) :   0.9665 B(  1-N ,  7-C ) :   1.4406 B(  1-N , 12-H ) :   0.8084
B(  2-C ,  3-C ) :   0.9233 B(  2-C , 20-C ) :   0.9644 B(  2-C , 21-H ) :   0.9705
B(  2-C , 22-H ) :   0.9718 B(  3-C ,  4-H ) :   0.9622 B(  3-C ,  5-H ) :   0.9591
B(  3-C ,  6-S ) :   0.9182 B(  6-S , 15-O ) :   1.9264 B(  6-S , 16-O ) :   1.8625
B(  6-S , 26-O ) :   1.4158 B(  7-C ,  8-N ) :   1.3997 B(  7-C ,  9-N ) :   1.2590
B(  8-N , 13-H ) :   0.8056 B(  8-N , 14-H ) :   0.9125 B(  9-N , 10-H ) :   0.8954
B(  9-N , 11-H ) :   0.9090 B( 12-H , 26-O ) :   0.1104 B( 13-H , 26-O ) :   0.1008
B( 17-C , 23-C ) :   0.9371 B( 17-C , 24-H ) :   0.9871 B( 17-C , 25-H ) :   0.9789
B( 20-C , 23-C ) :   0.9015 B( 20-C , 29-H ) :   0.9532 B( 20-C , 30-H ) :   0.9761
B( 23-C , 27-H ) :   0.9701 B( 23-C , 28-H ) :   0.9771

FINAL SINGLE POINT ENERGY     -1063.050313698240

DIPOLE MOMENT
-------------
                                X             Y             Z
Electronic contribution:      2.32193      -4.97075     -14.12708
Nuclear contribution   :      0.44641       3.59123      19.13564
                        -----------------------------------------
Total Dipole Moment    :      2.76835      -1.37951       5.00855
                        -----------------------------------------
Magnitude (a.u.)       :      5.88663
Magnitude (Debye)      :     14.96262

Rotational constants in cm-1:     0.029186     0.014646     0.011115
Rotational constants in MHz :   874.975540   439.070287   333.231642

                             ****ORCA TERMINATED NORMALLY****
TOTAL RUN TIME: 0 days 0 hours 1 minutes 15 seconds 353 msec
