                         Program Version 5.0.0 -  RELEASE  -
|  1> !LC-PBE RIJCOSX def2-TZVP def2/J TightSCF
|  2> *xyz 0 1
|  3> C          0.61188        1.65763       -4.50029
|  4> C          1.69499        1.54179       -5.57045
|  5> H          2.69733        1.73466       -5.18400
|  6> H          1.50666        2.27224       -6.35808
|  7> S          1.78029       -0.03313       -6.42874
|  8> F          2.56929        0.21366       -7.60736
|  9> O          0.41688       -0.46297       -6.61859
| 10> O          2.50513       -0.93326       -5.48257
| 11> H         -0.34424        1.45871       -4.93752
| 12> H          0.61845        2.64655       -4.09174
| 13> H          0.80247        0.94882       -3.72173
| 14> *
| 15> %MaxCore 64000
| 16>
| 17> %pal nprocs 4
| 18> end
| 19>
| 20> %scf
| 21>   MaxIter 150
| 22> end
| 23>
| 24>
| 25>                          ****END OF INPUT****

CARTESIAN COORDINATES (ANGSTROEM)
---------------------------------
  C      0.611880    1.657630   -4.500290
  C      1.694990    1.541790   -5.570450
  H      2.697330    1.734660   -5.184000
  H      1.506660    2.272240   -6.358080
  S      1.780290   -0.033130   -6.428740
  F      2.569290    0.213660   -7.607360
  O      0.416880   -0.462970   -6.618590
  O      2.505130   -0.933260   -5.482570
  H     -0.344240    1.458710   -4.937520
  H      0.618450    2.646550   -4.091740
  H      0.802470    0.948820   -3.721730

 Total Charge           Charge          ....    0
 Multiplicity           Mult            ....    1
 Number of Electrons    NEL             ....   58
 Basis Dimension        Dim             ....  222

ORBITAL ENERGIES
----------------

  NO   OCC          E(Eh)            E(eV)
   0   2.0000     -88.534379     -2409.1429
   1   2.0000     -24.618371      -669.8999
   2   2.0000     -18.994067      -516.8548
   3   2.0000     -18.973389      -516.2922
   4   2.0000     -10.181822      -277.0615
   5   2.0000     -10.133077      -275.7350
   6   2.0000      -8.145627      -221.6538
   7   2.0000      -6.165917      -167.7831
   8   2.0000      -6.159028      -167.5957
   9   2.0000      -6.158470      -167.5805
  10   2.0000      -1.550420       -42.1891
  11   2.0000      -1.275834       -34.7172
  12   2.0000      -1.163729       -31.6667
  13   2.0000      -1.003054       -27.2945
  14   2.0000      -0.902884       -24.5687
  15   2.0000      -0.840549       -22.8725
  16   2.0000      -0.747518       -20.3410
  17   2.0000      -0.746479       -20.3127
  18   2.0000      -0.707963       -19.2647
  19   2.0000      -0.643542       -17.5117
  20   2.0000      -0.630817       -17.1654
  21   2.0000      -0.583137       -15.8680
  22   2.0000      -0.572577       -15.5806
  23   2.0000      -0.546640       -14.8748
  24   2.0000      -0.526938       -14.3387
  25   2.0000      -0.521825       -14.1996
  26   2.0000      -0.471848       -12.8396
  27   2.0000      -0.451780       -12.2936
  28   2.0000      -0.439025       -11.9465
  29   0.0000       0.108167         2.9434
  30   0.0000       0.124918         3.3992
  31   0.0000       0.150412         4.0929
  32   0.0000       0.157184         4.2772
  33   0.0000       0.169603         4.6151

MULLIKEN ATOMIC CHARGES
-----------------------
   0 C :   -0.444142
   1 C :   -0.308887
   2 H :    0.190304
   3 H :    0.169093
   4 S :    0.766310
   5 F :   -0.066267
   6 O :   -0.383786
   7 O :   -0.441584
   8 H :    0.178851
   9 H :    0.161956
  10 H :    0.178152
Sum of atomic charges:    0.0000000

LOEWDIN ATOMIC CHARGES
----------------------
   0 C :   -0.322763
   1 C :   -0.412055
   2 H :    0.149189
   3 H :    0.143383
   4 S :    0.509401
   5 F :    0.115904
   6 O :   -0.257566
   7 O :   -0.328643
   8 H :    0.134771
   9 H :    0.132460
  10 H :    0.135919

  Mayer bond orders larger than 0.100000
B(  0-C ,  1-C ) :   0.9606 B(  0-C ,  8-H ) :   0.9596 B(  0-C ,  9-H ) :   0.9604
B(  0-C , 10-H ) :   0.9616 B(  1-C ,  2-H ) :   0.9352 B(  1-C ,  3-H ) :   0.9352
B(  1-C ,  4-S ) :   0.9325 B(  4-S ,  5-F ) :   1.1926 B(  4-S ,  6-O ) :   1.9434
B(  4-S ,  7-O ) :   1.8923

FINAL SINGLE POINT ENERGY      -726.587827966945

DIPOLE MOMENT
-------------
                                X             Y             Z
Electronic contribution:      3.88936      -5.57855      -7.57036
Nuclear contribution   :     -3.66946       7.33549       7.42434
                        -----------------------------------------
Total Dipole Moment    :      0.21990       1.75694      -0.14602
                        -----------------------------------------
Magnitude (a.u.)       :      1.77666
Magnitude (Debye)      :      4.51590

Rotational constants in cm-1:     0.158379     0.080294     0.077843
Rotational constants in MHz :  4748.076444  2407.152850  2333.668303

                             ****ORCA TERMINATED NORMALLY****
TOTAL RUN TIME: 0 days 0 hours 0 minutes 20 seconds 860 msec
