                         Program Version 5.0.0 -  RELEASE  -
|  1> !LC-PBE RIJCOSX def2-TZVP def2/J TightSCF
|  2> *xyz 0 1
|  3> C          1.96337       -1.74915       -1.89689
|  4> C          2.73849       -2.01517       -3.09711
|  5> C          4.04974       -2.15472       -3.15204
|  6> N          4.65821       -1.98629       -4.31866
|  7> N          4.76423       -2.45444       -2.05049
|  8> H          4.28736       -2.77626       -1.21750
|  9> H          5.75082       -2.65835       -2.12599
| 10> H          2.34518       -1.69027       -3.97145
| 11> H          4.10900       -1.59268       -5.07176
| 12> H          5.64910       -2.15646       -4.42724
| 13> C          2.08852       -0.30091       -1.41520
| 14> H          2.23127       -2.45162       -1.10264
| 15> H          0.93025       -1.97780       -2.15544
| 16> H          1.82118        0.36368       -2.21003
| 17> H          3.09792       -0.11068       -1.11551
| 18> H          1.43391       -0.14382       -0.58352
| 19> *
| 20> %MaxCore 64000
| 21>
| 22> %pal nprocs 4
| 23> end
| 24>
| 25> %scf
| 26>   MaxIter 150
| 27> end
| 28>
| 29>
| 30>                          ****END OF INPUT****

CARTESIAN COORDINATES (ANGSTROEM)
---------------------------------
  C      1.963370   -1.749150   -1.896890
  C      2.738490   -2.015170   -3.097110
  C      4.049740   -2.154720   -3.152040
  N      4.658210   -1.986290   -4.318660
  N      4.764230   -2.454440   -2.050490
  H      4.287360   -2.776260   -1.217500
  H      5.750820   -2.658350   -2.125990
  H      2.345180   -1.690270   -3.971450
  H      4.109000   -1.592680   -5.071760
  H      5.649100   -2.156460   -4.427240
  C      2.088520   -0.300910   -1.415200
  H      2.231270   -2.451620   -1.102640
  H      0.930250   -1.977800   -2.155440
  H      1.821180    0.363680   -2.210030
  H      3.097920   -0.110680   -1.115510
  H      1.433910   -0.143820   -0.583520

 Total Charge           Charge          ....    0
 Multiplicity           Mult            ....    1
 Number of Electrons    NEL             ....   48
 Basis Dimension        Dim             ....  246

ORBITAL ENERGIES
----------------

  NO   OCC          E(Eh)            E(eV)
   0   2.0000     -14.212757      -386.7488
   1   2.0000     -14.209900      -386.6710
   2   2.0000     -10.161338      -276.5041
   3   2.0000     -10.086826      -274.4765
   4   2.0000     -10.074015      -274.1279
   5   2.0000     -10.030039      -272.9312
   6   2.0000      -1.136322       -30.9209
   7   2.0000      -1.038113       -28.2485
   8   2.0000      -0.949839       -25.8464
   9   2.0000      -0.860558       -23.4170
  10   2.0000      -0.775889       -21.1130
  11   2.0000      -0.731959       -19.9176
  12   2.0000      -0.689848       -18.7717
  13   2.0000      -0.655783       -17.8447
  14   2.0000      -0.610186       -16.6040
  15   2.0000      -0.579731       -15.7753
  16   2.0000      -0.564594       -15.3634
  17   2.0000      -0.528549       -14.3825
  18   2.0000      -0.514669       -14.0049
  19   2.0000      -0.489166       -13.3109
  20   2.0000      -0.455322       -12.3899
  21   2.0000      -0.442463       -12.0400
  22   2.0000      -0.399390       -10.8679
  23   2.0000      -0.274152        -7.4600
  24   0.0000       0.105399         2.8680
  25   0.0000       0.136339         3.7100
  26   0.0000       0.143699         3.9102
  27   0.0000       0.165265         4.4971
  28   0.0000       0.172555         4.6955

MULLIKEN ATOMIC CHARGES
-----------------------
   0 C :   -0.300399
   1 C :   -0.408691
   2 C :    0.344350
   3 N :   -0.494897
   4 N :   -0.505119
   5 H :    0.265598
   6 H :    0.239021
   7 H :    0.103713
   8 H :    0.262805
   9 H :    0.241241
  10 C :   -0.392672
  11 H :    0.100655
  12 H :    0.135373
  13 H :    0.135206
  14 H :    0.139903
  15 H :    0.133914
Sum of atomic charges:   -0.0000000

LOEWDIN ATOMIC CHARGES
----------------------
   0 C :   -0.326448
   1 C :   -0.303093
   2 C :   -0.463312
   3 N :   -0.020977
   4 N :   -0.028234
   5 H :    0.179921
   6 H :    0.166028
   7 H :    0.126994
   8 H :    0.184970
   9 H :    0.167287
  10 C :   -0.322125
  11 H :    0.133328
  12 H :    0.146630
  13 H :    0.121547
  14 H :    0.121546
  15 H :    0.115938

  Mayer bond orders larger than 0.100000
B(  0-C ,  1-C ) :   1.0097 B(  0-C , 10-C ) :   0.9240 B(  0-C , 11-H ) :   0.9872
B(  0-C , 12-H ) :   0.9972 B(  1-C ,  2-C ) :   1.6481 B(  1-C ,  7-H ) :   1.0272
B(  2-C ,  3-N ) :   1.1561 B(  2-C ,  4-N ) :   1.1351 B(  3-N ,  8-H ) :   0.9170
B(  3-N ,  9-H ) :   0.9264 B(  4-N ,  5-H ) :   0.9159 B(  4-N ,  6-H ) :   0.9267
B( 10-C , 13-H ) :   0.9767 B( 10-C , 14-H ) :   0.9731 B( 10-C , 15-H ) :   0.9836

FINAL SINGLE POINT ENERGY      -267.132140763594

DIPOLE MOMENT
-------------
                                X             Y             Z
Electronic contribution:      3.36534      -2.44239      -2.52587
Nuclear contribution   :     -2.31778       2.31977       2.35294
                        -----------------------------------------
Total Dipole Moment    :      1.04756      -0.12262      -0.17293
                        -----------------------------------------
Magnitude (a.u.)       :      1.06880
Magnitude (Debye)      :      2.71667

Rotational constants in cm-1:     0.219415     0.075373     0.066689
Rotational constants in MHz :  6577.897266  2259.621393  1999.290981

                             ****ORCA TERMINATED NORMALLY****
TOTAL RUN TIME: 0 days 0 hours 0 minutes 33 seconds 751 msec
