                         Program Version 5.0.0 -  RELEASE  -
|  1> !LC-PBE RIJCOSX def2-TZVP def2/J TightSCF
|  2> *xyz 0 1
|  3> C          0.61188        1.65763       -4.50029
|  4> C          1.69499        1.54179       -5.57045
|  5> H          2.69733        1.73466       -5.18400
|  6> H          1.50666        2.27224       -6.35808
|  7> S          1.78029       -0.03313       -6.42874
|  8> O          2.56929        0.21366       -7.60736
|  9> F          0.41688       -0.46297       -6.61859
| 10> O          2.50513       -0.93326       -5.48257
| 11> H         -0.34424        1.45871       -4.93752
| 12> H          0.61845        2.64655       -4.09174
| 13> H          0.80247        0.94882       -3.72173
| 14> *
| 15> %MaxCore 64000
| 16>
| 17> %pal nprocs 4
| 18> end
| 19>
| 20> %scf
| 21>   MaxIter 150
| 22> end
| 23>
| 24>
| 25>                          ****END OF INPUT****

CARTESIAN COORDINATES (ANGSTROEM)
---------------------------------
  C      0.611880    1.657630   -4.500290
  C      1.694990    1.541790   -5.570450
  H      2.697330    1.734660   -5.184000
  H      1.506660    2.272240   -6.358080
  S      1.780290   -0.033130   -6.428740
  O      2.569290    0.213660   -7.607360
  F      0.416880   -0.462970   -6.618590
  O      2.505130   -0.933260   -5.482570
  H     -0.344240    1.458710   -4.937520
  H      0.618450    2.646550   -4.091740
  H      0.802470    0.948820   -3.721730

 Total Charge           Charge          ....    0
 Multiplicity           Mult            ....    1
 Number of Electrons    NEL             ....   58
 Basis Dimension        Dim             ....  222

ORBITAL ENERGIES
----------------

  NO   OCC          E(Eh)            E(eV)
   0   2.0000     -88.534014     -2409.1330
   1   2.0000     -24.617564      -669.8780
   2   2.0000     -18.993761      -516.8465
   3   2.0000     -18.973488      -516.2949
   4   2.0000     -10.181600      -277.0554
   5   2.0000     -10.139318      -275.9049
   6   2.0000      -8.145278      -221.6443
   7   2.0000      -6.165758      -167.7788
   8   2.0000      -6.158522      -167.5819
   9   2.0000      -6.158108      -167.5706
  10   2.0000      -1.548615       -42.1400
  11   2.0000      -1.276832       -34.7444
  12   2.0000      -1.163503       -31.6605
  13   2.0000      -1.007369       -27.4119
  14   2.0000      -0.897728       -24.4284
  15   2.0000      -0.846696       -23.0398
  16   2.0000      -0.758773       -20.6473
  17   2.0000      -0.745422       -20.2840
  18   2.0000      -0.697010       -18.9666
  19   2.0000      -0.644498       -17.5377
  20   2.0000      -0.623916       -16.9776
  21   2.0000      -0.595927       -16.2160
  22   2.0000      -0.578859       -15.7515
  23   2.0000      -0.551623       -15.0104
  24   2.0000      -0.533018       -14.5042
  25   2.0000      -0.520770       -14.1709
  26   2.0000      -0.470071       -12.7913
  27   2.0000      -0.452188       -12.3047
  28   2.0000      -0.439309       -11.9542
  29   0.0000       0.096399         2.6232
  30   0.0000       0.133965         3.6454
  31   0.0000       0.151461         4.1215
  32   0.0000       0.157360         4.2820
  33   0.0000       0.165329         4.4988

MULLIKEN ATOMIC CHARGES
-----------------------
   0 C :   -0.451887
   1 C :   -0.312212
   2 H :    0.204678
   3 H :    0.183658
   4 S :    0.763002
   5 O :   -0.375338
   6 F :   -0.072324
   7 O :   -0.442208
   8 H :    0.156790
   9 H :    0.165313
  10 H :    0.180527
Sum of atomic charges:   -0.0000000

LOEWDIN ATOMIC CHARGES
----------------------
   0 C :   -0.336825
   1 C :   -0.404995
   2 H :    0.159453
   3 H :    0.148371
   4 S :    0.509930
   5 O :   -0.256312
   6 F :    0.114745
   7 O :   -0.328318
   8 H :    0.126381
   9 H :    0.133446
  10 H :    0.134123

  Mayer bond orders larger than 0.100000
B(  0-C ,  1-C ) :   0.9487 B(  0-C ,  8-H ) :   0.9651 B(  0-C ,  9-H ) :   0.9631
B(  0-C , 10-H ) :   0.9598 B(  1-C ,  2-H ) :   0.9348 B(  1-C ,  3-H ) :   0.9386
B(  1-C ,  4-S ) :   0.9268 B(  4-S ,  5-O ) :   1.9761 B(  4-S ,  6-F ) :   1.1770
B(  4-S ,  7-O ) :   1.8906

FINAL SINGLE POINT ENERGY      -726.587880431723

DIPOLE MOMENT
-------------
                                X             Y             Z
Electronic contribution:      0.19486      -6.72317      -5.84529
Nuclear contribution   :     -1.42658       8.04056       6.39401
                        -----------------------------------------
Total Dipole Moment    :     -1.23172       1.31739       0.54873
                        -----------------------------------------
Magnitude (a.u.)       :      1.88514
Magnitude (Debye)      :      4.79164

Rotational constants in cm-1:     0.153659     0.082363     0.078978
Rotational constants in MHz :  4606.587369  2469.179541  2367.702074

                             ****ORCA TERMINATED NORMALLY****
TOTAL RUN TIME: 0 days 0 hours 0 minutes 20 seconds 607 msec
