                         Program Version 5.0.0 -  RELEASE  -
|  1> !LC-PBE RIJCOSX def2-TZVP def2/J TightSCF
|  2> *xyz 0 1
|  3> C          1.96337       -1.74915       -1.89689
|  4> N          2.73849       -2.01517       -3.09711
|  5> C          4.04974       -2.15472       -3.15204
|  6> C          4.65821       -1.98629       -4.31866
|  7> N          4.76423       -2.45444       -2.05049
|  8> H          4.28736       -2.77626       -1.21750
|  9> H          5.75082       -2.65835       -2.12599
| 10> H          2.34518       -1.69027       -3.97145
| 11> H          4.10900       -1.59268       -5.07176
| 12> H          5.64910       -2.15646       -4.42724
| 13> C          2.08852       -0.30091       -1.41520
| 14> H          2.23127       -2.45162       -1.10264
| 15> H          0.93025       -1.97780       -2.15544
| 16> H          1.82118        0.36368       -2.21003
| 17> H          3.09792       -0.11068       -1.11551
| 18> H          1.43391       -0.14382       -0.58352
| 19> *
| 20> %MaxCore 64000
| 21>
| 22> %pal nprocs 4
| 23> end
| 24>
| 25> %scf
| 26>   MaxIter 150
| 27> end
| 28>
| 29>
| 30>                          ****END OF INPUT****

CARTESIAN COORDINATES (ANGSTROEM)
---------------------------------
  C      1.963370   -1.749150   -1.896890
  N      2.738490   -2.015170   -3.097110
  C      4.049740   -2.154720   -3.152040
  C      4.658210   -1.986290   -4.318660
  N      4.764230   -2.454440   -2.050490
  H      4.287360   -2.776260   -1.217500
  H      5.750820   -2.658350   -2.125990
  H      2.345180   -1.690270   -3.971450
  H      4.109000   -1.592680   -5.071760
  H      5.649100   -2.156460   -4.427240
  C      2.088520   -0.300910   -1.415200
  H      2.231270   -2.451620   -1.102640
  H      0.930250   -1.977800   -2.155440
  H      1.821180    0.363680   -2.210030
  H      3.097920   -0.110680   -1.115510
  H      1.433910   -0.143820   -0.583520

 Total Charge           Charge          ....    0
 Multiplicity           Mult            ....    1
 Number of Electrons    NEL             ....   48
 Basis Dimension        Dim             ....  246

ORBITAL ENERGIES
----------------

  NO   OCC          E(Eh)            E(eV)
   0   2.0000     -14.212988      -386.7551
   1   2.0000     -14.211855      -386.7242
   2   2.0000     -10.163897      -276.5737
   3   2.0000     -10.155049      -276.3329
   4   2.0000     -10.100481      -274.8481
   5   2.0000     -10.021923      -272.7104
   6   2.0000      -1.146662       -31.2022
   7   2.0000      -1.053503       -28.6673
   8   2.0000      -0.945678       -25.7332
   9   2.0000      -0.870041       -23.6750
  10   2.0000      -0.791342       -21.5335
  11   2.0000      -0.752580       -20.4787
  12   2.0000      -0.684469       -18.6254
  13   2.0000      -0.642452       -17.4820
  14   2.0000      -0.619719       -16.8634
  15   2.0000      -0.581721       -15.8294
  16   2.0000      -0.574836       -15.6421
  17   2.0000      -0.539633       -14.6842
  18   2.0000      -0.518623       -14.1124
  19   2.0000      -0.507759       -13.8168
  20   2.0000      -0.495312       -13.4781
  21   2.0000      -0.485472       -13.2104
  22   2.0000      -0.385062       -10.4781
  23   2.0000      -0.280435        -7.6310
  24   0.0000       0.106889         2.9086
  25   0.0000       0.133604         3.6356
  26   0.0000       0.146001         3.9729
  27   0.0000       0.157373         4.2823
  28   0.0000       0.173873         4.7313

MULLIKEN ATOMIC CHARGES
-----------------------
   0 C :   -0.262702
   1 N :   -0.279191
   2 C :    0.356963
   3 C :   -0.634973
   4 N :   -0.511368
   5 H :    0.244820
   6 H :    0.262828
   7 H :    0.238800
   8 H :    0.119077
   9 H :    0.127636
  10 C :   -0.387184
  11 H :    0.132469
  12 H :    0.155121
  13 H :    0.140156
  14 H :    0.155476
  15 H :    0.142071
Sum of atomic charges:    0.0000000

LOEWDIN ATOMIC CHARGES
----------------------
   0 C :   -0.335055
   1 N :    0.113210
   2 C :   -0.470951
   3 C :   -0.354171
   4 N :   -0.025918
   5 H :    0.166431
   6 H :    0.180608
   7 H :    0.202430
   8 H :    0.102660
   9 H :    0.100963
  10 C :   -0.325765
  11 H :    0.132524
  12 H :    0.139820
  13 H :    0.123593
  14 H :    0.126634
  15 H :    0.122987

  Mayer bond orders larger than 0.100000
B(  0-C ,  1-N ) :   0.9580 B(  0-C , 10-C ) :   0.9350 B(  0-C , 11-H ) :   0.9885
B(  0-C , 12-H ) :   0.9799 B(  1-N ,  2-C ) :   1.2013 B(  1-N ,  7-H ) :   0.9257
B(  2-C ,  3-C ) :   1.6129 B(  2-C ,  4-N ) :   1.1233 B(  3-C ,  8-H ) :   1.0115
B(  3-C ,  9-H ) :   1.0095 B(  4-N ,  5-H ) :   0.9211 B(  4-N ,  6-H ) :   0.9211
B( 10-C , 13-H ) :   0.9716 B( 10-C , 14-H ) :   0.9656 B( 10-C , 15-H ) :   0.9736

FINAL SINGLE POINT ENERGY      -267.126288828028

DIPOLE MOMENT
-------------
                                X             Y             Z
Electronic contribution:      1.39381      -2.34453      -1.17446
Nuclear contribution   :     -1.91052       2.32590       2.09379
                        -----------------------------------------
Total Dipole Moment    :     -0.51671      -0.01863       0.91933
                        -----------------------------------------
Magnitude (a.u.)       :      1.05476
Magnitude (Debye)      :      2.68097

Rotational constants in cm-1:     0.219448     0.077923     0.068804
Rotational constants in MHz :  6578.886179  2336.083179  2062.700476

                             ****ORCA TERMINATED NORMALLY****
TOTAL RUN TIME: 0 days 0 hours 0 minutes 31 seconds 644 msec
