                         Program Version 5.0.0 -  RELEASE  -
|  1> !LC-PBE RIJCOSX def2-TZVP def2/J TightSCF
|  2> *xyz 0 1
|  3> C          0.61188        1.65763       -4.50029
|  4> C          1.69499        1.54179       -5.57045
|  5> H          2.69733        1.73466       -5.18400
|  6> H          1.50666        2.27224       -6.35808
|  7> S          1.78029       -0.03313       -6.42874
|  8> O          2.56929        0.21366       -7.60736
|  9> O          0.41688       -0.46297       -6.61859
| 10> F          2.50513       -0.93326       -5.48257
| 11> H         -0.34424        1.45871       -4.93752
| 12> H          0.61845        2.64655       -4.09174
| 13> H          0.80247        0.94882       -3.72173
| 14> *
| 15> %MaxCore 64000
| 16>
| 17> %pal nprocs 4
| 18> end
| 19>
| 20> %scf
| 21>   MaxIter 150
| 22> end
| 23>
| 24>
| 25>                          ****END OF INPUT****

CARTESIAN COORDINATES (ANGSTROEM)
---------------------------------
  C      0.611880    1.657630   -4.500290
  C      1.694990    1.541790   -5.570450
  H      2.697330    1.734660   -5.184000
  H      1.506660    2.272240   -6.358080
  S      1.780290   -0.033130   -6.428740
  O      2.569290    0.213660   -7.607360
  O      0.416880   -0.462970   -6.618590
  F      2.505130   -0.933260   -5.482570
  H     -0.344240    1.458710   -4.937520
  H      0.618450    2.646550   -4.091740
  H      0.802470    0.948820   -3.721730

 Total Charge           Charge          ....    0
 Multiplicity           Mult            ....    1
 Number of Electrons    NEL             ....   58
 Basis Dimension        Dim             ....  222

ORBITAL ENERGIES
----------------

  NO   OCC          E(Eh)            E(eV)
   0   2.0000     -88.531633     -2409.0682
   1   2.0000     -24.588971      -669.0999
   2   2.0000     -18.993958      -516.8519
   3   2.0000     -18.993348      -516.8353
   4   2.0000     -10.180559      -277.0271
   5   2.0000     -10.134046      -275.7614
   6   2.0000      -8.142825      -221.5775
   7   2.0000      -6.163405      -167.7148
   8   2.0000      -6.156393      -167.5240
   9   2.0000      -6.155448      -167.4983
  10   2.0000      -1.505465       -40.9658
  11   2.0000      -1.288074       -35.0503
  12   2.0000      -1.191416       -32.4201
  13   2.0000      -1.003884       -27.3171
  14   2.0000      -0.885010       -24.0823
  15   2.0000      -0.831717       -22.6322
  16   2.0000      -0.732079       -19.9209
  17   2.0000      -0.714142       -19.4328
  18   2.0000      -0.699523       -19.0350
  19   2.0000      -0.643133       -17.5005
  20   2.0000      -0.625761       -17.0278
  21   2.0000      -0.602416       -16.3926
  22   2.0000      -0.575278       -15.6541
  23   2.0000      -0.547255       -14.8916
  24   2.0000      -0.541153       -14.7255
  25   2.0000      -0.517748       -14.0886
  26   2.0000      -0.481172       -13.0934
  27   2.0000      -0.467147       -12.7117
  28   2.0000      -0.460861       -12.5407
  29   0.0000       0.102202         2.7811
  30   0.0000       0.135355         3.6832
  31   0.0000       0.148612         4.0439
  32   0.0000       0.161433         4.3928
  33   0.0000       0.170916         4.6509

MULLIKEN ATOMIC CHARGES
-----------------------
   0 C :   -0.441671
   1 C :   -0.321427
   2 H :    0.183562
   3 H :    0.197244
   4 S :    0.770453
   5 O :   -0.387448
   6 O :   -0.394369
   7 F :   -0.111882
   8 H :    0.185410
   9 H :    0.161996
  10 H :    0.158133
Sum of atomic charges:    0.0000000

LOEWDIN ATOMIC CHARGES
----------------------
   0 C :   -0.333860
   1 C :   -0.408269
   2 H :    0.146214
   3 H :    0.158559
   4 S :    0.516990
   5 O :   -0.261822
   6 O :   -0.261252
   7 F :    0.047813
   8 H :    0.134977
   9 H :    0.131793
  10 H :    0.128857

  Mayer bond orders larger than 0.100000
B(  0-C ,  1-C ) :   0.9498 B(  0-C ,  8-H ) :   0.9583 B(  0-C ,  9-H ) :   0.9621
B(  0-C , 10-H ) :   0.9659 B(  1-C ,  2-H ) :   0.9420 B(  1-C ,  3-H ) :   0.9346
B(  1-C ,  4-S ) :   0.9257 B(  4-S ,  5-O ) :   1.9727 B(  4-S ,  6-O ) :   1.9409
B(  4-S ,  7-F ) :   1.1308

FINAL SINGLE POINT ENERGY      -726.612321981347

DIPOLE MOMENT
-------------
                                X             Y             Z
Electronic contribution:      3.79936      -7.57124      -3.88124
Nuclear contribution   :     -3.60260       8.53062       5.21025
                        -----------------------------------------
Total Dipole Moment    :      0.19676       0.95937       1.32901
                        -----------------------------------------
Magnitude (a.u.)       :      1.65087
Magnitude (Debye)      :      4.19619

Rotational constants in cm-1:     0.154011     0.080858     0.079602
Rotational constants in MHz :  4617.134198  2424.070332  2386.404775

                             ****ORCA TERMINATED NORMALLY****
TOTAL RUN TIME: 0 days 0 hours 0 minutes 18 seconds 954 msec
