                         Program Version 5.0.0 -  RELEASE  -
|  1> !LC-PBE RIJCOSX def2-TZVP def2/J TightSCF
|  2> *xyz 0 1
|  3> C          1.96337       -1.74915       -1.89689
|  4> N          2.73849       -2.01517       -3.09711
|  5> C          4.04974       -2.15472       -3.15204
|  6> N          4.65821       -1.98629       -4.31866
|  7> C          4.76423       -2.45444       -2.05049
|  8> H          4.28736       -2.77626       -1.21750
|  9> H          5.75082       -2.65835       -2.12599
| 10> H          2.34518       -1.69027       -3.97145
| 11> H          4.10900       -1.59268       -5.07176
| 12> H          5.64910       -2.15646       -4.42724
| 13> C          2.08852       -0.30091       -1.41520
| 14> H          2.23127       -2.45162       -1.10264
| 15> H          0.93025       -1.97780       -2.15544
| 16> H          1.82118        0.36368       -2.21003
| 17> H          3.09792       -0.11068       -1.11551
| 18> H          1.43391       -0.14382       -0.58352
| 19> *
| 20> %MaxCore 64000
| 21>
| 22> %pal nprocs 4
| 23> end
| 24>
| 25> %scf
| 26>   MaxIter 150
| 27> end
| 28>
| 29>
| 30>                          ****END OF INPUT****

CARTESIAN COORDINATES (ANGSTROEM)
---------------------------------
  C      1.963370   -1.749150   -1.896890
  N      2.738490   -2.015170   -3.097110
  C      4.049740   -2.154720   -3.152040
  N      4.658210   -1.986290   -4.318660
  C      4.764230   -2.454440   -2.050490
  H      4.287360   -2.776260   -1.217500
  H      5.750820   -2.658350   -2.125990
  H      2.345180   -1.690270   -3.971450
  H      4.109000   -1.592680   -5.071760
  H      5.649100   -2.156460   -4.427240
  C      2.088520   -0.300910   -1.415200
  H      2.231270   -2.451620   -1.102640
  H      0.930250   -1.977800   -2.155440
  H      1.821180    0.363680   -2.210030
  H      3.097920   -0.110680   -1.115510
  H      1.433910   -0.143820   -0.583520

 Total Charge           Charge          ....    0
 Multiplicity           Mult            ....    1
 Number of Electrons    NEL             ....   48
 Basis Dimension        Dim             ....  246

ORBITAL ENERGIES
----------------

  NO   OCC          E(Eh)            E(eV)
   0   2.0000     -14.217262      -386.8714
   1   2.0000     -14.214038      -386.7836
   2   2.0000     -10.165873      -276.6275
   3   2.0000     -10.147985      -276.1407
   4   2.0000     -10.093484      -274.6577
   5   2.0000     -10.021279      -272.6929
   6   2.0000      -1.152355       -31.3572
   7   2.0000      -1.058519       -28.8038
   8   2.0000      -0.926611       -25.2144
   9   2.0000      -0.875735       -23.8300
  10   2.0000      -0.805398       -21.9160
  11   2.0000      -0.713927       -19.4269
  12   2.0000      -0.696217       -18.9450
  13   2.0000      -0.670842       -18.2546
  14   2.0000      -0.611850       -16.6493
  15   2.0000      -0.581528       -15.8242
  16   2.0000      -0.561362       -15.2754
  17   2.0000      -0.534883       -14.5549
  18   2.0000      -0.514217       -13.9925
  19   2.0000      -0.503150       -13.6914
  20   2.0000      -0.497469       -13.5368
  21   2.0000      -0.474306       -12.9065
  22   2.0000      -0.381822       -10.3899
  23   2.0000      -0.281406        -7.6574
  24   0.0000       0.104019         2.8305
  25   0.0000       0.134909         3.6711
  26   0.0000       0.150291         4.0896
  27   0.0000       0.159521         4.3408
  28   0.0000       0.176082         4.7914

MULLIKEN ATOMIC CHARGES
-----------------------
   0 C :   -0.233177
   1 N :   -0.282853
   2 C :    0.321070
   3 N :   -0.488232
   4 C :   -0.621787
   5 H :    0.128880
   6 H :    0.117943
   7 H :    0.206252
   8 H :    0.232681
   9 H :    0.270291
  10 C :   -0.403412
  11 H :    0.156486
  12 H :    0.149130
  13 H :    0.126528
  14 H :    0.176961
  15 H :    0.143240
Sum of atomic charges:   -0.0000000

LOEWDIN ATOMIC CHARGES
----------------------
   0 C :   -0.318277
   1 N :    0.111393
   2 C :   -0.477467
   3 N :   -0.016064
   4 C :   -0.366040
   5 H :    0.102497
   6 H :    0.098683
   7 H :    0.184493
   8 H :    0.167619
   9 H :    0.183946
  10 C :   -0.325220
  11 H :    0.143414
  12 H :    0.137295
  13 H :    0.118951
  14 H :    0.131260
  15 H :    0.123516

  Mayer bond orders larger than 0.100000
B(  0-C ,  1-N ) :   0.9382 B(  0-C , 10-C ) :   0.9486 B(  0-C , 11-H ) :   0.9755
B(  0-C , 12-H ) :   0.9778 B(  1-N ,  2-C ) :   1.1878 B(  1-N ,  7-H ) :   0.9347
B(  2-C ,  3-N ) :   1.1432 B(  2-C ,  4-C ) :   1.6360 B(  3-N ,  8-H ) :   0.9276
B(  3-N ,  9-H ) :   0.9162 B(  4-C ,  5-H ) :   1.0082 B(  4-C ,  6-H ) :   1.0023
B( 10-C , 13-H ) :   0.9739 B( 10-C , 14-H ) :   0.9630 B( 10-C , 15-H ) :   0.9754

FINAL SINGLE POINT ENERGY      -267.125244868796

DIPOLE MOMENT
-------------
                                X             Y             Z
Electronic contribution:      1.31091      -1.80144      -3.49232
Nuclear contribution   :     -1.88803       2.22658       2.57497
                        -----------------------------------------
Total Dipole Moment    :     -0.57712       0.42514      -0.91735
                        -----------------------------------------
Magnitude (a.u.)       :      1.16420
Magnitude (Debye)      :      2.95915

Rotational constants in cm-1:     0.226509     0.075782     0.067928
Rotational constants in MHz :  6790.555051  2271.890226  2036.439218

                             ****ORCA TERMINATED NORMALLY****
TOTAL RUN TIME: 0 days 0 hours 0 minutes 34 seconds 341 msec
