                         Program Version 5.0.0 -  RELEASE  -
|  1> !LC-PBE RIJCOSX def2-TZVP def2/J TightSCF xyzfile
|  2>
|  3> *xyzfile 0 1 D1.xyz
|  4>
|  5> %MaxCore 64000
|  6>
|  7> %pal nprocs 18
|  8> end
|  9>
| 10> %scf
| 11>   MaxIter 150
| 12> end
| 13>
| 14>
| 15>                          ****END OF INPUT****

CARTESIAN COORDINATES (ANGSTROEM)
---------------------------------
  C      1.963365   -1.749150   -1.896887
  C      2.738490   -2.015170   -3.097113
  C      0.611877    1.657634   -4.500288
  C      1.694991    1.541794   -5.570447
  H      2.697326    1.734659   -5.183996
  H      1.506656    2.272239   -6.358076
  S      1.780287   -0.033128   -6.428739
  C      4.049736   -2.154717   -3.152044
  N      4.658206   -1.986293   -4.318655
  N      4.764231   -2.454435   -2.050491
  H      4.287363   -2.776259   -1.217496
  H      5.750825   -2.658351   -2.125988
  H      2.345176   -1.690274   -3.971447
  H      4.109004   -1.592677   -5.071760
  H      5.649095   -2.156462   -4.427237
  F      2.569287    0.213657   -7.607360
  O      0.416880   -0.462969   -6.618595
  C      2.088520   -0.300912   -1.415204
  H      2.231272   -2.451616   -1.102643
  H      0.930249   -1.977801   -2.155438
  C      0.680356    0.655418   -3.348038
  H     -0.356865    1.549231   -4.991128
  H      0.650228    2.675438   -4.096000
  C      1.968993    0.733582   -2.535654
  H      3.051356   -0.168602   -0.911868
  H      1.316501   -0.136231   -0.657252
  O      2.505129   -0.933263   -5.482570
  H      2.824195    0.624726   -3.208464
  H      2.058919    1.730331   -2.093112
  H      0.542252   -0.344731   -3.766662
  H     -0.174219    0.829692   -2.685182

 Total Charge           Charge          ....    0
 Multiplicity           Mult            ....    1
 Number of Electrons    NEL             ....  120
 Basis Dimension        Dim             ....  542

ORBITAL ENERGIES
----------------

  NO   OCC          E(Eh)            E(eV)
   0   2.0000     -88.544515     -2409.4188
   1   2.0000     -24.626707      -670.1268
   2   2.0000     -19.003290      -517.1058
   3   2.0000     -18.989685      -516.7356
   4   2.0000     -14.193887      -386.2353
   5   2.0000     -14.178001      -385.8030
   6   2.0000     -10.182160      -277.0707
   7   2.0000     -10.140299      -275.9316
   8   2.0000     -10.137345      -275.8512
   9   2.0000     -10.107367      -275.0354
  10   2.0000     -10.095569      -274.7144
  11   2.0000     -10.085252      -274.4336
  12   2.0000     -10.072570      -274.0886
  13   2.0000      -9.997507      -272.0460
  14   2.0000      -8.156130      -221.9396
  15   2.0000      -6.176450      -168.0697
  16   2.0000      -6.169318      -167.8757
  17   2.0000      -6.169116      -167.8702
  18   2.0000      -1.559132       -42.4261
  19   2.0000      -1.288221       -35.0543
  20   2.0000      -1.182639       -32.1813
  21   2.0000      -1.112769       -30.2800
  22   2.0000      -1.019140       -27.7322
  23   2.0000      -1.014324       -27.6012
  24   2.0000      -0.970127       -26.3985
  25   2.0000      -0.926306       -25.2061
  26   2.0000      -0.892137       -24.2763
  27   2.0000      -0.857331       -23.3292
  28   2.0000      -0.817363       -22.2416
  29   2.0000      -0.781614       -21.2688
  30   2.0000      -0.761643       -20.7254
  31   2.0000      -0.745382       -20.2829
  32   2.0000      -0.741669       -20.1818
  33   2.0000      -0.704589       -19.1728
  34   2.0000      -0.699670       -19.0390
  35   2.0000      -0.672725       -18.3058
  36   2.0000      -0.646191       -17.5837
  37   2.0000      -0.641492       -17.4559
  38   2.0000      -0.631497       -17.1839
  39   2.0000      -0.609041       -16.5728
  40   2.0000      -0.607210       -16.5230
  41   2.0000      -0.585107       -15.9216
  42   2.0000      -0.574885       -15.6434
  43   2.0000      -0.565752       -15.3949
  44   2.0000      -0.552691       -15.0395
  45   2.0000      -0.542294       -14.7566
  46   2.0000      -0.520163       -14.1544
  47   2.0000      -0.513278       -13.9670
  48   2.0000      -0.507376       -13.8064
  49   2.0000      -0.496715       -13.5163
  50   2.0000      -0.485836       -13.2203
  51   2.0000      -0.464127       -12.6295
  52   2.0000      -0.459647       -12.5076
  53   2.0000      -0.455554       -12.3963
  54   2.0000      -0.451907       -12.2970
  55   2.0000      -0.436487       -11.8774
  56   2.0000      -0.421679       -11.4745
  57   2.0000      -0.407067       -11.0769
  58   2.0000      -0.376153       -10.2357
  59   2.0000      -0.250653        -6.8206
  60   0.0000       0.104788         2.8514
  61   0.0000       0.114169         3.1067
  62   0.0000       0.121561         3.3079
  63   0.0000       0.138394         3.7659
  64   0.0000       0.141030         3.8376

MULLIKEN ATOMIC CHARGES
-----------------------
   0 C :   -0.452851
   1 C :   -0.388389
   2 C :   -0.291881
   3 C :   -0.381086
   4 H :    0.217450
   5 H :    0.200280
   6 S :    0.785545
   7 C :    0.296906
   8 N :   -0.488249
   9 N :   -0.504962
  10 H :    0.259571
  11 H :    0.232804
  12 H :    0.195700
  13 H :    0.263739
  14 H :    0.225453
  15 F :   -0.065683
  16 O :   -0.363593
  17 C :   -0.211770
  18 H :    0.132758
  19 H :    0.165906
  20 C :   -0.364306
  21 H :    0.191807
  22 H :    0.169531
  23 C :   -0.306556
  24 H :    0.141513
  25 H :    0.131999
  26 O :   -0.468778
  27 H :    0.174783
  28 H :    0.145693
  29 H :    0.201488
  30 H :    0.155179
Sum of atomic charges:   -0.0000000

LOEWDIN ATOMIC CHARGES
----------------------
   0 C :   -0.310653
   1 C :   -0.301491
   2 C :   -0.295226
   3 C :   -0.384007
   4 H :    0.152674
   5 H :    0.148479
   6 S :    0.534366
   7 C :   -0.469097
   8 N :   -0.030100
   9 N :   -0.035590
  10 H :    0.176958
  11 H :    0.162284
  12 H :    0.124251
  13 H :    0.164616
  14 H :    0.159435
  15 F :    0.117793
  16 O :   -0.243337
  17 C :   -0.278199
  18 H :    0.135225
  19 H :    0.148330
  20 C :   -0.282541
  21 H :    0.155697
  22 H :    0.156122
  23 C :   -0.287601
  24 H :    0.143139
  25 H :    0.137067
  26 O :   -0.290265
  27 H :    0.148015
  28 H :    0.140226
  29 H :    0.154412
  30 H :    0.149017

  Mayer bond orders larger than 0.100000
B(  0-C ,  1-C ) :   0.9306 B(  0-C , 17-C ) :   0.8895 B(  0-C , 18-H ) :   1.0066
B(  0-C , 19-H ) :   1.0087 B(  1-C ,  7-C ) :   1.6366 B(  1-C , 12-H ) :   1.0242
B(  2-C ,  3-C ) :   0.9310 B(  2-C , 20-C ) :   0.9500 B(  2-C , 21-H ) :   0.9742
B(  2-C , 22-H ) :   0.9615 B(  3-C ,  4-H ) :   0.9344 B(  3-C ,  5-H ) :   0.9415
B(  3-C ,  6-S ) :   0.9362 B(  6-S , 15-F ) :   1.2012 B(  6-S , 16-O ) :   1.9635
B(  6-S , 26-O ) :   1.7522 B(  7-C ,  8-N ) :   1.1879 B(  7-C ,  9-N ) :   1.1421
B(  8-N , 13-H ) :   0.8818 B(  8-N , 14-H ) :   0.9329 B(  9-N , 10-H ) :   0.9163
B(  9-N , 11-H ) :   0.9292 B( 17-C , 23-C ) :   0.9628 B( 17-C , 24-H ) :   0.9837
B( 17-C , 25-H ) :   0.9927 B( 20-C , 23-C ) :   0.8805 B( 20-C , 29-H ) :   0.9711
B( 20-C , 30-H ) :   0.9773 B( 23-C , 27-H ) :   0.9728 B( 23-C , 28-H ) :   0.9779

FINAL SINGLE POINT ENERGY     -1070.895157318613

DIPOLE MOMENT
-------------
                                X             Y             Z
Electronic contribution:      0.81802      -0.94497     -23.56845
Nuclear contribution   :      0.18720       2.58739      22.98820
                        -----------------------------------------
Total Dipole Moment    :      1.00522       1.64243      -0.58025
                        -----------------------------------------
Magnitude (a.u.)       :      2.01115
Magnitude (Debye)      :      5.11194

Rotational constants in cm-1:     0.028798     0.014448     0.010940
Rotational constants in MHz :   863.355869   433.126694   327.985023

                             ****ORCA TERMINATED NORMALLY****
TOTAL RUN TIME: 0 days 0 hours 1 minutes 29 seconds 664 msec
