                         Program Version 5.0.0 -  RELEASE  -
|  1> !LC-PBE RIJCOSX def2-TZVP def2/J TightSCF xyzfile
|  2>
|  3> *xyzfile 0 1 D2.xyz
|  4>
|  5> %MaxCore 64000
|  6>
|  7> %pal nprocs 18
|  8> end
|  9>
| 10> %scf
| 11>   MaxIter 150
| 12> end
| 13>
| 14>
| 15>                          ****END OF INPUT****

CARTESIAN COORDINATES (ANGSTROEM)
---------------------------------
  C      1.963365   -1.749150   -1.896887
  N      2.738490   -2.015170   -3.097113
  C      0.611877    1.657634   -4.500288
  C      1.694991    1.541794   -5.570447
  H      2.697326    1.734659   -5.183996
  H      1.506656    2.272239   -6.358076
  S      1.780287   -0.033128   -6.428739
  C      4.049736   -2.154717   -3.152044
  C      4.658206   -1.986293   -4.318655
  N      4.764231   -2.454435   -2.050491
  H      4.287363   -2.776259   -1.217496
  H      5.750825   -2.658351   -2.125988
  H      2.345176   -1.690274   -3.971447
  H      4.109004   -1.592677   -5.071760
  H      5.649095   -2.156462   -4.427237
  F      2.569287    0.213657   -7.607360
  O      0.416880   -0.462969   -6.618595
  C      2.088520   -0.300912   -1.415204
  H      2.231272   -2.451616   -1.102643
  H      0.930249   -1.977801   -2.155438
  C      0.680356    0.655418   -3.348038
  H     -0.356865    1.549231   -4.991128
  H      0.650228    2.675438   -4.096000
  C      1.968993    0.733582   -2.535654
  H      3.051356   -0.168602   -0.911868
  H      1.316501   -0.136231   -0.657252
  O      2.505129   -0.933263   -5.482570
  H      2.824195    0.624726   -3.208464
  H      2.058919    1.730331   -2.093112
  H      0.542252   -0.344731   -3.766662
  H     -0.174219    0.829692   -2.685182

 Total Charge           Charge          ....    0
 Multiplicity           Mult            ....    1
 Number of Electrons    NEL             ....  120
 Basis Dimension        Dim             ....  542

ORBITAL ENERGIES
----------------

  NO   OCC          E(Eh)            E(eV)
   0   2.0000     -88.547565     -2409.5017
   1   2.0000     -24.628227      -670.1681
   2   2.0000     -19.005488      -517.1656
   3   2.0000     -18.989887      -516.7411
   4   2.0000     -14.192167      -386.1885
   5   2.0000     -14.179605      -385.8467
   6   2.0000     -10.185910      -277.1727
   7   2.0000     -10.148651      -276.1588
   8   2.0000     -10.139050      -275.8976
   9   2.0000     -10.137253      -275.8487
  10   2.0000     -10.122060      -275.4353
  11   2.0000     -10.111873      -275.1581
  12   2.0000     -10.107067      -275.0273
  13   2.0000      -9.990397      -271.8525
  14   2.0000      -8.158977      -222.0170
  15   2.0000      -6.179082      -168.1414
  16   2.0000      -6.172286      -167.9564
  17   2.0000      -6.172082      -167.9509
  18   2.0000      -1.560168       -42.4543
  19   2.0000      -1.290333       -35.1118
  20   2.0000      -1.184062       -32.2200
  21   2.0000      -1.122667       -30.5493
  22   2.0000      -1.035523       -28.1780
  23   2.0000      -1.024220       -27.8705
  24   2.0000      -0.970350       -26.4046
  25   2.0000      -0.931982       -25.3605
  26   2.0000      -0.888978       -24.1903
  27   2.0000      -0.865159       -23.5422
  28   2.0000      -0.825160       -22.4538
  29   2.0000      -0.790099       -21.4997
  30   2.0000      -0.763908       -20.7870
  31   2.0000      -0.753103       -20.4930
  32   2.0000      -0.743823       -20.2404
  33   2.0000      -0.720295       -19.6002
  34   2.0000      -0.709410       -19.3040
  35   2.0000      -0.665153       -18.0997
  36   2.0000      -0.652437       -17.7537
  37   2.0000      -0.648250       -17.6398
  38   2.0000      -0.624172       -16.9846
  39   2.0000      -0.620191       -16.8762
  40   2.0000      -0.607928       -16.5426
  41   2.0000      -0.599389       -16.3102
  42   2.0000      -0.585322       -15.9274
  43   2.0000      -0.571505       -15.5514
  44   2.0000      -0.555977       -15.1289
  45   2.0000      -0.541352       -14.7309
  46   2.0000      -0.526561       -14.3285
  47   2.0000      -0.518626       -14.1125
  48   2.0000      -0.506298       -13.7771
  49   2.0000      -0.501795       -13.6545
  50   2.0000      -0.488697       -13.2981
  51   2.0000      -0.486031       -13.2256
  52   2.0000      -0.481245       -13.0954
  53   2.0000      -0.466600       -12.6968
  54   2.0000      -0.456228       -12.4146
  55   2.0000      -0.450307       -12.2535
  56   2.0000      -0.444590       -12.0979
  57   2.0000      -0.434182       -11.8147
  58   2.0000      -0.361515        -9.8373
  59   2.0000      -0.255435        -6.9508
  60   0.0000       0.101196         2.7537
  61   0.0000       0.110087         2.9956
  62   0.0000       0.121007         3.2928
  63   0.0000       0.133157         3.6234
  64   0.0000       0.140569         3.8251

MULLIKEN ATOMIC CHARGES
-----------------------
   0 C :   -0.407484
   1 N :   -0.235026
   2 C :   -0.292955
   3 C :   -0.386476
   4 H :    0.225021
   5 H :    0.202164
   6 S :    0.796392
   7 C :    0.317378
   8 C :   -0.630789
   9 N :   -0.521012
  10 H :    0.239699
  11 H :    0.257176
  12 H :    0.266139
  13 H :    0.148413
  14 H :    0.115904
  15 F :   -0.060240
  16 O :   -0.370245
  17 C :   -0.185245
  18 H :    0.156481
  19 H :    0.192143
  20 C :   -0.362582
  21 H :    0.194241
  22 H :    0.173026
  23 C :   -0.365981
  24 H :    0.155488
  25 H :    0.138989
  26 O :   -0.464283
  27 H :    0.197555
  28 H :    0.153022
  29 H :    0.194489
  30 H :    0.158600
Sum of atomic charges:    0.0000000

LOEWDIN ATOMIC CHARGES
----------------------
   0 C :   -0.319998
   1 N :    0.119718
   2 C :   -0.293818
   3 C :   -0.383011
   4 H :    0.154903
   5 H :    0.149346
   6 S :    0.539093
   7 C :   -0.475634
   8 C :   -0.370255
   9 N :   -0.033405
  10 H :    0.163062
  11 H :    0.177030
  12 H :    0.180290
  13 H :    0.098950
  14 H :    0.094696
  15 F :    0.124602
  16 O :   -0.247864
  17 C :   -0.287843
  18 H :    0.134083
  19 H :    0.141897
  20 C :   -0.286748
  21 H :    0.156709
  22 H :    0.157215
  23 C :   -0.288706
  24 H :    0.146936
  25 H :    0.142629
  26 O :   -0.288623
  27 H :    0.151997
  28 H :    0.144428
  29 H :    0.148590
  30 H :    0.149732

  Mayer bond orders larger than 0.100000
B(  0-C ,  1-N ) :   0.9519 B(  0-C , 17-C ) :   0.8720 B(  0-C , 18-H ) :   1.0007
B(  0-C , 19-H ) :   0.9909 B(  1-N ,  7-C ) :   1.2161 B(  1-N , 12-H ) :   0.8912
B(  2-C ,  3-C ) :   0.9302 B(  2-C , 20-C ) :   0.9537 B(  2-C , 21-H ) :   0.9734
B(  2-C , 22-H ) :   0.9617 B(  3-C ,  4-H ) :   0.9327 B(  3-C ,  5-H ) :   0.9424
B(  3-C ,  6-S ) :   0.9354 B(  6-S , 15-F ) :   1.2121 B(  6-S , 16-O ) :   1.9556
B(  6-S , 26-O ) :   1.7475 B(  7-C ,  8-C ) :   1.6338 B(  7-C ,  9-N ) :   1.1058
B(  8-C , 13-H ) :   0.9929 B(  8-C , 14-H ) :   1.0060 B(  9-N , 10-H ) :   0.9212
B(  9-N , 11-H ) :   0.9258 B( 17-C , 23-C ) :   0.9518 B( 17-C , 24-H ) :   0.9764
B( 17-C , 25-H ) :   0.9816 B( 20-C , 23-C ) :   0.8872 B( 20-C , 29-H ) :   0.9685
B( 20-C , 30-H ) :   0.9754 B( 23-C , 27-H ) :   0.9621 B( 23-C , 28-H ) :   0.9744

FINAL SINGLE POINT ENERGY     -1070.890640325350

DIPOLE MOMENT
-------------
                                X             Y             Z
Electronic contribution:     -0.88062      -0.74786     -22.49214
Nuclear contribution   :      0.43347       2.59110      22.83150
                        -----------------------------------------
Total Dipole Moment    :     -0.44715       1.84324       0.33936
                        -----------------------------------------
Magnitude (a.u.)       :      1.92682
Magnitude (Debye)      :      4.89758

Rotational constants in cm-1:     0.029257     0.014415     0.010996
Rotational constants in MHz :   877.098782   432.159206   329.643335

                             ****ORCA TERMINATED NORMALLY****
TOTAL RUN TIME: 0 days 0 hours 1 minutes 15 seconds 171 msec
