                         Program Version 5.0.0 -  RELEASE  -
|  1> !LC-PBE RIJCOSX def2-TZVP def2/J TightSCF xyzfile
|  2>
|  3> *xyzfile 0 1 D3.xyz
|  4>
|  5> %MaxCore 64000
|  6>
|  7> %pal nprocs 18
|  8> end
|  9>
| 10> %scf
| 11>   MaxIter 150
| 12> end
| 13>
| 14>
| 15>                          ****END OF INPUT****

CARTESIAN COORDINATES (ANGSTROEM)
---------------------------------
  C      1.963365   -1.749150   -1.896887
  N      2.738490   -2.015170   -3.097113
  C      0.611877    1.657634   -4.500288
  C      1.694991    1.541794   -5.570447
  H      2.697326    1.734659   -5.183996
  H      1.506656    2.272239   -6.358076
  S      1.780287   -0.033128   -6.428739
  C      4.049736   -2.154717   -3.152044
  N      4.658206   -1.986293   -4.318655
  C      4.764231   -2.454435   -2.050491
  H      4.287363   -2.776259   -1.217496
  H      5.750825   -2.658351   -2.125988
  H      2.345176   -1.690274   -3.971447
  H      4.109004   -1.592677   -5.071760
  H      5.649095   -2.156462   -4.427237
  F      2.569287    0.213657   -7.607360
  O      0.416880   -0.462969   -6.618595
  C      2.088520   -0.300912   -1.415204
  H      2.231272   -2.451616   -1.102643
  H      0.930249   -1.977801   -2.155438
  C      0.680356    0.655418   -3.348038
  H     -0.356865    1.549231   -4.991128
  H      0.650228    2.675438   -4.096000
  C      1.968993    0.733582   -2.535654
  H      3.051356   -0.168602   -0.911868
  H      1.316501   -0.136231   -0.657252
  O      2.505129   -0.933263   -5.482570
  H      2.824195    0.624726   -3.208464
  H      2.058919    1.730331   -2.093112
  H      0.542252   -0.344731   -3.766662
  H     -0.174219    0.829692   -2.685182

 Total Charge           Charge          ....    0
 Multiplicity           Mult            ....    1
 Number of Electrons    NEL             ....  120
 Basis Dimension        Dim             ....  542

ORBITAL ENERGIES
----------------

  NO   OCC          E(Eh)            E(eV)
   0   2.0000     -88.564772     -2409.9700
   1   2.0000     -24.643788      -670.5916
   2   2.0000     -19.020663      -517.5786
   3   2.0000     -19.012825      -517.3653
   4   2.0000     -14.181632      -385.9018
   5   2.0000     -14.179004      -385.8303
   6   2.0000     -10.197201      -277.4799
   7   2.0000     -10.155067      -276.3334
   8   2.0000     -10.141672      -275.9689
   9   2.0000     -10.130187      -275.6564
  10   2.0000     -10.125240      -275.5218
  11   2.0000     -10.112704      -275.1807
  12   2.0000     -10.101286      -274.8700
  13   2.0000      -9.999147      -272.0906
  14   2.0000      -8.176136      -222.4840
  15   2.0000      -6.196319      -168.6104
  16   2.0000      -6.189615      -168.4280
  17   2.0000      -6.189027      -168.4120
  18   2.0000      -1.575926       -42.8831
  19   2.0000      -1.307439       -35.5772
  20   2.0000      -1.203780       -32.7565
  21   2.0000      -1.123902       -30.5829
  22   2.0000      -1.038158       -28.2497
  23   2.0000      -1.028996       -28.0004
  24   2.0000      -0.973411       -26.4879
  25   2.0000      -0.931075       -25.3358
  26   2.0000      -0.891664       -24.2634
  27   2.0000      -0.856812       -23.3150
  28   2.0000      -0.847198       -23.0534
  29   2.0000      -0.802627       -21.8406
  30   2.0000      -0.776005       -21.1162
  31   2.0000      -0.763607       -20.7788
  32   2.0000      -0.746458       -20.3122
  33   2.0000      -0.726519       -19.7696
  34   2.0000      -0.692440       -18.8423
  35   2.0000      -0.674562       -18.3558
  36   2.0000      -0.666056       -18.1243
  37   2.0000      -0.657125       -17.8813
  38   2.0000      -0.643344       -17.5063
  39   2.0000      -0.627115       -17.0647
  40   2.0000      -0.604948       -16.4615
  41   2.0000      -0.601982       -16.3808
  42   2.0000      -0.584601       -15.9078
  43   2.0000      -0.565294       -15.3824
  44   2.0000      -0.559414       -15.2224
  45   2.0000      -0.558400       -15.1948
  46   2.0000      -0.528349       -14.3771
  47   2.0000      -0.520982       -14.1766
  48   2.0000      -0.511180       -13.9099
  49   2.0000      -0.503261       -13.6944
  50   2.0000      -0.496429       -13.5085
  51   2.0000      -0.484871       -13.1940
  52   2.0000      -0.481303       -13.0969
  53   2.0000      -0.475263       -12.9326
  54   2.0000      -0.469489       -12.7754
  55   2.0000      -0.457224       -12.4417
  56   2.0000      -0.452472       -12.3124
  57   2.0000      -0.439627       -11.9629
  58   2.0000      -0.353177        -9.6104
  59   2.0000      -0.258076        -7.0226
  60   0.0000       0.092425         2.5150
  61   0.0000       0.098397         2.6775
  62   0.0000       0.126258         3.4357
  63   0.0000       0.130660         3.5554
  64   0.0000       0.135891         3.6978

MULLIKEN ATOMIC CHARGES
-----------------------
   0 C :   -0.371065
   1 N :   -0.245321
   2 C :   -0.293134
   3 C :   -0.386976
   4 H :    0.225388
   5 H :    0.207030
   6 S :    0.805403
   7 C :    0.307124
   8 N :   -0.492272
   9 C :   -0.644971
  10 H :    0.123115
  11 H :    0.111518
  12 H :    0.253251
  13 H :    0.254906
  14 H :    0.252215
  15 F :   -0.058643
  16 O :   -0.358497
  17 C :   -0.200640
  18 H :    0.175763
  19 H :    0.186790
  20 C :   -0.362852
  21 H :    0.196158
  22 H :    0.176368
  23 C :   -0.365707
  24 H :    0.175705
  25 H :    0.141932
  26 O :   -0.499677
  27 H :    0.176424
  28 H :    0.154470
  29 H :    0.193778
  30 H :    0.162418
Sum of atomic charges:    0.0000000

LOEWDIN ATOMIC CHARGES
----------------------
   0 C :   -0.302410
   1 N :    0.118989
   2 C :   -0.293305
   3 C :   -0.381714
   4 H :    0.154692
   5 H :    0.151054
   6 S :    0.543948
   7 C :   -0.476424
   8 N :   -0.024588
   9 C :   -0.385280
  10 H :    0.099408
  11 H :    0.095342
  12 H :    0.168502
  13 H :    0.152839
  14 H :    0.175065
  15 F :    0.125475
  16 O :   -0.238045
  17 C :   -0.284230
  18 H :    0.144921
  19 H :    0.139152
  20 C :   -0.286785
  21 H :    0.157022
  22 H :    0.158672
  23 C :   -0.289908
  24 H :    0.153237
  25 H :    0.143221
  26 O :   -0.309664
  27 H :    0.147008
  28 H :    0.144667
  29 H :    0.147921
  30 H :    0.151220

  Mayer bond orders larger than 0.100000
B(  0-C ,  1-N ) :   0.9390 B(  0-C , 17-C ) :   0.8957 B(  0-C , 18-H ) :   0.9861
B(  0-C , 19-H ) :   0.9896 B(  1-N ,  7-C ) :   1.2048 B(  1-N , 12-H ) :   0.8982
B(  2-C ,  3-C ) :   0.9277 B(  2-C , 20-C ) :   0.9504 B(  2-C , 21-H ) :   0.9735
B(  2-C , 22-H ) :   0.9595 B(  3-C ,  4-H ) :   0.9309 B(  3-C ,  5-H ) :   0.9405
B(  3-C ,  6-S ) :   0.9374 B(  6-S , 15-F ) :   1.2147 B(  6-S , 16-O ) :   1.9691
B(  6-S , 26-O ) :   1.7111 B(  7-C ,  8-N ) :   1.1560 B(  7-C ,  9-C ) :   1.6172
B(  8-N , 13-H ) :   0.8931 B(  8-N , 14-H ) :   0.9251 B(  9-C , 10-H ) :   1.0031
B(  9-C , 11-H ) :   1.0038 B( 17-C , 23-C ) :   0.9540 B( 17-C , 24-H ) :   0.9701
B( 17-C , 25-H ) :   0.9858 B( 20-C , 23-C ) :   0.8822 B( 20-C , 29-H ) :   0.9720
B( 20-C , 30-H ) :   0.9755 B( 23-C , 27-H ) :   0.9674 B( 23-C , 28-H ) :   0.9736

FINAL SINGLE POINT ENERGY     -1070.902229089141

DIPOLE MOMENT
-------------
                                X             Y             Z
Electronic contribution:     -1.12168      -0.14246     -24.60666
Nuclear contribution   :      0.44707       2.53104      23.12246
                        -----------------------------------------
Total Dipole Moment    :     -0.67461       2.38859      -1.48420
                        -----------------------------------------
Magnitude (a.u.)       :      2.89194
Magnitude (Debye)      :      7.35072

Rotational constants in cm-1:     0.028906     0.014696     0.011110
Rotational constants in MHz :   866.591909   440.585554   333.081943

                             ****ORCA TERMINATED NORMALLY****
TOTAL RUN TIME: 0 days 0 hours 1 minutes 20 seconds 511 msec
