                         Program Version 5.0.0 -  RELEASE  -
|  1> !LC-PBE RIJCOSX def2-TZVP def2/J TightSCF xyzfile
|  2>
|  3> *xyzfile 0 1 D4.xyz
|  4>
|  5> %MaxCore 64000
|  6>
|  7> %pal nprocs 18
|  8> end
|  9>
| 10> %scf
| 11>   MaxIter 150
| 12> end
| 13>
| 14>
| 15>                          ****END OF INPUT****

CARTESIAN COORDINATES (ANGSTROEM)
---------------------------------
  C      1.963365   -1.749150   -1.896887
  C      2.738490   -2.015170   -3.097113
  C      0.611877    1.657634   -4.500288
  C      1.694991    1.541794   -5.570447
  H      2.697326    1.734659   -5.183996
  H      1.506656    2.272239   -6.358076
  S      1.780287   -0.033128   -6.428739
  C      4.049736   -2.154717   -3.152044
  N      4.658206   -1.986293   -4.318655
  N      4.764231   -2.454435   -2.050491
  H      4.287363   -2.776259   -1.217496
  H      5.750825   -2.658351   -2.125988
  H      2.345176   -1.690274   -3.971447
  H      4.109004   -1.592677   -5.071760
  H      5.649095   -2.156462   -4.427237
  O      2.569287    0.213657   -7.607360
  F      0.416880   -0.462969   -6.618595
  C      2.088520   -0.300912   -1.415204
  H      2.231272   -2.451616   -1.102643
  H      0.930249   -1.977801   -2.155438
  C      0.680356    0.655418   -3.348038
  H     -0.356865    1.549231   -4.991128
  H      0.650228    2.675438   -4.096000
  C      1.968993    0.733582   -2.535654
  H      3.051356   -0.168602   -0.911868
  H      1.316501   -0.136231   -0.657252
  O      2.505129   -0.933263   -5.482570
  H      2.824195    0.624726   -3.208464
  H      2.058919    1.730331   -2.093112
  H      0.542252   -0.344731   -3.766662
  H     -0.174219    0.829692   -2.685182

 Total Charge           Charge          ....    0
 Multiplicity           Mult            ....    1
 Number of Electrons    NEL             ....  120
 Basis Dimension        Dim             ....  542

ORBITAL ENERGIES
----------------

  NO   OCC          E(Eh)            E(eV)
   0   2.0000     -88.544864     -2409.4282
   1   2.0000     -24.625775      -670.1014
   2   2.0000     -19.002845      -517.0937
   3   2.0000     -18.987808      -516.6845
   4   2.0000     -14.194541      -386.2531
   5   2.0000     -14.177254      -385.7827
   6   2.0000     -10.181950      -277.0649
   7   2.0000     -10.145595      -276.0757
   8   2.0000     -10.138227      -275.8752
   9   2.0000     -10.116365      -275.2803
  10   2.0000     -10.100234      -274.8413
  11   2.0000     -10.088548      -274.5233
  12   2.0000     -10.075574      -274.1703
  13   2.0000      -9.997555      -272.0473
  14   2.0000      -8.156368      -221.9461
  15   2.0000      -6.176717      -168.0770
  16   2.0000      -6.169727      -167.8868
  17   2.0000      -6.169175      -167.8718
  18   2.0000      -1.556654       -42.3587
  19   2.0000      -1.289166       -35.0800
  20   2.0000      -1.181977       -32.1632
  21   2.0000      -1.112865       -30.2826
  22   2.0000      -1.024463       -27.8770
  23   2.0000      -1.014595       -27.6085
  24   2.0000      -0.972461       -26.4620
  25   2.0000      -0.925244       -25.1772
  26   2.0000      -0.892025       -24.2732
  27   2.0000      -0.862452       -23.4685
  28   2.0000      -0.818906       -22.2836
  29   2.0000      -0.784431       -21.3454
  30   2.0000      -0.760461       -20.6932
  31   2.0000      -0.757532       -20.6135
  32   2.0000      -0.738683       -20.1006
  33   2.0000      -0.708519       -19.2798
  34   2.0000      -0.694680       -18.9032
  35   2.0000      -0.669864       -18.2279
  36   2.0000      -0.644683       -17.5427
  37   2.0000      -0.644289       -17.5320
  38   2.0000      -0.622336       -16.9346
  39   2.0000      -0.618801       -16.8384
  40   2.0000      -0.610347       -16.6084
  41   2.0000      -0.585689       -15.9374
  42   2.0000      -0.579870       -15.7791
  43   2.0000      -0.573631       -15.6093
  44   2.0000      -0.558779       -15.2052
  45   2.0000      -0.536215       -14.5912
  46   2.0000      -0.524694       -14.2776
  47   2.0000      -0.514327       -13.9956
  48   2.0000      -0.510010       -13.8781
  49   2.0000      -0.503571       -13.7029
  50   2.0000      -0.488250       -13.2859
  51   2.0000      -0.474890       -12.9224
  52   2.0000      -0.466413       -12.6918
  53   2.0000      -0.459244       -12.4967
  54   2.0000      -0.446845       -12.1593
  55   2.0000      -0.440234       -11.9794
  56   2.0000      -0.425372       -11.5750
  57   2.0000      -0.404201       -10.9989
  58   2.0000      -0.375967       -10.2306
  59   2.0000      -0.251443        -6.8421
  60   0.0000       0.094078         2.5600
  61   0.0000       0.120925         3.2905
  62   0.0000       0.121739         3.3127
  63   0.0000       0.135919         3.6985
  64   0.0000       0.139279         3.7900

MULLIKEN ATOMIC CHARGES
-----------------------
   0 C :   -0.445766
   1 C :   -0.385809
   2 C :   -0.315893
   3 C :   -0.373066
   4 H :    0.229182
   5 H :    0.212081
   6 S :    0.793536
   7 C :    0.290712
   8 N :   -0.487056
   9 N :   -0.504002
  10 H :    0.258803
  11 H :    0.233998
  12 H :    0.181086
  13 H :    0.276363
  14 H :    0.227258
  15 O :   -0.376611
  16 F :   -0.061502
  17 C :   -0.214629
  18 H :    0.133954
  19 H :    0.159494
  20 C :   -0.358339
  21 H :    0.182994
  22 H :    0.170909
  23 C :   -0.298478
  24 H :    0.144016
  25 H :    0.132147
  26 O :   -0.469196
  27 H :    0.179111
  28 H :    0.149296
  29 H :    0.176455
  30 H :    0.158953
Sum of atomic charges:    0.0000000

LOEWDIN ATOMIC CHARGES
----------------------
   0 C :   -0.312390
   1 C :   -0.307309
   2 C :   -0.307770
   3 C :   -0.375479
   4 H :    0.162403
   5 H :    0.153456
   6 S :    0.538673
   7 C :   -0.468677
   8 N :   -0.024933
   9 N :   -0.035019
  10 H :    0.176675
  11 H :    0.162824
  12 H :    0.120667
  13 H :    0.169930
  14 H :    0.160962
  15 O :   -0.251944
  16 F :    0.124191
  17 C :   -0.278020
  18 H :    0.135478
  19 H :    0.146169
  20 C :   -0.286361
  21 H :    0.147797
  22 H :    0.156303
  23 C :   -0.285816
  24 H :    0.144130
  25 H :    0.136879
  26 O :   -0.291169
  27 H :    0.150035
  28 H :    0.141564
  29 H :    0.147481
  30 H :    0.149269

  Mayer bond orders larger than 0.100000
B(  0-C ,  1-C ) :   0.9275 B(  0-C , 17-C ) :   0.8879 B(  0-C , 18-H ) :   1.0065
B(  0-C , 19-H ) :   1.0116 B(  1-C ,  7-C ) :   1.6386 B(  1-C , 12-H ) :   1.0286
B(  2-C ,  3-C ) :   0.9227 B(  2-C , 20-C ) :   0.9238 B(  2-C , 21-H ) :   0.9869
B(  2-C , 22-H ) :   0.9613 B(  3-C ,  4-H ) :   0.9324 B(  3-C ,  5-H ) :   0.9464
B(  3-C ,  6-S ) :   0.9306 B(  6-S , 15-O ) :   1.9957 B(  6-S , 16-F ) :   1.1933
B(  6-S , 26-O ) :   1.7476 B(  7-C ,  8-N ) :   1.1987 B(  7-C ,  9-N ) :   1.1429
B(  8-N , 13-H ) :   0.8786 B(  8-N , 14-H ) :   0.9322 B(  9-N , 10-H ) :   0.9164
B(  9-N , 11-H ) :   0.9286 B( 17-C , 23-C ) :   0.9611 B( 17-C , 24-H ) :   0.9829
B( 17-C , 25-H ) :   0.9932 B( 20-C , 23-C ) :   0.8722 B( 20-C , 29-H ) :   0.9854
B( 20-C , 30-H ) :   0.9754 B( 23-C , 27-H ) :   0.9721 B( 23-C , 28-H ) :   0.9770

FINAL SINGLE POINT ENERGY     -1070.895354225574

DIPOLE MOMENT
-------------
                                X             Y             Z
Electronic contribution:     -2.97994      -2.12569     -21.74188
Nuclear contribution   :      2.64598       3.36033      21.85869
                        -----------------------------------------
Total Dipole Moment    :     -0.33395       1.23464       0.11681
                        -----------------------------------------
Magnitude (a.u.)       :      1.28434
Magnitude (Debye)      :      3.26452

Rotational constants in cm-1:     0.028973     0.014435     0.011026
Rotational constants in MHz :   868.588266   432.748309   330.548534

                             ****ORCA TERMINATED NORMALLY****
TOTAL RUN TIME: 0 days 0 hours 1 minutes 14 seconds 709 msec
