                         Program Version 5.0.0 -  RELEASE  -
|  1> !LC-PBE RIJCOSX def2-TZVP def2/J TightSCF xyzfile
|  2>
|  3> *xyzfile 0 1 D8.xyz
|  4>
|  5> %MaxCore 64000
|  6>
|  7> %pal nprocs 18
|  8> end
|  9>
| 10> %scf
| 11>   MaxIter 150
| 12> end
| 13>
| 14>
| 15>                          ****END OF INPUT****

CARTESIAN COORDINATES (ANGSTROEM)
---------------------------------
  C      1.963365   -1.749150   -1.896887
  N      2.738490   -2.015170   -3.097113
  C      0.611877    1.657634   -4.500288
  C      1.694991    1.541794   -5.570447
  H      2.697326    1.734659   -5.183996
  H      1.506656    2.272239   -6.358076
  S      1.780287   -0.033128   -6.428739
  C      4.049736   -2.154717   -3.152044
  C      4.658206   -1.986293   -4.318655
  N      4.764231   -2.454435   -2.050491
  H      4.287363   -2.776259   -1.217496
  H      5.750825   -2.658351   -2.125988
  H      2.345176   -1.690274   -3.971447
  H      4.109004   -1.592677   -5.071760
  H      5.649095   -2.156462   -4.427237
  O      2.569287    0.213657   -7.607360
  O      0.416880   -0.462969   -6.618595
  C      2.088520   -0.300912   -1.415204
  H      2.231272   -2.451616   -1.102643
  H      0.930249   -1.977801   -2.155438
  C      0.680356    0.655418   -3.348038
  H     -0.356865    1.549231   -4.991128
  H      0.650228    2.675438   -4.096000
  C      1.968993    0.733582   -2.535654
  H      3.051356   -0.168602   -0.911868
  H      1.316501   -0.136231   -0.657252
  F      2.505129   -0.933263   -5.482570
  H      2.824195    0.624726   -3.208464
  H      2.058919    1.730331   -2.093112
  H      0.542252   -0.344731   -3.766662
  H     -0.174219    0.829692   -2.685182

 Total Charge           Charge          ....    0
 Multiplicity           Mult            ....    1
 Number of Electrons    NEL             ....  120
 Basis Dimension        Dim             ....  542

ORBITAL ENERGIES
----------------

  NO   OCC          E(Eh)            E(eV)
   0   2.0000     -88.535831     -2409.1824
   1   2.0000     -24.601353      -669.4369
   2   2.0000     -18.998866      -516.9854
   3   2.0000     -18.996814      -516.9296
   4   2.0000     -14.212871      -386.7519
   5   2.0000     -14.211171      -386.7056
   6   2.0000     -10.180019      -277.0124
   7   2.0000     -10.165196      -276.6090
   8   2.0000     -10.156561      -276.3741
   9   2.0000     -10.146802      -276.1085
  10   2.0000     -10.133267      -275.7402
  11   2.0000     -10.125950      -275.5411
  12   2.0000     -10.121939      -275.4320
  13   2.0000     -10.020064      -272.6598
  14   2.0000      -8.147375      -221.7013
  15   2.0000      -6.168181      -167.8447
  16   2.0000      -6.160767      -167.6430
  17   2.0000      -6.159809      -167.6169
  18   2.0000      -1.521681       -41.4070
  19   2.0000      -1.293870       -35.2080
  20   2.0000      -1.195401       -32.5285
  21   2.0000      -1.149171       -31.2705
  22   2.0000      -1.057919       -28.7875
  23   2.0000      -1.027743       -27.9663
  24   2.0000      -0.979588       -26.6559
  25   2.0000      -0.939370       -25.5616
  26   2.0000      -0.889598       -24.2072
  27   2.0000      -0.878135       -23.8953
  28   2.0000      -0.839480       -22.8434
  29   2.0000      -0.799770       -21.7629
  30   2.0000      -0.756727       -20.5916
  31   2.0000      -0.752217       -20.4689
  32   2.0000      -0.731341       -19.9008
  33   2.0000      -0.726293       -19.7634
  34   2.0000      -0.703530       -19.1440
  35   2.0000      -0.682594       -18.5743
  36   2.0000      -0.654697       -17.8152
  37   2.0000      -0.649139       -17.6640
  38   2.0000      -0.635282       -17.2869
  39   2.0000      -0.628094       -17.0913
  40   2.0000      -0.615997       -16.7621
  41   2.0000      -0.607808       -16.5393
  42   2.0000      -0.591508       -16.0958
  43   2.0000      -0.578804       -15.7501
  44   2.0000      -0.565005       -15.3746
  45   2.0000      -0.551038       -14.9945
  46   2.0000      -0.542775       -14.7697
  47   2.0000      -0.532324       -14.4853
  48   2.0000      -0.520286       -14.1577
  49   2.0000      -0.511730       -13.9249
  50   2.0000      -0.504241       -13.7211
  51   2.0000      -0.498908       -13.5760
  52   2.0000      -0.485014       -13.1979
  53   2.0000      -0.476991       -12.9796
  54   2.0000      -0.469310       -12.7706
  55   2.0000      -0.463627       -12.6159
  56   2.0000      -0.460662       -12.5352
  57   2.0000      -0.457188       -12.4407
  58   2.0000      -0.385632       -10.4936
  59   2.0000      -0.281865        -7.6699
  60   0.0000       0.097854         2.6627
  61   0.0000       0.109011         2.9663
  62   0.0000       0.121246         3.2993
  63   0.0000       0.125943         3.4271
  64   0.0000       0.134607         3.6628

MULLIKEN ATOMIC CHARGES
-----------------------
   0 C :   -0.409813
   1 N :   -0.242747
   2 C :   -0.275609
   3 C :   -0.401189
   4 H :    0.222325
   5 H :    0.222459
   6 S :    0.777898
   7 C :    0.344687
   8 C :   -0.651048
   9 N :   -0.515117
  10 H :    0.245340
  11 H :    0.263145
  12 H :    0.244473
  13 H :    0.137967
  14 H :    0.131060
  15 O :   -0.383196
  16 O :   -0.383082
  17 C :   -0.182124
  18 H :    0.164926
  19 H :    0.200443
  20 C :   -0.388031
  21 H :    0.198035
  22 H :    0.168998
  23 C :   -0.372183
  24 H :    0.160588
  25 H :    0.147523
  26 F :   -0.125309
  27 H :    0.187970
  28 H :    0.162671
  29 H :    0.183421
  30 H :    0.165520
Sum of atomic charges:   -0.0000000

LOEWDIN ATOMIC CHARGES
----------------------
   0 C :   -0.315723
   1 N :    0.116589
   2 C :   -0.301206
   3 C :   -0.379823
   4 H :    0.151760
   5 H :    0.163008
   6 S :    0.533631
   7 C :   -0.473073
   8 C :   -0.363411
   9 N :   -0.025057
  10 H :    0.166120
  11 H :    0.180459
  12 H :    0.179415
  13 H :    0.097199
  14 H :    0.100772
  15 O :   -0.251719
  16 O :   -0.255404
  17 C :   -0.286605
  18 H :    0.137082
  19 H :    0.144121
  20 C :   -0.290964
  21 H :    0.157199
  22 H :    0.155236
  23 C :   -0.289502
  24 H :    0.148151
  25 H :    0.145574
  26 F :    0.066050
  27 H :    0.147602
  28 H :    0.148294
  29 H :    0.142241
  30 H :    0.151985

  Mayer bond orders larger than 0.100000
B(  0-C ,  1-N ) :   0.9344 B(  0-C , 17-C ) :   0.8714 B(  0-C , 18-H ) :   0.9982
B(  0-C , 19-H ) :   0.9874 B(  1-N ,  7-C ) :   1.2114 B(  1-N , 12-H ) :   0.9160
B(  2-C ,  3-C ) :   0.9148 B(  2-C , 20-C ) :   0.9441 B(  2-C , 21-H ) :   0.9731
B(  2-C , 22-H ) :   0.9607 B(  3-C ,  4-H ) :   0.9395 B(  3-C ,  5-H ) :   0.9400
B(  3-C ,  6-S ) :   0.9232 B(  6-S , 15-O ) :   1.9927 B(  6-S , 16-O ) :   1.9426
B(  6-S , 26-F ) :   1.0559 B(  7-C ,  8-C ) :   1.6002 B(  7-C ,  9-N ) :   1.1217
B(  8-C , 13-H ) :   1.0057 B(  8-C , 14-H ) :   1.0072 B(  9-N , 10-H ) :   0.9187
B(  9-N , 11-H ) :   0.9226 B( 17-C , 23-C ) :   0.9433 B( 17-C , 24-H ) :   0.9770
B( 17-C , 25-H ) :   0.9803 B( 20-C , 23-C ) :   0.8746 B( 20-C , 29-H ) :   0.9804
B( 20-C , 30-H ) :   0.9740 B( 23-C , 27-H ) :   0.9682 B( 23-C , 28-H ) :   0.9739

FINAL SINGLE POINT ENERGY     -1070.908143757001

DIPOLE MOMENT
-------------
                                X             Y             Z
Electronic contribution:     -0.85692      -2.90808     -18.26012
Nuclear contribution   :      0.50676       3.90127      20.40426
                        -----------------------------------------
Total Dipole Moment    :     -0.35016       0.99320       2.14414
                        -----------------------------------------
Magnitude (a.u.)       :      2.38880
Magnitude (Debye)      :      6.07186

Rotational constants in cm-1:     0.029548     0.014706     0.011197
Rotational constants in MHz :   885.834387   440.871746   335.667619

                             ****ORCA TERMINATED NORMALLY****
TOTAL RUN TIME: 0 days 0 hours 1 minutes 11 seconds 590 msec
