                         Program Version 5.0.0 -  RELEASE  -
|  1> !LC-PBE RIJCOSX def2-TZVP def2/J TightSCF xyzfile
|  2>
|  3> *xyzfile 0 1 D9.xyz
|  4>
|  5> %MaxCore 64000
|  6>
|  7> %pal nprocs 18
|  8> end
|  9>
| 10> %scf
| 11>   MaxIter 150
| 12> end
| 13>
| 14>
| 15>                          ****END OF INPUT****

CARTESIAN COORDINATES (ANGSTROEM)
---------------------------------
  C      1.963365   -1.749150   -1.896887
  N      2.738490   -2.015170   -3.097113
  C      0.611877    1.657634   -4.500288
  C      1.694991    1.541794   -5.570447
  H      2.697326    1.734659   -5.183996
  H      1.506656    2.272239   -6.358076
  S      1.780287   -0.033128   -6.428739
  C      4.049736   -2.154717   -3.152044
  N      4.658206   -1.986293   -4.318655
  C      4.764231   -2.454435   -2.050491
  H      4.287363   -2.776259   -1.217496
  H      5.750825   -2.658351   -2.125988
  H      2.345176   -1.690274   -3.971447
  H      4.109004   -1.592677   -5.071760
  H      5.649095   -2.156462   -4.427237
  O      2.569287    0.213657   -7.607360
  O      0.416880   -0.462969   -6.618595
  C      2.088520   -0.300912   -1.415204
  H      2.231272   -2.451616   -1.102643
  H      0.930249   -1.977801   -2.155438
  C      0.680356    0.655418   -3.348038
  H     -0.356865    1.549231   -4.991128
  H      0.650228    2.675438   -4.096000
  C      1.968993    0.733582   -2.535654
  H      3.051356   -0.168602   -0.911868
  H      1.316501   -0.136231   -0.657252
  F      2.505129   -0.933263   -5.482570
  H      2.824195    0.624726   -3.208464
  H      2.058919    1.730331   -2.093112
  H      0.542252   -0.344731   -3.766662
  H     -0.174219    0.829692   -2.685182

 Total Charge           Charge          ....    0
 Multiplicity           Mult            ....    1
 Number of Electrons    NEL             ....  120
 Basis Dimension        Dim             ....  542

ORBITAL ENERGIES
----------------

  NO   OCC          E(Eh)            E(eV)
   0   2.0000     -88.550084     -2409.5703
   1   2.0000     -24.624521      -670.0673
   2   2.0000     -19.012063      -517.3445
   3   2.0000     -19.011694      -517.3345
   4   2.0000     -14.213074      -386.7574
   5   2.0000     -14.210154      -386.6780
   6   2.0000     -10.190377      -277.2943
   7   2.0000     -10.165609      -276.6203
   8   2.0000     -10.152425      -276.2615
   9   2.0000     -10.149431      -276.1801
  10   2.0000     -10.135823      -275.8098
  11   2.0000     -10.126480      -275.5555
  12   2.0000     -10.116048      -275.2717
  13   2.0000     -10.021710      -272.7046
  14   2.0000      -8.161830      -222.0947
  15   2.0000      -6.182883      -168.2448
  16   2.0000      -6.174964      -168.0293
  17   2.0000      -6.174170      -168.0077
  18   2.0000      -1.543941       -42.0128
  19   2.0000      -1.308634       -35.6098
  20   2.0000      -1.209289       -32.9064
  21   2.0000      -1.153327       -31.3836
  22   2.0000      -1.061281       -28.8789
  23   2.0000      -1.033470       -28.1221
  24   2.0000      -0.979755       -26.6605
  25   2.0000      -0.934652       -25.4332
  26   2.0000      -0.904557       -24.6142
  27   2.0000      -0.866282       -23.5727
  28   2.0000      -0.863402       -23.4944
  29   2.0000      -0.804932       -21.9033
  30   2.0000      -0.768467       -20.9110
  31   2.0000      -0.761693       -20.7267
  32   2.0000      -0.743012       -20.2184
  33   2.0000      -0.720835       -19.6149
  34   2.0000      -0.700958       -19.0740
  35   2.0000      -0.691592       -18.8192
  36   2.0000      -0.668680       -18.1957
  37   2.0000      -0.658725       -17.9248
  38   2.0000      -0.651758       -17.7352
  39   2.0000      -0.632238       -17.2041
  40   2.0000      -0.620004       -16.8712
  41   2.0000      -0.608117       -16.5477
  42   2.0000      -0.591378       -16.0922
  43   2.0000      -0.581355       -15.8195
  44   2.0000      -0.569299       -15.4914
  45   2.0000      -0.556584       -15.1454
  46   2.0000      -0.544191       -14.8082
  47   2.0000      -0.537877       -14.6364
  48   2.0000      -0.517873       -14.0920
  49   2.0000      -0.511426       -13.9166
  50   2.0000      -0.505683       -13.7603
  51   2.0000      -0.499678       -13.5969
  52   2.0000      -0.496052       -13.4983
  53   2.0000      -0.482314       -13.1244
  54   2.0000      -0.477685       -12.9985
  55   2.0000      -0.469432       -12.7739
  56   2.0000      -0.466687       -12.6992
  57   2.0000      -0.454206       -12.3596
  58   2.0000      -0.380681       -10.3589
  59   2.0000      -0.281520        -7.6606
  60   0.0000       0.089929         2.4471
  61   0.0000       0.110984         3.0200
  62   0.0000       0.117387         3.1943
  63   0.0000       0.123423         3.3585
  64   0.0000       0.132656         3.6098

MULLIKEN ATOMIC CHARGES
-----------------------
   0 C :   -0.373994
   1 N :   -0.252859
   2 C :   -0.273815
   3 C :   -0.401978
   4 H :    0.222125
   5 H :    0.226510
   6 S :    0.774320
   7 C :    0.307857
   8 N :   -0.494564
   9 C :   -0.624023
  10 H :    0.129796
  11 H :    0.119957
  12 H :    0.225717
  13 H :    0.243785
  14 H :    0.267426
  15 O :   -0.380522
  16 O :   -0.371426
  17 C :   -0.197286
  18 H :    0.183327
  19 H :    0.195578
  20 C :   -0.390033
  21 H :    0.199518
  22 H :    0.171989
  23 C :   -0.370901
  24 H :    0.180496
  25 H :    0.150222
  26 F :   -0.148771
  27 H :    0.165525
  28 H :    0.163786
  29 H :    0.183419
  30 H :    0.168818
Sum of atomic charges:    0.0000000

LOEWDIN ATOMIC CHARGES
----------------------
   0 C :   -0.298698
   1 N :    0.114623
   2 C :   -0.300655
   3 C :   -0.379197
   4 H :    0.151196
   5 H :    0.164393
   6 S :    0.532026
   7 C :   -0.480437
   8 N :   -0.020878
   9 C :   -0.364512
  10 H :    0.102236
  11 H :    0.098690
  12 H :    0.165998
  13 H :    0.154871
  14 H :    0.182823
  15 O :   -0.250978
  16 O :   -0.247010
  17 C :   -0.283085
  18 H :    0.147657
  19 H :    0.141529
  20 C :   -0.291146
  21 H :    0.157459
  22 H :    0.156495
  23 C :   -0.290846
  24 H :    0.154192
  25 H :    0.146105
  26 F :    0.051414
  27 H :    0.142265
  28 H :    0.148462
  29 H :    0.141706
  30 H :    0.153302

  Mayer bond orders larger than 0.100000
B(  0-C ,  1-N ) :   0.9235 B(  0-C , 17-C ) :   0.8946 B(  0-C , 18-H ) :   0.9836
B(  0-C , 19-H ) :   0.9863 B(  1-N ,  7-C ) :   1.1854 B(  1-N , 12-H ) :   0.9233
B(  2-C ,  3-C ) :   0.9131 B(  2-C , 20-C ) :   0.9402 B(  2-C , 21-H ) :   0.9732
B(  2-C , 22-H ) :   0.9590 B(  3-C ,  4-H ) :   0.9377 B(  3-C ,  5-H ) :   0.9382
B(  3-C ,  6-S ) :   0.9251 B(  6-S , 15-O ) :   1.9957 B(  6-S , 16-O ) :   1.9538
B(  6-S , 26-F ) :   1.0268 B(  7-C ,  8-N ) :   1.1397 B(  7-C ,  9-C ) :   1.6419
B(  8-N , 13-H ) :   0.9141 B(  8-N , 14-H ) :   0.9179 B(  9-C , 10-H ) :   1.0002
B(  9-C , 11-H ) :   1.0011 B( 17-C , 23-C ) :   0.9452 B( 17-C , 24-H ) :   0.9710
B( 17-C , 25-H ) :   0.9842 B( 20-C , 23-C ) :   0.8709 B( 20-C , 29-H ) :   0.9833
B( 20-C , 30-H ) :   0.9739 B( 23-C , 27-H ) :   0.9730 B( 23-C , 28-H ) :   0.9730

FINAL SINGLE POINT ENERGY     -1070.910756294692

DIPOLE MOMENT
-------------
                                X             Y             Z
Electronic contribution:     -1.04629      -2.33263     -20.33070
Nuclear contribution   :      0.52036       3.84122      20.69523
                        -----------------------------------------
Total Dipole Moment    :     -0.52593       1.50859       0.36453
                        -----------------------------------------
Magnitude (a.u.)       :      1.63870
Magnitude (Debye)      :      4.16524

Rotational constants in cm-1:     0.029184     0.014996     0.011314
Rotational constants in MHz :   874.907122   449.569665   339.178205

                             ****ORCA TERMINATED NORMALLY****
TOTAL RUN TIME: 0 days 0 hours 1 minutes 2 seconds 734 msec
