                         Program Version 5.0.0 -  RELEASE  -
|  1> !PBE D3BJ RIJCOSX def2-TZVPD def2/J TightSCF
|  2> *xyz -1 1
|  3> C         -0.90349       -0.87394       -1.98739
|  4> C         -0.96015       -0.52236       -0.48987
|  5> H         -1.69039       -1.20813       -0.02168
|  6> H         -1.41449        0.48633       -0.40668
|  7> O          0.26170       -0.58031        0.13861
|  8> H         -1.88568       -0.80774       -2.40670
|  9> H         -0.53143       -1.87013       -2.10605
| 10> H         -0.25399       -0.18836       -2.49039
| 11> *
| 12>
| 13> %MaxCore 64000
| 14>
| 15> %pal nprocs 4
| 16> end
| 17>
| 18> %scf
| 19>   MaxIter 150
| 20> end
| 21>
| 22>
| 23>                          ****END OF INPUT****

CARTESIAN COORDINATES (ANGSTROEM)
---------------------------------
  C     -0.903490   -0.873940   -1.987390
  C     -0.960150   -0.522360   -0.489870
  H     -1.690390   -1.208130   -0.021680
  H     -1.414490    0.486330   -0.406680
  O      0.261700   -0.580310    0.138610
  H     -1.885680   -0.807740   -2.406700
  H     -0.531430   -1.870130   -2.106050
  H     -0.253990   -0.188360   -2.490390

 Total Charge           Charge          ....   -1
 Multiplicity           Mult            ....    1
 Number of Electrons    NEL             ....   26
 Basis Dimension        Dim             ....  159

ORBITAL ENERGIES
----------------

  NO   OCC          E(Eh)            E(eV)
   0   2.0000     -18.433884      -501.6115
   1   2.0000      -9.697906      -263.8934
   2   2.0000      -9.673924      -263.2409
   3   2.0000      -0.605753       -16.4834
   4   2.0000      -0.460715       -12.5367
   5   2.0000      -0.317621        -8.6429
   6   2.0000      -0.205378        -5.5886
   7   2.0000      -0.184170        -5.0115
   8   2.0000      -0.133933        -3.6445
   9   2.0000      -0.117185        -3.1888
  10   2.0000      -0.076983        -2.0948
  11   2.0000       0.060334         1.6418
  12   2.0000       0.065255         1.7757
  13   0.0000       0.139838         3.8052
  14   0.0000       0.163113         4.4385
  15   0.0000       0.187650         5.1062
  16   0.0000       0.191497         5.2109
  17   0.0000       0.211888         5.7658

MULLIKEN ATOMIC CHARGES
-----------------------
   0 C :   -0.986222
   1 C :   -0.166123
   2 H :    0.131232
   3 H :    0.131338
   4 O :   -0.874864
   5 H :    0.332245
   6 H :    0.216342
   7 H :    0.216052
Sum of atomic charges:   -1.0000000

LOEWDIN ATOMIC CHARGES
----------------------
   0 C :   -0.182853
   1 C :   -0.626949
   2 H :    0.049214
   3 H :    0.050443
   4 O :   -0.381464
   5 H :    0.020697
   6 H :    0.035484
   7 H :    0.035428

  Mayer bond orders larger than 0.100000
B(  0-C ,  1-C ) :   0.8714 B(  0-C ,  4-O ) :   0.6473 B(  0-C ,  5-H ) :   0.9680
B(  0-C ,  6-H ) :   1.0121 B(  0-C ,  7-H ) :   1.0126 B(  1-C ,  2-H ) :   1.0775
B(  1-C ,  3-H ) :   1.0752 B(  1-C ,  4-O ) :   0.8521 B(  2-H ,  3-H ) :   0.1172
B(  4-O ,  5-H ) :  -0.1198

Dispersion correction           -0.003757639
FINAL SINGLE POINT ENERGY      -154.301125363755

DIPOLE MOMENT
-------------
                                X             Y             Z
Electronic contribution:      2.03187       0.19744       2.35085
Nuclear contribution   :     -2.90669      -0.27617      -3.31210
                        -----------------------------------------
Total Dipole Moment    :     -0.87483      -0.07872      -0.96125
                        -----------------------------------------
Magnitude (a.u.)       :      1.30213
Magnitude (Debye)      :      3.30974

Rotational constants in cm-1:     1.291883     0.321656     0.284469
Rotational constants in MHz : 38729.676116  9643.011620  8528.167295

                             ****ORCA TERMINATED NORMALLY****
TOTAL RUN TIME: 0 days 0 hours 0 minutes 9 seconds 193 msec
