                         Program Version 5.0.0 -  RELEASE  -
|  1> !PBE D3BJ RIJCOSX def2-TZVPD def2/J TightSCF
|  2> *xyz 1 1
|  3> C          4.36645       -0.13321       -1.41606
|  4> C          4.50829       -0.93187       -2.72425
|  5> C          3.05650       -0.32080       -0.70738
|  6> N          2.38983        0.71129       -0.24391
|  7> N          2.51600       -1.50772       -0.55023
|  8> H          2.96768       -2.32291       -0.95631
|  9> H          1.54987       -1.49063       -0.24988
| 10> H          2.74307        1.64947       -0.41280
| 11> H          1.44036        0.50278        0.03703
| 12> H          4.48784        0.93300       -1.61157
| 13> H          5.16967       -0.41443       -0.72982
| 14> H          5.46700       -0.73824       -3.15818
| 15> H          3.74074       -0.63528       -3.40821
| 16> H          4.41574       -1.97727       -2.51573
| 17> *
| 18>
| 19> %MaxCore 64000
| 20>
| 21> %pal nprocs 4
| 22> end
| 23>
| 24> %scf
| 25>   MaxIter 150
| 26> end
| 27>
| 28>
| 29>                          ****END OF INPUT****

CARTESIAN COORDINATES (ANGSTROEM)
---------------------------------
  C      4.366450   -0.133210   -1.416060
  C      4.508290   -0.931870   -2.724250
  C      3.056500   -0.320800   -0.707380
  N      2.389830    0.711290   -0.243910
  N      2.516000   -1.507720   -0.550230
  H      2.967680   -2.322910   -0.956310
  H      1.549870   -1.490630   -0.249880
  H      2.743070    1.649470   -0.412800
  H      1.440360    0.502780    0.037030
  H      4.487840    0.933000   -1.611570
  H      5.169670   -0.414430   -0.729820
  H      5.467000   -0.738240   -3.158180
  H      3.740740   -0.635280   -3.408210
  H      4.415740   -1.977270   -2.515730

 Total Charge           Charge          ....    1
 Multiplicity           Mult            ....    1
 Number of Electrons    NEL             ....   40
 Basis Dimension        Dim             ....  266

ORBITAL ENERGIES
----------------

  NO   OCC          E(Eh)            E(eV)
   0   2.0000     -14.230193      -387.2232
   1   2.0000     -14.228829      -387.1861
   2   2.0000     -10.193581      -277.3814
   3   2.0000     -10.083450      -274.3846
   4   2.0000     -10.039596      -273.1913
   5   2.0000      -1.129443       -30.7337
   6   2.0000      -1.030535       -28.0423
   7   2.0000      -0.899695       -24.4819
   8   2.0000      -0.798650       -21.7324
   9   2.0000      -0.762066       -20.7369
  10   2.0000      -0.716595       -19.4995
  11   2.0000      -0.702665       -19.1205
  12   2.0000      -0.655595       -17.8396
  13   2.0000      -0.612342       -16.6627
  14   2.0000      -0.581692       -15.8286
  15   2.0000      -0.556590       -15.1456
  16   2.0000      -0.513467       -13.9722
  17   2.0000      -0.498929       -13.5766
  18   2.0000      -0.485238       -13.2040
  19   2.0000      -0.455402       -12.3921
  20   0.0000      -0.248290        -6.7563
  21   0.0000      -0.193746        -5.2721
  22   0.0000      -0.149725        -4.0742
  23   0.0000      -0.146863        -3.9963
  24   0.0000      -0.116911        -3.1813

MULLIKEN ATOMIC CHARGES
-----------------------
   0 C :   -0.102142
   1 C :   -0.968723
   2 C :    0.448402
   3 N :   -0.144108
   4 N :   -0.146967
   5 H :    0.184276
   6 H :    0.164724
   7 H :    0.211392
   8 H :    0.161018
   9 H :    0.193590
  10 H :    0.200197
  11 H :    0.208022
  12 H :    0.274792
  13 H :    0.315526
Sum of atomic charges:    1.0000000

LOEWDIN ATOMIC CHARGES
----------------------
   0 C :   -0.138602
   1 C :   -0.053576
   2 C :   -0.375626
   3 N :    0.236136
   4 N :    0.240376
   5 H :    0.144748
   6 H :    0.144026
   7 H :    0.151989
   8 H :    0.142502
   9 H :    0.124377
  10 H :    0.141675
  11 H :    0.088013
  12 H :    0.085866
  13 H :    0.068094

  Mayer bond orders larger than 0.100000
B(  0-C ,  1-C ) :   0.7941 B(  0-C ,  2-C ) :   0.9283 B(  0-C ,  9-H ) :   0.9227
B(  0-C , 10-H ) :   0.9135 B(  1-C , 11-H ) :   1.0132 B(  1-C , 12-H ) :   0.9550
B(  1-C , 13-H ) :   0.9054 B(  2-C ,  3-N ) :   1.3116 B(  2-C ,  4-N ) :   1.2774
B(  3-N ,  4-N ) :   0.1278 B(  3-N ,  7-H ) :   0.9416 B(  3-N ,  8-H ) :   0.9979
B(  4-N ,  5-H ) :   0.9454 B(  4-N ,  6-H ) :   0.9998

Dispersion correction           -0.010132754
FINAL SINGLE POINT ENERGY      -228.823351690105

DIPOLE MOMENT
-------------
                                X             Y             Z
Electronic contribution:     -2.65988       0.62151       3.11259
Nuclear contribution   :      1.78847      -0.48174      -2.67127
                        -----------------------------------------
Total Dipole Moment    :     -0.87141       0.13977       0.44131
                        -----------------------------------------
Magnitude (a.u.)       :      0.98674
Magnitude (Debye)      :      2.50809

Rotational constants in cm-1:     0.286883     0.123210     0.094446
Rotational constants in MHz :  8600.540572  3693.747366  2831.415242

                             ****ORCA TERMINATED NORMALLY****
TOTAL RUN TIME: 0 days 0 hours 0 minutes 15 seconds 999 msec
