                         Program Version 5.0.0 -  RELEASE  -
|  1> !PBE D3BJ RIJCOSX def2-TZVPD def2/J TightSCF xyzfile
|  2>
|  3> *xyzfile 0 1 B.xyz
|  4>
|  5> %MaxCore 64000
|  6>
|  7> %pal nprocs 4
|  8> end
|  9>
| 10> %scf
| 11>   MaxIter 150
| 12> end
| 13>
| 14>
| 15>                          ****END OF INPUT****

CARTESIAN COORDINATES (ANGSTROEM)
---------------------------------
  C      4.366454   -0.133215   -1.416062
  C      4.508292   -0.931872   -2.724249
  H      4.753716   -1.972051   -2.488408
  C      3.294164   -0.918214   -3.656570
  H      5.385637   -0.536236   -3.242640
  H      2.483463   -1.477378   -3.185764
  H      3.553092   -1.478495   -4.560331
  C      2.772335    0.460100   -4.051448
  H      2.608762    1.065107   -3.155194
  C      1.465354    0.410537   -4.853644
  H      3.532940    0.988848   -4.635671
  C      0.326171   -0.375613   -4.192580
  H      1.666704   -0.022269   -5.839323
  H      1.138198    1.439246   -5.035449
  C     -0.017405    0.080588   -2.778406
  H      0.585573   -1.439385   -4.168057
  H     -0.560005   -0.311425   -4.831461
  H      0.902090    0.201296   -2.206729
  C     -0.903495   -0.873945   -1.987388
  H     -0.479549    1.074657   -2.811915
  H     -0.502554   -1.892096   -2.081204
  H     -1.917039   -0.895427   -2.406277
  C     -0.960148   -0.522365   -0.489867
  H     -1.690392   -1.208130   -0.021677
  H     -1.414490    0.486329   -0.406677
  O      0.261703   -0.580307    0.138611
  C      3.056503   -0.320797   -0.707384
  N      2.389825    0.711285   -0.243909
  N      2.515999   -1.507721   -0.550229
  H      2.967683   -2.322915   -0.956305
  H      1.549872   -1.490634   -0.249876
  H      2.743071    1.649471   -0.412802
  H      1.440364    0.502778    0.037031
  H      4.487835    0.932997   -1.611569
  H      5.169672   -0.414432   -0.729817

 Total Charge           Charge          ....    0
 Multiplicity           Mult            ....    1
 Number of Electrons    NEL             ....  104
 Basis Dimension        Dim             ....  682

ORBITAL ENERGIES
----------------

  NO   OCC          E(Eh)            E(eV)
   0   2.0000     -18.635828      -507.1067
   1   2.0000     -14.012002      -381.2860
   2   2.0000     -14.011633      -381.2759
   3   2.0000      -9.993707      -271.9426
   4   2.0000      -9.924054      -270.0472
   5   2.0000      -9.910102      -269.6676
   6   2.0000      -9.889975      -269.1199
   7   2.0000      -9.884048      -268.9586
   8   2.0000      -9.876013      -268.7400
   9   2.0000      -9.865989      -268.4672
  10   2.0000      -9.865199      -268.4457
  11   2.0000      -9.853193      -268.1190
  12   2.0000      -9.841619      -267.8041
  13   2.0000      -0.923741       -25.1363
  14   2.0000      -0.823854       -22.4182
  15   2.0000      -0.812636       -22.1130
  16   2.0000      -0.759409       -20.6646
  17   2.0000      -0.725620       -19.7451
  18   2.0000      -0.688711       -18.7408
  19   2.0000      -0.651990       -17.7415
  20   2.0000      -0.616617       -16.7790
  21   2.0000      -0.580143       -15.7865
  22   2.0000      -0.562738       -15.3129
  23   2.0000      -0.551469       -15.0062
  24   2.0000      -0.513054       -13.9609
  25   2.0000      -0.497537       -13.5387
  26   2.0000      -0.494878       -13.4663
  27   2.0000      -0.471596       -12.8328
  28   2.0000      -0.454000       -12.3540
  29   2.0000      -0.451574       -12.2879
  30   2.0000      -0.434195       -11.8150
  31   2.0000      -0.415090       -11.2952
  32   2.0000      -0.400251       -10.8914
  33   2.0000      -0.383942       -10.4476
  34   2.0000      -0.374408       -10.1882
  35   2.0000      -0.368305       -10.0221
  36   2.0000      -0.362606        -9.8670
  37   2.0000      -0.357689        -9.7332
  38   2.0000      -0.337043        -9.1714
  39   2.0000      -0.328743        -8.9456
  40   2.0000      -0.319997        -8.7076
  41   2.0000      -0.311964        -8.4890
  42   2.0000      -0.302031        -8.2187
  43   2.0000      -0.298177        -8.1138
  44   2.0000      -0.280921        -7.6443
  45   2.0000      -0.274399        -7.4668
  46   2.0000      -0.265229        -7.2172
  47   2.0000      -0.262071        -7.1313
  48   2.0000      -0.257432        -7.0051
  49   2.0000      -0.248488        -6.7617
  50   2.0000      -0.147068        -4.0019
  51   2.0000      -0.141558        -3.8520
  52   0.0000      -0.057115        -1.5542
  53   0.0000      -0.031640        -0.8610
  54   0.0000      -0.017962        -0.4888
  55   0.0000      -0.002888        -0.0786
  56   0.0000       0.003154         0.0858

MULLIKEN ATOMIC CHARGES
-----------------------
   0 C :   -0.194842
   1 C :   -0.491128
   2 H :    0.254827
   3 C :   -0.131559
   4 H :    0.118340
   5 H :    0.192396
   6 H :    0.127907
   7 C :   -0.445549
   8 H :    0.268837
   9 C :   -0.359310
  10 H :    0.133710
  11 C :   -0.355417
  12 H :    0.176689
  13 H :    0.175763
  14 C :    0.400722
  15 H :    0.177441
  16 H :    0.182408
  17 H :   -0.556655
  18 C :   -0.312823
  19 H :    0.288783
  20 H :    0.148320
  21 H :    0.189691
  22 C :   -0.392914
  23 H :    0.151673
  24 H :    0.198178
  25 O :   -0.987487
  26 C :   -0.164051
  27 N :   -0.052270
  28 N :   -0.029032
  29 H :    0.177093
  30 H :    0.306702
  31 H :    0.161119
  32 H :    0.321746
  33 H :    0.272215
  34 H :    0.048475
Sum of atomic charges:   -0.0000000

LOEWDIN ATOMIC CHARGES
----------------------
   0 C :   -0.118326
   1 C :   -0.193480
   2 H :    0.106920
   3 C :   -0.212005
   4 H :    0.113776
   5 H :    0.092946
   6 H :    0.121927
   7 C :   -0.213759
   8 H :    0.095423
   9 C :   -0.207437
  10 H :    0.115875
  11 C :   -0.220855
  12 H :    0.108224
  13 H :    0.109753
  14 C :   -0.224719
  15 H :    0.102255
  16 H :    0.112496
  17 H :    0.073719
  18 C :   -0.205913
  19 H :    0.124751
  20 H :    0.106946
  21 H :    0.108064
  22 C :   -0.403076
  23 H :    0.095622
  24 H :    0.100263
  25 O :   -0.291719
  26 C :   -0.414016
  27 N :    0.203513
  28 N :    0.220082
  29 H :    0.130217
  30 H :    0.049022
  31 H :    0.130671
  32 H :    0.043021
  33 H :    0.113455
  34 H :    0.126365

  Mayer bond orders larger than 0.100000
B(  0-C ,  1-C ) :   0.9386 B(  0-C ,  7-C ) :   0.1562 B(  0-C , 26-C ) :   1.0012
B(  0-C , 33-H ) :   0.8871 B(  0-C , 34-H ) :   0.9780 B(  1-C ,  2-H ) :   0.8854
B(  1-C ,  3-C ) :   1.0250 B(  1-C ,  4-H ) :   0.9012 B(  1-C ,  5-H ) :   0.1046
B(  1-C ,  7-C ) :   0.2597 B(  1-C , 26-C ) :   0.1714 B(  3-C ,  5-H ) :   0.9801
B(  3-C ,  6-H ) :   0.9067 B(  3-C ,  7-C ) :   0.6888 B(  3-C ,  9-C ) :   0.1641
B(  3-C , 11-C ) :   0.2193 B(  7-C ,  8-H ) :   0.9576 B(  7-C ,  9-C ) :   1.0134
B(  7-C , 10-H ) :   0.9330 B(  9-C , 11-C ) :   0.9548 B(  9-C , 12-H ) :   0.9184
B(  9-C , 13-H ) :   0.9434 B(  9-C , 14-C ) :   0.1892 B( 11-C , 14-C ) :   0.6396
B( 11-C , 15-H ) :   0.8997 B( 11-C , 16-H ) :   0.9348 B( 11-C , 17-H ) :  -0.1955
B( 11-C , 18-C ) :   0.4282 B( 14-C , 17-H ) :   1.9825 B( 14-C , 18-C ) :   0.7522
B( 14-C , 19-H ) :   0.7302 B( 14-C , 22-C ) :   0.2655 B( 14-C , 25-O ) :   0.2177
B( 17-H , 18-C ) :   0.1849 B( 17-H , 19-H ) :   0.1071 B( 17-H , 25-O ) :  -0.1695
B( 18-C , 20-H ) :   0.8725 B( 18-C , 21-H ) :   0.9825 B( 18-C , 22-C ) :   0.8990
B( 22-C , 23-H ) :   0.9840 B( 22-C , 24-H ) :   0.9659 B( 22-C , 25-O ) :   1.0429
B( 25-O , 30-H ) :   0.2334 B( 25-O , 32-H ) :   0.1725 B( 26-C , 27-N ) :   1.5840
B( 26-C , 28-N ) :   1.4553 B( 27-N , 31-H ) :   0.9221 B( 27-N , 32-H ) :   0.7319
B( 28-N , 29-H ) :   0.8827 B( 28-N , 30-H ) :   0.7470

Dispersion correction           -0.039736863
FINAL SINGLE POINT ENERGY      -578.519106286765

DIPOLE MOMENT
-------------
                                X             Y             Z
Electronic contribution:      2.64516      -0.28205       7.62972
Nuclear contribution   :     -0.17996       0.53390      -8.68067
                        -----------------------------------------
Total Dipole Moment    :      2.46520       0.25186      -1.05094
                        -----------------------------------------
Magnitude (a.u.)       :      2.69168
Magnitude (Debye)      :      6.84171

Rotational constants in cm-1:     0.028240     0.022734     0.014600
Rotational constants in MHz :   846.611263   681.554306   437.693928

                             ****ORCA TERMINATED NORMALLY****
TOTAL RUN TIME: 0 days 0 hours 1 minutes 48 seconds 991 msec
