                         Program Version 5.0.0 -  RELEASE  -
|  1> !PBE D3BJ RIJCOSX def2-TZVPD def2/J TightSCF
|  2> *xyz 0 1
|  3> C         -0.90349       -0.87394       -1.98739
|  4> C         -0.96015       -0.52236       -0.48987
|  5> H         -1.69039       -1.20813       -0.02168
|  6> H         -1.41449        0.48633       -0.40668
|  7> F          0.26170       -0.58031        0.13861
|  8> H         -1.88568       -0.80774       -2.40670
|  9> H         -0.53143       -1.87013       -2.10605
| 10> H         -0.25399       -0.18836       -2.49039
| 11> *
| 12>
| 13> %MaxCore 64000
| 14>
| 15> %pal nprocs 4
| 16> end
| 17>
| 18> %scf
| 19>   MaxIter 150
| 20> end
| 21>
| 22>
| 23>                          ****END OF INPUT****

CARTESIAN COORDINATES (ANGSTROEM)
---------------------------------
  C     -0.903490   -0.873940   -1.987390
  C     -0.960150   -0.522360   -0.489870
  H     -1.690390   -1.208130   -0.021680
  H     -1.414490    0.486330   -0.406680
  F      0.261700   -0.580310    0.138610
  H     -1.885680   -0.807740   -2.406700
  H     -0.531430   -1.870130   -2.106050
  H     -0.253990   -0.188360   -2.490390

 Total Charge           Charge          ....    0
 Multiplicity           Mult            ....    1
 Number of Electrons    NEL             ....   26
 Basis Dimension        Dim             ....  159

ORBITAL ENERGIES
----------------

  NO   OCC          E(Eh)            E(eV)
   0   2.0000     -24.246433      -659.7790
   1   2.0000      -9.956739      -270.9366
   2   2.0000      -9.875978      -268.7390
   3   2.0000      -1.097501       -29.8645
   4   2.0000      -0.694421       -18.8962
   5   2.0000      -0.569751       -15.5037
   6   2.0000      -0.454890       -12.3782
   7   2.0000      -0.439737       -11.9659
   8   2.0000      -0.402691       -10.9578
   9   2.0000      -0.356310        -9.6957
  10   2.0000      -0.354695        -9.6518
  11   2.0000      -0.288500        -7.8505
  12   2.0000      -0.283196        -7.7061
  13   0.0000      -0.005682        -0.1546
  14   0.0000       0.022778         0.6198
  15   0.0000       0.034173         0.9299
  16   0.0000       0.041368         1.1257
  17   0.0000       0.064563         1.7568

MULLIKEN ATOMIC CHARGES
-----------------------
   0 C :   -0.678920
   1 C :   -0.008976
   2 H :    0.146513
   3 H :    0.146106
   4 F :   -0.247832
   5 H :    0.244321
   6 H :    0.199536
   7 H :    0.199251
Sum of atomic charges:   -0.0000000

LOEWDIN ATOMIC CHARGES
----------------------
   0 C :   -0.083494
   1 C :   -0.302037
   2 H :    0.108528
   3 H :    0.110264
   4 F :   -0.027401
   5 H :    0.066892
   6 H :    0.063646
   7 H :    0.063601

  Mayer bond orders larger than 0.100000
B(  0-C ,  1-C ) :   0.9043 B(  0-C ,  5-H ) :   0.9485 B(  0-C ,  6-H ) :   0.9738
B(  0-C ,  7-H ) :   0.9740 B(  1-C ,  2-H ) :   0.9840 B(  1-C ,  3-H ) :   0.9824
B(  1-C ,  4-F ) :   0.8793

Dispersion correction           -0.003477295
FINAL SINGLE POINT ENERGY      -178.925311211677

DIPOLE MOMENT
-------------
                                X             Y             Z
Electronic contribution:      3.26257       0.37405       4.00199
Nuclear contribution   :     -3.84149      -0.36812      -4.38946
                        -----------------------------------------
Total Dipole Moment    :     -0.57892       0.00593      -0.38747
                        -----------------------------------------
Magnitude (a.u.)       :      0.69665
Magnitude (Debye)      :      1.77073

Rotational constants in cm-1:     1.270659     0.299196     0.265842
Rotational constants in MHz : 38093.410361  8969.665806  7969.741481

                             ****ORCA TERMINATED NORMALLY****
TOTAL RUN TIME: 0 days 0 hours 0 minutes 7 seconds 765 msec
