                         Program Version 5.0.0 -  RELEASE  -
|  1> !PBE D3BJ RIJCOSX def2-TZVPD def2/J TightSCF
|  2> *xyz 0 1
|  3> C          4.36645       -0.13321       -1.41606
|  4> C          4.50829       -0.93187       -2.72425
|  5> C          3.05650       -0.32080       -0.70738
|  6> C          2.38983        0.71129       -0.24391
|  7> N          2.51600       -1.50772       -0.55023
|  8> H          2.96768       -2.32291       -0.95631
|  9> H          1.54987       -1.49063       -0.24988
| 10> H          2.74307        1.64947       -0.41280
| 11> H          1.44036        0.50278        0.03703
| 12> H          4.48784        0.93300       -1.61157
| 13> H          5.16967       -0.41443       -0.72982
| 14> H          5.46700       -0.73824       -3.15818
| 15> H          3.74074       -0.63528       -3.40821
| 16> H          4.41574       -1.97727       -2.51573
| 17> *
| 18>
| 19> %MaxCore 64000
| 20>
| 21> %pal nprocs 4
| 22> end
| 23>
| 24> %scf
| 25>   MaxIter 150
| 26> end
| 27>
| 28>
| 29>                          ****END OF INPUT****

CARTESIAN COORDINATES (ANGSTROEM)
---------------------------------
  C      4.366450   -0.133210   -1.416060
  C      4.508290   -0.931870   -2.724250
  C      3.056500   -0.320800   -0.707380
  C      2.389830    0.711290   -0.243910
  N      2.516000   -1.507720   -0.550230
  H      2.967680   -2.322910   -0.956310
  H      1.549870   -1.490630   -0.249880
  H      2.743070    1.649470   -0.412800
  H      1.440360    0.502780    0.037030
  H      4.487840    0.933000   -1.611570
  H      5.169670   -0.414430   -0.729820
  H      5.467000   -0.738240   -3.158180
  H      3.740740   -0.635280   -3.408210
  H      4.415740   -1.977270   -2.515730

 Total Charge           Charge          ....    0
 Multiplicity           Mult            ....    1
 Number of Electrons    NEL             ....   40
 Basis Dimension        Dim             ....  266

ORBITAL ENERGIES
----------------

  NO   OCC          E(Eh)            E(eV)
   0   2.0000     -13.985427      -380.5628
   1   2.0000      -9.895450      -269.2689
   2   2.0000      -9.883179      -268.9350
   3   2.0000      -9.872207      -268.6364
   4   2.0000      -9.812079      -267.0003
   5   2.0000      -0.854360       -23.2483
   6   2.0000      -0.706862       -19.2347
   7   2.0000      -0.653566       -17.7844
   8   2.0000      -0.574179       -15.6242
   9   2.0000      -0.508239       -13.8299
  10   2.0000      -0.483598       -13.1594
  11   2.0000      -0.420923       -11.4539
  12   2.0000      -0.393873       -10.7178
  13   2.0000      -0.383663       -10.4400
  14   2.0000      -0.347257        -9.4493
  15   2.0000      -0.336979        -9.1697
  16   2.0000      -0.315734        -8.5916
  17   2.0000      -0.302446        -8.2300
  18   2.0000      -0.284018        -7.7285
  19   2.0000      -0.159226        -4.3328
  20   0.0000      -0.016173        -0.4401
  21   0.0000       0.003965         0.1079
  22   0.0000       0.017958         0.4886
  23   0.0000       0.021615         0.5882
  24   0.0000       0.036677         0.9980

MULLIKEN ATOMIC CHARGES
-----------------------
   0 C :   -0.041529
   1 C :   -0.923385
   2 C :    0.592270
   3 C :   -1.094650
   4 N :   -0.236103
   5 H :    0.131860
   6 H :    0.127571
   7 H :    0.230703
   8 H :    0.226991
   9 H :    0.139735
  10 H :    0.145077
  11 H :    0.206582
  12 H :    0.240072
  13 H :    0.254806
Sum of atomic charges:   -0.0000000

LOEWDIN ATOMIC CHARGES
----------------------
   0 C :   -0.192519
   1 C :   -0.094231
   2 C :   -0.507231
   3 C :    0.015706
   4 N :    0.112412
   5 H :    0.100942
   6 H :    0.108886
   7 H :    0.023662
   8 H :    0.022090
   9 H :    0.108354
  10 H :    0.113897
  11 H :    0.063981
  12 H :    0.072033
  13 H :    0.052017

  Mayer bond orders larger than 0.100000
B(  0-C ,  1-C ) :   0.7388 B(  0-C ,  2-C ) :   0.9520 B(  0-C ,  9-H ) :   0.9242
B(  0-C , 10-H ) :   0.9077 B(  1-C , 11-H ) :   1.0064 B(  1-C , 12-H ) :   0.9991
B(  1-C , 13-H ) :   0.9504 B(  2-C ,  3-C ) :   1.2526 B(  2-C ,  4-N ) :   1.1094
B(  2-C ,  8-H ) :  -0.1275 B(  3-C ,  4-N ) :   0.1247 B(  3-C ,  7-H ) :   0.9710
B(  3-C ,  8-H ) :   1.0630 B(  4-N ,  5-H ) :   1.0110 B(  4-N ,  6-H ) :   0.9946

Dispersion correction           -0.010487349
FINAL SINGLE POINT ENERGY      -212.354750723441

DIPOLE MOMENT
-------------
                                X             Y             Z
Electronic contribution:     -1.49713      -0.43524       2.08170
Nuclear contribution   :      1.56827      -0.21459      -2.46657
                        -----------------------------------------
Total Dipole Moment    :      0.07114      -0.64982      -0.38487
                        -----------------------------------------
Magnitude (a.u.)       :      0.75859
Magnitude (Debye)      :      1.92818

Rotational constants in cm-1:     0.294070     0.127722     0.097792
Rotational constants in MHz :  8815.983970  3829.010547  2931.715816

                             ****ORCA TERMINATED NORMALLY****
TOTAL RUN TIME: 0 days 0 hours 0 minutes 15 seconds 80 msec
