                         Program Version 5.0.0 -  RELEASE  -
|  1> !PBE D3BJ RIJCOSX def2-TZVPD def2/J TightSCF
|  2> *xyz 0 1
|  3> C          4.36645       -0.13321       -1.41606
|  4> C          4.50829       -0.93187       -2.72425
|  5> C          3.05650       -0.32080       -0.70738
|  6> N          2.38983        0.71129       -0.24391
|  7> C          2.51600       -1.50772       -0.55023
|  8> H          2.96768       -2.32291       -0.95631
|  9> H          1.54987       -1.49063       -0.24988
| 10> H          2.74307        1.64947       -0.41280
| 11> H          1.44036        0.50278        0.03703
| 12> H          4.48784        0.93300       -1.61157
| 13> H          5.16967       -0.41443       -0.72982
| 14> H          5.46700       -0.73824       -3.15818
| 15> H          3.74074       -0.63528       -3.40821
| 16> H          4.41574       -1.97727       -2.51573
| 17> *
| 18>
| 19> %MaxCore 64000
| 20>
| 21> %pal nprocs 4
| 22> end
| 23>
| 24> %scf
| 25>   MaxIter 150
| 26> end
| 27>
| 28>
| 29>                          ****END OF INPUT****

CARTESIAN COORDINATES (ANGSTROEM)
---------------------------------
  C      4.366450   -0.133210   -1.416060
  C      4.508290   -0.931870   -2.724250
  C      3.056500   -0.320800   -0.707380
  N      2.389830    0.711290   -0.243910
  C      2.516000   -1.507720   -0.550230
  H      2.967680   -2.322910   -0.956310
  H      1.549870   -1.490630   -0.249880
  H      2.743070    1.649470   -0.412800
  H      1.440360    0.502780    0.037030
  H      4.487840    0.933000   -1.611570
  H      5.169670   -0.414430   -0.729820
  H      5.467000   -0.738240   -3.158180
  H      3.740740   -0.635280   -3.408210
  H      4.415740   -1.977270   -2.515730

 Total Charge           Charge          ....    0
 Multiplicity           Mult            ....    1
 Number of Electrons    NEL             ....   40
 Basis Dimension        Dim             ....  266

ORBITAL ENERGIES
----------------

  NO   OCC          E(Eh)            E(eV)
   0   2.0000     -13.986304      -380.5867
   1   2.0000      -9.895564      -269.2720
   2   2.0000      -9.884678      -268.9758
   3   2.0000      -9.865956      -268.4663
   4   2.0000      -9.810520      -266.9578
   5   2.0000      -0.854788       -23.2600
   6   2.0000      -0.708117       -19.2688
   7   2.0000      -0.643365       -17.5069
   8   2.0000      -0.583167       -15.8688
   9   2.0000      -0.499449       -13.5907
  10   2.0000      -0.481355       -13.0983
  11   2.0000      -0.428581       -11.6623
  12   2.0000      -0.402805       -10.9609
  13   2.0000      -0.360878        -9.8200
  14   2.0000      -0.346017        -9.4156
  15   2.0000      -0.336870        -9.1667
  16   2.0000      -0.316354        -8.6084
  17   2.0000      -0.300083        -8.1657
  18   2.0000      -0.285643        -7.7727
  19   2.0000      -0.157707        -4.2914
  20   0.0000      -0.012931        -0.3519
  21   0.0000       0.001272         0.0346
  22   0.0000       0.016972         0.4618
  23   0.0000       0.021598         0.5877
  24   0.0000       0.039502         1.0749

MULLIKEN ATOMIC CHARGES
-----------------------
   0 C :   -0.061071
   1 C :   -0.866112
   2 C :    0.600546
   3 N :   -0.221789
   4 C :   -1.121267
   5 H :    0.209390
   6 H :    0.218731
   7 H :    0.157874
   8 H :    0.123527
   9 H :    0.148108
  10 H :    0.140325
  11 H :    0.204577
  12 H :    0.232704
  13 H :    0.234457
Sum of atomic charges:    0.0000000

LOEWDIN ATOMIC CHARGES
----------------------
   0 C :   -0.192638
   1 C :   -0.091585
   2 C :   -0.504095
   3 N :    0.106595
   4 C :    0.015515
   5 H :    0.020574
   6 H :    0.023768
   7 H :    0.104874
   8 H :    0.107266
   9 H :    0.100565
  10 H :    0.116078
  11 H :    0.062235
  12 H :    0.072428
  13 H :    0.058419

  Mayer bond orders larger than 0.100000
B(  0-C ,  1-C ) :   0.7402 B(  0-C ,  2-C ) :   0.7865 B(  0-C ,  9-H ) :   1.0270
B(  0-C , 10-H ) :   0.9320 B(  1-C ,  2-C ) :   0.1316 B(  1-C , 11-H ) :   0.9974
B(  1-C , 12-H ) :   0.9855 B(  1-C , 13-H ) :   0.9774 B(  2-C ,  3-N ) :   1.1606
B(  2-C ,  4-C ) :   1.1720 B(  2-C ,  6-H ) :  -0.1321 B(  2-C ,  9-H ) :  -0.1005
B(  3-N ,  4-C ) :   0.1542 B(  3-N ,  7-H ) :   1.0097 B(  3-N ,  8-H ) :   0.9896
B(  4-C ,  5-H ) :   0.9976 B(  4-C ,  6-H ) :   1.0724

Dispersion correction           -0.010519409
FINAL SINGLE POINT ENERGY      -212.353685256785

DIPOLE MOMENT
-------------
                                X             Y             Z
Electronic contribution:     -1.61106       1.45933       2.36142
Nuclear contribution   :      1.59749      -0.72853      -2.53752
                        -----------------------------------------
Total Dipole Moment    :     -0.01358       0.73080      -0.17610
                        -----------------------------------------
Magnitude (a.u.)       :      0.75184
Magnitude (Debye)      :      1.91102

Rotational constants in cm-1:     0.304597     0.124127     0.096828
Rotational constants in MHz :  9131.600925  3721.227051  2902.830760

                             ****ORCA TERMINATED NORMALLY****
TOTAL RUN TIME: 0 days 0 hours 0 minutes 15 seconds 771 msec
