                         Program Version 5.0.0 -  RELEASE  -
|  1> !PBE D3BJ RIJCOSX def2-TZVPD def2/J TightSCF xyzfile
|  2>
|  3> *xyzfile 0 1 D1.xyz
|  4>
|  5> %MaxCore 64000
|  6>
|  7> %pal nprocs 4
|  8> end
|  9>
| 10> %scf
| 11>   MaxIter 150
| 12> end
| 13>
| 14>
| 15>                          ****END OF INPUT****

CARTESIAN COORDINATES (ANGSTROEM)
---------------------------------
  C      4.366454   -0.133215   -1.416062
  C      4.508292   -0.931872   -2.724249
  H      4.753716   -1.972051   -2.488408
  C      3.294164   -0.918214   -3.656570
  H      5.385637   -0.536236   -3.242640
  H      2.483463   -1.477378   -3.185764
  H      3.553092   -1.478495   -4.560331
  C      2.772335    0.460100   -4.051448
  H      2.608762    1.065107   -3.155194
  C      1.465354    0.410537   -4.853644
  H      3.532940    0.988848   -4.635671
  C      0.326171   -0.375613   -4.192580
  H      1.666704   -0.022269   -5.839323
  H      1.138198    1.439246   -5.035449
  C     -0.017405    0.080588   -2.778406
  H      0.585573   -1.439385   -4.168057
  H     -0.560005   -0.311425   -4.831461
  H      0.902090    0.201296   -2.206729
  C     -0.903495   -0.873945   -1.987388
  H     -0.479549    1.074657   -2.811915
  H     -0.502554   -1.892096   -2.081204
  H     -1.917039   -0.895427   -2.406277
  C     -0.960148   -0.522365   -0.489867
  H     -1.690392   -1.208130   -0.021677
  H     -1.414490    0.486329   -0.406677
  F      0.261703   -0.580307    0.138611
  C      3.056503   -0.320797   -0.707384
  C      2.389825    0.711285   -0.243909
  N      2.515999   -1.507721   -0.550229
  H      2.967683   -2.322915   -0.956305
  H      1.549872   -1.490634   -0.249876
  H      2.743071    1.649471   -0.412802
  H      1.440364    0.502778    0.037031
  H      4.487835    0.932997   -1.611569
  H      5.169672   -0.414432   -0.729817

 Total Charge           Charge          ....    0
 Multiplicity           Mult            ....    1
 Number of Electrons    NEL             ....  104
 Basis Dimension        Dim             ....  682

ORBITAL ENERGIES
----------------

  NO   OCC          E(Eh)            E(eV)
   0   2.0000     -24.278026      -660.6387
   1   2.0000     -13.962866      -379.9489
   2   2.0000      -9.969232      -271.2766
   3   2.0000      -9.893818      -269.2245
   4   2.0000      -9.880384      -268.8589
   5   2.0000      -9.875394      -268.7231
   6   2.0000      -9.874909      -268.7099
   7   2.0000      -9.872634      -268.6480
   8   2.0000      -9.872525      -268.6451
   9   2.0000      -9.870430      -268.5880
  10   2.0000      -9.868401      -268.5329
  11   2.0000      -9.866356      -268.4772
  12   2.0000      -9.789306      -266.3805
  13   2.0000      -1.138088       -30.9689
  14   2.0000      -0.838419       -22.8145
  15   2.0000      -0.744633       -20.2625
  16   2.0000      -0.724093       -19.7036
  17   2.0000      -0.699576       -19.0364
  18   2.0000      -0.664170       -18.0730
  19   2.0000      -0.638491       -17.3742
  20   2.0000      -0.619764       -16.8646
  21   2.0000      -0.575511       -15.6605
  22   2.0000      -0.555768       -15.1232
  23   2.0000      -0.527021       -14.3410
  24   2.0000      -0.501821       -13.6553
  25   2.0000      -0.487078       -13.2541
  26   2.0000      -0.480947       -13.0872
  27   2.0000      -0.472887       -12.8679
  28   2.0000      -0.457404       -12.4466
  29   2.0000      -0.435840       -11.8598
  30   2.0000      -0.420399       -11.4396
  31   2.0000      -0.410679       -11.1751
  32   2.0000      -0.395690       -10.7673
  33   2.0000      -0.390940       -10.6380
  34   2.0000      -0.381214       -10.3734
  35   2.0000      -0.376226       -10.2376
  36   2.0000      -0.350713        -9.5434
  37   2.0000      -0.344054        -9.3622
  38   2.0000      -0.335985        -9.1426
  39   2.0000      -0.328906        -8.9500
  40   2.0000      -0.322546        -8.7769
  41   2.0000      -0.312165        -8.4944
  42   2.0000      -0.306181        -8.3316
  43   2.0000      -0.300733        -8.1834
  44   2.0000      -0.296294        -8.0626
  45   2.0000      -0.289858        -7.8874
  46   2.0000      -0.273910        -7.4535
  47   2.0000      -0.271368        -7.3843
  48   2.0000      -0.266056        -7.2397
  49   2.0000      -0.263410        -7.1677
  50   2.0000      -0.258575        -7.0362
  51   2.0000      -0.144394        -3.9292
  52   0.0000      -0.014913        -0.4058
  53   0.0000      -0.006648        -0.1809
  54   0.0000       0.000143         0.0039
  55   0.0000       0.003726         0.1014
  56   0.0000       0.013967         0.3801

MULLIKEN ATOMIC CHARGES
-----------------------
   0 C :   -0.201905
   1 C :   -0.498549
   2 H :    0.233620
   3 C :   -0.091147
   4 H :    0.106374
   5 H :    0.178332
   6 H :    0.102256
   7 C :   -0.464804
   8 H :    0.267790
   9 C :   -0.343768
  10 H :    0.136814
  11 C :   -0.438720
  12 H :    0.183599
  13 H :    0.181532
  14 C :    0.325505
  15 H :    0.219995
  16 H :    0.175824
  17 H :   -0.418093
  18 C :   -0.369467
  19 H :    0.234983
  20 H :    0.170319
  21 H :    0.185156
  22 C :   -0.174440
  23 H :    0.140678
  24 H :    0.221511
  25 F :   -0.398245
  26 C :    0.138954
  27 C :   -1.338922
  28 N :   -0.143166
  29 H :    0.148044
  30 H :    0.344767
  31 H :    0.250948
  32 H :    0.639160
  33 H :    0.221420
  34 H :    0.073642
Sum of atomic charges:    0.0000000

LOEWDIN ATOMIC CHARGES
----------------------
   0 C :   -0.143935
   1 C :   -0.200159
   2 H :    0.102119
   3 C :   -0.214859
   4 H :    0.107906
   5 H :    0.089053
   6 H :    0.116654
   7 C :   -0.209475
   8 H :    0.100507
   9 C :   -0.206255
  10 H :    0.115897
  11 C :   -0.217659
  12 H :    0.108258
  13 H :    0.109184
  14 C :   -0.217432
  15 H :    0.103944
  16 H :    0.111369
  17 H :    0.077287
  18 C :   -0.182094
  19 H :    0.128048
  20 H :    0.114991
  21 H :    0.120554
  22 C :   -0.202328
  23 H :    0.119328
  24 H :    0.128108
  25 F :   -0.063160
  26 C :   -0.493047
  27 C :    0.015107
  28 N :    0.133883
  29 H :    0.111106
  30 H :    0.072626
  31 H :    0.035108
  32 H :    0.001994
  33 H :    0.111006
  34 H :    0.116365

  Mayer bond orders larger than 0.100000
B(  0-C ,  1-C ) :   0.9604 B(  0-C ,  7-C ) :   0.1744 B(  0-C , 26-C ) :   0.9611
B(  0-C , 33-H ) :   0.8789 B(  0-C , 34-H ) :   0.9446 B(  1-C ,  2-H ) :   0.8885
B(  1-C ,  3-C ) :   1.0272 B(  1-C ,  4-H ) :   0.9080 B(  1-C ,  5-H ) :   0.1036
B(  1-C ,  7-C ) :   0.2850 B(  1-C , 26-C ) :   0.1312 B(  3-C ,  5-H ) :   0.9688
B(  3-C ,  6-H ) :   0.9144 B(  3-C ,  7-C ) :   0.6707 B(  3-C ,  9-C ) :   0.1614
B(  3-C , 11-C ) :   0.2485 B(  7-C ,  8-H ) :   1.0276 B(  7-C ,  9-C ) :   0.9596
B(  7-C , 10-H ) :   0.8929 B(  9-C , 11-C ) :   1.0170 B(  9-C , 12-H ) :   0.9131
B(  9-C , 13-H ) :   0.9351 B(  9-C , 14-C ) :   0.1714 B( 11-C , 14-C ) :   0.6103
B( 11-C , 15-H ) :   0.8835 B( 11-C , 16-H ) :   0.9337 B( 11-C , 18-C ) :   0.4493
B( 14-C , 17-H ) :   1.9002 B( 14-C , 18-C ) :   0.7178 B( 14-C , 19-H ) :   0.6945
B( 14-C , 22-C ) :   0.2813 B( 14-C , 26-C ) :  -0.1762 B( 14-C , 27-C ) :   0.2184
B( 17-H , 18-C ) :   0.1110 B( 17-H , 19-H ) :   0.1922 B( 18-C , 19-H ) :  -0.1122
B( 18-C , 20-H ) :   0.8707 B( 18-C , 21-H ) :   0.9633 B( 18-C , 22-C ) :   0.9610
B( 22-C , 23-H ) :   0.9731 B( 22-C , 24-H ) :   0.9199 B( 22-C , 25-F ) :   0.8703
B( 25-F , 27-C ) :   0.1166 B( 26-C , 27-C ) :   1.7550 B( 26-C , 28-N ) :   1.0539
B( 27-C , 31-H ) :   0.9275 B( 27-C , 32-H ) :   0.7228 B( 28-N , 29-H ) :   0.8930
B( 28-N , 30-H ) :   0.8072

Dispersion correction           -0.039649771
FINAL SINGLE POINT ENERGY      -586.433105120216

DIPOLE MOMENT
-------------
                                X             Y             Z
Electronic contribution:     -2.66028      -1.60356      10.49187
Nuclear contribution   :      1.82572       1.04089     -11.09065
                        -----------------------------------------
Total Dipole Moment    :     -0.83456      -0.56266      -0.59878
                        -----------------------------------------
Magnitude (a.u.)       :      1.17116
Magnitude (Debye)      :      2.97685

Rotational constants in cm-1:     0.028436     0.022359     0.014416
Rotational constants in MHz :   852.496561   670.291843   432.183951

                             ****ORCA TERMINATED NORMALLY****
TOTAL RUN TIME: 0 days 0 hours 1 minutes 38 seconds 956 msec
