                         Program Version 5.0.0 -  RELEASE  -
|  1> !PBE D3BJ RIJCOSX def2-TZVPD def2/J TightSCF xyzfile
|  2>
|  3> *xyzfile 0 1 D2.xyz
|  4>
|  5> %MaxCore 64000
|  6>
|  7> %pal nprocs 4
|  8> end
|  9>
| 10> %scf
| 11>   MaxIter 150
| 12> end
| 13>
| 14>
| 15>                          ****END OF INPUT****

CARTESIAN COORDINATES (ANGSTROEM)
---------------------------------
  C      4.366454   -0.133215   -1.416062
  C      4.508292   -0.931872   -2.724249
  H      4.753716   -1.972051   -2.488408
  C      3.294164   -0.918214   -3.656570
  H      5.385637   -0.536236   -3.242640
  H      2.483463   -1.477378   -3.185764
  H      3.553092   -1.478495   -4.560331
  C      2.772335    0.460100   -4.051448
  H      2.608762    1.065107   -3.155194
  C      1.465354    0.410537   -4.853644
  H      3.532940    0.988848   -4.635671
  C      0.326171   -0.375613   -4.192580
  H      1.666704   -0.022269   -5.839323
  H      1.138198    1.439246   -5.035449
  C     -0.017405    0.080588   -2.778406
  H      0.585573   -1.439385   -4.168057
  H     -0.560005   -0.311425   -4.831461
  H      0.902090    0.201296   -2.206729
  C     -0.903495   -0.873945   -1.987388
  H     -0.479549    1.074657   -2.811915
  H     -0.502554   -1.892096   -2.081204
  H     -1.917039   -0.895427   -2.406277
  C     -0.960148   -0.522365   -0.489867
  H     -1.690392   -1.208130   -0.021677
  H     -1.414490    0.486329   -0.406677
  F      0.261703   -0.580307    0.138611
  C      3.056503   -0.320797   -0.707384
  N      2.389825    0.711285   -0.243909
  C      2.515999   -1.507721   -0.550229
  H      2.967683   -2.322915   -0.956305
  H      1.549872   -1.490634   -0.249876
  H      2.743071    1.649471   -0.412802
  H      1.440364    0.502778    0.037031
  H      4.487835    0.932997   -1.611569
  H      5.169672   -0.414432   -0.729817

 Total Charge           Charge          ....    0
 Multiplicity           Mult            ....    1
 Number of Electrons    NEL             ....  104
 Basis Dimension        Dim             ....  682

ORBITAL ENERGIES
----------------

  NO   OCC          E(Eh)            E(eV)
   0   2.0000     -24.278220      -660.6439
   1   2.0000     -13.962904      -379.9499
   2   2.0000      -9.969482      -271.2834
   3   2.0000      -9.892239      -269.1815
   4   2.0000      -9.879709      -268.8405
   5   2.0000      -9.875053      -268.7138
   6   2.0000      -9.874743      -268.7054
   7   2.0000      -9.873131      -268.6616
   8   2.0000      -9.871952      -268.6295
   9   2.0000      -9.870928      -268.6016
  10   2.0000      -9.868047      -268.5232
  11   2.0000      -9.862407      -268.3697
  12   2.0000      -9.787497      -266.3313
  13   2.0000      -1.138238       -30.9730
  14   2.0000      -0.838340       -22.8124
  15   2.0000      -0.744482       -20.2584
  16   2.0000      -0.723474       -19.6867
  17   2.0000      -0.700185       -19.0530
  18   2.0000      -0.661043       -17.9879
  19   2.0000      -0.631971       -17.1968
  20   2.0000      -0.620806       -16.8930
  21   2.0000      -0.578771       -15.7492
  22   2.0000      -0.557120       -15.1600
  23   2.0000      -0.528401       -14.3785
  24   2.0000      -0.499359       -13.5883
  25   2.0000      -0.488690       -13.2979
  26   2.0000      -0.478851       -13.0302
  27   2.0000      -0.467445       -12.7198
  28   2.0000      -0.453925       -12.3519
  29   2.0000      -0.432524       -11.7696
  30   2.0000      -0.425641       -11.5823
  31   2.0000      -0.413200       -11.2437
  32   2.0000      -0.400123       -10.8879
  33   2.0000      -0.389313       -10.5937
  34   2.0000      -0.381287       -10.3754
  35   2.0000      -0.368527       -10.0281
  36   2.0000      -0.350746        -9.5443
  37   2.0000      -0.342657        -9.3242
  38   2.0000      -0.336277        -9.1506
  39   2.0000      -0.323786        -8.8107
  40   2.0000      -0.320966        -8.7339
  41   2.0000      -0.314067        -8.5462
  42   2.0000      -0.309057        -8.4099
  43   2.0000      -0.304723        -8.2919
  44   2.0000      -0.290326        -7.9002
  45   2.0000      -0.285840        -7.7781
  46   2.0000      -0.275367        -7.4931
  47   2.0000      -0.268291        -7.3006
  48   2.0000      -0.267973        -7.2919
  49   2.0000      -0.261749        -7.1226
  50   2.0000      -0.259261        -7.0548
  51   2.0000      -0.142537        -3.8786
  52   0.0000      -0.013422        -0.3652
  53   0.0000      -0.005442        -0.1481
  54   0.0000      -0.000304        -0.0083
  55   0.0000       0.003385         0.0921
  56   0.0000       0.012027         0.3273

MULLIKEN ATOMIC CHARGES
-----------------------
   0 C :   -0.304266
   1 C :   -0.388682
   2 H :    0.233288
   3 C :   -0.116446
   4 H :    0.134149
   5 H :    0.152473
   6 H :    0.136172
   7 C :   -0.474569
   8 H :    0.270095
   9 C :   -0.382013
  10 H :    0.129365
  11 C :   -0.452285
  12 H :    0.176253
  13 H :    0.170218
  14 C :    0.459649
  15 H :    0.243116
  16 H :    0.181742
  17 H :   -0.510401
  18 C :   -0.353808
  19 H :    0.251909
  20 H :    0.208146
  21 H :    0.189932
  22 C :   -0.195733
  23 H :    0.137885
  24 H :    0.222872
  25 F :   -0.415001
  26 C :   -0.001272
  27 N :   -0.172362
  28 C :   -1.319681
  29 H :    0.306914
  30 H :    0.702407
  31 H :    0.147681
  32 H :    0.336327
  33 H :    0.252892
  34 H :    0.043036
Sum of atomic charges:   -0.0000000

LOEWDIN ATOMIC CHARGES
----------------------
   0 C :   -0.144188
   1 C :   -0.195687
   2 H :    0.107556
   3 C :   -0.214063
   4 H :    0.107164
   5 H :    0.090018
   6 H :    0.117283
   7 C :   -0.211932
   8 H :    0.096504
   9 C :   -0.206745
  10 H :    0.115228
  11 C :   -0.215663
  12 H :    0.109019
  13 H :    0.108159
  14 C :   -0.220131
  15 H :    0.106465
  16 H :    0.111776
  17 H :    0.078352
  18 C :   -0.179964
  19 H :    0.125543
  20 H :    0.118735
  21 H :    0.120971
  22 C :   -0.202466
  23 H :    0.120875
  24 H :    0.124905
  25 F :   -0.062542
  26 C :   -0.491405
  27 N :    0.117983
  28 C :    0.024624
  29 H :    0.037281
  30 H :    0.005775
  31 H :    0.110039
  32 H :    0.068017
  33 H :    0.103855
  34 H :    0.118659

  Mayer bond orders larger than 0.100000
B(  0-C ,  1-C ) :   0.9407 B(  0-C ,  7-C ) :   0.1928 B(  0-C , 26-C ) :   0.9458
B(  0-C , 28-C ) :  -0.1230 B(  0-C , 33-H ) :   0.9044 B(  0-C , 34-H ) :   0.9885
B(  1-C ,  2-H ) :   0.8415 B(  1-C ,  3-C ) :   1.1196 B(  1-C ,  4-H ) :   0.9110
B(  1-C ,  5-H ) :   0.1526 B(  1-C ,  7-C ) :   0.2432 B(  1-C , 28-C ) :   0.1907
B(  3-C ,  5-H ) :   0.9831 B(  3-C ,  6-H ) :   0.8751 B(  3-C ,  7-C ) :   0.6964
B(  3-C ,  9-C ) :   0.1436 B(  3-C , 11-C ) :   0.2402 B(  3-C , 26-C ) :   0.1786
B(  3-C , 28-C ) :  -0.1223 B(  7-C ,  8-H ) :   0.9542 B(  7-C ,  9-C ) :   0.9970
B(  7-C , 10-H ) :   0.9389 B(  9-C , 11-C ) :   0.9801 B(  9-C , 12-H ) :   0.9275
B(  9-C , 13-H ) :   0.9449 B(  9-C , 14-C ) :   0.1899 B( 11-C , 14-C ) :   0.5955
B( 11-C , 15-H ) :   0.8788 B( 11-C , 16-H ) :   0.9336 B( 11-C , 18-C ) :   0.4613
B( 14-C , 17-H ) :   1.7613 B( 14-C , 18-C ) :   0.7631 B( 14-C , 19-H ) :   0.7017
B( 14-C , 22-C ) :   0.2640 B( 14-C , 27-N ) :  -0.1706 B( 17-H , 19-H ) :   0.1560
B( 18-C , 19-H ) :  -0.1052 B( 18-C , 20-H ) :   0.8450 B( 18-C , 21-H ) :   0.9753
B( 18-C , 22-C ) :   0.9254 B( 22-C , 23-H ) :   0.9708 B( 22-C , 24-H ) :   0.9158
B( 22-C , 25-F ) :   0.9013 B( 25-F , 30-H ) :  -0.1061 B( 26-C , 27-N ) :   1.1984
B( 26-C , 28-C ) :   1.6443 B( 26-C , 33-H ) :  -0.1027 B( 27-N , 31-H ) :   0.9182
B( 27-N , 32-H ) :   0.8031 B( 28-C , 29-H ) :   0.9306 B( 28-C , 30-H ) :   0.6424

Dispersion correction           -0.039694437
FINAL SINGLE POINT ENERGY      -586.432347535827

DIPOLE MOMENT
-------------
                                X             Y             Z
Electronic contribution:     -2.75936       0.00328      10.72083
Nuclear contribution   :      1.85154       0.58682     -11.15333
                        -----------------------------------------
Total Dipole Moment    :     -0.90783       0.59010      -0.43250
                        -----------------------------------------
Magnitude (a.u.)       :      1.16594
Magnitude (Debye)      :      2.96359

Rotational constants in cm-1:     0.028379     0.022321     0.014415
Rotational constants in MHz :   850.785777   669.176075   432.155504

                             ****ORCA TERMINATED NORMALLY****
TOTAL RUN TIME: 0 days 0 hours 1 minutes 32 seconds 672 msec
