                         Program Version 5.0.0 -  RELEASE  -
|  1> !B3LYP D3BJ RIJCOSX def2-SVP def2/J TightSCF
|  2> *xyz -1 1
|  3> C         -0.10608        1.76991       -4.08984
|  4> C         -0.25875        1.00432       -5.40983
|  5> C          0.39596       -0.37070       -5.33994
|  6> H          0.23915        1.56939       -6.20125
|  7> H         -1.30936        0.88869       -5.68245
|  8> O         -0.32633       -1.39040       -5.49128
|  9> O          1.61941       -0.40073       -5.03683
| 10> H         -0.57627        2.72718       -4.17630
| 11> H          0.93321        1.90140       -3.87192
| 12> H         -0.56868        1.21534       -3.30031
| 13> *
| 14> %MaxCore 64000
| 15>
| 16> %pal nprocs 4
| 17> end
| 18>
| 19> %scf
| 20>   MaxIter 150
| 21> end
| 22>
| 23>
| 24>                          ****END OF INPUT****

CARTESIAN COORDINATES (ANGSTROEM)
---------------------------------
  C     -0.106080    1.769910   -4.089840
  C     -0.258750    1.004320   -5.409830
  C      0.395960   -0.370700   -5.339940
  H      0.239150    1.569390   -6.201250
  H     -1.309360    0.888690   -5.682450
  O     -0.326330   -1.390400   -5.491280
  O      1.619410   -0.400730   -5.036830
  H     -0.576270    2.727180   -4.176300
  H      0.933210    1.901400   -3.871920
  H     -0.568680    1.215340   -3.300310

 Total Charge           Charge          ....   -1
 Multiplicity           Mult            ....    1
 Number of Electrons    NEL             ....   40
 Basis Dimension        Dim             ....   95

ORBITAL ENERGIES
----------------

  NO   OCC          E(Eh)            E(eV)
   0   2.0000     -18.829892      -512.3874
   1   2.0000     -18.829345      -512.3725
   2   2.0000     -10.031896      -272.9818
   3   2.0000     -10.011581      -272.4290
   4   2.0000      -9.990810      -271.8638
   5   2.0000      -0.769581       -20.9414
   6   2.0000      -0.675375       -18.3779
   7   2.0000      -0.582752       -15.8575
   8   2.0000      -0.452039       -12.3006
   9   2.0000      -0.297596        -8.0980
  10   2.0000      -0.277518        -7.5516
  11   2.0000      -0.234408        -6.3786
  12   2.0000      -0.208411        -5.6711
  13   2.0000      -0.193144        -5.2557
  14   2.0000      -0.179762        -4.8916
  15   2.0000      -0.146503        -3.9865
  16   2.0000      -0.132259        -3.5989
  17   2.0000      -0.008613        -0.2344
  18   2.0000      -0.006647        -0.1809
  19   2.0000       0.011913         0.3242
  20   0.0000       0.216967         5.9040
  21   0.0000       0.266412         7.2494
  22   0.0000       0.278241         7.5713
  23   0.0000       0.282736         7.6936
  24   0.0000       0.289190         7.8693

MULLIKEN ATOMIC CHARGES
-----------------------
   0 C :    0.047707
   1 C :    0.060087
   2 C :    0.005622
   3 H :   -0.060508
   4 H :   -0.074741
   5 O :   -0.426627
   6 O :   -0.441427
   7 H :   -0.064292
   8 H :   -0.019456
   9 H :   -0.026366
Sum of atomic charges:   -1.0000000

LOEWDIN ATOMIC CHARGES
----------------------
   0 C :   -0.052858
   1 C :   -0.081860
   2 C :   -0.054353
   3 H :   -0.001932
   4 H :   -0.010588
   5 O :   -0.394676
   6 O :   -0.404320
   7 H :   -0.012124
   8 H :    0.006359
   9 H :    0.006352

  Mayer bond orders larger than 0.100000
B(  0-C ,  1-C ) :   1.1025 B(  0-C ,  7-H ) :   0.9578 B(  0-C ,  8-H ) :   0.9584
B(  0-C ,  9-H ) :   0.9698 B(  1-C ,  2-C ) :   0.9231 B(  1-C ,  3-H ) :   0.9232
B(  1-C ,  4-H ) :   0.9242 B(  2-C ,  5-O ) :   1.8739 B(  2-C ,  6-O ) :   1.8221
B(  5-O ,  6-O ) :   0.1169

Dispersion correction           -0.010997393
FINAL SINGLE POINT ENERGY      -267.478504855356

DIPOLE MOMENT
-------------
                                X             Y             Z
Electronic contribution:      1.83268      -5.54498      -1.70940
Nuclear contribution   :     -2.46071       7.20791       1.95694
                        -----------------------------------------
Total Dipole Moment    :     -0.62803       1.66293       0.24754
                        -----------------------------------------
Magnitude (a.u.)       :      1.79472
Magnitude (Debye)      :      4.56182

Rotational constants in cm-1:     0.309435     0.135317     0.107436
Rotational constants in MHz :  9276.637721  4056.700783  3220.846587

                             ****ORCA TERMINATED NORMALLY****
TOTAL RUN TIME: 0 days 0 hours 0 minutes 10 seconds 722 msec
