                         Program Version 5.0.0 -  RELEASE  -
|  1> !B3LYP D3BJ RIJCOSX def2-SVP def2/J TightSCF
|  2> *xyz 1 1
|  3> C          0.81607       -2.10149       -2.18655
|  4> H          1.69623       -2.36869       -1.60046
|  5> N          1.10055       -2.46749       -3.59927
|  6> C          0.51624       -0.61363       -2.03937
|  7> H         -0.02007       -2.71285       -1.84084
|  8> H          1.70061       -1.75723       -4.07838
|  9> H          0.29386       -2.35977       -4.25632
| 10> H          1.50132       -3.42848       -3.69491
| 11> H         -0.34841       -0.36504       -2.61858
| 12> H          1.35358       -0.04503       -2.38643
| 13> H          0.33317       -0.38682       -1.00984
| 14> *
| 15> %MaxCore 64000
| 16>
| 17> %pal nprocs 4
| 18> end
| 19>
| 20> %scf
| 21>   MaxIter 150
| 22> end
| 23>
| 24>
| 25>                          ****END OF INPUT****

CARTESIAN COORDINATES (ANGSTROEM)
---------------------------------
  C      0.816070   -2.101490   -2.186550
  H      1.696230   -2.368690   -1.600460
  N      1.100550   -2.467490   -3.599270
  C      0.516240   -0.613630   -2.039370
  H     -0.020070   -2.712850   -1.840840
  H      1.700610   -1.757230   -4.078380
  H      0.293860   -2.359770   -4.256320
  H      1.501320   -3.428480   -3.694910
  H     -0.348410   -0.365040   -2.618580
  H      1.353580   -0.045030   -2.386430
  H      0.333170   -0.386820   -1.009840

 Total Charge           Charge          ....    1
 Multiplicity           Mult            ....    1
 Number of Electrons    NEL             ....   26
 Basis Dimension        Dim             ....   82

ORBITAL ENERGIES
----------------

  NO   OCC          E(Eh)            E(eV)
   0   2.0000     -14.670057      -399.1926
   1   2.0000     -10.437716      -284.0247
   2   2.0000     -10.360373      -281.9201
   3   2.0000      -1.202783       -32.7294
   4   2.0000      -0.959183       -26.1007
   5   2.0000      -0.847057       -23.0496
   6   2.0000      -0.790441       -21.5090
   7   2.0000      -0.773814       -21.0566
   8   2.0000      -0.702522       -19.1166
   9   2.0000      -0.637623       -17.3506
  10   2.0000      -0.583215       -15.8701
  11   2.0000      -0.568928       -15.4813
  12   2.0000      -0.551112       -14.9965
  13   0.0000      -0.189355        -5.1526
  14   0.0000      -0.131946        -3.5904
  15   0.0000      -0.126722        -3.4483
  16   0.0000      -0.093557        -2.5458
  17   0.0000      -0.050598        -1.3768

MULLIKEN ATOMIC CHARGES
-----------------------
   0 C :    0.001010
   1 H :    0.091709
   2 N :   -0.004055
   3 C :   -0.011435
   4 H :    0.095367
   5 H :    0.203136
   6 H :    0.206563
   7 H :    0.228101
   8 H :    0.051139
   9 H :    0.051171
  10 H :    0.087294
Sum of atomic charges:    1.0000000

LOEWDIN ATOMIC CHARGES
----------------------
   0 C :    0.056129
   1 H :    0.053980
   2 N :    0.275961
   3 C :   -0.033032
   4 H :    0.054735
   5 H :    0.148700
   6 H :    0.150604
   7 H :    0.155841
   8 H :    0.037296
   9 H :    0.037059
  10 H :    0.062728

  Mayer bond orders larger than 0.100000
B(  0-C ,  1-H ) :   0.9498 B(  0-C ,  2-N ) :   0.9237 B(  0-C ,  3-C ) :   1.1073
B(  0-C ,  4-H ) :   0.9497 B(  2-N ,  5-H ) :   0.9301 B(  2-N ,  6-H ) :   0.9297
B(  2-N ,  7-H ) :   0.9251 B(  3-C ,  8-H ) :   0.9713 B(  3-C ,  9-H ) :   0.9666
B(  3-C , 10-H ) :   0.9554

Dispersion correction           -0.010009798
FINAL SINGLE POINT ENERGY      -135.346735852703

DIPOLE MOMENT
-------------
                                X             Y             Z
Electronic contribution:      0.43219      -1.46117      -1.11751
Nuclear contribution   :     -0.07506       0.54337      -0.16191
                        -----------------------------------------
Total Dipole Moment    :      0.35714      -0.91780      -1.27942
                        -----------------------------------------
Magnitude (a.u.)       :      1.61456
Magnitude (Debye)      :      4.10389

Rotational constants in cm-1:     0.999557     0.280801     0.246932
Rotational constants in MHz : 29965.963633  8418.199581  7402.841054

                             ****ORCA TERMINATED NORMALLY****
TOTAL RUN TIME: 0 days 0 hours 0 minutes 9 seconds 673 msec
