                         Program Version 5.0.0 -  RELEASE  -
|  1> !B3LYP D3BJ RIJCOSX def2-TZVP def2/J TightSCF xyzfile
|  2>
|  3> *xyzfile 0 1 B.xyz
|  4>
|  5> %MaxCore 64000
|  6>
|  7> %pal nprocs 18
|  8> end
|  9>
| 10> %scf
| 11>   MaxIter 150
| 12> end
| 13>
| 14>
| 15>                          ****END OF INPUT****

CARTESIAN COORDINATES (ANGSTROEM)
---------------------------------
  C      0.816067   -2.101491   -2.186546
  H      1.696232   -2.368691   -1.600457
  N      1.100552   -2.467492   -3.599269
  C      0.516243   -0.613634   -2.039373
  H     -0.020066   -2.712849   -1.840844
  C     -0.868621   -0.193925   -2.546303
  C     -0.984801    1.284739   -2.928686
  H     -0.764939    1.904116   -2.051568
  H     -2.032613    1.478953   -3.178952
  C     -0.106085    1.769914   -4.089836
  H     -0.347744    2.822196   -4.262942
  H      0.949683    1.745875   -3.808781
  C     -0.258747    1.004323   -5.409829
  C      0.395958   -0.370696   -5.339939
  H      0.239150    1.569393   -6.201253
  H     -1.309360    0.888694   -5.682455
  H      1.700606   -1.757225   -4.078378
  H      0.293855   -2.359766   -4.256324
  H      1.501324   -3.428479   -3.694915
  O     -0.326329   -1.390398   -5.491279
  O      1.619412   -0.400726   -5.036827
  H     -1.607271   -0.412651   -1.768955
  H     -1.157234   -0.796164   -3.409254
  H      1.299044   -0.056805   -2.558982
  H      0.612393   -0.365579   -0.979171

 Total Charge           Charge          ....    0
 Multiplicity           Mult            ....    1
 Number of Electrons    NEL             ....   80
 Basis Dimension        Dim             ....  400

ORBITAL ENERGIES
----------------

  NO   OCC          E(Eh)            E(eV)
   0   2.0000     -19.057609      -518.5839
   1   2.0000     -19.056260      -518.5472
   2   2.0000     -14.400012      -391.8442
   3   2.0000     -10.240906      -278.6692
   4   2.0000     -10.240630      -278.6617
   5   2.0000     -10.181988      -277.0660
   6   2.0000     -10.163695      -276.5682
   7   2.0000     -10.159484      -276.4536
   8   2.0000     -10.152414      -276.2612
   9   2.0000     -10.143417      -276.0164
  10   2.0000      -1.027877       -27.9700
  11   2.0000      -0.977193       -26.5908
  12   2.0000      -0.929032       -25.2803
  13   2.0000      -0.813523       -22.1371
  14   2.0000      -0.770928       -20.9780
  15   2.0000      -0.723919       -19.6988
  16   2.0000      -0.660749       -17.9799
  17   2.0000      -0.626458       -17.0468
  18   2.0000      -0.575734       -15.6665
  19   2.0000      -0.564279       -15.3548
  20   2.0000      -0.540880       -14.7181
  21   2.0000      -0.514328       -13.9956
  22   2.0000      -0.480777       -13.0826
  23   2.0000      -0.467489       -12.7210
  24   2.0000      -0.454419       -12.3654
  25   2.0000      -0.444008       -12.0821
  26   2.0000      -0.423215       -11.5163
  27   2.0000      -0.417167       -11.3517
  28   2.0000      -0.399201       -10.8628
  29   2.0000      -0.389413       -10.5965
  30   2.0000      -0.382531       -10.4092
  31   2.0000      -0.372550       -10.1376
  32   2.0000      -0.352468        -9.5911
  33   2.0000      -0.348391        -9.4802
  34   2.0000      -0.324808        -8.8385
  35   2.0000      -0.311914        -8.4876
  36   2.0000      -0.307274        -8.3614
  37   2.0000      -0.249456        -6.7881
  38   2.0000      -0.236431        -6.4336
  39   2.0000      -0.227979        -6.2036
  40   0.0000      -0.003487        -0.0949
  41   0.0000       0.033782         0.9193
  42   0.0000       0.042897         1.1673
  43   0.0000       0.054665         1.4875
  44   0.0000       0.059348         1.6149

MULLIKEN ATOMIC CHARGES
-----------------------
   0 C :   -0.125872
   1 H :    0.126084
   2 N :   -0.278396
   3 C :   -0.226834
   4 H :    0.123060
   5 C :   -0.187792
   6 C :   -0.180303
   7 H :    0.078662
   8 H :    0.087605
   9 C :   -0.181707
  10 H :    0.087582
  11 H :    0.104234
  12 C :   -0.113628
  13 C :    0.250009
  14 H :    0.088146
  15 H :    0.073126
  16 H :    0.285610
  17 H :    0.284436
  18 H :    0.251212
  19 O :   -0.493686
  20 O :   -0.510916
  21 H :    0.081884
  22 H :    0.132196
  23 H :    0.146706
  24 H :    0.098583
Sum of atomic charges:   -0.0000000

LOEWDIN ATOMIC CHARGES
----------------------
   0 C :   -0.273608
   1 H :    0.132386
   2 N :    0.117678
   3 C :   -0.262523
   4 H :    0.133883
   5 C :   -0.265440
   6 C :   -0.261530
   7 H :    0.132273
   8 H :    0.135976
   9 C :   -0.262338
  10 H :    0.133185
  11 H :    0.135329
  12 C :   -0.231283
  13 C :   -0.633199
  14 H :    0.143487
  15 H :    0.135815
  16 H :    0.180133
  17 H :    0.180805
  18 H :    0.190913
  19 O :   -0.063872
  20 O :   -0.058422
  21 H :    0.131560
  22 H :    0.142791
  23 H :    0.146729
  24 H :    0.139271

  Mayer bond orders larger than 0.100000
B(  0-C ,  1-H ) :   0.9735 B(  0-C ,  2-N ) :   0.9043 B(  0-C ,  3-C ) :   0.9707
B(  0-C ,  4-H ) :   0.9720 B(  2-N , 16-H ) :   0.7641 B(  2-N , 17-H ) :   0.7747
B(  2-N , 18-H ) :   0.9060 B(  3-C ,  5-C ) :   0.9231 B(  3-C , 23-H ) :   0.9723
B(  3-C , 24-H ) :   0.9550 B(  5-C ,  6-C ) :   0.9652 B(  5-C , 21-H ) :   0.9578
B(  5-C , 22-H ) :   0.9749 B(  6-C ,  7-H ) :   0.9657 B(  6-C ,  8-H ) :   0.9649
B(  6-C ,  9-C ) :   0.9892 B(  9-C , 10-H ) :   0.9645 B(  9-C , 11-H ) :   0.9737
B(  9-C , 12-C ) :   0.9555 B( 12-C , 13-C ) :   0.9551 B( 12-C , 14-H ) :   0.9386
B( 12-C , 15-H ) :   0.9631 B( 13-C , 19-O ) :   1.7236 B( 13-C , 20-O ) :   1.6800
B( 16-H , 20-O ) :   0.2035 B( 17-H , 19-O ) :   0.1934

Dispersion correction           -0.043787278
FINAL SINGLE POINT ENERGY      -480.931662425981

DIPOLE MOMENT
-------------
                                X             Y             Z
Electronic contribution:      2.30753      -3.11053      -6.28044
Nuclear contribution   :     -2.02598       1.95876       8.24116
                        -----------------------------------------
Total Dipole Moment    :      0.28155      -1.15177       1.96072
                        -----------------------------------------
Magnitude (a.u.)       :      2.29134
Magnitude (Debye)      :      5.82413

Rotational constants in cm-1:     0.052900     0.041948     0.028766
Rotational constants in MHz :  1585.892512  1257.572595   862.390225

                             ****ORCA TERMINATED NORMALLY****
TOTAL RUN TIME: 0 days 0 hours 0 minutes 31 seconds 278 msec
