                         Program Version 5.0.0 -  RELEASE  -
|  1> !B3LYP D3BJ RIJCOSX def2-SVP def2/J TightSCF
|  2> *xyz 0 1
|  3> C         -0.10608        1.76991       -4.08984
|  4> C         -0.25875        1.00432       -5.40983
|  5> C          0.39596       -0.37070       -5.33994
|  6> H          0.23915        1.56939       -6.20125
|  7> H         -1.30936        0.88869       -5.68245
|  8> F         -0.32633       -1.39040       -5.49128
|  9> O          1.61941       -0.40073       -5.03683
| 10> H         -0.57627        2.72718       -4.17630
| 11> H          0.93321        1.90140       -3.87192
| 12> H         -0.56868        1.21534       -3.30031
| 13> *
| 14> %MaxCore 64000
| 15>
| 16> %pal nprocs 4
| 17> end
| 18>
| 19> %scf
| 20>   MaxIter 150
| 21> end
| 22>
| 23>
| 24>                          ****END OF INPUT****

CARTESIAN COORDINATES (ANGSTROEM)
---------------------------------
  C     -0.106080    1.769910   -4.089840
  C     -0.258750    1.004320   -5.409830
  C      0.395960   -0.370700   -5.339940
  H      0.239150    1.569390   -6.201250
  H     -1.309360    0.888690   -5.682450
  F     -0.326330   -1.390400   -5.491280
  O      1.619410   -0.400730   -5.036830
  H     -0.576270    2.727180   -4.176300
  H      0.933210    1.901400   -3.871920
  H     -0.568680    1.215340   -3.300310

 Total Charge           Charge          ....    0
 Multiplicity           Mult            ....    1
 Number of Electrons    NEL             ....   40
 Basis Dimension        Dim             ....   95

ORBITAL ENERGIES
----------------

  NO   OCC          E(Eh)            E(eV)
   0   2.0000     -24.749513      -673.4685
   1   2.0000     -19.130901      -520.5783
   2   2.0000     -10.352359      -281.7020
   3   2.0000     -10.211329      -277.8644
   4   2.0000     -10.188203      -277.2351
   5   2.0000      -1.291195       -35.1352
   6   2.0000      -1.010385       -27.4940
   7   2.0000      -0.789575       -21.4854
   8   2.0000      -0.677571       -18.4376
   9   2.0000      -0.628348       -17.0982
  10   2.0000      -0.539919       -14.6919
  11   2.0000      -0.525681       -14.3045
  12   2.0000      -0.497152       -13.5282
  13   2.0000      -0.461045       -12.5457
  14   2.0000      -0.427188       -11.6244
  15   2.0000      -0.395726       -10.7683
  16   2.0000      -0.374094       -10.1796
  17   2.0000      -0.371498       -10.1090
  18   2.0000      -0.337909        -9.1950
  19   2.0000      -0.283413        -7.7121
  20   0.0000      -0.024215        -0.6589
  21   0.0000       0.060972         1.6591
  22   0.0000       0.104570         2.8455
  23   0.0000       0.107978         2.9382
  24   0.0000       0.127770         3.4768

MULLIKEN ATOMIC CHARGES
-----------------------
   0 C :    0.028940
   1 C :   -0.029804
   2 C :    0.215458
   3 H :    0.045552
   4 H :    0.010701
   5 F :   -0.071739
   6 O :   -0.261402
   7 H :    0.014025
   8 H :    0.034977
   9 H :    0.013292
Sum of atomic charges:   -0.0000000

LOEWDIN ATOMIC CHARGES
----------------------
   0 C :   -0.028614
   1 C :   -0.062904
   2 C :    0.103115
   3 H :    0.047475
   4 H :    0.023796
   5 F :    0.041455
   6 O :   -0.201008
   7 H :    0.024707
   8 H :    0.029126
   9 H :    0.022853

  Mayer bond orders larger than 0.100000
B(  0-C ,  1-C ) :   1.0983 B(  0-C ,  7-H ) :   0.9664 B(  0-C ,  8-H ) :   0.9692
B(  0-C ,  9-H ) :   0.9758 B(  1-C ,  2-C ) :   1.0014 B(  1-C ,  3-H ) :   0.9280
B(  1-C ,  4-H ) :   0.9338 B(  2-C ,  5-F ) :   1.2053 B(  2-C ,  6-O ) :   2.0634

Dispersion correction           -0.010427987
FINAL SINGLE POINT ENERGY      -292.033712207130

DIPOLE MOMENT
-------------
                                X             Y             Z
Electronic contribution:      0.91239      -8.24984      -2.56732
Nuclear contribution   :     -1.80992       8.85192       2.42184
                        -----------------------------------------
Total Dipole Moment    :     -0.89754       0.60209      -0.14547
                        -----------------------------------------
Magnitude (a.u.)       :      1.09052
Magnitude (Debye)      :      2.77189

Rotational constants in cm-1:     0.298360     0.128849     0.102271
Rotational constants in MHz :  8944.606599  3862.796179  3066.020510

                             ****ORCA TERMINATED NORMALLY****
TOTAL RUN TIME: 0 days 0 hours 0 minutes 11 seconds 583 msec
