                         Program Version 5.0.0 -  RELEASE  -
|  1> !B3LYP D3BJ RIJCOSX def2-SVP def2/J TightSCF
|  2> *xyz 0 1
|  3> C          0.81607       -2.10149       -2.18655
|  4> H          1.69623       -2.36869       -1.60046
|  5> C          1.10055       -2.46749       -3.59927
|  6> C          0.51624       -0.61363       -2.03937
|  7> H         -0.02007       -2.71285       -1.84084
|  8> H          1.70061       -1.75723       -4.07838
|  9> H          0.29386       -2.35977       -4.25632
| 10> H          1.50132       -3.42848       -3.69491
| 11> H         -0.34841       -0.36504       -2.61858
| 12> H          1.35358       -0.04503       -2.38643
| 13> H          0.33317       -0.38682       -1.00984
| 14> *
| 15> %MaxCore 64000
| 16>
| 17> %pal nprocs 4
| 18> end
| 19>
| 20> %scf
| 21>   MaxIter 150
| 22> end
| 23>
| 24>
| 25>                          ****END OF INPUT****

CARTESIAN COORDINATES (ANGSTROEM)
---------------------------------
  C      0.816070   -2.101490   -2.186550
  H      1.696230   -2.368690   -1.600460
  C      1.100550   -2.467490   -3.599270
  C      0.516240   -0.613630   -2.039370
  H     -0.020070   -2.712850   -1.840840
  H      1.700610   -1.757230   -4.078380
  H      0.293860   -2.359770   -4.256320
  H      1.501320   -3.428480   -3.694910
  H     -0.348410   -0.365040   -2.618580
  H      1.353580   -0.045030   -2.386430
  H      0.333170   -0.386820   -1.009840

 Total Charge           Charge          ....    0
 Multiplicity           Mult            ....    1
 Number of Electrons    NEL             ....   26
 Basis Dimension        Dim             ....   82

ORBITAL ENERGIES
----------------

  NO   OCC          E(Eh)            E(eV)
   0   2.0000     -10.170034      -276.7407
   1   2.0000     -10.162534      -276.5366
   2   2.0000     -10.150365      -276.2055
   3   2.0000      -0.779553       -21.2127
   4   2.0000      -0.678875       -18.4731
   5   2.0000      -0.581433       -15.8216
   6   2.0000      -0.456445       -12.4205
   7   2.0000      -0.442457       -12.0399
   8   2.0000      -0.410024       -11.1573
   9   2.0000      -0.373464       -10.1625
  10   2.0000      -0.339912        -9.2495
  11   2.0000      -0.335465        -9.1285
  12   2.0000      -0.318980        -8.6799
  13   0.0000       0.064474         1.7544
  14   0.0000       0.111727         3.0402
  15   0.0000       0.113283         3.0826
  16   0.0000       0.114941         3.1277
  17   0.0000       0.146630         3.9900

MULLIKEN ATOMIC CHARGES
-----------------------
   0 C :   -0.029413
   1 H :   -0.004026
   2 C :    0.068167
   3 C :    0.028069
   4 H :   -0.001729
   5 H :   -0.029836
   6 H :   -0.025941
   7 H :   -0.005689
   8 H :   -0.000210
   9 H :    0.000970
  10 H :   -0.000363
Sum of atomic charges:   -0.0000000

LOEWDIN ATOMIC CHARGES
----------------------
   0 C :   -0.033801
   1 H :    0.017228
   2 C :   -0.050444
   3 C :   -0.044507
   4 H :    0.017235
   5 H :    0.013614
   6 H :    0.014028
   7 H :    0.015054
   8 H :    0.016783
   9 H :    0.017009
  10 H :    0.017799

  Mayer bond orders larger than 0.100000
B(  0-C ,  1-H ) :   0.9507 B(  0-C ,  2-C ) :   1.1176 B(  0-C ,  3-C ) :   1.1095
B(  0-C ,  4-H ) :   0.9508 B(  2-C ,  5-H ) :   0.9595 B(  2-C ,  6-H ) :   0.9583
B(  2-C ,  7-H ) :   0.9652 B(  3-C ,  8-H ) :   0.9749 B(  3-C ,  9-H ) :   0.9717
B(  3-C , 10-H ) :   0.9668

Dispersion correction           -0.010087108
FINAL SINGLE POINT ENERGY      -118.957115796361

DIPOLE MOMENT
-------------
                                X             Y             Z
Electronic contribution:     -0.01919      -0.29754       0.46287
Nuclear contribution   :      0.01737       0.30387      -0.47422
                        -----------------------------------------
Total Dipole Moment    :     -0.00181       0.00633      -0.01134
                        -----------------------------------------
Magnitude (a.u.)       :      0.01312
Magnitude (Debye)      :      0.03335

Rotational constants in cm-1:     1.006891     0.295208     0.258491
Rotational constants in MHz : 30185.831813  8850.104914  7749.351732

                             ****ORCA TERMINATED NORMALLY****
TOTAL RUN TIME: 0 days 0 hours 0 minutes 10 seconds 116 msec
