                         Program Version 5.0.0 -  RELEASE  -
|  1> !B3LYP D3BJ RIJCOSX def2-SVP def2/J TightSCF
|  2> *xyz 0 1
|  3> C         -0.10608        1.76991       -4.08984
|  4> C         -0.25875        1.00432       -5.40983
|  5> C          0.39596       -0.37070       -5.33994
|  6> H          0.23915        1.56939       -6.20125
|  7> H         -1.30936        0.88869       -5.68245
|  8> O         -0.32633       -1.39040       -5.49128
|  9> F          1.61941       -0.40073       -5.03683
| 10> H         -0.57627        2.72718       -4.17630
| 11> H          0.93321        1.90140       -3.87192
| 12> H         -0.56868        1.21534       -3.30031
| 13> *
| 14> %MaxCore 64000
| 15>
| 16> %pal nprocs 4
| 17> end
| 18>
| 19> %scf
| 20>   MaxIter 150
| 21> end
| 22>
| 23>
| 24>                          ****END OF INPUT****

CARTESIAN COORDINATES (ANGSTROEM)
---------------------------------
  C     -0.106080    1.769910   -4.089840
  C     -0.258750    1.004320   -5.409830
  C      0.395960   -0.370700   -5.339940
  H      0.239150    1.569390   -6.201250
  H     -1.309360    0.888690   -5.682450
  O     -0.326330   -1.390400   -5.491280
  F      1.619410   -0.400730   -5.036830
  H     -0.576270    2.727180   -4.176300
  H      0.933210    1.901400   -3.871920
  H     -0.568680    1.215340   -3.300310

 Total Charge           Charge          ....    0
 Multiplicity           Mult            ....    1
 Number of Electrons    NEL             ....   40
 Basis Dimension        Dim             ....   95

ORBITAL ENERGIES
----------------

  NO   OCC          E(Eh)            E(eV)
   0   2.0000     -24.748761      -673.4480
   1   2.0000     -19.131179      -520.5859
   2   2.0000     -10.351298      -281.6731
   3   2.0000     -10.210793      -277.8498
   4   2.0000     -10.193155      -277.3698
   5   2.0000      -1.290127       -35.1061
   6   2.0000      -1.009884       -27.4803
   7   2.0000      -0.794133       -21.6095
   8   2.0000      -0.674933       -18.3659
   9   2.0000      -0.631634       -17.1876
  10   2.0000      -0.541492       -14.7348
  11   2.0000      -0.529171       -14.3995
  12   2.0000      -0.490792       -13.3551
  13   2.0000      -0.460693       -12.5361
  14   2.0000      -0.429702       -11.6928
  15   2.0000      -0.398078       -10.8323
  16   2.0000      -0.378817       -10.3081
  17   2.0000      -0.375562       -10.2196
  18   2.0000      -0.342354        -9.3159
  19   2.0000      -0.280205        -7.6248
  20   0.0000      -0.020065        -0.5460
  21   0.0000       0.056469         1.5366
  22   0.0000       0.101522         2.7626
  23   0.0000       0.109516         2.9801
  24   0.0000       0.130521         3.5516

MULLIKEN ATOMIC CHARGES
-----------------------
   0 C :    0.007890
   1 C :   -0.021992
   2 C :    0.212446
   3 H :    0.028738
   4 H :    0.037083
   5 O :   -0.248075
   6 F :   -0.081234
   7 H :    0.020499
   8 H :    0.020083
   9 H :    0.024563
Sum of atomic charges:   -0.0000000

LOEWDIN ATOMIC CHARGES
----------------------
   0 C :   -0.037130
   1 C :   -0.059313
   2 C :    0.101683
   3 H :    0.036597
   4 H :    0.040660
   5 O :   -0.193920
   6 F :    0.036173
   7 H :    0.027514
   8 H :    0.022295
   9 H :    0.025442

  Mayer bond orders larger than 0.100000
B(  0-C ,  1-C ) :   1.0821 B(  0-C ,  7-H ) :   0.9665 B(  0-C ,  8-H ) :   0.9719
B(  0-C ,  9-H ) :   0.9758 B(  1-C ,  2-C ) :   1.0119 B(  1-C ,  3-H ) :   0.9242
B(  1-C ,  4-H ) :   0.9462 B(  2-C ,  5-O ) :   2.0930 B(  2-C ,  6-F ) :   1.1847

Dispersion correction           -0.010355853
FINAL SINGLE POINT ENERGY      -292.034936091034

DIPOLE MOMENT
-------------
                                X             Y             Z
Electronic contribution:      4.08852      -6.61237      -1.81466
Nuclear contribution   :     -3.93139       7.77287       1.92635
                        -----------------------------------------
Total Dipole Moment    :      0.15713       1.16051       0.11170
                        -----------------------------------------
Magnitude (a.u.)       :      1.17641
Magnitude (Debye)      :      2.99020

Rotational constants in cm-1:     0.286068     0.133630     0.103472
Rotational constants in MHz :  8576.109806  4006.118234  3102.010802

                             ****ORCA TERMINATED NORMALLY****
TOTAL RUN TIME: 0 days 0 hours 0 minutes 11 seconds 257 msec
