                         Program Version 5.0.0 -  RELEASE  -
|  1> !B3LYP D3BJ RIJCOSX def2-TZVP def2/J TightSCF xyzfile
|  2>
|  3> *xyzfile 0 1 D2.xyz
|  4>
|  5> %MaxCore 64000
|  6>
|  7> %pal nprocs 18
|  8> end
|  9>
| 10> %scf
| 11>   MaxIter 150
| 12> end
| 13>
| 14>
| 15>                          ****END OF INPUT****

CARTESIAN COORDINATES (ANGSTROEM)
---------------------------------
  C      0.816067   -2.101491   -2.186546
  H      1.696232   -2.368691   -1.600457
  C      1.100552   -2.467492   -3.599269
  C      0.516243   -0.613634   -2.039373
  H     -0.020066   -2.712849   -1.840844
  C     -0.868621   -0.193925   -2.546303
  C     -0.984801    1.284739   -2.928686
  H     -0.764939    1.904116   -2.051568
  H     -2.032613    1.478953   -3.178952
  C     -0.106085    1.769914   -4.089836
  H     -0.347744    2.822196   -4.262942
  H      0.949683    1.745875   -3.808781
  C     -0.258747    1.004323   -5.409829
  C      0.395958   -0.370696   -5.339939
  H      0.239150    1.569393   -6.201253
  H     -1.309360    0.888694   -5.682455
  H      1.700606   -1.757225   -4.078378
  H      0.293855   -2.359766   -4.256324
  H      1.501324   -3.428479   -3.694915
  O     -0.326329   -1.390398   -5.491279
  F      1.619412   -0.400726   -5.036827
  H     -1.607271   -0.412651   -1.768955
  H     -1.157234   -0.796164   -3.409254
  H      1.299044   -0.056805   -2.558982
  H      0.612393   -0.365579   -0.979171

 Total Charge           Charge          ....    0
 Multiplicity           Mult            ....    1
 Number of Electrons    NEL             ....   80
 Basis Dimension        Dim             ....  400

ORBITAL ENERGIES
----------------

  NO   OCC          E(Eh)            E(eV)
   0   2.0000     -24.758393      -673.7101
   1   2.0000     -19.135871      -520.7135
   2   2.0000     -10.354476      -281.7596
   3   2.0000     -10.202721      -277.6302
   4   2.0000     -10.186313      -277.1837
   5   2.0000     -10.170744      -276.7600
   6   2.0000     -10.157780      -276.4072
   7   2.0000     -10.153235      -276.2836
   8   2.0000     -10.140979      -275.9501
   9   2.0000     -10.091791      -274.6116
  10   2.0000      -1.330801       -36.2129
  11   2.0000      -1.045197       -28.4413
  12   2.0000      -0.827136       -22.5075
  13   2.0000      -0.793840       -21.6015
  14   2.0000      -0.745309       -20.2809
  15   2.0000      -0.706025       -19.2119
  16   2.0000      -0.665883       -18.1196
  17   2.0000      -0.638547       -17.3757
  18   2.0000      -0.600051       -16.3282
  19   2.0000      -0.562882       -15.3168
  20   2.0000      -0.559609       -15.2277
  21   2.0000      -0.544847       -14.8260
  22   2.0000      -0.512196       -13.9376
  23   2.0000      -0.478689       -13.0258
  24   2.0000      -0.457095       -12.4382
  25   2.0000      -0.443800       -12.0764
  26   2.0000      -0.439311       -11.9542
  27   2.0000      -0.429870       -11.6974
  28   2.0000      -0.414872       -11.2892
  29   2.0000      -0.392538       -10.6815
  30   2.0000      -0.385000       -10.4764
  31   2.0000      -0.376516       -10.2455
  32   2.0000      -0.368834       -10.0365
  33   2.0000      -0.350669        -9.5422
  34   2.0000      -0.332345        -9.0436
  35   2.0000      -0.329166        -8.9571
  36   2.0000      -0.317607        -8.6425
  37   2.0000      -0.303179        -8.2499
  38   2.0000      -0.301314        -8.1992
  39   2.0000      -0.265689        -7.2298
  40   0.0000      -0.042954        -1.1688
  41   0.0000       0.026441         0.7195
  42   0.0000       0.054587         1.4854
  43   0.0000       0.056987         1.5507
  44   0.0000       0.064132         1.7451

MULLIKEN ATOMIC CHARGES
-----------------------
   0 C :   -0.094010
   1 H :    0.070086
   2 C :   -0.393936
   3 C :   -0.193966
   4 H :    0.064782
   5 C :   -0.205482
   6 C :   -0.161968
   7 H :    0.087899
   8 H :    0.090326
   9 C :   -0.214569
  10 H :    0.106687
  11 H :    0.114396
  12 C :   -0.154260
  13 C :    0.359727
  14 H :    0.119234
  15 H :    0.115117
  16 H :    0.090021
  17 H :    0.162091
  18 H :    0.087955
  19 O :   -0.323220
  20 F :   -0.114445
  21 H :    0.085858
  22 H :    0.132073
  23 H :    0.086080
  24 H :    0.083524
Sum of atomic charges:    0.0000000

LOEWDIN ATOMIC CHARGES
----------------------
   0 C :   -0.296644
   1 H :    0.129451
   2 C :   -0.330616
   3 C :   -0.263860
   4 H :    0.130812
   5 C :   -0.262869
   6 C :   -0.262129
   7 H :    0.136578
   8 H :    0.135419
   9 C :   -0.259922
  10 H :    0.139665
  11 H :    0.135625
  12 C :   -0.219466
  13 C :   -0.487156
  14 H :    0.151123
  15 H :    0.152800
  16 H :    0.106641
  17 H :    0.112452
  18 H :    0.103440
  19 O :    0.077433
  20 F :    0.333738
  21 H :    0.134769
  22 H :    0.143047
  23 H :    0.128860
  24 H :    0.130809

  Mayer bond orders larger than 0.100000
B(  0-C ,  1-H ) :   0.9628 B(  0-C ,  2-C ) :   0.9656 B(  0-C ,  3-C ) :   0.9837
B(  0-C ,  4-H ) :   0.9676 B(  2-C , 16-H ) :   0.9788 B(  2-C , 17-H ) :   0.9601
B(  2-C , 18-H ) :   0.9708 B(  3-C ,  5-C ) :   0.9346 B(  3-C , 23-H ) :   0.9867
B(  3-C , 24-H ) :   0.9624 B(  5-C ,  6-C ) :   0.9638 B(  5-C , 21-H ) :   0.9616
B(  5-C , 22-H ) :   0.9751 B(  6-C ,  7-H ) :   0.9652 B(  6-C ,  8-H ) :   0.9669
B(  6-C ,  9-C ) :   0.9816 B(  9-C , 10-H ) :   0.9657 B(  9-C , 11-H ) :   0.9783
B(  9-C , 12-C ) :   0.9232 B( 12-C , 13-C ) :   1.0049 B( 12-C , 14-H ) :   0.9404
B( 12-C , 15-H ) :   0.9641 B( 13-C , 19-O ) :   2.0073 B( 13-C , 20-F ) :   1.1156

Dispersion correction           -0.042715430
FINAL SINGLE POINT ENERGY      -488.842567405236

DIPOLE MOMENT
-------------
                                X             Y             Z
Electronic contribution:      3.59245      -0.32546      -9.81741
Nuclear contribution   :     -3.57245       1.60200       9.69133
                        -----------------------------------------
Total Dipole Moment    :      0.02000       1.27654      -0.12608
                        -----------------------------------------
Magnitude (a.u.)       :      1.28291
Magnitude (Debye)      :      3.26089

Rotational constants in cm-1:     0.051520     0.042563     0.028962
Rotational constants in MHz :  1544.537298  1275.996546   868.258224

                             ****ORCA TERMINATED NORMALLY****
TOTAL RUN TIME: 0 days 0 hours 0 minutes 41 seconds 976 msec
