                         Program Version 5.0.0 -  RELEASE  -
|  1> !BLYP D3BJ RIJCOSX def2-TZVP def2/J TightSCF
|  2> *xyz -1 1
|  3> C         -0.90349       -0.87394       -1.98739
|  4> C         -0.96015       -0.52236       -0.48987
|  5> H         -1.69039       -1.20813       -0.02168
|  6> H         -1.41449        0.48633       -0.40668
|  7> O          0.26170       -0.58031        0.13861
|  8> H         -1.88568       -0.80774       -2.40670
|  9> H         -0.53143       -1.87013       -2.10605
| 10> H         -0.25399       -0.18836       -2.49039
| 11> *
| 12>
| 13> %MaxCore 64000
| 14>
| 15> %pal nprocs 4
| 16> end
| 17>
| 18> %scf
| 19>   MaxIter 150
| 20> end
| 21>
| 22>
| 23>                          ****END OF INPUT****

CARTESIAN COORDINATES (ANGSTROEM)
---------------------------------
  C     -0.903490   -0.873940   -1.987390
  C     -0.960150   -0.522360   -0.489870
  H     -1.690390   -1.208130   -0.021680
  H     -1.414490    0.486330   -0.406680
  O      0.261700   -0.580310    0.138610
  H     -1.885680   -0.807740   -2.406700
  H     -0.531430   -1.870130   -2.106050
  H     -0.253990   -0.188360   -2.490390

 Total Charge           Charge          ....   -1
 Multiplicity           Mult            ....    1
 Number of Electrons    NEL             ....   26
 Basis Dimension        Dim             ....  123

ORBITAL ENERGIES
----------------

  NO   OCC          E(Eh)            E(eV)
   0   2.0000     -18.426121      -501.4003
   1   2.0000      -9.708025      -264.1688
   2   2.0000      -9.688065      -263.6257
   3   2.0000      -0.576875       -15.6976
   4   2.0000      -0.443413       -12.0659
   5   2.0000      -0.300430        -8.1751
   6   2.0000      -0.191582        -5.2132
   7   2.0000      -0.170898        -4.6504
   8   2.0000      -0.118077        -3.2130
   9   2.0000      -0.103729        -2.8226
  10   2.0000      -0.052990        -1.4419
  11   2.0000       0.085449         2.3252
  12   2.0000       0.089719         2.4414
  13   0.0000       0.197418         5.3720
  14   0.0000       0.232469         6.3258
  15   0.0000       0.256070         6.9680
  16   0.0000       0.258777         7.0417
  17   0.0000       0.291538         7.9332

MULLIKEN ATOMIC CHARGES
-----------------------
   0 C :   -0.018631
   1 C :    0.041859
   2 H :   -0.089150
   3 H :   -0.091456
   4 O :   -0.726553
   5 H :   -0.086022
   6 H :   -0.014975
   7 H :   -0.015072
Sum of atomic charges:   -1.0000000

LOEWDIN ATOMIC CHARGES
----------------------
   0 C :   -0.359319
   1 C :   -0.546462
   2 H :    0.045668
   3 H :    0.045158
   4 O :   -0.400839
   5 H :    0.060783
   6 H :    0.077519
   7 H :    0.077494

  Mayer bond orders larger than 0.100000
B(  0-C ,  1-C ) :   0.8328 B(  0-C ,  4-O ) :  -0.3889 B(  0-C ,  5-H ) :   0.8819
B(  0-C ,  6-H ) :   0.9494 B(  0-C ,  7-H ) :   0.9493 B(  1-C ,  2-H ) :   0.9027
B(  1-C ,  3-H ) :   0.9009 B(  1-C ,  4-O ) :   1.6903 B(  4-O ,  5-H ) :   0.1582
B(  4-O ,  6-H ) :   0.1008 B(  4-O ,  7-H ) :   0.1011

Dispersion correction           -0.007732888
FINAL SINGLE POINT ENERGY      -154.429333496073

DIPOLE MOMENT
-------------
                                X             Y             Z
Electronic contribution:      2.19659       0.17525       2.37379
Nuclear contribution   :     -2.90669      -0.27617      -3.31210
                        -----------------------------------------
Total Dipole Moment    :     -0.71011      -0.10092      -0.93832
                        -----------------------------------------
Magnitude (a.u.)       :      1.18105
Magnitude (Debye)      :      3.00199

Rotational constants in cm-1:     1.291883     0.321656     0.284469
Rotational constants in MHz : 38729.676116  9643.011620  8528.167295

                             ****ORCA TERMINATED NORMALLY****
TOTAL RUN TIME: 0 days 0 hours 0 minutes 6 seconds 894 msec
