                         Program Version 5.0.0 -  RELEASE  -
|  1> !BLYP D3BJ RIJCOSX def2-TZVP def2/J TightSCF
|  2> *xyz 1 1
|  3> C          4.36645       -0.13321       -1.41606
|  4> C          4.50829       -0.93187       -2.72425
|  5> C          3.05650       -0.32080       -0.70738
|  6> N          2.38983        0.71129       -0.24391
|  7> N          2.51600       -1.50772       -0.55023
|  8> H          2.96768       -2.32291       -0.95631
|  9> H          1.54987       -1.49063       -0.24988
| 10> H          2.74307        1.64947       -0.41280
| 11> H          1.44036        0.50278        0.03703
| 12> H          4.48784        0.93300       -1.61157
| 13> H          5.16967       -0.41443       -0.72982
| 14> H          5.46700       -0.73824       -3.15818
| 15> H          3.74074       -0.63528       -3.40821
| 16> H          4.41574       -1.97727       -2.51573
| 17> *
| 18>
| 19> %MaxCore 64000
| 20>
| 21> %pal nprocs 4
| 22> end
| 23>
| 24> %scf
| 25>   MaxIter 150
| 26> end
| 27>
| 28>
| 29>                          ****END OF INPUT****

CARTESIAN COORDINATES (ANGSTROEM)
---------------------------------
  C      4.366450   -0.133210   -1.416060
  C      4.508290   -0.931870   -2.724250
  C      3.056500   -0.320800   -0.707380
  N      2.389830    0.711290   -0.243910
  N      2.516000   -1.507720   -0.550230
  H      2.967680   -2.322910   -0.956310
  H      1.549870   -1.490630   -0.249880
  H      2.743070    1.649470   -0.412800
  H      1.440360    0.502780    0.037030
  H      4.487840    0.933000   -1.611570
  H      5.169670   -0.414430   -0.729820
  H      5.467000   -0.738240   -3.158180
  H      3.740740   -0.635280   -3.408210
  H      4.415740   -1.977270   -2.515730

 Total Charge           Charge          ....    1
 Multiplicity           Mult            ....    1
 Number of Electrons    NEL             ....   40
 Basis Dimension        Dim             ....  209

ORBITAL ENERGIES
----------------

  NO   OCC          E(Eh)            E(eV)
   0   2.0000     -14.250472      -387.7751
   1   2.0000     -14.249134      -387.7386
   2   2.0000     -10.216978      -278.0181
   3   2.0000     -10.105176      -274.9758
   4   2.0000     -10.062690      -273.8197
   5   2.0000      -1.120916       -30.5017
   6   2.0000      -1.023358       -27.8470
   7   2.0000      -0.891886       -24.2694
   8   2.0000      -0.792272       -21.5588
   9   2.0000      -0.756336       -20.5810
  10   2.0000      -0.711666       -19.3654
  11   2.0000      -0.697899       -18.9908
  12   2.0000      -0.652394       -17.7525
  13   2.0000      -0.606568       -16.5055
  14   2.0000      -0.577566       -15.7164
  15   2.0000      -0.551681       -15.0120
  16   2.0000      -0.508741       -13.8436
  17   2.0000      -0.495991       -13.4966
  18   2.0000      -0.482873       -13.1397
  19   2.0000      -0.450664       -12.2632
  20   0.0000      -0.241897        -6.5823
  21   0.0000      -0.189823        -5.1653
  22   0.0000      -0.143630        -3.9084
  23   0.0000      -0.141079        -3.8390
  24   0.0000      -0.104949        -2.8558

MULLIKEN ATOMIC CHARGES
-----------------------
   0 C :   -0.187434
   1 C :   -0.309872
   2 C :    0.278202
   3 N :   -0.260292
   4 N :   -0.256513
   5 H :    0.276573
   6 H :    0.247890
   7 H :    0.280219
   8 H :    0.245110
   9 H :    0.119811
  10 H :    0.166678
  11 H :    0.159935
  12 H :    0.137768
  13 H :    0.101926
Sum of atomic charges:    1.0000000

LOEWDIN ATOMIC CHARGES
----------------------
   0 C :   -0.211376
   1 C :   -0.254322
   2 C :   -0.303342
   3 N :    0.125278
   4 N :    0.125137
   5 H :    0.205206
   6 H :    0.196765
   7 H :    0.207595
   8 H :    0.195834
   9 H :    0.156709
  10 H :    0.171879
  11 H :    0.138405
  12 H :    0.128467
  13 H :    0.117765

  Mayer bond orders larger than 0.100000
B(  0-C ,  1-C ) :   0.9576 B(  0-C ,  2-C ) :   0.9745 B(  0-C ,  9-H ) :   0.9555
B(  0-C , 10-H ) :   0.9281 B(  1-C , 11-H ) :   0.9622 B(  1-C , 12-H ) :   0.9637
B(  1-C , 13-H ) :   0.9629 B(  2-C ,  3-N ) :   1.4512 B(  2-C ,  4-N ) :   1.4296
B(  3-N ,  7-H ) :   0.8892 B(  3-N ,  8-H ) :   0.8999 B(  4-N ,  5-H ) :   0.8941
B(  4-N ,  6-H ) :   0.8987

Dispersion correction           -0.020577477
FINAL SINGLE POINT ENERGY      -229.026426244458

DIPOLE MOMENT
-------------
                                X             Y             Z
Electronic contribution:     -2.67811       0.62570       3.12294
Nuclear contribution   :      1.78847      -0.48174      -2.67127
                        -----------------------------------------
Total Dipole Moment    :     -0.88965       0.14396       0.45167
                        -----------------------------------------
Magnitude (a.u.)       :      1.00807
Magnitude (Debye)      :      2.56230

Rotational constants in cm-1:     0.286883     0.123210     0.094446
Rotational constants in MHz :  8600.540572  3693.747366  2831.415242

                             ****ORCA TERMINATED NORMALLY****
TOTAL RUN TIME: 0 days 0 hours 0 minutes 11 seconds 326 msec
