                         Program Version 5.0.0 -  RELEASE  -
|  1> !BLYP D3BJ RIJCOSX def2-TZVP def2/J TightSCF xyzfile
|  2>
|  3> *xyzfile 0 1 B.xyz
|  4>
|  5> %MaxCore 64000
|  6>
|  7> %pal nprocs 18
|  8> end
|  9>
| 10> %scf
| 11>   MaxIter 150
| 12> end
| 13>
| 14>
| 15>                          ****END OF INPUT****

CARTESIAN COORDINATES (ANGSTROEM)
---------------------------------
  C      4.366454   -0.133215   -1.416062
  C      4.508292   -0.931872   -2.724249
  H      4.753716   -1.972051   -2.488408
  C      3.294164   -0.918214   -3.656570
  H      5.385637   -0.536236   -3.242640
  H      2.483463   -1.477378   -3.185764
  H      3.553092   -1.478495   -4.560331
  C      2.772335    0.460100   -4.051448
  H      2.608762    1.065107   -3.155194
  C      1.465354    0.410537   -4.853644
  H      3.532940    0.988848   -4.635671
  C      0.326171   -0.375613   -4.192580
  H      1.666704   -0.022269   -5.839323
  H      1.138198    1.439246   -5.035449
  C     -0.017405    0.080588   -2.778406
  H      0.585573   -1.439385   -4.168057
  H     -0.560005   -0.311425   -4.831461
  H      0.902090    0.201296   -2.206729
  C     -0.903495   -0.873945   -1.987388
  H     -0.479549    1.074657   -2.811915
  H     -0.502554   -1.892096   -2.081204
  H     -1.917039   -0.895427   -2.406277
  C     -0.960148   -0.522365   -0.489867
  H     -1.690392   -1.208130   -0.021677
  H     -1.414490    0.486329   -0.406677
  O      0.261703   -0.580307    0.138611
  C      3.056503   -0.320797   -0.707384
  N      2.389825    0.711285   -0.243909
  N      2.515999   -1.507721   -0.550229
  H      2.967683   -2.322915   -0.956305
  H      1.549872   -1.490634   -0.249876
  H      2.743071    1.649471   -0.412802
  H      1.440364    0.502778    0.037031
  H      4.487835    0.932997   -1.611569
  H      5.169672   -0.414432   -0.729817

 Total Charge           Charge          ....    0
 Multiplicity           Mult            ....    1
 Number of Electrons    NEL             ....  104
 Basis Dimension        Dim             ....  535

ORBITAL ENERGIES
----------------

  NO   OCC          E(Eh)            E(eV)
   0   2.0000     -18.650948      -507.5181
   1   2.0000     -14.030343      -381.7850
   2   2.0000     -14.029945      -381.7742
   3   2.0000     -10.015487      -272.5353
   4   2.0000      -9.945279      -270.6248
   5   2.0000      -9.930635      -270.2263
   6   2.0000      -9.910691      -269.6836
   7   2.0000      -9.904710      -269.5209
   8   2.0000      -9.896508      -269.2977
   9   2.0000      -9.886419      -269.0231
  10   2.0000      -9.886275      -269.0192
  11   2.0000      -9.873241      -268.6646
  12   2.0000      -9.861502      -268.3451
  13   2.0000      -0.913965       -24.8702
  14   2.0000      -0.815581       -22.1931
  15   2.0000      -0.800573       -21.7847
  16   2.0000      -0.750523       -20.4228
  17   2.0000      -0.716696       -19.5023
  18   2.0000      -0.680066       -18.5055
  19   2.0000      -0.643691       -17.5157
  20   2.0000      -0.608581       -16.5603
  21   2.0000      -0.573156       -15.5964
  22   2.0000      -0.555664       -15.1204
  23   2.0000      -0.544456       -14.8154
  24   2.0000      -0.506759       -13.7896
  25   2.0000      -0.491380       -13.3711
  26   2.0000      -0.488781       -13.3004
  27   2.0000      -0.464761       -12.6468
  28   2.0000      -0.449669       -12.2361
  29   2.0000      -0.445142       -12.1129
  30   2.0000      -0.428723       -11.6662
  31   2.0000      -0.409336       -11.1386
  32   2.0000      -0.394791       -10.7428
  33   2.0000      -0.378341       -10.2952
  34   2.0000      -0.368859       -10.0372
  35   2.0000      -0.362518        -9.8646
  36   2.0000      -0.356803        -9.7091
  37   2.0000      -0.351420        -9.5626
  38   2.0000      -0.332461        -9.0467
  39   2.0000      -0.323569        -8.8048
  40   2.0000      -0.315860        -8.5950
  41   2.0000      -0.307319        -8.3626
  42   2.0000      -0.298059        -8.1106
  43   2.0000      -0.293791        -7.9945
  44   2.0000      -0.275899        -7.5076
  45   2.0000      -0.270040        -7.3482
  46   2.0000      -0.261317        -7.1108
  47   2.0000      -0.256683        -6.9847
  48   2.0000      -0.253289        -6.8923
  49   2.0000      -0.242690        -6.6039
  50   2.0000      -0.140002        -3.8096
  51   2.0000      -0.133888        -3.6433
  52   0.0000      -0.049302        -1.3416
  53   0.0000      -0.016056        -0.4369
  54   0.0000       0.001469         0.0400
  55   0.0000       0.020268         0.5515
  56   0.0000       0.028712         0.7813

MULLIKEN ATOMIC CHARGES
-----------------------
   0 C :   -0.147661
   1 C :   -0.221584
   2 H :    0.102099
   3 C :   -0.136317
   4 H :    0.092499
   5 H :    0.090184
   6 H :    0.076996
   7 C :   -0.184202
   8 H :    0.074736
   9 C :   -0.098251
  10 H :    0.071419
  11 C :   -0.136626
  12 H :    0.071833
  13 H :    0.070622
  14 C :   -0.175284
  15 H :    0.075780
  16 H :    0.070993
  17 H :    0.069509
  18 C :   -0.074709
  19 H :    0.047104
  20 H :    0.027815
  21 H :    0.036252
  22 C :    0.075665
  23 H :    0.027190
  24 H :    0.007722
  25 O :   -0.682793
  26 C :    0.192817
  27 N :   -0.284303
  28 N :   -0.268096
  29 H :    0.209853
  30 H :    0.240143
  31 H :    0.206124
  32 H :    0.259512
  33 H :    0.093870
  34 H :    0.119090
Sum of atomic charges:   -0.0000000

LOEWDIN ATOMIC CHARGES
----------------------
   0 C :   -0.215667
   1 C :   -0.254103
   2 H :    0.133040
   3 C :   -0.262842
   4 H :    0.139995
   5 H :    0.135676
   6 H :    0.136836
   7 C :   -0.264300
   8 H :    0.128719
   9 C :   -0.258319
  10 H :    0.130567
  11 C :   -0.266338
  12 H :    0.130991
  13 H :    0.132553
  14 C :   -0.271481
  15 H :    0.127958
  16 H :    0.131213
  17 H :    0.132471
  18 C :   -0.280457
  19 H :    0.128260
  20 H :    0.119393
  21 H :    0.122333
  22 C :   -0.456505
  23 H :    0.098668
  24 H :    0.094752
  25 O :   -0.265480
  26 C :   -0.347592
  27 N :    0.096338
  28 N :    0.100326
  29 H :    0.172173
  30 H :    0.141974
  31 H :    0.170596
  32 H :    0.140621
  33 H :    0.144001
  34 H :    0.153631

  Mayer bond orders larger than 0.100000
B(  0-C ,  1-C ) :   0.9417 B(  0-C , 26-C ) :   0.9898 B(  0-C , 33-H ) :   0.9622
B(  0-C , 34-H ) :   0.9507 B(  1-C ,  2-H ) :   0.9754 B(  1-C ,  3-C ) :   0.9404
B(  1-C ,  4-H ) :   0.9572 B(  3-C ,  5-H ) :   0.9715 B(  3-C ,  6-H ) :   0.9601
B(  3-C ,  7-C ) :   0.9474 B(  7-C ,  8-H ) :   0.9688 B(  7-C ,  9-C ) :   0.9662
B(  7-C , 10-H ) :   0.9570 B(  9-C , 11-C ) :   0.9607 B(  9-C , 12-H ) :   0.9627
B(  9-C , 13-H ) :   0.9634 B( 11-C , 14-C ) :   0.9566 B( 11-C , 15-H ) :   0.9687
B( 11-C , 16-H ) :   0.9646 B( 14-C , 17-H ) :   0.9759 B( 14-C , 18-C ) :   0.9900
B( 14-C , 19-H ) :   0.9518 B( 18-C , 20-H ) :   0.9478 B( 18-C , 21-H ) :   0.9366
B( 18-C , 22-C ) :   0.9288 B( 22-C , 23-H ) :   0.9421 B( 22-C , 24-H ) :   0.9473
B( 22-C , 25-O ) :   1.2006 B( 25-O , 30-H ) :   0.2716 B( 25-O , 32-H ) :   0.2667
B( 26-C , 27-N ) :   1.4835 B( 26-C , 28-N ) :   1.4657 B( 27-N , 31-H ) :   0.9130
B( 27-N , 32-H ) :   0.7306 B( 28-N , 29-H ) :   0.9155 B( 28-N , 30-H ) :   0.7361

Dispersion correction           -0.078434538
FINAL SINGLE POINT ENERGY      -579.021408831290

DIPOLE MOMENT
-------------
                                X             Y             Z
Electronic contribution:      2.65928      -0.28125       7.66501
Nuclear contribution   :     -0.17996       0.53390      -8.68067
                        -----------------------------------------
Total Dipole Moment    :      2.47932       0.25265      -1.01566
                        -----------------------------------------
Magnitude (a.u.)       :      2.69117
Magnitude (Debye)      :      6.84041

Rotational constants in cm-1:     0.028240     0.022734     0.014600
Rotational constants in MHz :   846.611263   681.554306   437.693928

                             ****ORCA TERMINATED NORMALLY****
TOTAL RUN TIME: 0 days 0 hours 0 minutes 26 seconds 632 msec
