                         Program Version 5.0.0 -  RELEASE  -
|  1> !BLYP D3BJ RIJCOSX def2-TZVP def2/J TightSCF
|  2> *xyz 0 1
|  3> C         -0.90349       -0.87394       -1.98739
|  4> C         -0.96015       -0.52236       -0.48987
|  5> H         -1.69039       -1.20813       -0.02168
|  6> H         -1.41449        0.48633       -0.40668
|  7> F          0.26170       -0.58031        0.13861
|  8> H         -1.88568       -0.80774       -2.40670
|  9> H         -0.53143       -1.87013       -2.10605
| 10> H         -0.25399       -0.18836       -2.49039
| 11> *
| 12>
| 13> %MaxCore 64000
| 14>
| 15> %pal nprocs 4
| 16> end
| 17>
| 18> %scf
| 19>   MaxIter 150
| 20> end
| 21>
| 22>
| 23>                          ****END OF INPUT****

CARTESIAN COORDINATES (ANGSTROEM)
---------------------------------
  C     -0.903490   -0.873940   -1.987390
  C     -0.960150   -0.522360   -0.489870
  H     -1.690390   -1.208130   -0.021680
  H     -1.414490    0.486330   -0.406680
  F      0.261700   -0.580310    0.138610
  H     -1.885680   -0.807740   -2.406700
  H     -0.531430   -1.870130   -2.106050
  H     -0.253990   -0.188360   -2.490390

 Total Charge           Charge          ....    0
 Multiplicity           Mult            ....    1
 Number of Electrons    NEL             ....   26
 Basis Dimension        Dim             ....  123

ORBITAL ENERGIES
----------------

  NO   OCC          E(Eh)            E(eV)
   0   2.0000     -24.268152      -660.3700
   1   2.0000      -9.979832      -271.5650
   2   2.0000      -9.899321      -269.3742
   3   2.0000      -1.087001       -29.5788
   4   2.0000      -0.686417       -18.6783
   5   2.0000      -0.563036       -15.3210
   6   2.0000      -0.448004       -12.1908
   7   2.0000      -0.434649       -11.8274
   8   2.0000      -0.396640       -10.7931
   9   2.0000      -0.352967        -9.6047
  10   2.0000      -0.350743        -9.5442
  11   2.0000      -0.283858        -7.7242
  12   2.0000      -0.280107        -7.6221
  13   0.0000       0.020459         0.5567
  14   0.0000       0.057883         1.5751
  15   0.0000       0.066365         1.8059
  16   0.0000       0.075006         2.0410
  17   0.0000       0.088846         2.4176

MULLIKEN ATOMIC CHARGES
-----------------------
   0 C :   -0.278039
   1 C :    0.063494
   2 H :    0.074881
   3 H :    0.074313
   4 F :   -0.231965
   5 H :    0.092603
   6 H :    0.102338
   7 H :    0.102377
Sum of atomic charges:   -0.0000000

LOEWDIN ATOMIC CHARGES
----------------------
   0 C :   -0.303729
   1 C :   -0.366663
   2 H :    0.112031
   3 H :    0.112547
   4 F :    0.099465
   5 H :    0.119116
   6 H :    0.113616
   7 H :    0.113617

  Mayer bond orders larger than 0.100000
B(  0-C ,  1-C ) :   0.9632 B(  0-C ,  5-H ) :   0.9532 B(  0-C ,  6-H ) :   0.9698
B(  0-C ,  7-H ) :   0.9698 B(  1-C ,  2-H ) :   0.9642 B(  1-C ,  3-H ) :   0.9640
B(  1-C ,  4-F ) :   1.0135

Dispersion correction           -0.007126479
FINAL SINGLE POINT ENERGY      -179.082545807639

DIPOLE MOMENT
-------------
                                X             Y             Z
Electronic contribution:      3.27428       0.37426       4.01179
Nuclear contribution   :     -3.84149      -0.36812      -4.38946
                        -----------------------------------------
Total Dipole Moment    :     -0.56721       0.00615      -0.37767
                        -----------------------------------------
Magnitude (a.u.)       :      0.68147
Magnitude (Debye)      :      1.73216

Rotational constants in cm-1:     1.270659     0.299196     0.265842
Rotational constants in MHz : 38093.410361  8969.665806  7969.741481

                             ****ORCA TERMINATED NORMALLY****
TOTAL RUN TIME: 0 days 0 hours 0 minutes 6 seconds 373 msec
