                         Program Version 5.0.0 -  RELEASE  -
|  1> !BLYP D3BJ RIJCOSX def2-TZVP def2/J TightSCF
|  2> *xyz 0 1
|  3> C          4.36645       -0.13321       -1.41606
|  4> C          4.50829       -0.93187       -2.72425
|  5> C          3.05650       -0.32080       -0.70738
|  6> C          2.38983        0.71129       -0.24391
|  7> N          2.51600       -1.50772       -0.55023
|  8> H          2.96768       -2.32291       -0.95631
|  9> H          1.54987       -1.49063       -0.24988
| 10> H          2.74307        1.64947       -0.41280
| 11> H          1.44036        0.50278        0.03703
| 12> H          4.48784        0.93300       -1.61157
| 13> H          5.16967       -0.41443       -0.72982
| 14> H          5.46700       -0.73824       -3.15818
| 15> H          3.74074       -0.63528       -3.40821
| 16> H          4.41574       -1.97727       -2.51573
| 17> *
| 18>
| 19> %MaxCore 64000
| 20>
| 21> %pal nprocs 4
| 22> end
| 23>
| 24> %scf
| 25>   MaxIter 150
| 26> end
| 27>
| 28>
| 29>                          ****END OF INPUT****

CARTESIAN COORDINATES (ANGSTROEM)
---------------------------------
  C      4.366450   -0.133210   -1.416060
  C      4.508290   -0.931870   -2.724250
  C      3.056500   -0.320800   -0.707380
  C      2.389830    0.711290   -0.243910
  N      2.516000   -1.507720   -0.550230
  H      2.967680   -2.322910   -0.956310
  H      1.549870   -1.490630   -0.249880
  H      2.743070    1.649470   -0.412800
  H      1.440360    0.502780    0.037030
  H      4.487840    0.933000   -1.611570
  H      5.169670   -0.414430   -0.729820
  H      5.467000   -0.738240   -3.158180
  H      3.740740   -0.635280   -3.408210
  H      4.415740   -1.977270   -2.515730

 Total Charge           Charge          ....    0
 Multiplicity           Mult            ....    1
 Number of Electrons    NEL             ....   40
 Basis Dimension        Dim             ....  209

ORBITAL ENERGIES
----------------

  NO   OCC          E(Eh)            E(eV)
   0   2.0000     -14.002625      -381.0308
   1   2.0000      -9.915720      -269.8205
   2   2.0000      -9.904032      -269.5024
   3   2.0000      -9.894828      -269.2520
   4   2.0000      -9.832980      -267.5690
   5   2.0000      -0.844160       -22.9708
   6   2.0000      -0.698167       -18.9981
   7   2.0000      -0.645115       -17.5545
   8   2.0000      -0.567111       -15.4319
   9   2.0000      -0.501424       -13.6445
  10   2.0000      -0.477462       -12.9924
  11   2.0000      -0.414997       -11.2927
  12   2.0000      -0.388837       -10.5808
  13   2.0000      -0.378258       -10.2929
  14   2.0000      -0.343198        -9.3389
  15   2.0000      -0.331810        -9.0290
  16   2.0000      -0.312404        -8.5009
  17   2.0000      -0.297361        -8.0916
  18   2.0000      -0.278928        -7.5900
  19   2.0000      -0.151744        -4.1292
  20   0.0000       0.002364         0.0643
  21   0.0000       0.017470         0.4754
  22   0.0000       0.047169         1.2835
  23   0.0000       0.050497         1.3741
  24   0.0000       0.070729         1.9246

MULLIKEN ATOMIC CHARGES
-----------------------
   0 C :   -0.149653
   1 C :   -0.299626
   2 C :    0.219643
   3 C :   -0.368486
   4 N :   -0.374351
   5 H :    0.200100
   6 H :    0.202712
   7 H :    0.068182
   8 H :    0.044885
   9 H :    0.084440
  10 H :    0.087763
  11 H :    0.103740
  12 H :    0.105941
  13 H :    0.074712
Sum of atomic charges:   -0.0000000

LOEWDIN ATOMIC CHARGES
----------------------
   0 C :   -0.230879
   1 C :   -0.290494
   2 C :   -0.370935
   3 C :   -0.275680
   4 N :    0.012231
   5 H :    0.163973
   6 H :    0.173828
   7 H :    0.102281
   8 H :    0.096917
   9 H :    0.143812
  10 H :    0.137919
  11 H :    0.114814
  12 H :    0.116414
  13 H :    0.105799

  Mayer bond orders larger than 0.100000
B(  0-C ,  1-C ) :   0.9482 B(  0-C ,  2-C ) :   0.9789 B(  0-C ,  9-H ) :   0.9632
B(  0-C , 10-H ) :   0.9656 B(  1-C , 11-H ) :   0.9743 B(  1-C , 12-H ) :   0.9717
B(  1-C , 13-H ) :   0.9733 B(  2-C ,  3-C ) :   1.7191 B(  2-C ,  4-N ) :   1.1692
B(  3-C ,  7-H ) :   1.0012 B(  3-C ,  8-H ) :   0.9793 B(  4-N ,  5-H ) :   0.9315
B(  4-N ,  6-H ) :   0.9201

Dispersion correction           -0.021424965
FINAL SINGLE POINT ENERGY      -212.543929375009

DIPOLE MOMENT
-------------
                                X             Y             Z
Electronic contribution:     -1.50784      -0.46936       2.08759
Nuclear contribution   :      1.56827      -0.21459      -2.46657
                        -----------------------------------------
Total Dipole Moment    :      0.06042      -0.68395      -0.37898
                        -----------------------------------------
Magnitude (a.u.)       :      0.78426
Magnitude (Debye)      :      1.99343

Rotational constants in cm-1:     0.294070     0.127722     0.097792
Rotational constants in MHz :  8815.983970  3829.010547  2931.715816

                             ****ORCA TERMINATED NORMALLY****
TOTAL RUN TIME: 0 days 0 hours 0 minutes 11 seconds 305 msec
