                         Program Version 5.0.0 -  RELEASE  -
|  1> !BLYP D3BJ RIJCOSX def2-TZVP def2/J TightSCF
|  2> *xyz 0 1
|  3> C          4.36645       -0.13321       -1.41606
|  4> C          4.50829       -0.93187       -2.72425
|  5> C          3.05650       -0.32080       -0.70738
|  6> N          2.38983        0.71129       -0.24391
|  7> C          2.51600       -1.50772       -0.55023
|  8> H          2.96768       -2.32291       -0.95631
|  9> H          1.54987       -1.49063       -0.24988
| 10> H          2.74307        1.64947       -0.41280
| 11> H          1.44036        0.50278        0.03703
| 12> H          4.48784        0.93300       -1.61157
| 13> H          5.16967       -0.41443       -0.72982
| 14> H          5.46700       -0.73824       -3.15818
| 15> H          3.74074       -0.63528       -3.40821
| 16> H          4.41574       -1.97727       -2.51573
| 17> *
| 18>
| 19> %MaxCore 64000
| 20>
| 21> %pal nprocs 4
| 22> end
| 23>
| 24> %scf
| 25>   MaxIter 150
| 26> end
| 27>
| 28>
| 29>                          ****END OF INPUT****

CARTESIAN COORDINATES (ANGSTROEM)
---------------------------------
  C      4.366450   -0.133210   -1.416060
  C      4.508290   -0.931870   -2.724250
  C      3.056500   -0.320800   -0.707380
  N      2.389830    0.711290   -0.243910
  C      2.516000   -1.507720   -0.550230
  H      2.967680   -2.322910   -0.956310
  H      1.549870   -1.490630   -0.249880
  H      2.743070    1.649470   -0.412800
  H      1.440360    0.502780    0.037030
  H      4.487840    0.933000   -1.611570
  H      5.169670   -0.414430   -0.729820
  H      5.467000   -0.738240   -3.158180
  H      3.740740   -0.635280   -3.408210
  H      4.415740   -1.977270   -2.515730

 Total Charge           Charge          ....    0
 Multiplicity           Mult            ....    1
 Number of Electrons    NEL             ....   40
 Basis Dimension        Dim             ....  209

ORBITAL ENERGIES
----------------

  NO   OCC          E(Eh)            E(eV)
   0   2.0000     -14.003119      -381.0442
   1   2.0000      -9.915713      -269.8203
   2   2.0000      -9.905506      -269.5425
   3   2.0000      -9.888426      -269.0777
   4   2.0000      -9.831147      -267.5191
   5   2.0000      -0.844289       -22.9743
   6   2.0000      -0.699244       -19.0274
   7   2.0000      -0.634864       -17.2755
   8   2.0000      -0.575883       -15.6706
   9   2.0000      -0.492581       -13.4038
  10   2.0000      -0.475031       -12.9262
  11   2.0000      -0.422251       -11.4900
  12   2.0000      -0.397305       -10.8112
  13   2.0000      -0.356560        -9.7025
  14   2.0000      -0.341168        -9.2836
  15   2.0000      -0.331525        -9.0213
  16   2.0000      -0.311541        -8.4775
  17   2.0000      -0.296696        -8.0735
  18   2.0000      -0.279976        -7.6185
  19   2.0000      -0.149954        -4.0805
  20   0.0000       0.006405         0.1743
  21   0.0000       0.015452         0.4205
  22   0.0000       0.044893         1.2216
  23   0.0000       0.049848         1.3564
  24   0.0000       0.073180         1.9913

MULLIKEN ATOMIC CHARGES
-----------------------
   0 C :   -0.154023
   1 C :   -0.288453
   2 C :    0.234010
   3 N :   -0.374608
   4 C :   -0.377644
   5 H :    0.066644
   6 H :    0.046607
   7 H :    0.199649
   8 H :    0.199900
   9 H :    0.057622
  10 H :    0.098006
  11 H :    0.094335
  12 H :    0.097596
  13 H :    0.100361
Sum of atomic charges:    0.0000000

LOEWDIN ATOMIC CHARGES
----------------------
   0 C :   -0.231094
   1 C :   -0.281549
   2 C :   -0.370619
   3 N :    0.011259
   4 C :   -0.278148
   5 H :    0.101604
   6 H :    0.097448
   7 H :    0.163760
   8 H :    0.172963
   9 H :    0.129070
  10 H :    0.143859
  11 H :    0.110880
  12 H :    0.115462
  13 H :    0.115105

  Mayer bond orders larger than 0.100000
B(  0-C ,  1-C ) :   0.9699 B(  0-C ,  2-C ) :   0.9494 B(  0-C ,  9-H ) :   0.9593
B(  0-C , 10-H ) :   0.9730 B(  1-C , 11-H ) :   0.9695 B(  1-C , 12-H ) :   0.9734
B(  1-C , 13-H ) :   0.9759 B(  2-C ,  3-N ) :   1.1793 B(  2-C ,  4-C ) :   1.6986
B(  3-N ,  7-H ) :   0.9252 B(  3-N ,  8-H ) :   0.9195 B(  4-C ,  5-H ) :   1.0126
B(  4-C ,  6-H ) :   0.9755

Dispersion correction           -0.021511839
FINAL SINGLE POINT ENERGY      -212.542763030692

DIPOLE MOMENT
-------------
                                X             Y             Z
Electronic contribution:     -1.62375       1.49778       2.37299
Nuclear contribution   :      1.59749      -0.72853      -2.53752
                        -----------------------------------------
Total Dipole Moment    :     -0.02627       0.76925      -0.16453
                        -----------------------------------------
Magnitude (a.u.)       :      0.78708
Magnitude (Debye)      :      2.00060

Rotational constants in cm-1:     0.304597     0.124127     0.096828
Rotational constants in MHz :  9131.600925  3721.227051  2902.830760

                             ****ORCA TERMINATED NORMALLY****
TOTAL RUN TIME: 0 days 0 hours 0 minutes 11 seconds 144 msec
