                         Program Version 5.0.0 -  RELEASE  -
|  1> !BLYP D3BJ RIJCOSX def2-TZVP def2/J TightSCF xyzfile
|  2>
|  3> *xyzfile 0 1 D2.xyz
|  4>
|  5> %MaxCore 64000
|  6>
|  7> %pal nprocs 18
|  8> end
|  9>
| 10> %scf
| 11>   MaxIter 150
| 12> end
| 13>
| 14>
| 15>                          ****END OF INPUT****

CARTESIAN COORDINATES (ANGSTROEM)
---------------------------------
  C      4.366454   -0.133215   -1.416062
  C      4.508292   -0.931872   -2.724249
  H      4.753716   -1.972051   -2.488408
  C      3.294164   -0.918214   -3.656570
  H      5.385637   -0.536236   -3.242640
  H      2.483463   -1.477378   -3.185764
  H      3.553092   -1.478495   -4.560331
  C      2.772335    0.460100   -4.051448
  H      2.608762    1.065107   -3.155194
  C      1.465354    0.410537   -4.853644
  H      3.532940    0.988848   -4.635671
  C      0.326171   -0.375613   -4.192580
  H      1.666704   -0.022269   -5.839323
  H      1.138198    1.439246   -5.035449
  C     -0.017405    0.080588   -2.778406
  H      0.585573   -1.439385   -4.168057
  H     -0.560005   -0.311425   -4.831461
  H      0.902090    0.201296   -2.206729
  C     -0.903495   -0.873945   -1.987388
  H     -0.479549    1.074657   -2.811915
  H     -0.502554   -1.892096   -2.081204
  H     -1.917039   -0.895427   -2.406277
  C     -0.960148   -0.522365   -0.489867
  H     -1.690392   -1.208130   -0.021677
  H     -1.414490    0.486329   -0.406677
  F      0.261703   -0.580307    0.138611
  C      3.056503   -0.320797   -0.707384
  N      2.389825    0.711285   -0.243909
  C      2.515999   -1.507721   -0.550229
  H      2.967683   -2.322915   -0.956305
  H      1.549872   -1.490634   -0.249876
  H      2.743071    1.649471   -0.412802
  H      1.440364    0.502778    0.037031
  H      4.487835    0.932997   -1.611569
  H      5.169672   -0.414432   -0.729817

 Total Charge           Charge          ....    0
 Multiplicity           Mult            ....    1
 Number of Electrons    NEL             ....  104
 Basis Dimension        Dim             ....  535

ORBITAL ENERGIES
----------------

  NO   OCC          E(Eh)            E(eV)
   0   2.0000     -24.301567      -661.2793
   1   2.0000     -13.979563      -380.4032
   2   2.0000      -9.992477      -271.9091
   3   2.0000      -9.913284      -269.7542
   4   2.0000      -9.898993      -269.3653
   5   2.0000      -9.895660      -269.2746
   6   2.0000      -9.895308      -269.2650
   7   2.0000      -9.893688      -269.2209
   8   2.0000      -9.892251      -269.1818
   9   2.0000      -9.890981      -269.1473
  10   2.0000      -9.888558      -269.0813
  11   2.0000      -9.882790      -268.9244
  12   2.0000      -9.807363      -266.8719
  13   2.0000      -1.128938       -30.7200
  14   2.0000      -0.827704       -22.5230
  15   2.0000      -0.735492       -20.0138
  16   2.0000      -0.714462       -19.4415
  17   2.0000      -0.691279       -18.8107
  18   2.0000      -0.652597       -17.7581
  19   2.0000      -0.623627       -16.9697
  20   2.0000      -0.612596       -16.6696
  21   2.0000      -0.571411       -15.5489
  22   2.0000      -0.550092       -14.9688
  23   2.0000      -0.522021       -14.2049
  24   2.0000      -0.493330       -13.4242
  25   2.0000      -0.482873       -13.1396
  26   2.0000      -0.471890       -12.8408
  27   2.0000      -0.461629       -12.5616
  28   2.0000      -0.448013       -12.1910
  29   2.0000      -0.426710       -11.6114
  30   2.0000      -0.419401       -11.4125
  31   2.0000      -0.407394       -11.0858
  32   2.0000      -0.394051       -10.7227
  33   2.0000      -0.383614       -10.4387
  34   2.0000      -0.375750       -10.2247
  35   2.0000      -0.362921        -9.8756
  36   2.0000      -0.345361        -9.3977
  37   2.0000      -0.338097        -9.2001
  38   2.0000      -0.331480        -9.0200
  39   2.0000      -0.319501        -8.6941
  40   2.0000      -0.316043        -8.6000
  41   2.0000      -0.309646        -8.4259
  42   2.0000      -0.304903        -8.2968
  43   2.0000      -0.300074        -8.1654
  44   2.0000      -0.287577        -7.8254
  45   2.0000      -0.282338        -7.6828
  46   2.0000      -0.271205        -7.3799
  47   2.0000      -0.265264        -7.2182
  48   2.0000      -0.263338        -7.1658
  49   2.0000      -0.257431        -7.0051
  50   2.0000      -0.255751        -6.9593
  51   2.0000      -0.134500        -3.6599
  52   0.0000       0.009287         0.2527
  53   0.0000       0.017754         0.4831
  54   0.0000       0.025217         0.6862
  55   0.0000       0.026631         0.7247
  56   0.0000       0.033658         0.9159

MULLIKEN ATOMIC CHARGES
-----------------------
   0 C :   -0.148428
   1 C :   -0.172428
   2 H :    0.087920
   3 C :   -0.094203
   4 H :    0.068543
   5 H :    0.084474
   6 H :    0.058202
   7 C :   -0.185208
   8 H :    0.073428
   9 C :   -0.102710
  10 H :    0.066815
  11 C :   -0.151079
  12 H :    0.071689
  13 H :    0.067341
  14 C :   -0.204812
  15 H :    0.087610
  16 H :    0.068660
  17 H :    0.124685
  18 C :   -0.138984
  19 H :    0.058065
  20 H :    0.092061
  21 H :    0.082990
  22 C :    0.041061
  23 H :    0.101328
  24 H :    0.084657
  25 F :   -0.217109
  26 C :    0.144483
  27 N :   -0.383753
  28 C :   -0.428272
  29 H :    0.065437
  30 H :    0.123022
  31 H :    0.187578
  32 H :    0.228449
  33 H :    0.065021
  34 H :    0.093467
Sum of atomic charges:   -0.0000000

LOEWDIN ATOMIC CHARGES
----------------------
   0 C :   -0.214536
   1 C :   -0.249897
   2 H :    0.134496
   3 C :   -0.262499
   4 H :    0.131167
   5 H :    0.136851
   6 H :    0.130316
   7 C :   -0.262547
   8 H :    0.129377
   9 C :   -0.257925
  10 H :    0.129923
  11 C :   -0.262768
  12 H :    0.132095
  13 H :    0.130605
  14 C :   -0.268548
  15 H :    0.132853
  16 H :    0.129783
  17 H :    0.145266
  18 C :   -0.266411
  19 H :    0.129470
  20 H :    0.138720
  21 H :    0.138670
  22 C :   -0.338723
  23 H :    0.123678
  24 H :    0.121826
  25 F :    0.158874
  26 C :   -0.383698
  27 N :    0.006147
  28 C :   -0.286819
  29 H :    0.098801
  30 H :    0.093019
  31 H :    0.156351
  32 H :    0.150183
  33 H :    0.130568
  34 H :    0.145332

  Mayer bond orders larger than 0.100000
B(  0-C ,  1-C ) :   0.9706 B(  0-C , 26-C ) :   0.9472 B(  0-C , 33-H ) :   0.9619
B(  0-C , 34-H ) :   0.9644 B(  1-C ,  2-H ) :   0.9650 B(  1-C ,  3-C ) :   0.9708
B(  1-C ,  4-H ) :   0.9603 B(  3-C ,  5-H ) :   0.9577 B(  3-C ,  6-H ) :   0.9564
B(  3-C ,  7-C ) :   0.9459 B(  7-C ,  8-H ) :   0.9682 B(  7-C ,  9-C ) :   0.9673
B(  7-C , 10-H ) :   0.9594 B(  9-C , 11-C ) :   0.9708 B(  9-C , 12-H ) :   0.9611
B(  9-C , 13-H ) :   0.9646 B( 11-C , 14-C ) :   0.9645 B( 11-C , 15-H ) :   0.9675
B( 11-C , 16-H ) :   0.9622 B( 14-C , 17-H ) :   0.9838 B( 14-C , 18-C ) :   0.9599
B( 14-C , 19-H ) :   0.9576 B( 18-C , 20-H ) :   0.9544 B( 18-C , 21-H ) :   0.9438
B( 18-C , 22-C ) :   0.9611 B( 22-C , 23-H ) :   0.9683 B( 22-C , 24-H ) :   0.9685
B( 22-C , 25-F ) :   0.9330 B( 26-C , 27-N ) :   1.1753 B( 26-C , 28-C ) :   1.7008
B( 27-N , 31-H ) :   0.9286 B( 27-N , 32-H ) :   0.8795 B( 28-C , 29-H ) :   1.0047
B( 28-C , 30-H ) :   0.9612

Dispersion correction           -0.078505244
FINAL SINGLE POINT ENERGY      -586.943302172043

DIPOLE MOMENT
-------------
                                X             Y             Z
Electronic contribution:     -2.77031       0.02626      10.74596
Nuclear contribution   :      1.85154       0.58682     -11.15333
                        -----------------------------------------
Total Dipole Moment    :     -0.91878       0.61308      -0.40737
                        -----------------------------------------
Magnitude (a.u.)       :      1.17727
Magnitude (Debye)      :      2.99239

Rotational constants in cm-1:     0.028379     0.022321     0.014415
Rotational constants in MHz :   850.785777   669.176075   432.155504

                             ****ORCA TERMINATED NORMALLY****
TOTAL RUN TIME: 0 days 0 hours 0 minutes 25 seconds 279 msec
