                         Program Version 5.0.0 -  RELEASE  -
|  1> !wB97X-D3 RIJCOSX def2-TZVP def2/J TightSCF
|  2> *xyz -1 1
|  3> C         -0.87096        0.24804       -2.66280
|  4> C         -0.47749        0.60819       -4.10105
|  5> H          0.20677        1.45830       -4.11875
|  6> H         -1.36844        0.92942       -4.64785
|  7> C          0.18467       -0.50664       -4.91676
|  8> O         -0.15869       -1.70109       -4.65798
|  9> O          1.05594       -0.17441       -5.74037
| 10> C          0.10016       -0.67355       -1.91581
| 11> H         -1.00105        1.18104       -2.10407
| 12> H         -1.84465       -0.24659       -2.66328
| 13> H          0.22336       -1.58297       -2.46597
| 14> H         -0.29270       -0.89423       -0.94532
| 15> H          1.04759       -0.18666       -1.81480
| 16> *
| 17>
| 18> %MaxCore 64000
| 19>
| 20> %pal nprocs 18
| 21> end
| 22>
| 23> %scf
| 24>   MaxIter 150
| 25> end
| 26>
| 27>
| 28>                          ****END OF INPUT****

CARTESIAN COORDINATES (ANGSTROEM)
---------------------------------
  C     -0.870960    0.248040   -2.662800
  C     -0.477490    0.608190   -4.101050
  H      0.206770    1.458300   -4.118750
  H     -1.368440    0.929420   -4.647850
  C      0.184670   -0.506640   -4.916760
  O     -0.158690   -1.701090   -4.657980
  O      1.055940   -0.174410   -5.740370
  C      0.100160   -0.673550   -1.915810
  H     -1.001050    1.181040   -2.104070
  H     -1.844650   -0.246590   -2.663280
  H      0.223360   -1.582970   -2.465970
  H     -0.292700   -0.894230   -0.945320
  H      1.047590   -0.186660   -1.814800

 Total Charge           Charge          ....   -1
 Multiplicity           Mult            ....    1
 Number of Electrons    NEL             ....   48
 Basis Dimension        Dim             ....  228

ORBITAL ENERGIES
----------------

  NO   OCC          E(Eh)            E(eV)
   0   2.0000     -18.958556      -515.8885
   1   2.0000     -18.955427      -515.8034
   2   2.0000     -10.154983      -276.3311
   3   2.0000     -10.122573      -275.4492
   4   2.0000     -10.104143      -274.9477
   5   2.0000     -10.098910      -274.8053
   6   2.0000      -0.932192       -25.3662
   7   2.0000      -0.836422       -22.7602
   8   2.0000      -0.745832       -20.2951
   9   2.0000      -0.651186       -17.7197
  10   2.0000      -0.551765       -15.0143
  11   2.0000      -0.420392       -11.4394
  12   2.0000      -0.402385       -10.9495
  13   2.0000      -0.389757       -10.6058
  14   2.0000      -0.350675        -9.5423
  15   2.0000      -0.324794        -8.8381
  16   2.0000      -0.306911        -8.3515
  17   2.0000      -0.295081        -8.0296
  18   2.0000      -0.282978        -7.7002
  19   2.0000      -0.266573        -7.2538
  20   2.0000      -0.250869        -6.8265
  21   2.0000      -0.136011        -3.7010
  22   2.0000      -0.131337        -3.5739
  23   2.0000      -0.119257        -3.2451
  24   0.0000       0.250739         6.8229
  25   0.0000       0.286947         7.8082
  26   0.0000       0.297501         8.0954
  27   0.0000       0.308894         8.4054
  28   0.0000       0.325004         8.8438

MULLIKEN ATOMIC CHARGES
-----------------------
   0 C :   -0.116586
   1 C :   -0.175123
   2 H :    0.054629
   3 H :    0.047482
   4 C :    0.260373
   5 O :   -0.573983
   6 O :   -0.540575
   7 C :   -0.323589
   8 H :    0.035968
   9 H :    0.052495
  10 H :    0.155686
  11 H :    0.054347
  12 H :    0.068879
Sum of atomic charges:   -1.0000000

LOEWDIN ATOMIC CHARGES
----------------------
   0 C :   -0.302085
   1 C :   -0.269423
   2 H :    0.124885
   3 H :    0.127122
   4 C :   -0.684702
   5 O :   -0.135206
   6 O :   -0.098040
   7 C :   -0.320439
   8 H :    0.111583
   9 H :    0.123364
  10 H :    0.124548
  11 H :    0.094447
  12 H :    0.103947

  Mayer bond orders larger than 0.100000
B(  0-C ,  1-C ) :   0.9659 B(  0-C ,  7-C ) :   0.9789 B(  0-C ,  8-H ) :   0.9725
B(  0-C ,  9-H ) :   0.9725 B(  1-C ,  2-H ) :   0.9628 B(  1-C ,  3-H ) :   0.9605
B(  1-C ,  4-C ) :   0.9597 B(  4-C ,  5-O ) :   1.7913 B(  4-C ,  6-O ) :   1.8833
B(  7-C , 10-H ) :   0.9654 B(  7-C , 11-H ) :   0.9750 B(  7-C , 12-H ) :   0.9809

Dispersion correction           -0.003258802
FINAL SINGLE POINT ENERGY      -307.182164833538

DIPOLE MOMENT
-------------
                                X             Y             Z
Electronic contribution:      1.84011      -2.02946      -6.77567
Nuclear contribution   :     -2.71698       3.10699       8.64748
                        -----------------------------------------
Total Dipole Moment    :     -0.87688       1.07753       1.87181
                        -----------------------------------------
Magnitude (a.u.)       :      2.33102
Magnitude (Debye)      :      5.92498

Rotational constants in cm-1:     0.212307     0.084237     0.072775
Rotational constants in MHz :  6364.813744  2525.362351  2181.751235

                             ****ORCA TERMINATED NORMALLY****
TOTAL RUN TIME: 0 days 0 hours 0 minutes 17 seconds 449 msec
