                         Program Version 5.0.0 -  RELEASE  -
|  1> !wB97X-D3 RIJCOSX def2-TZVP def2/J TightSCF
|  2> *xyz 1 1
|  3> C          2.48645       -2.67712       -2.56345
|  4> C          3.03764       -2.36672       -3.92351
|  5> N          2.28036       -2.45441       -4.96769
|  6> N          4.32174       -2.01793       -4.01664
|  7> H          4.87994       -1.91167       -3.17382
|  8> H          4.71015       -1.67088       -4.88356
|  9> H          1.27042       -2.41265       -4.86614
| 10> H          2.58183       -2.05528       -5.84688
| 11> C          2.49799       -1.46946       -1.61030
| 12> C          1.58284       -0.32199       -2.04262
| 13> H          2.19308       -1.83391       -0.62542
| 14> H          3.52336       -1.10398       -1.49039
| 15> H          1.47259       -3.05153       -2.69437
| 16> H          3.08320       -3.49064       -2.14147
| 17> H          1.88480        0.03130       -3.00642
| 18> H          1.65140        0.47571       -1.33278
| 19> H          0.57235       -0.67052       -2.09099
| 20> *
| 21>
| 22> %MaxCore 64000
| 23>
| 24> %pal nprocs 18
| 25> end
| 26>
| 27> %scf
| 28>   MaxIter 150
| 29> end
| 30>
| 31>
| 32>                          ****END OF INPUT****

CARTESIAN COORDINATES (ANGSTROEM)
---------------------------------
  C      2.486450   -2.677120   -2.563450
  C      3.037640   -2.366720   -3.923510
  N      2.280360   -2.454410   -4.967690
  N      4.321740   -2.017930   -4.016640
  H      4.879940   -1.911670   -3.173820
  H      4.710150   -1.670880   -4.883560
  H      1.270420   -2.412650   -4.866140
  H      2.581830   -2.055280   -5.846880
  C      2.497990   -1.469460   -1.610300
  C      1.582840   -0.321990   -2.042620
  H      2.193080   -1.833910   -0.625420
  H      3.523360   -1.103980   -1.490390
  H      1.472590   -3.051530   -2.694370
  H      3.083200   -3.490640   -2.141470
  H      1.884800    0.031300   -3.006420
  H      1.651400    0.475710   -1.332780
  H      0.572350   -0.670520   -2.090990

 Total Charge           Charge          ....    1
 Multiplicity           Mult            ....    1
 Number of Electrons    NEL             ....   48
 Basis Dimension        Dim             ....  252

ORBITAL ENERGIES
----------------

  NO   OCC          E(Eh)            E(eV)
   0   2.0000     -14.667202      -399.1149
   1   2.0000     -14.661972      -398.9725
   2   2.0000     -10.599272      -288.4209
   3   2.0000     -10.468812      -284.8709
   4   2.0000     -10.438145      -284.0364
   5   2.0000     -10.401033      -283.0265
   6   2.0000      -1.323052       -36.0021
   7   2.0000      -1.223885       -33.3036
   8   2.0000      -1.090208       -29.6661
   9   2.0000      -1.003500       -27.3066
  10   2.0000      -0.943965       -25.6866
  11   2.0000      -0.887719       -24.1561
  12   2.0000      -0.872585       -23.7442
  13   2.0000      -0.839793       -22.8519
  14   2.0000      -0.796580       -21.6760
  15   2.0000      -0.755781       -20.5659
  16   2.0000      -0.726640       -19.7729
  17   2.0000      -0.690546       -18.7907
  18   2.0000      -0.672614       -18.3028
  19   2.0000      -0.660287       -17.9673
  20   2.0000      -0.598854       -16.2956
  21   2.0000      -0.595058       -16.1924
  22   2.0000      -0.591373       -16.0921
  23   2.0000      -0.583308       -15.8726
  24   0.0000      -0.127106        -3.4587
  25   0.0000      -0.072050        -1.9606
  26   0.0000      -0.031271        -0.8509
  27   0.0000      -0.026888        -0.7317
  28   0.0000       0.003260         0.0887

MULLIKEN ATOMIC CHARGES
-----------------------
   0 C :   -0.264710
   1 C :    0.321649
   2 N :   -0.356642
   3 N :   -0.392744
   4 H :    0.312797
   5 H :    0.294094
   6 H :    0.313768
   7 H :    0.289235
   8 C :   -0.213446
   9 C :   -0.360044
  10 H :    0.162540
  11 H :    0.117175
  12 H :    0.163303
  13 H :    0.199412
  14 H :    0.109505
  15 H :    0.165246
  16 H :    0.138863
Sum of atomic charges:    1.0000000

LOEWDIN ATOMIC CHARGES
----------------------
   0 C :   -0.199594
   1 C :   -0.286081
   2 N :    0.121481
   3 N :    0.098958
   4 H :    0.208650
   5 H :    0.197308
   6 H :    0.213928
   7 H :    0.201793
   8 C :   -0.269178
   9 C :   -0.285598
  10 H :    0.155470
  11 H :    0.137032
  12 H :    0.160343
  13 H :    0.173645
  14 H :    0.113578
  15 H :    0.133889
  16 H :    0.124378

  Mayer bond orders larger than 0.100000
B(  0-C ,  1-C ) :   0.9511 B(  0-C ,  8-C ) :   0.9466 B(  0-C , 12-H ) :   0.9824
B(  0-C , 13-H ) :   0.9397 B(  1-C ,  2-N ) :   1.4773 B(  1-C ,  3-N ) :   1.4243
B(  2-N ,  6-H ) :   0.8767 B(  2-N ,  7-H ) :   0.8885 B(  3-N ,  4-H ) :   0.8831
B(  3-N ,  5-H ) :   0.8879 B(  8-C ,  9-C ) :   0.9573 B(  8-C , 10-H ) :   0.9601
B(  8-C , 11-H ) :   0.9725 B(  9-C , 14-H ) :   0.9692 B(  9-C , 15-H ) :   0.9681
B(  9-C , 16-H ) :   0.9705

Dispersion correction           -0.004659375
FINAL SINGLE POINT ENERGY      -268.374077499282

DIPOLE MOMENT
-------------
                                X             Y             Z
Electronic contribution:      2.37471      -2.80526      -4.29157
Nuclear contribution   :     -1.82438       2.64851       2.98450
                        -----------------------------------------
Total Dipole Moment    :      0.55033      -0.15675      -1.30707
                        -----------------------------------------
Magnitude (a.u.)       :      1.42684
Magnitude (Debye)      :      3.62673

Rotational constants in cm-1:     0.176712     0.077069     0.069669
Rotational constants in MHz :  5297.698588  2310.466480  2088.633881

                             ****ORCA TERMINATED NORMALLY****
TOTAL RUN TIME: 0 days 0 hours 0 minutes 17 seconds 960 msec
