                         Program Version 5.0.0 -  RELEASE  -
|  1> !wB97X-D3 RIJCOSX def2-TZVP def2/J TightSCF
|  2> *xyz 0 1
|  3> C         -0.87096        0.24804       -2.66280
|  4> C         -0.47749        0.60819       -4.10105
|  5> H          0.20677        1.45830       -4.11875
|  6> H         -1.36844        0.92942       -4.64785
|  7> C          0.18467       -0.50664       -4.91676
|  8> F         -0.15869       -1.70109       -4.65798
|  9> O          1.05594       -0.17441       -5.74037
| 10> C          0.10016       -0.67355       -1.91581
| 11> H         -1.00105        1.18104       -2.10407
| 12> H         -1.84465       -0.24659       -2.66328
| 13> H          0.22336       -1.58297       -2.46597
| 14> H         -0.29270       -0.89423       -0.94532
| 15> H          1.04759       -0.18666       -1.81480
| 16> *
| 17>
| 18> %MaxCore 64000
| 19>
| 20> %pal nprocs 18
| 21> end
| 22>
| 23> %scf
| 24>   MaxIter 150
| 25> end
| 26>
| 27>
| 28>                          ****END OF INPUT****

CARTESIAN COORDINATES (ANGSTROEM)
---------------------------------
  C     -0.870960    0.248040   -2.662800
  C     -0.477490    0.608190   -4.101050
  H      0.206770    1.458300   -4.118750
  H     -1.368440    0.929420   -4.647850
  C      0.184670   -0.506640   -4.916760
  F     -0.158690   -1.701090   -4.657980
  O      1.055940   -0.174410   -5.740370
  C      0.100160   -0.673550   -1.915810
  H     -1.001050    1.181040   -2.104070
  H     -1.844650   -0.246590   -2.663280
  H      0.223360   -1.582970   -2.465970
  H     -0.292700   -0.894230   -0.945320
  H      1.047590   -0.186660   -1.814800

 Total Charge           Charge          ....    0
 Multiplicity           Mult            ....    1
 Number of Electrons    NEL             ....   48
 Basis Dimension        Dim             ....  228

ORBITAL ENERGIES
----------------

  NO   OCC          E(Eh)            E(eV)
   0   2.0000     -24.850350      -676.2124
   1   2.0000     -19.235637      -523.4283
   2   2.0000     -10.453705      -284.4598
   3   2.0000     -10.305433      -280.4251
   4   2.0000     -10.291630      -280.0495
   5   2.0000     -10.267465      -279.3919
   6   2.0000      -1.426433       -38.8152
   7   2.0000      -1.154195       -31.4073
   8   2.0000      -0.932568       -25.3765
   9   2.0000      -0.844303       -22.9747
  10   2.0000      -0.767591       -20.8872
  11   2.0000      -0.726849       -19.7786
  12   2.0000      -0.649885       -17.6843
  13   2.0000      -0.642277       -17.4772
  14   2.0000      -0.595598       -16.2070
  15   2.0000      -0.577192       -15.7062
  16   2.0000      -0.550529       -14.9807
  17   2.0000      -0.517918       -14.0933
  18   2.0000      -0.504268       -13.7218
  19   2.0000      -0.473049       -12.8723
  20   2.0000      -0.459284       -12.4978
  21   2.0000      -0.450001       -12.2451
  22   2.0000      -0.432249       -11.7621
  23   2.0000      -0.386910       -10.5283
  24   0.0000       0.060385         1.6432
  25   0.0000       0.104863         2.8535
  26   0.0000       0.149687         4.0732
  27   0.0000       0.156011         4.2453
  28   0.0000       0.160936         4.3793

MULLIKEN ATOMIC CHARGES
-----------------------
   0 C :   -0.181775
   1 C :   -0.240946
   2 H :    0.144018
   3 H :    0.134154
   4 C :    0.387892
   5 F :   -0.120708
   6 O :   -0.341797
   7 C :   -0.359030
   8 H :    0.111158
   9 H :    0.104682
  10 H :    0.124003
  11 H :    0.120986
  12 H :    0.117365
Sum of atomic charges:    0.0000000

LOEWDIN ATOMIC CHARGES
----------------------
   0 C :   -0.289826
   1 C :   -0.235961
   2 H :    0.156744
   3 H :    0.155581
   4 C :   -0.486618
   5 F :    0.304542
   6 O :    0.073787
   7 C :   -0.302817
   8 H :    0.137900
   9 H :    0.135925
  10 H :    0.115472
  11 H :    0.117922
  12 H :    0.117351

  Mayer bond orders larger than 0.100000
B(  0-C ,  1-C ) :   0.9584 B(  0-C ,  7-C ) :   0.9675 B(  0-C ,  8-H ) :   0.9716
B(  0-C ,  9-H ) :   0.9732 B(  1-C ,  2-H ) :   0.9618 B(  1-C ,  3-H ) :   0.9451
B(  1-C ,  4-C ) :   1.0068 B(  4-C ,  5-F ) :   1.1298 B(  4-C ,  6-O ) :   2.0626
B(  7-C , 10-H ) :   0.9810 B(  7-C , 11-H ) :   0.9743 B(  7-C , 12-H ) :   0.9757

Dispersion correction           -0.003208104
FINAL SINGLE POINT ENERGY      -331.753959359536

DIPOLE MOMENT
-------------
                                X             Y             Z
Electronic contribution:      1.73918      -4.31993      -8.48507
Nuclear contribution   :     -2.55684       4.59749       9.38828
                        -----------------------------------------
Total Dipole Moment    :     -0.81766       0.27756       0.90321
                        -----------------------------------------
Magnitude (a.u.)       :      1.24955
Magnitude (Debye)      :      3.17611

Rotational constants in cm-1:     0.200184     0.083263     0.071070
Rotational constants in MHz :  6001.373539  2496.169674  2130.635527

                             ****ORCA TERMINATED NORMALLY****
TOTAL RUN TIME: 0 days 0 hours 0 minutes 18 seconds 982 msec
