                         Program Version 5.0.0 -  RELEASE  -
|  1> !wB97X-D3 RIJCOSX def2-TZVP def2/J TightSCF
|  2> *xyz 0 1
|  3> C          2.48645       -2.67712       -2.56345
|  4> C          3.03764       -2.36672       -3.92351
|  5> C          2.28036       -2.45441       -4.96769
|  6> N          4.32174       -2.01793       -4.01664
|  7> H          4.87994       -1.91167       -3.17382
|  8> H          4.71015       -1.67088       -4.88356
|  9> H          1.27042       -2.41265       -4.86614
| 10> H          2.58183       -2.05528       -5.84688
| 11> C          2.49799       -1.46946       -1.61030
| 12> C          1.58284       -0.32199       -2.04262
| 13> H          2.19308       -1.83391       -0.62542
| 14> H          3.52336       -1.10398       -1.49039
| 15> H          1.47259       -3.05153       -2.69437
| 16> H          3.08320       -3.49064       -2.14147
| 17> H          1.88480        0.03130       -3.00642
| 18> H          1.65140        0.47571       -1.33278
| 19> H          0.57235       -0.67052       -2.09099
| 20> *
| 21>
| 22> %MaxCore 64000
| 23>
| 24> %pal nprocs 18
| 25> end
| 26>
| 27> %scf
| 28>   MaxIter 150
| 29> end
| 30>
| 31>
| 32>                          ****END OF INPUT****

CARTESIAN COORDINATES (ANGSTROEM)
---------------------------------
  C      2.486450   -2.677120   -2.563450
  C      3.037640   -2.366720   -3.923510
  C      2.280360   -2.454410   -4.967690
  N      4.321740   -2.017930   -4.016640
  H      4.879940   -1.911670   -3.173820
  H      4.710150   -1.670880   -4.883560
  H      1.270420   -2.412650   -4.866140
  H      2.581830   -2.055280   -5.846880
  C      2.497990   -1.469460   -1.610300
  C      1.582840   -0.321990   -2.042620
  H      2.193080   -1.833910   -0.625420
  H      3.523360   -1.103980   -1.490390
  H      1.472590   -3.051530   -2.694370
  H      3.083200   -3.490640   -2.141470
  H      1.884800    0.031300   -3.006420
  H      1.651400    0.475710   -1.332780
  H      0.572350   -0.670520   -2.090990

 Total Charge           Charge          ....    0
 Multiplicity           Mult            ....    1
 Number of Electrons    NEL             ....   48
 Basis Dimension        Dim             ....  252

ORBITAL ENERGIES
----------------

  NO   OCC          E(Eh)            E(eV)
   0   2.0000     -14.419686      -392.3796
   1   2.0000     -10.295319      -280.1499
   2   2.0000     -10.274226      -279.5759
   3   2.0000     -10.271994      -279.5152
   4   2.0000     -10.253172      -279.0030
   5   2.0000     -10.200299      -277.5643
   6   2.0000      -1.041427       -28.3387
   7   2.0000      -0.909879       -24.7591
   8   2.0000      -0.854029       -23.2393
   9   2.0000      -0.799118       -21.7451
  10   2.0000      -0.709810       -19.3149
  11   2.0000      -0.670223       -18.2377
  12   2.0000      -0.626728       -17.0541
  13   2.0000      -0.573065       -15.5939
  14   2.0000      -0.552310       -15.0291
  15   2.0000      -0.548953       -14.9378
  16   2.0000      -0.493339       -13.4244
  17   2.0000      -0.485907       -13.2222
  18   2.0000      -0.465846       -12.6763
  19   2.0000      -0.461666       -12.5626
  20   2.0000      -0.430335       -11.7100
  21   2.0000      -0.416539       -11.3346
  22   2.0000      -0.412944       -11.2368
  23   2.0000      -0.284248        -7.7348
  24   0.0000       0.104770         2.8509
  25   0.0000       0.121179         3.2974
  26   0.0000       0.141009         3.8370
  27   0.0000       0.151252         4.1158
  28   0.0000       0.168844         4.5945

MULLIKEN ATOMIC CHARGES
-----------------------
   0 C :   -0.215683
   1 C :    0.189430
   2 C :   -0.382475
   3 N :   -0.506995
   4 H :    0.239215
   5 H :    0.242855
   6 H :    0.100592
   7 H :    0.076502
   8 C :   -0.170398
   9 C :   -0.347001
  10 H :    0.103511
  11 H :    0.079900
  12 H :    0.122715
  13 H :    0.118538
  14 H :    0.126975
  15 H :    0.114914
  16 H :    0.107404
Sum of atomic charges:   -0.0000000

LOEWDIN ATOMIC CHARGES
----------------------
   0 C :   -0.215092
   1 C :   -0.362148
   2 C :   -0.275896
   3 N :   -0.011197
   4 H :    0.168883
   5 H :    0.171377
   6 H :    0.109142
   7 H :    0.099940
   8 C :   -0.287101
   9 C :   -0.298769
  10 H :    0.132996
  11 H :    0.125809
  12 H :    0.149299
  13 H :    0.143024
  14 H :    0.119420
  15 H :    0.114374
  16 H :    0.115938

  Mayer bond orders larger than 0.100000
B(  0-C ,  1-C ) :   0.9412 B(  0-C ,  8-C ) :   0.9548 B(  0-C , 12-H ) :   0.9965
B(  0-C , 13-H ) :   0.9717 B(  1-C ,  2-C ) :   1.8191 B(  1-C ,  3-N ) :   1.1228
B(  2-C ,  6-H ) :   0.9911 B(  2-C ,  7-H ) :   0.9935 B(  3-N ,  4-H ) :   0.9251
B(  3-N ,  5-H ) :   0.9194 B(  8-C ,  9-C ) :   0.9754 B(  8-C , 10-H ) :   0.9762
B(  8-C , 11-H ) :   0.9767 B(  9-C , 14-H ) :   0.9776 B(  9-C , 15-H ) :   0.9790
B(  9-C , 16-H ) :   0.9784

Dispersion correction           -0.004671683
FINAL SINGLE POINT ENERGY      -251.898891478350

DIPOLE MOMENT
-------------
                                X             Y             Z
Electronic contribution:      2.48544      -2.08630      -2.11805
Nuclear contribution   :     -1.92525       2.50924       2.56958
                        -----------------------------------------
Total Dipole Moment    :      0.56019       0.42293       0.45153
                        -----------------------------------------
Magnitude (a.u.)       :      0.83460
Magnitude (Debye)      :      2.12139

Rotational constants in cm-1:     0.181985     0.078726     0.071856
Rotational constants in MHz :  5455.785660  2360.157292  2154.177820

                             ****ORCA TERMINATED NORMALLY****
TOTAL RUN TIME: 0 days 0 hours 0 minutes 20 seconds 515 msec
