                         Program Version 5.0.0 -  RELEASE  -
|  1> !wB97X-D3 RIJCOSX def2-TZVP def2/J TightSCF
|  2> *xyz 0 1
|  3> C         -0.87096        0.24804       -2.66280
|  4> C         -0.47749        0.60819       -4.10105
|  5> H          0.20677        1.45830       -4.11875
|  6> H         -1.36844        0.92942       -4.64785
|  7> C          0.18467       -0.50664       -4.91676
|  8> O         -0.15869       -1.70109       -4.65798
|  9> F          1.05594       -0.17441       -5.74037
| 10> C          0.10016       -0.67355       -1.91581
| 11> H         -1.00105        1.18104       -2.10407
| 12> H         -1.84465       -0.24659       -2.66328
| 13> H          0.22336       -1.58297       -2.46597
| 14> H         -0.29270       -0.89423       -0.94532
| 15> H          1.04759       -0.18666       -1.81480
| 16> *
| 17>
| 18> %MaxCore 64000
| 19>
| 20> %pal nprocs 18
| 21> end
| 22>
| 23> %scf
| 24>   MaxIter 150
| 25> end
| 26>
| 27>
| 28>                          ****END OF INPUT****

CARTESIAN COORDINATES (ANGSTROEM)
---------------------------------
  C     -0.870960    0.248040   -2.662800
  C     -0.477490    0.608190   -4.101050
  H      0.206770    1.458300   -4.118750
  H     -1.368440    0.929420   -4.647850
  C      0.184670   -0.506640   -4.916760
  O     -0.158690   -1.701090   -4.657980
  F      1.055940   -0.174410   -5.740370
  C      0.100160   -0.673550   -1.915810
  H     -1.001050    1.181040   -2.104070
  H     -1.844650   -0.246590   -2.663280
  H      0.223360   -1.582970   -2.465970
  H     -0.292700   -0.894230   -0.945320
  H      1.047590   -0.186660   -1.814800

 Total Charge           Charge          ....    0
 Multiplicity           Mult            ....    1
 Number of Electrons    NEL             ....   48
 Basis Dimension        Dim             ....  228

ORBITAL ENERGIES
----------------

  NO   OCC          E(Eh)            E(eV)
   0   2.0000     -24.859704      -676.4669
   1   2.0000     -19.233039      -523.3576
   2   2.0000     -10.456907      -284.5469
   3   2.0000     -10.307184      -280.4727
   4   2.0000     -10.286509      -279.9101
   5   2.0000     -10.254689      -279.0443
   6   2.0000      -1.444337       -39.3024
   7   2.0000      -1.141083       -31.0504
   8   2.0000      -0.926077       -25.1998
   9   2.0000      -0.844044       -22.9676
  10   2.0000      -0.774061       -21.0633
  11   2.0000      -0.720352       -19.6018
  12   2.0000      -0.657700       -17.8969
  13   2.0000      -0.637634       -17.3509
  14   2.0000      -0.612620       -16.6702
  15   2.0000      -0.571046       -15.5390
  16   2.0000      -0.552750       -15.0411
  17   2.0000      -0.513171       -13.9641
  18   2.0000      -0.493474       -13.4281
  19   2.0000      -0.457400       -12.4465
  20   2.0000      -0.451645       -12.2899
  21   2.0000      -0.437329       -11.9003
  22   2.0000      -0.432832       -11.7780
  23   2.0000      -0.384559       -10.4644
  24   0.0000       0.055940         1.5222
  25   0.0000       0.109990         2.9930
  26   0.0000       0.152473         4.1490
  27   0.0000       0.157512         4.2861
  28   0.0000       0.162542         4.4230

MULLIKEN ATOMIC CHARGES
-----------------------
   0 C :   -0.163261
   1 C :   -0.249644
   2 H :    0.123514
   3 H :    0.136929
   4 C :    0.412189
   5 O :   -0.377504
   6 F :   -0.095609
   7 C :   -0.370805
   8 H :    0.107147
   9 H :    0.107206
  10 H :    0.153353
  11 H :    0.114890
  12 H :    0.101594
Sum of atomic charges:   -0.0000000

LOEWDIN ATOMIC CHARGES
----------------------
   0 C :   -0.280007
   1 C :   -0.240615
   2 H :    0.144588
   3 H :    0.157498
   4 C :   -0.487866
   5 O :    0.040146
   6 F :    0.342528
   7 C :   -0.303784
   8 H :    0.136391
   9 H :    0.139700
  10 H :    0.122922
  11 H :    0.116073
  12 H :    0.112427

  Mayer bond orders larger than 0.100000
B(  0-C ,  1-C ) :   0.9747 B(  0-C ,  7-C ) :   0.9716 B(  0-C ,  8-H ) :   0.9731
B(  0-C ,  9-H ) :   0.9686 B(  1-C ,  2-H ) :   0.9616 B(  1-C ,  3-H ) :   0.9389
B(  1-C ,  4-C ) :   1.0024 B(  4-C ,  5-O ) :   1.9987 B(  4-C ,  6-F ) :   1.1746
B(  7-C , 10-H ) :   0.9744 B(  7-C , 11-H ) :   0.9749 B(  7-C , 12-H ) :   0.9781

Dispersion correction           -0.003191827
FINAL SINGLE POINT ENERGY      -331.747434413512

DIPOLE MOMENT
-------------
                                X             Y             Z
Electronic contribution:      3.82024      -1.75630     -10.40169
Nuclear contribution   :     -3.92885       2.87300      10.61091
                        -----------------------------------------
Total Dipole Moment    :     -0.10861       1.11670       0.20923
                        -----------------------------------------
Magnitude (a.u.)       :      1.14131
Magnitude (Debye)      :      2.90097

Rotational constants in cm-1:     0.209332     0.079487     0.069375
Rotational constants in MHz :  6275.605762  2382.960864  2079.805430

                             ****ORCA TERMINATED NORMALLY****
TOTAL RUN TIME: 0 days 0 hours 0 minutes 17 seconds 242 msec
