                         Program Version 5.0.0 -  RELEASE  -
|  1> !wB97X-D3 RIJCOSX def2-TZVP def2/J TightSCF
|  2> *xyz 0 1
|  3> C          2.48645       -2.67712       -2.56345
|  4> C          3.03764       -2.36672       -3.92351
|  5> N          2.28036       -2.45441       -4.96769
|  6> C          4.32174       -2.01793       -4.01664
|  7> H          4.87994       -1.91167       -3.17382
|  8> H          4.71015       -1.67088       -4.88356
|  9> H          1.27042       -2.41265       -4.86614
| 10> H          2.58183       -2.05528       -5.84688
| 11> C          2.49799       -1.46946       -1.61030
| 12> C          1.58284       -0.32199       -2.04262
| 13> H          2.19308       -1.83391       -0.62542
| 14> H          3.52336       -1.10398       -1.49039
| 15> H          1.47259       -3.05153       -2.69437
| 16> H          3.08320       -3.49064       -2.14147
| 17> H          1.88480        0.03130       -3.00642
| 18> H          1.65140        0.47571       -1.33278
| 19> H          0.57235       -0.67052       -2.09099
| 20> *
| 21>
| 22> %MaxCore 64000
| 23>
| 24> %pal nprocs 18
| 25> end
| 26>
| 27> %scf
| 28>   MaxIter 150
| 29> end
| 30>
| 31>
| 32>                          ****END OF INPUT****

CARTESIAN COORDINATES (ANGSTROEM)
---------------------------------
  C      2.486450   -2.677120   -2.563450
  C      3.037640   -2.366720   -3.923510
  N      2.280360   -2.454410   -4.967690
  C      4.321740   -2.017930   -4.016640
  H      4.879940   -1.911670   -3.173820
  H      4.710150   -1.670880   -4.883560
  H      1.270420   -2.412650   -4.866140
  H      2.581830   -2.055280   -5.846880
  C      2.497990   -1.469460   -1.610300
  C      1.582840   -0.321990   -2.042620
  H      2.193080   -1.833910   -0.625420
  H      3.523360   -1.103980   -1.490390
  H      1.472590   -3.051530   -2.694370
  H      3.083200   -3.490640   -2.141470
  H      1.884800    0.031300   -3.006420
  H      1.651400    0.475710   -1.332780
  H      0.572350   -0.670520   -2.090990

 Total Charge           Charge          ....    0
 Multiplicity           Mult            ....    1
 Number of Electrons    NEL             ....   48
 Basis Dimension        Dim             ....  252

ORBITAL ENERGIES
----------------

  NO   OCC          E(Eh)            E(eV)
   0   2.0000     -14.423426      -392.4814
   1   2.0000     -10.295858      -280.1646
   2   2.0000     -10.272793      -279.5369
   3   2.0000     -10.270582      -279.4767
   4   2.0000     -10.254439      -279.0375
   5   2.0000     -10.201320      -277.5920
   6   2.0000      -1.056884       -28.7593
   7   2.0000      -0.911185       -24.7946
   8   2.0000      -0.845053       -22.9951
   9   2.0000      -0.794130       -21.6094
  10   2.0000      -0.719345       -19.5744
  11   2.0000      -0.668681       -18.1957
  12   2.0000      -0.621104       -16.9011
  13   2.0000      -0.588102       -16.0031
  14   2.0000      -0.553837       -15.0707
  15   2.0000      -0.532421       -14.4879
  16   2.0000      -0.498761       -13.5720
  17   2.0000      -0.488347       -13.2886
  18   2.0000      -0.467049       -12.7091
  19   2.0000      -0.454461       -12.3665
  20   2.0000      -0.429877       -11.6975
  21   2.0000      -0.421826       -11.4785
  22   2.0000      -0.418340       -11.3836
  23   2.0000      -0.274374        -7.4661
  24   0.0000       0.106219         2.8904
  25   0.0000       0.115866         3.1529
  26   0.0000       0.144068         3.9203
  27   0.0000       0.150134         4.0853
  28   0.0000       0.163842         4.4584

MULLIKEN ATOMIC CHARGES
-----------------------
   0 C :   -0.215404
   1 C :    0.183233
   2 N :   -0.466195
   3 C :   -0.427787
   4 H :    0.101087
   5 H :    0.093020
   6 H :    0.236778
   7 H :    0.241262
   8 C :   -0.160016
   9 C :   -0.358690
  10 H :    0.094761
  11 H :    0.102838
  12 H :    0.099480
  13 H :    0.131813
  14 H :    0.123851
  15 H :    0.118410
  16 H :    0.101558
Sum of atomic charges:   -0.0000000

LOEWDIN ATOMIC CHARGES
----------------------
   0 C :   -0.215239
   1 C :   -0.375429
   2 N :    0.009409
   3 C :   -0.280544
   4 H :    0.103849
   5 H :    0.094581
   6 H :    0.170400
   7 H :    0.175393
   8 C :   -0.279176
   9 C :   -0.302557
  10 H :    0.130862
  11 H :    0.135158
  12 H :    0.134767
  13 H :    0.152467
  14 H :    0.117890
  15 H :    0.115980
  16 H :    0.112191

  Mayer bond orders larger than 0.100000
B(  0-C ,  1-C ) :   0.9091 B(  0-C ,  8-C ) :   0.9655 B(  0-C , 12-H ) :   1.0054
B(  0-C , 13-H ) :   0.9727 B(  1-C ,  2-N ) :   1.1849 B(  1-C ,  3-C ) :   1.7475
B(  2-N ,  6-H ) :   0.9207 B(  2-N ,  7-H ) :   0.9212 B(  3-C ,  4-H ) :   1.0026
B(  3-C ,  5-H ) :   0.9923 B(  8-C ,  9-C ) :   0.9734 B(  8-C , 10-H ) :   0.9735
B(  8-C , 11-H ) :   0.9721 B(  9-C , 14-H ) :   0.9756 B(  9-C , 15-H ) :   0.9803
B(  9-C , 16-H ) :   0.9798

Dispersion correction           -0.004645989
FINAL SINGLE POINT ENERGY      -251.899366170934

DIPOLE MOMENT
-------------
                                X             Y             Z
Electronic contribution:      0.66569      -2.40914      -2.95968
Nuclear contribution   :     -1.44240       2.61248       2.79453
                        -----------------------------------------
Total Dipole Moment    :     -0.77671       0.20334      -0.16515
                        -----------------------------------------
Magnitude (a.u.)       :      0.81970
Magnitude (Debye)      :      2.08350

Rotational constants in cm-1:     0.182540     0.078634     0.071436
Rotational constants in MHz :  5472.425685  2357.397154  2141.608207

                             ****ORCA TERMINATED NORMALLY****
TOTAL RUN TIME: 0 days 0 hours 0 minutes 23 seconds 342 msec
