                         Program Version 5.0.0 -  RELEASE  -
|  1> !wB97X-D3 RIJCOSX def2-TZVP def2/J TightSCF xyzfile
|  2>
|  3> *xyzfile 0 1 D3.xyz
|  4>
|  5> %MaxCore 64000
|  6>
|  7> %pal nprocs 18
|  8> end
|  9>
| 10> %scf
| 11>   MaxIter 150
| 12> end
| 13>
| 14>
| 15>                          ****END OF INPUT****

CARTESIAN COORDINATES (ANGSTROEM)
---------------------------------
  C      2.486452   -2.677121   -2.563447
  C     -0.870963    0.248043   -2.662804
  C     -0.477492    0.608191   -4.101052
  H      0.206773    1.458299   -4.118748
  H     -1.368442    0.929419   -4.647855
  C      0.184673   -0.506640   -4.916760
  C      3.037640   -2.366715   -3.923509
  C      2.280360   -2.454408   -4.967692
  N      4.321736   -2.017932   -4.016641
  H      4.879940   -1.911668   -3.173823
  H      4.710148   -1.670882   -4.883561
  H      1.270423   -2.412650   -4.866143
  H      2.581829   -2.055282   -5.846878
  O     -0.158685   -1.701088   -4.657981
  F      1.055938   -0.174410   -5.740373
  C      2.497991   -1.469464   -1.610303
  C      1.582841   -0.321986   -2.042619
  H      2.193083   -1.833912   -0.625420
  H      3.523356   -1.103982   -1.490392
  C      0.100160   -0.673551   -1.915815
  H      1.822311   -0.040361   -3.072834
  H      1.813180    0.557019   -1.433266
  H     -0.063284   -1.679120   -2.301112
  H     -0.168820   -0.691680   -0.853831
  H     -1.001048    1.181040   -2.104071
  H     -1.844645   -0.246592   -2.663281
  H      1.472592   -3.051527   -2.694366
  H      3.083201   -3.490638   -2.141472

 Total Charge           Charge          ....    0
 Multiplicity           Mult            ....    1
 Number of Electrons    NEL             ....   94
 Basis Dimension        Dim             ....  468

ORBITAL ENERGIES
----------------

  NO   OCC          E(Eh)            E(eV)
   0   2.0000     -24.859479      -676.4608
   1   2.0000     -19.232060      -523.3309
   2   2.0000     -14.405607      -391.9965
   3   2.0000     -10.458678      -284.5951
   4   2.0000     -10.306496      -280.4540
   5   2.0000     -10.285856      -279.8924
   6   2.0000     -10.277005      -279.6515
   7   2.0000     -10.270934      -279.4863
   8   2.0000     -10.270546      -279.4758
   9   2.0000     -10.267702      -279.3984
  10   2.0000     -10.262359      -279.2530
  11   2.0000     -10.170704      -276.7589
  12   2.0000      -1.444770       -39.3142
  13   2.0000      -1.148902       -31.2632
  14   2.0000      -1.027614       -27.9628
  15   2.0000      -0.939433       -25.5633
  16   2.0000      -0.906267       -24.6608
  17   2.0000      -0.856789       -23.3144
  18   2.0000      -0.832650       -22.6575
  19   2.0000      -0.791339       -21.5334
  20   2.0000      -0.763037       -20.7633
  21   2.0000      -0.722892       -19.6709
  22   2.0000      -0.684327       -18.6215
  23   2.0000      -0.668545       -18.1920
  24   2.0000      -0.654377       -17.8065
  25   2.0000      -0.633979       -17.2514
  26   2.0000      -0.622741       -16.9457
  27   2.0000      -0.608828       -16.5670
  28   2.0000      -0.580013       -15.7830
  29   2.0000      -0.570714       -15.5299
  30   2.0000      -0.553852       -15.0711
  31   2.0000      -0.538789       -14.6612
  32   2.0000      -0.531775       -14.4703
  33   2.0000      -0.499899       -13.6029
  34   2.0000      -0.493911       -13.4400
  35   2.0000      -0.491403       -13.3718
  36   2.0000      -0.473156       -12.8752
  37   2.0000      -0.461102       -12.5472
  38   2.0000      -0.452057       -12.3011
  39   2.0000      -0.447663       -12.1815
  40   2.0000      -0.428938       -11.6720
  41   2.0000      -0.421267       -11.4632
  42   2.0000      -0.408321       -11.1110
  43   2.0000      -0.402710       -10.9583
  44   2.0000      -0.401505       -10.9255
  45   2.0000      -0.359616        -9.7857
  46   2.0000      -0.266771        -7.2592
  47   0.0000       0.053232         1.4485
  48   0.0000       0.107207         2.9173
  49   0.0000       0.116735         3.1765
  50   0.0000       0.130259         3.5445
  51   0.0000       0.143285         3.8990

MULLIKEN ATOMIC CHARGES
-----------------------
   0 C :   -0.255122
   1 C :   -0.179441
   2 C :   -0.254920
   3 H :    0.140394
   4 H :    0.145868
   5 C :    0.401610
   6 C :    0.186822
   7 C :   -0.436470
   8 N :   -0.506569
   9 H :    0.230594
  10 H :    0.236277
  11 H :    0.163415
  12 H :    0.067666
  13 O :   -0.377882
  14 F :   -0.095026
  15 C :   -0.169315
  16 C :   -0.218199
  17 H :    0.101615
  18 H :    0.097372
  19 C :   -0.219639
  20 H :    0.118467
  21 H :    0.098517
  22 H :    0.129988
  23 H :    0.107177
  24 H :    0.110438
  25 H :    0.115035
  26 H :    0.141183
  27 H :    0.120143
Sum of atomic charges:   -0.0000000

LOEWDIN ATOMIC CHARGES
----------------------
   0 C :   -0.213420
   1 C :   -0.254421
   2 C :   -0.238767
   3 H :    0.146016
   4 H :    0.157085
   5 C :   -0.484695
   6 C :   -0.379888
   7 C :   -0.268556
   8 N :   -0.021649
   9 H :    0.164540
  10 H :    0.168304
  11 H :    0.099036
  12 H :    0.093907
  13 O :    0.065935
  14 F :    0.358930
  15 C :   -0.259826
  16 C :   -0.258554
  17 H :    0.137349
  18 H :    0.128921
  19 C :   -0.266179
  20 H :    0.139772
  21 H :    0.133413
  22 H :    0.142234
  23 H :    0.136168
  24 H :    0.139113
  25 H :    0.143207
  26 H :    0.150034
  27 H :    0.141995

  Mayer bond orders larger than 0.100000
B(  0-C ,  6-C ) :   0.9389 B(  0-C , 15-C ) :   0.9320 B(  0-C , 26-H ) :   1.0061
B(  0-C , 27-H ) :   0.9795 B(  1-C ,  2-C ) :   0.9729 B(  1-C , 19-C ) :   0.9799
B(  1-C , 24-H ) :   0.9745 B(  1-C , 25-H ) :   0.9707 B(  2-C ,  3-H ) :   0.9630
B(  2-C ,  4-H ) :   0.9426 B(  2-C ,  5-C ) :   0.9956 B(  5-C , 13-O ) :   1.9304
B(  5-C , 14-F ) :   1.1640 B(  6-C ,  7-C ) :   1.7616 B(  6-C ,  8-N ) :   1.1024
B(  7-C , 11-H ) :   0.9873 B(  7-C , 12-H ) :   1.0120 B(  8-N ,  9-H ) :   0.9279
B(  8-N , 10-H ) :   0.9203 B( 15-C , 16-C ) :   0.9687 B( 15-C , 17-H ) :   0.9760
B( 15-C , 18-H ) :   0.9797 B( 16-C , 19-C ) :   0.9488 B( 16-C , 20-H ) :   0.9713
B( 16-C , 21-H ) :   0.9658 B( 19-C , 22-H ) :   0.9843 B( 19-C , 23-H ) :   0.9663

Dispersion correction           -0.013534807
FINAL SINGLE POINT ENERGY      -582.420738352081

DIPOLE MOMENT
-------------
                                X             Y             Z
Electronic contribution:     -1.73153       0.93740     -12.11235
Nuclear contribution   :      1.88979       0.56282      12.66056
                        -----------------------------------------
Total Dipole Moment    :      0.15825       1.50022       0.54821
                        -----------------------------------------
Magnitude (a.u.)       :      1.60507
Magnitude (Debye)      :      4.07975

Rotational constants in cm-1:     0.040271     0.025954     0.018866
Rotational constants in MHz :  1207.302496   778.083475   565.600538

                             ****ORCA TERMINATED NORMALLY****
TOTAL RUN TIME: 0 days 0 hours 1 minutes 6 seconds 585 msec
