                         Program Version 5.0.0 -  RELEASE  -
|  1> !wB97X-D3 RIJCOSX def2-TZVP def2/J TightSCF xyzfile
|  2>
|  3> *xyzfile 0 1 D4.xyz
|  4>
|  5> %MaxCore 64000
|  6>
|  7> %pal nprocs 18
|  8> end
|  9>
| 10> %scf
| 11>   MaxIter 150
| 12> end
| 13>
| 14>
| 15>                          ****END OF INPUT****

CARTESIAN COORDINATES (ANGSTROEM)
---------------------------------
  C      2.486452   -2.677121   -2.563447
  C     -0.870963    0.248043   -2.662804
  C     -0.477492    0.608191   -4.101052
  H      0.206773    1.458299   -4.118748
  H     -1.368442    0.929419   -4.647855
  C      0.184673   -0.506640   -4.916760
  C      3.037640   -2.366715   -3.923509
  N      2.280360   -2.454408   -4.967692
  C      4.321736   -2.017932   -4.016641
  H      4.879940   -1.911668   -3.173823
  H      4.710148   -1.670882   -4.883561
  H      1.270423   -2.412650   -4.866143
  H      2.581829   -2.055282   -5.846878
  O     -0.158685   -1.701088   -4.657981
  F      1.055938   -0.174410   -5.740373
  C      2.497991   -1.469464   -1.610303
  C      1.582841   -0.321986   -2.042619
  H      2.193083   -1.833912   -0.625420
  H      3.523356   -1.103982   -1.490392
  C      0.100160   -0.673551   -1.915815
  H      1.822311   -0.040361   -3.072834
  H      1.813180    0.557019   -1.433266
  H     -0.063284   -1.679120   -2.301112
  H     -0.168820   -0.691680   -0.853831
  H     -1.001048    1.181040   -2.104071
  H     -1.844645   -0.246592   -2.663281
  H      1.472592   -3.051527   -2.694366
  H      3.083201   -3.490638   -2.141472

 Total Charge           Charge          ....    0
 Multiplicity           Mult            ....    1
 Number of Electrons    NEL             ....   94
 Basis Dimension        Dim             ....  468

ORBITAL ENERGIES
----------------

  NO   OCC          E(Eh)            E(eV)
   0   2.0000     -24.881938      -677.0719
   1   2.0000     -19.259203      -524.0695
   2   2.0000     -14.387761      -391.5109
   3   2.0000     -10.482610      -285.2463
   4   2.0000     -10.319789      -280.8157
   5   2.0000     -10.294491      -280.1274
   6   2.0000     -10.281175      -279.7650
   7   2.0000     -10.273583      -279.5584
   8   2.0000     -10.273340      -279.5518
   9   2.0000     -10.268345      -279.4159
  10   2.0000     -10.262965      -279.2695
  11   2.0000     -10.186209      -277.1808
  12   2.0000      -1.467137       -39.9228
  13   2.0000      -1.175430       -31.9851
  14   2.0000      -1.034246       -28.1433
  15   2.0000      -0.948721       -25.8160
  16   2.0000      -0.909593       -24.7513
  17   2.0000      -0.867398       -23.6031
  18   2.0000      -0.824556       -22.4373
  19   2.0000      -0.796667       -21.6784
  20   2.0000      -0.775176       -21.0936
  21   2.0000      -0.732374       -19.9289
  22   2.0000      -0.693736       -18.8775
  23   2.0000      -0.683370       -18.5954
  24   2.0000      -0.664081       -18.0706
  25   2.0000      -0.653378       -17.7793
  26   2.0000      -0.632621       -17.2145
  27   2.0000      -0.600014       -16.3272
  28   2.0000      -0.584964       -15.9177
  29   2.0000      -0.578888       -15.7523
  30   2.0000      -0.572529       -15.5793
  31   2.0000      -0.544452       -14.8153
  32   2.0000      -0.524097       -14.2614
  33   2.0000      -0.510340       -13.8871
  34   2.0000      -0.503695       -13.7062
  35   2.0000      -0.490949       -13.3594
  36   2.0000      -0.477148       -12.9839
  37   2.0000      -0.468293       -12.7429
  38   2.0000      -0.456288       -12.4162
  39   2.0000      -0.454361       -12.3638
  40   2.0000      -0.434028       -11.8105
  41   2.0000      -0.429577       -11.6894
  42   2.0000      -0.415282       -11.3004
  43   2.0000      -0.413764       -11.2591
  44   2.0000      -0.406562       -11.0631
  45   2.0000      -0.391458       -10.6521
  46   2.0000      -0.256389        -6.9767
  47   0.0000       0.031764         0.8643
  48   0.0000       0.102444         2.7876
  49   0.0000       0.122804         3.3417
  50   0.0000       0.133393         3.6298
  51   0.0000       0.136514         3.7147

MULLIKEN ATOMIC CHARGES
-----------------------
   0 C :   -0.244879
   1 C :   -0.180481
   2 C :   -0.262552
   3 H :    0.150820
   4 H :    0.151741
   5 C :    0.402335
   6 C :    0.169975
   7 N :   -0.454136
   8 C :   -0.444353
   9 H :    0.090668
  10 H :    0.084931
  11 H :    0.258391
  12 H :    0.219795
  13 O :   -0.398361
  14 F :   -0.091195
  15 C :   -0.161047
  16 C :   -0.224971
  17 H :    0.093550
  18 H :    0.116468
  19 C :   -0.223774
  20 H :    0.113695
  21 H :    0.103009
  22 H :    0.129151
  23 H :    0.112260
  24 H :    0.116069
  25 H :    0.118017
  26 H :    0.122170
  27 H :    0.132703
Sum of atomic charges:    0.0000000

LOEWDIN ATOMIC CHARGES
----------------------
   0 C :   -0.210425
   1 C :   -0.253722
   2 C :   -0.235535
   3 H :    0.149953
   4 H :    0.159596
   5 C :   -0.480027
   6 C :   -0.384874
   7 N :    0.021632
   8 C :   -0.299045
   9 H :    0.100280
  10 H :    0.092312
  11 H :    0.142482
  12 H :    0.164755
  13 O :    0.055260
  14 F :    0.356315
  15 C :   -0.251215
  16 C :   -0.259009
  17 H :    0.135473
  18 H :    0.138289
  19 C :   -0.267512
  20 H :    0.138113
  21 H :    0.135223
  22 H :    0.140217
  23 H :    0.137835
  24 H :    0.141209
  25 H :    0.143551
  26 H :    0.137257
  27 H :    0.151617

  Mayer bond orders larger than 0.100000
B(  0-C ,  6-C ) :   0.8993 B(  0-C , 15-C ) :   0.9530 B(  0-C , 26-H ) :   1.0116
B(  0-C , 27-H ) :   0.9743 B(  1-C ,  2-C ) :   0.9698 B(  1-C , 19-C ) :   0.9749
B(  1-C , 24-H ) :   0.9732 B(  1-C , 25-H ) :   0.9721 B(  2-C ,  3-H ) :   0.9616
B(  2-C ,  4-H ) :   0.9367 B(  2-C ,  5-C ) :   0.9993 B(  5-C , 13-O ) :   1.8944
B(  5-C , 14-F ) :   1.1688 B(  6-C ,  7-N ) :   1.2314 B(  6-C ,  8-C ) :   1.7355
B(  7-N , 11-H ) :   0.8609 B(  7-N , 12-H ) :   0.9297 B(  8-C ,  9-H ) :   1.0007
B(  8-C , 10-H ) :   0.9950 B( 11-H , 13-O ) :   0.1075 B( 15-C , 16-C ) :   0.9842
B( 15-C , 17-H ) :   0.9733 B( 15-C , 18-H ) :   0.9712 B( 16-C , 19-C ) :   0.9399
B( 16-C , 20-H ) :   0.9667 B( 16-C , 21-H ) :   0.9650 B( 19-C , 22-H ) :   0.9867
B( 19-C , 23-H ) :   0.9671

Dispersion correction           -0.013600414
FINAL SINGLE POINT ENERGY      -582.440102635514

DIPOLE MOMENT
-------------
                                X             Y             Z
Electronic contribution:     -3.45600       0.81229     -12.75652
Nuclear contribution   :      2.21030       0.63135      12.80988
                        -----------------------------------------
Total Dipole Moment    :     -1.24570       1.44364       0.05337
                        -----------------------------------------
Magnitude (a.u.)       :      1.90754
Magnitude (Debye)      :      4.84859

Rotational constants in cm-1:     0.039980     0.026547     0.019089
Rotational constants in MHz :  1198.568620   795.867393   572.288555

                             ****ORCA TERMINATED NORMALLY****
TOTAL RUN TIME: 0 days 0 hours 1 minutes 13 seconds 753 msec
