                         Program Version 5.0.0 -  RELEASE  -
|  1> !LC-BLYP RIJCOSX def2-TZVP def2/J TightSCF
|  2> *xyz -1 1
|  3> C         -0.77894        0.17197        1.80496
|  4> C         -0.60249       -0.63071        0.49224
|  5> H          0.31389       -1.24035        0.60350
|  6> H         -0.36383        0.11332       -0.30117
|  7> O         -1.71206       -1.37684        0.20253
|  8> H         -1.65864        0.77733        1.73736
|  9> H          0.07466        0.79896        1.95712
| 10> H         -0.87474       -0.50584        2.62734
| 11> *
| 12> %MaxCore 64000
| 13>
| 14> %pal nprocs 4
| 15> end
| 16>
| 17> %scf
| 18>   MaxIter 150
| 19> end
| 20>
| 21>
| 22>                          ****END OF INPUT****

CARTESIAN COORDINATES (ANGSTROEM)
---------------------------------
  C     -0.778940    0.171970    1.804960
  C     -0.602490   -0.630710    0.492240
  H      0.313890   -1.240350    0.603500
  H     -0.363830    0.113320   -0.301170
  O     -1.712060   -1.376840    0.202530
  H     -1.658640    0.777330    1.737360
  H      0.074660    0.798960    1.957120
  H     -0.874740   -0.505840    2.627340

 Total Charge           Charge          ....   -1
 Multiplicity           Mult            ....    1
 Number of Electrons    NEL             ....   26
 Basis Dimension        Dim             ....  123

ORBITAL ENERGIES
----------------

  NO   OCC          E(Eh)            E(eV)
   0   2.0000     -18.578289      -505.5409
   1   2.0000      -9.873320      -268.6667
   2   2.0000      -9.851210      -268.0650
   3   2.0000      -0.759939       -20.6790
   4   2.0000      -0.623774       -16.9737
   5   2.0000      -0.471236       -12.8230
   6   2.0000      -0.349141        -9.5006
   7   2.0000      -0.323130        -8.7928
   8   2.0000      -0.265415        -7.2223
   9   2.0000      -0.249316        -6.7842
  10   2.0000      -0.197282        -5.3683
  11   2.0000      -0.049415        -1.3446
  12   2.0000      -0.048156        -1.3104
  13   0.0000       0.281112         7.6494
  14   0.0000       0.318407         8.6643
  15   0.0000       0.343906         9.3582
  16   0.0000       0.348591         9.4857
  17   0.0000       0.381815        10.3897

MULLIKEN ATOMIC CHARGES
-----------------------
   0 C :   -0.227677
   1 C :   -0.008281
   2 H :   -0.052842
   3 H :   -0.055557
   4 O :   -0.735474
   5 H :    0.045269
   6 H :   -0.008960
   7 H :    0.043522
Sum of atomic charges:   -1.0000000

LOEWDIN ATOMIC CHARGES
----------------------
   0 C :   -0.378652
   1 C :   -0.570011
   2 H :    0.057173
   3 H :    0.056161
   4 O :   -0.424232
   5 H :    0.091455
   6 H :    0.077602
   7 H :    0.090503

  Mayer bond orders larger than 0.100000
B(  0-C ,  1-C ) :   0.8736 B(  0-C ,  4-O ) :  -0.2137 B(  0-C ,  5-H ) :   0.9724
B(  0-C ,  6-H ) :   0.9357 B(  0-C ,  7-H ) :   0.9753 B(  1-C ,  2-H ) :   0.9289
B(  1-C ,  3-H ) :   0.9309 B(  1-C ,  4-O ) :   1.6695

FINAL SINGLE POINT ENERGY      -154.100646452931

DIPOLE MOMENT
-------------
                                X             Y             Z
Electronic contribution:     -1.71001      -1.90348      -1.51025
Nuclear contribution   :      2.47835       2.80827       2.30058
                        -----------------------------------------
Total Dipole Moment    :      0.76834       0.90480       0.79034
                        -----------------------------------------
Magnitude (a.u.)       :      1.42605
Magnitude (Debye)      :      3.62474

Rotational constants in cm-1:     1.255775     0.327783     0.287473
Rotational constants in MHz : 37647.186859  9826.677683  8618.224821

                             ****ORCA TERMINATED NORMALLY****
TOTAL RUN TIME: 0 days 0 hours 0 minutes 13 seconds 53 msec
