                         Program Version 5.0.0 -  RELEASE  -
|  1> !LC-BLYP RIJCOSX def2-TZVP def2/J TightSCF
|  2> *xyz 1 1
|  3> C         -2.12050        0.88520        1.78951
|  4> C         -0.77894        0.17197        1.80496
|  5> H         -2.32419        1.47265        2.68608
|  6> H         -2.18770        1.54127        0.91948
|  7> N         -3.17690       -0.15948        1.61070
|  8> H         -4.06474        0.23127        1.28675
|  9> H         -3.34407       -0.67151        2.48493
| 10> H         -2.71686       -0.78189        0.93588
| 11> H         -0.65708       -0.37837        0.89547
| 12> H         -0.74207       -0.50050        2.63642
| 13> H          0.00707        0.89251        1.89389
| 14> *
| 15> %MaxCore 64000
| 16>
| 17> %pal nprocs 4
| 18> end
| 19>
| 20> %scf
| 21>   MaxIter 150
| 22> end
| 23>
| 24>
| 25>                          ****END OF INPUT****

CARTESIAN COORDINATES (ANGSTROEM)
---------------------------------
  C     -2.120500    0.885200    1.789510
  C     -0.778940    0.171970    1.804960
  H     -2.324190    1.472650    2.686080
  H     -2.187700    1.541270    0.919480
  N     -3.176900   -0.159480    1.610700
  H     -4.064740    0.231270    1.286750
  H     -3.344070   -0.671510    2.484930
  H     -2.716860   -0.781890    0.935880
  H     -0.657080   -0.378370    0.895470
  H     -0.742070   -0.500500    2.636420
  H      0.007070    0.892510    1.893890

 Total Charge           Charge          ....    1
 Multiplicity           Mult            ....    1
 Number of Electrons    NEL             ....   26
 Basis Dimension        Dim             ....  141

ORBITAL ENERGIES
----------------

  NO   OCC          E(Eh)            E(eV)
   0   2.0000     -14.500927      -394.5903
   1   2.0000     -10.324106      -280.9332
   2   2.0000     -10.247277      -278.8426
   3   2.0000      -1.318124       -35.8680
   4   2.0000      -1.076790       -29.3009
   5   2.0000      -0.954271       -25.9670
   6   2.0000      -0.908829       -24.7305
   7   2.0000      -0.897774       -24.4297
   8   2.0000      -0.794586       -21.6218
   9   2.0000      -0.747894       -20.3512
  10   2.0000      -0.685291       -18.6477
  11   2.0000      -0.677804       -18.4440
  12   2.0000      -0.654572       -17.8118
  13   0.0000      -0.127511        -3.4697
  14   0.0000      -0.066010        -1.7962
  15   0.0000      -0.063188        -1.7194
  16   0.0000      -0.043579        -1.1858
  17   0.0000      -0.007992        -0.2175

MULLIKEN ATOMIC CHARGES
-----------------------
   0 C :   -0.252229
   1 C :   -0.424891
   2 H :    0.216122
   3 H :    0.210423
   4 N :   -0.278362
   5 H :    0.336400
   6 H :    0.332443
   7 H :    0.323300
   8 H :    0.163521
   9 H :    0.173417
  10 H :    0.199856
Sum of atomic charges:    1.0000000

LOEWDIN ATOMIC CHARGES
----------------------
   0 C :   -0.285759
   1 C :   -0.294329
   2 H :    0.156264
   3 H :    0.158472
   4 N :    0.166426
   5 H :    0.222048
   6 H :    0.224542
   7 H :    0.228932
   8 H :    0.133659
   9 H :    0.136542
  10 H :    0.153202

  Mayer bond orders larger than 0.100000
B(  0-C ,  1-C ) :   0.9438 B(  0-C ,  2-H ) :   0.9531 B(  0-C ,  3-H ) :   0.9499
B(  0-C ,  4-N ) :   0.8438 B(  1-C ,  8-H ) :   0.9513 B(  1-C ,  9-H ) :   0.9558
B(  1-C , 10-H ) :   0.9605 B(  4-N ,  5-H ) :   0.8761 B(  4-N ,  6-H ) :   0.8774
B(  4-N ,  7-H ) :   0.8754

FINAL SINGLE POINT ENERGY      -135.188172540680

DIPOLE MOMENT
-------------
                                X             Y             Z
Electronic contribution:     -1.83658      -0.15180      -0.05756
Nuclear contribution   :      0.50278      -0.30871      -0.06979
                        -----------------------------------------
Total Dipole Moment    :     -1.33380      -0.46051      -0.12734
                        -----------------------------------------
Magnitude (a.u.)       :      1.41680
Magnitude (Debye)      :      3.60121

Rotational constants in cm-1:     0.963746     0.295157     0.256910
Rotational constants in MHz : 28892.375247  8848.576767  7701.963879

                             ****ORCA TERMINATED NORMALLY****
TOTAL RUN TIME: 0 days 0 hours 0 minutes 15 seconds 277 msec
