                         Program Version 5.0.0 -  RELEASE  -
|  1> !LC-BLYP RIJCOSX def2-TZVP def2/J TightSCF
|  2> *xyz 0 1
|  3> C         -0.77894        0.17197        1.80496
|  4> C         -0.60249       -0.63071        0.49224
|  5> H          0.31389       -1.24035        0.60350
|  6> H         -0.36383        0.11332       -0.30117
|  7> F         -1.71206       -1.37684        0.20253
|  8> H         -1.65864        0.77733        1.73736
|  9> H          0.07466        0.79896        1.95712
| 10> H         -0.87474       -0.50584        2.62734
| 11> *
| 12> %MaxCore 64000
| 13>
| 14> %pal nprocs 4
| 15> end
| 16>
| 17> %scf
| 18>   MaxIter 150
| 19> end
| 20>
| 21>
| 22>                          ****END OF INPUT****

CARTESIAN COORDINATES (ANGSTROEM)
---------------------------------
  C     -0.778940    0.171970    1.804960
  C     -0.602490   -0.630710    0.492240
  H      0.313890   -1.240350    0.603500
  H     -0.363830    0.113320   -0.301170
  F     -1.712060   -1.376840    0.202530
  H     -1.658640    0.777330    1.737360
  H      0.074660    0.798960    1.957120
  H     -0.874740   -0.505840    2.627340

 Total Charge           Charge          ....    0
 Multiplicity           Mult            ....    1
 Number of Electrons    NEL             ....   26
 Basis Dimension        Dim             ....  123

ORBITAL ENERGIES
----------------

  NO   OCC          E(Eh)            E(eV)
   0   2.0000     -24.438359      -665.0016
   1   2.0000     -10.147728      -276.1337
   2   2.0000     -10.062734      -273.8209
   3   2.0000      -1.277722       -34.7686
   4   2.0000      -0.871826       -23.7236
   5   2.0000      -0.739171       -20.1139
   6   2.0000      -0.612563       -16.6687
   7   2.0000      -0.602270       -16.3886
   8   2.0000      -0.560409       -15.2495
   9   2.0000      -0.505381       -13.7521
  10   2.0000      -0.501132       -13.6365
  11   2.0000      -0.432274       -11.7628
  12   2.0000      -0.428434       -11.6583
  13   0.0000       0.105530         2.8716
  14   0.0000       0.144620         3.9353
  15   0.0000       0.165564         4.5052
  16   0.0000       0.167876         4.5681
  17   0.0000       0.182258         4.9595

MULLIKEN ATOMIC CHARGES
-----------------------
   0 C :   -0.384809
   1 C :   -0.008675
   2 H :    0.106453
   3 H :    0.105735
   4 F :   -0.214934
   5 H :    0.136597
   6 H :    0.124659
   7 H :    0.134974
Sum of atomic charges:    0.0000000

LOEWDIN ATOMIC CHARGES
----------------------
   0 C :   -0.324392
   1 C :   -0.388611
   2 H :    0.119815
   3 H :    0.121175
   4 F :    0.107145
   5 H :    0.120952
   6 H :    0.124132
   7 H :    0.119784

  Mayer bond orders larger than 0.100000
B(  0-C ,  1-C ) :   0.9565 B(  0-C ,  5-H ) :   0.9695 B(  0-C ,  6-H ) :   0.9574
B(  0-C ,  7-H ) :   0.9710 B(  1-C ,  2-H ) :   0.9699 B(  1-C ,  3-H ) :   0.9712
B(  1-C ,  4-F ) :   1.0261

FINAL SINGLE POINT ENERGY      -178.739242215377

DIPOLE MOMENT
-------------
                                X             Y             Z
Electronic contribution:     -2.73097      -3.29106      -2.82730
Nuclear contribution   :      3.27800       3.70743       3.04146
                        -----------------------------------------
Total Dipole Moment    :      0.54704       0.41638       0.21416
                        -----------------------------------------
Magnitude (a.u.)       :      0.72006
Magnitude (Debye)      :      1.83024

Rotational constants in cm-1:     1.234437     0.305084     0.268865
Rotational constants in MHz : 37007.496448  9146.194083  8060.380630

                             ****ORCA TERMINATED NORMALLY****
TOTAL RUN TIME: 0 days 0 hours 0 minutes 11 seconds 204 msec
