                         Program Version 5.0.0 -  RELEASE  -
|  1> !LC-BLYP RIJCOSX def2-TZVP def2/J TightSCF
|  2> *xyz 0 1
|  3> C         -2.12050        0.88520        1.78951
|  4> C         -0.77894        0.17197        1.80496
|  5> H         -2.32419        1.47265        2.68608
|  6> H         -2.18770        1.54127        0.91948
|  7> C         -3.17690       -0.15948        1.61070
|  8> H         -4.06474        0.23127        1.28675
|  9> H         -3.34407       -0.67151        2.48493
| 10> H         -2.71686       -0.78189        0.93588
| 11> H         -0.65708       -0.37837        0.89547
| 12> H         -0.74207       -0.50050        2.63642
| 13> H          0.00707        0.89251        1.89389
| 14> *
| 15> %MaxCore 64000
| 16>
| 17> %pal nprocs 4
| 18> end
| 19>
| 20> %scf
| 21>   MaxIter 150
| 22> end
| 23>
| 24>
| 25>                          ****END OF INPUT****

CARTESIAN COORDINATES (ANGSTROEM)
---------------------------------
  C     -2.120500    0.885200    1.789510
  C     -0.778940    0.171970    1.804960
  H     -2.324190    1.472650    2.686080
  H     -2.187700    1.541270    0.919480
  C     -3.176900   -0.159480    1.610700
  H     -4.064740    0.231270    1.286750
  H     -3.344070   -0.671510    2.484930
  H     -2.716860   -0.781890    0.935880
  H     -0.657080   -0.378370    0.895470
  H     -0.742070   -0.500500    2.636420
  H      0.007070    0.892510    1.893890

 Total Charge           Charge          ....    0
 Multiplicity           Mult            ....    1
 Number of Electrons    NEL             ....   26
 Basis Dimension        Dim             ....  141

ORBITAL ENERGIES
----------------

  NO   OCC          E(Eh)            E(eV)
   0   2.0000     -10.054350      -273.5928
   1   2.0000     -10.045519      -273.3525
   2   2.0000     -10.026415      -272.8326
   3   2.0000      -0.906172       -24.6582
   4   2.0000      -0.794541       -21.6206
   5   2.0000      -0.693884       -18.8815
   6   2.0000      -0.579806       -15.7773
   7   2.0000      -0.559479       -15.2242
   8   2.0000      -0.501718       -13.6524
   9   2.0000      -0.485352       -13.2071
  10   2.0000      -0.438896       -11.9430
  11   2.0000      -0.430307       -11.7093
  12   2.0000      -0.424900       -11.5621
  13   0.0000       0.105830         2.8798
  14   0.0000       0.147223         4.0061
  15   0.0000       0.153707         4.1826
  16   0.0000       0.160002         4.3539
  17   0.0000       0.179112         4.8739

MULLIKEN ATOMIC CHARGES
-----------------------
   0 C :   -0.195134
   1 C :   -0.394233
   2 H :    0.107589
   3 H :    0.107168
   4 C :   -0.359090
   5 H :    0.124371
   6 H :    0.127882
   7 H :    0.105036
   8 H :    0.125912
   9 H :    0.125018
  10 H :    0.125481
Sum of atomic charges:    0.0000000

LOEWDIN ATOMIC CHARGES
----------------------
   0 C :   -0.329122
   1 C :   -0.322364
   2 H :    0.130983
   3 H :    0.135922
   4 C :   -0.314679
   5 H :    0.108184
   6 H :    0.111647
   7 H :    0.120073
   8 H :    0.119724
   9 H :    0.121147
  10 H :    0.118486

  Mayer bond orders larger than 0.100000
B(  0-C ,  1-C ) :   0.9431 B(  0-C ,  2-H ) :   0.9783 B(  0-C ,  3-H ) :   0.9795
B(  0-C ,  4-C ) :   0.9203 B(  1-C ,  8-H ) :   0.9764 B(  1-C ,  9-H ) :   0.9757
B(  1-C , 10-H ) :   0.9850 B(  4-C ,  5-H ) :   0.9866 B(  4-C ,  6-H ) :   0.9822
B(  4-C ,  7-H ) :   0.9771

FINAL SINGLE POINT ENERGY      -118.779741398148

DIPOLE MOMENT
-------------
                                X             Y             Z
Electronic contribution:     -0.14418       0.48071       0.11479
Nuclear contribution   :      0.13334      -0.45108      -0.10852
                        -----------------------------------------
Total Dipole Moment    :     -0.01084       0.02963       0.00627
                        -----------------------------------------
Magnitude (a.u.)       :      0.03217
Magnitude (Debye)      :      0.08177

Rotational constants in cm-1:     0.972269     0.310387     0.269029
Rotational constants in MHz : 29147.878530  9305.178981  8065.286472

                             ****ORCA TERMINATED NORMALLY****
TOTAL RUN TIME: 0 days 0 hours 0 minutes 13 seconds 311 msec
