                         Program Version 5.0.0 -  RELEASE  -
|  1> !LC-BLYP RIJCOSX def2-TZVP def2/J TightSCF xyzfile
|  2>
|  3> *xyzfile 0 1 D.xyz
|  4>
|  5> %MaxCore 64000
|  6>
|  7> %pal nprocs 18
|  8> end
|  9>
| 10> %scf
| 11>   MaxIter 150
| 12> end
| 13>
| 14>
| 15>                          ****END OF INPUT****

CARTESIAN COORDINATES (ANGSTROEM)
---------------------------------
  C     -2.120502    0.885196    1.789506
  C     -0.778939    0.171966    1.804965
  H     -2.324193    1.472649    2.686078
  H     -2.187698    1.541272    0.919482
  C     -3.176900   -0.159484    1.610700
  H      0.015695    0.910767    1.939153
  H     -0.743553   -0.506827    2.665420
  C     -0.602493   -0.630712    0.492240
  H      0.313894   -1.240346    0.603498
  H     -0.363829    0.113322   -0.301169
  F     -1.712061   -1.376836    0.202535
  H     -4.064736    0.231272    1.286754
  H     -3.344073   -0.671511    2.484928
  H     -2.716861   -0.781886    0.935880

 Total Charge           Charge          ....    0
 Multiplicity           Mult            ....    1
 Number of Electrons    NEL             ....   42
 Basis Dimension        Dim             ....  209

ORBITAL ENERGIES
----------------

  NO   OCC          E(Eh)            E(eV)
   0   2.0000     -24.458039      -665.5371
   1   2.0000     -10.155361      -276.3414
   2   2.0000     -10.072797      -274.0947
   3   2.0000     -10.052500      -273.5424
   4   2.0000      -9.991312      -271.8774
   5   2.0000      -1.311078       -35.6762
   6   2.0000      -0.916663       -24.9437
   7   2.0000      -0.843791       -22.9607
   8   2.0000      -0.744810       -20.2673
   9   2.0000      -0.700640       -19.0654
  10   2.0000      -0.637049       -17.3350
  11   2.0000      -0.632569       -17.2131
  12   2.0000      -0.592174       -16.1139
  13   2.0000      -0.544596       -14.8192
  14   2.0000      -0.514977       -14.0132
  15   2.0000      -0.506141       -13.7728
  16   2.0000      -0.479654       -13.0521
  17   2.0000      -0.443305       -12.0630
  18   2.0000      -0.426721       -11.6117
  19   2.0000      -0.420722       -11.4484
  20   2.0000      -0.371315       -10.1040
  21   0.0000       0.100042         2.7223
  22   0.0000       0.132334         3.6010
  23   0.0000       0.137803         3.7498
  24   0.0000       0.151763         4.1297
  25   0.0000       0.168420         4.5829

MULLIKEN ATOMIC CHARGES
-----------------------
   0 C :   -0.226492
   1 C :   -0.286400
   2 H :    0.114036
   3 H :    0.111990
   4 C :   -0.431384
   5 H :    0.134368
   6 H :    0.131210
   7 C :   -0.024982
   8 H :    0.123415
   9 H :    0.115414
  10 F :   -0.158673
  11 H :    0.111315
  12 H :    0.115393
  13 H :    0.170790
Sum of atomic charges:    0.0000000

LOEWDIN ATOMIC CHARGES
----------------------
   0 C :   -0.311862
   1 C :   -0.285784
   2 H :    0.132244
   3 H :    0.139064
   4 C :   -0.331659
   5 H :    0.144449
   6 H :    0.142395
   7 C :   -0.349916
   8 H :    0.128059
   9 H :    0.129917
  10 F :    0.172356
  11 H :    0.103823
  12 H :    0.106581
  13 H :    0.080333

  Mayer bond orders larger than 0.100000
B(  0-C ,  1-C ) :   0.9325 B(  0-C ,  2-H ) :   0.9790 B(  0-C ,  3-H ) :   0.9829
B(  0-C ,  4-C ) :   0.9082 B(  1-C ,  5-H ) :   0.9661 B(  1-C ,  6-H ) :   0.9710
B(  1-C ,  7-C ) :   0.9590 B(  4-C , 11-H ) :   0.9833 B(  4-C , 12-H ) :   0.9840
B(  4-C , 13-H ) :   0.9461 B(  7-C ,  8-H ) :   0.9694 B(  7-C ,  9-H ) :   0.9732
B(  7-C , 10-F ) :   0.9756

FINAL SINGLE POINT ENERGY      -257.099125288232

DIPOLE MOMENT
-------------
                                X             Y             Z
Electronic contribution:      0.90723      -4.19061      -3.73237
Nuclear contribution   :     -0.20666       4.43855       3.76066
                        -----------------------------------------
Total Dipole Moment    :      0.70057       0.24794       0.02829
                        -----------------------------------------
Magnitude (a.u.)       :      0.74368
Magnitude (Debye)      :      1.89030

Rotational constants in cm-1:     0.236353     0.155239     0.105045
Rotational constants in MHz :  7085.692869  4653.957069  3149.180346

                             ****ORCA TERMINATED NORMALLY****
TOTAL RUN TIME: 0 days 0 hours 0 minutes 10 seconds 830 msec
