                         Program Version 5.0.0 -  RELEASE  -
|  1> !PBE D3BJ RIJCOSX def2-SVPD def2/J TightSCF
|  2> *xyz -1 1
|  3> C         -1.78916       -0.63923        4.55750
|  4> C         -2.79070       -0.78527        5.70281
|  5> H         -2.86731       -1.83565        6.00167
|  6> H         -3.77455       -0.48658        5.33481
|  7> C         -2.45380        0.05510        6.94145
|  8> C         -2.07842        1.48042        6.56410
|  9> H         -1.62558       -0.38216        7.49891
| 10> H         -3.32527        0.08775        7.59917
| 11> O         -0.90125        1.85816        6.82810
| 12> O         -2.93658        2.17731        5.96415
| 13> H         -2.09421       -1.25377        3.73641
| 14> H         -0.81933       -0.94475        4.89064
| 15> H         -1.75281        0.38306        4.24366
| 16> *
| 17> %MaxCore 64000
| 18>
| 19> %pal nprocs 4
| 20> end
| 21>
| 22> %scf
| 23>   MaxIter 150
| 24> end
| 25>
| 26>
| 27>                          ****END OF INPUT****

CARTESIAN COORDINATES (ANGSTROEM)
---------------------------------
  C     -1.789160   -0.639230    4.557500
  C     -2.790700   -0.785270    5.702810
  H     -2.867310   -1.835650    6.001670
  H     -3.774550   -0.486580    5.334810
  C     -2.453800    0.055100    6.941450
  C     -2.078420    1.480420    6.564100
  H     -1.625580   -0.382160    7.498910
  H     -3.325270    0.087750    7.599170
  O     -0.901250    1.858160    6.828100
  O     -2.936580    2.177310    5.964150
  H     -2.094210   -1.253770    3.736410
  H     -0.819330   -0.944750    4.890640
  H     -1.752810    0.383060    4.243660

 Total Charge           Charge          ....   -1
 Multiplicity           Mult            ....    1
 Number of Electrons    NEL             ....   48
 Basis Dimension        Dim             ....  182

ORBITAL ENERGIES
----------------

  NO   OCC          E(Eh)            E(eV)
   0   2.0000     -18.509454      -503.6678
   1   2.0000     -18.507838      -503.6239
   2   2.0000      -9.775235      -265.9977
   3   2.0000      -9.749140      -265.2876
   4   2.0000      -9.738165      -264.9889
   5   2.0000      -9.722842      -264.5720
   6   2.0000      -0.726601       -19.7718
   7   2.0000      -0.636886       -17.3306
   8   2.0000      -0.559081       -15.2134
   9   2.0000      -0.469230       -12.7684
  10   2.0000      -0.380461       -10.3529
  11   2.0000      -0.275261        -7.4902
  12   2.0000      -0.256831        -6.9887
  13   2.0000      -0.238019        -6.4768
  14   2.0000      -0.206821        -5.6279
  15   2.0000      -0.183438        -4.9916
  16   2.0000      -0.169043        -4.5999
  17   2.0000      -0.161785        -4.4024
  18   2.0000      -0.150200        -4.0871
  19   2.0000      -0.129826        -3.5328
  20   2.0000      -0.122702        -3.3389
  21   2.0000      -0.017046        -0.4638
  22   2.0000      -0.002811        -0.0765
  23   2.0000       0.015555         0.4233
  24   0.0000       0.130179         3.5423
  25   0.0000       0.154932         4.2159
  26   0.0000       0.171550         4.6681
  27   0.0000       0.181891         4.9495
  28   0.0000       0.197319         5.3693

MULLIKEN ATOMIC CHARGES
-----------------------
   0 C :    0.658020
   1 C :   -0.451166
   2 H :   -0.185466
   3 H :    0.012766
   4 C :    0.180544
   5 C :    0.317720
   6 H :   -0.017621
   7 H :   -0.031748
   8 O :   -0.642631
   9 O :   -0.684435
  10 H :   -0.106790
  11 H :   -0.034371
  12 H :   -0.014822
Sum of atomic charges:   -1.0000000

LOEWDIN ATOMIC CHARGES
----------------------
   0 C :    0.113522
   1 C :   -0.092214
   2 H :   -0.003206
   3 H :    0.010630
   4 C :   -0.007600
   5 C :   -0.332778
   6 H :   -0.000076
   7 H :    0.006769
   8 O :   -0.312780
   9 O :   -0.303153
  10 H :   -0.038297
  11 H :   -0.021332
  12 H :   -0.019485

  Mayer bond orders larger than 0.100000
B(  0-C ,  1-C ) :   1.3745 B(  0-C ,  2-H ) :   0.1046 B(  0-C , 10-H ) :   0.7471
B(  0-C , 11-H ) :   0.7815 B(  0-C , 12-H ) :   0.8174 B(  1-C ,  2-H ) :   0.9838
B(  1-C ,  3-H ) :   0.8834 B(  1-C ,  4-C ) :   1.2219 B(  1-C ,  6-H ) :   0.1534
B(  1-C ,  7-H ) :   0.1347 B(  1-C , 10-H ) :   0.2371 B(  1-C , 11-H ) :   0.2104
B(  1-C , 12-H ) :   0.2243 B(  3-H ,  4-C ) :   0.1196 B(  4-C ,  5-C ) :   1.0597
B(  4-C ,  6-H ) :   0.8592 B(  4-C ,  7-H ) :   0.8183 B(  5-C ,  6-H ) :   0.2217
B(  5-C ,  7-H ) :   0.1283 B(  5-C ,  8-O ) :   1.4349 B(  5-C ,  9-O ) :   1.4848

Dispersion correction           -0.009985289
FINAL SINGLE POINT ENERGY      -306.591199209823

DIPOLE MOMENT
-------------
                                X             Y             Z
Electronic contribution:      0.64713       6.47768       2.68032
Nuclear contribution   :     -1.12936      -8.75108      -3.05770
                        -----------------------------------------
Total Dipole Moment    :     -0.48223      -2.27340      -0.37739
                        -----------------------------------------
Magnitude (a.u.)       :      2.35443
Magnitude (Debye)      :      5.98447

Rotational constants in cm-1:     0.189092     0.083831     0.082013
Rotational constants in MHz :  5668.846461  2513.177001  2458.689996

                             ****ORCA TERMINATED NORMALLY****
TOTAL RUN TIME: 0 days 0 hours 0 minutes 5 seconds 919 msec
