                         Program Version 5.0.0 -  RELEASE  -
|  1> !PBE D3BJ RIJCOSX def2-SVPD def2/J TightSCF
|  2> *xyz 1 1
|  3> C         -0.69912        3.48945        3.75516
|  4> H         -0.96672        4.34901        3.14049
|  5> N         -1.08067        3.79296        5.15686
|  6> C          0.77696        3.13839        3.61741
|  7> H         -1.33146        2.65651        3.44632
|  8> H          1.37140        3.88834        4.14974
|  9> H          1.04693        3.23206        2.56133
| 10> C          1.11892        1.73117        4.11516
| 11> H         -0.87449        4.76274        5.42734
| 12> H         -0.68079        3.13476        5.83900
| 13> H         -2.05755        3.53169        5.34620
| 14> H          0.52974        1.01235        3.58499
| 15> H          0.90870        1.66226        5.16204
| 16> H          2.15725        1.53562        3.94624
| 17> *
| 18> %MaxCore 64000
| 19>
| 20> %pal nprocs 4
| 21> end
| 22>
| 23> %scf
| 24>   MaxIter 150
| 25> end
| 26>
| 27>
| 28>                          ****END OF INPUT****

CARTESIAN COORDINATES (ANGSTROEM)
---------------------------------
  C     -0.699120    3.489450    3.755160
  H     -0.966720    4.349010    3.140490
  N     -1.080670    3.792960    5.156860
  C      0.776960    3.138390    3.617410
  H     -1.331460    2.656510    3.446320
  H      1.371400    3.888340    4.149740
  H      1.046930    3.232060    2.561330
  C      1.118920    1.731170    4.115160
  H     -0.874490    4.762740    5.427340
  H     -0.680790    3.134760    5.839000
  H     -2.057550    3.531690    5.346200
  H      0.529740    1.012350    3.584990
  H      0.908700    1.662260    5.162040
  H      2.157250    1.535620    3.946240

 Total Charge           Charge          ....    1
 Multiplicity           Mult            ....    1
 Number of Electrons    NEL             ....   34
 Basis Dimension        Dim             ....  160

ORBITAL ENERGIES
----------------

  NO   OCC          E(Eh)            E(eV)
   0   2.0000     -14.329537      -389.9265
   1   2.0000     -10.142245      -275.9845
   2   2.0000     -10.075574      -274.1703
   3   2.0000     -10.041228      -273.2357
   4   2.0000      -1.126369       -30.6501
   5   2.0000      -0.898795       -24.4574
   6   2.0000      -0.815638       -22.1947
   7   2.0000      -0.760347       -20.6901
   8   2.0000      -0.728463       -19.8225
   9   2.0000      -0.707113       -19.2415
  10   2.0000      -0.645239       -17.5579
  11   2.0000      -0.583517       -15.8783
  12   2.0000      -0.561046       -15.2668
  13   2.0000      -0.540194       -14.6994
  14   2.0000      -0.484218       -13.1762
  15   2.0000      -0.478820       -13.0294
  16   2.0000      -0.471633       -12.8338
  17   0.0000      -0.215408        -5.8615
  18   0.0000      -0.162287        -4.4160
  19   0.0000      -0.158718        -4.3189
  20   0.0000      -0.137712        -3.7473
  21   0.0000      -0.114815        -3.1243

MULLIKEN ATOMIC CHARGES
-----------------------
   0 C :    0.672291
   1 H :   -0.116047
   2 N :   -0.864979
   3 C :   -0.288758
   4 H :   -0.017406
   5 H :   -0.044707
   6 H :   -0.022887
   7 C :    0.772799
   8 H :    0.418506
   9 H :    0.343906
  10 H :    0.363386
  11 H :    0.016089
  12 H :   -0.188500
  13 H :   -0.043694
Sum of atomic charges:    1.0000000

LOEWDIN ATOMIC CHARGES
----------------------
   0 C :    0.083455
   1 H :    0.054034
   2 N :    0.334246
   3 C :   -0.046886
   4 H :    0.053029
   5 H :    0.035635
   6 H :    0.046945
   7 C :    0.151823
   8 H :    0.112758
   9 H :    0.088871
  10 H :    0.105104
  11 H :   -0.001084
  12 H :   -0.024524
  13 H :    0.006594

  Mayer bond orders larger than 0.100000
B(  0-C ,  1-H ) :   0.8675 B(  0-C ,  2-N ) :   0.7099 B(  0-C ,  3-C ) :   1.2147
B(  0-C ,  4-H ) :   0.8588 B(  0-C ,  6-H ) :   0.1080 B(  1-H ,  2-N ) :   0.1321
B(  2-N ,  8-H ) :   0.6667 B(  2-N ,  9-H ) :   0.7438 B(  2-N , 10-H ) :   0.7123
B(  3-C ,  5-H ) :   0.9251 B(  3-C ,  6-H ) :   0.8991 B(  3-C ,  7-C ) :   1.3225
B(  3-C , 11-H ) :   0.1806 B(  3-C , 12-H ) :   0.1964 B(  3-C , 13-H ) :   0.2161
B(  7-C , 11-H ) :   0.7772 B(  7-C , 12-H ) :   0.8141 B(  7-C , 13-H ) :   0.7828

Dispersion correction           -0.009299894
FINAL SINGLE POINT ENERGY      -174.489606480296

DIPOLE MOMENT
-------------
                                X             Y             Z
Electronic contribution:     -1.64788       1.66553       0.71477
Nuclear contribution   :      0.19356      -0.71099       0.46987
                        -----------------------------------------
Total Dipole Moment    :     -1.45432       0.95454       1.18464
                        -----------------------------------------
Magnitude (a.u.)       :      2.10465
Magnitude (Debye)      :      5.34960

Rotational constants in cm-1:     0.465349     0.150671     0.132807
Rotational constants in MHz : 13950.800968  4516.999758  3981.442177

                             ****ORCA TERMINATED NORMALLY****
TOTAL RUN TIME: 0 days 0 hours 0 minutes 4 seconds 860 msec
