                         Program Version 5.0.0 -  RELEASE  -
|  1> !PBE D3BJ RIJCOSX def2-SVPD def2/J TightSCF
|  2> *xyz 0 1
|  3> C         -1.78916       -0.63923        4.55750
|  4> C         -2.79070       -0.78527        5.70281
|  5> H         -2.86731       -1.83565        6.00167
|  6> H         -3.77455       -0.48658        5.33481
|  7> C         -2.45380        0.05510        6.94145
|  8> C         -2.07842        1.48042        6.56410
|  9> H         -1.62558       -0.38216        7.49891
| 10> H         -3.32527        0.08775        7.59917
| 11> F         -0.90125        1.85816        6.82810
| 12> O         -2.93658        2.17731        5.96415
| 13> H         -2.09421       -1.25377        3.73641
| 14> H         -0.81933       -0.94475        4.89064
| 15> H         -1.75281        0.38306        4.24366
| 16> *
| 17> %MaxCore 64000
| 18>
| 19> %pal nprocs 4
| 20> end
| 21>
| 22> %scf
| 23>   MaxIter 150
| 24> end
| 25>
| 26>
| 27>                          ****END OF INPUT****

CARTESIAN COORDINATES (ANGSTROEM)
---------------------------------
  C     -1.789160   -0.639230    4.557500
  C     -2.790700   -0.785270    5.702810
  H     -2.867310   -1.835650    6.001670
  H     -3.774550   -0.486580    5.334810
  C     -2.453800    0.055100    6.941450
  C     -2.078420    1.480420    6.564100
  H     -1.625580   -0.382160    7.498910
  H     -3.325270    0.087750    7.599170
  F     -0.901250    1.858160    6.828100
  O     -2.936580    2.177310    5.964150
  H     -2.094210   -1.253770    3.736410
  H     -0.819330   -0.944750    4.890640
  H     -1.752810    0.383060    4.243660

 Total Charge           Charge          ....    0
 Multiplicity           Mult            ....    1
 Number of Electrons    NEL             ....   48
 Basis Dimension        Dim             ....  182

ORBITAL ENERGIES
----------------

  NO   OCC          E(Eh)            E(eV)
   0   2.0000     -24.342338      -662.3887
   1   2.0000     -18.773102      -510.8421
   2   2.0000     -10.066498      -273.9233
   3   2.0000      -9.926371      -270.1103
   4   2.0000      -9.913768      -269.7673
   5   2.0000      -9.890544      -269.1354
   6   2.0000      -1.198332       -32.6083
   7   2.0000      -0.938339       -25.5335
   8   2.0000      -0.737910       -20.0796
   9   2.0000      -0.657539       -17.8926
  10   2.0000      -0.595856       -16.2141
  11   2.0000      -0.548741       -14.9320
  12   2.0000      -0.489374       -13.3165
  13   2.0000      -0.470256       -12.7963
  14   2.0000      -0.452953       -12.3255
  15   2.0000      -0.418324       -11.3832
  16   2.0000      -0.407686       -11.0937
  17   2.0000      -0.374109       -10.1800
  18   2.0000      -0.355614        -9.6767
  19   2.0000      -0.332953        -9.0601
  20   2.0000      -0.317539        -8.6407
  21   2.0000      -0.309065        -8.4101
  22   2.0000      -0.306050        -8.3280
  23   2.0000      -0.247593        -6.7373
  24   0.0000      -0.073950        -2.0123
  25   0.0000      -0.003097        -0.0843
  26   0.0000       0.025870         0.7039
  27   0.0000       0.029504         0.8028
  28   0.0000       0.039193         1.0665

MULLIKEN ATOMIC CHARGES
-----------------------
   0 C :    0.676245
   1 C :   -0.364688
   2 H :   -0.154389
   3 H :    0.015361
   4 C :    0.119344
   5 C :    0.691261
   6 H :    0.003782
   7 H :    0.009217
   8 F :   -0.334848
   9 O :   -0.503325
  10 H :   -0.082003
  11 H :   -0.034345
  12 H :   -0.041612
Sum of atomic charges:    0.0000000

LOEWDIN ATOMIC CHARGES
----------------------
   0 C :    0.131691
   1 C :   -0.061609
   2 H :    0.025192
   3 H :    0.029169
   4 C :    0.036078
   5 C :   -0.044859
   6 H :    0.023678
   7 H :    0.040325
   8 F :   -0.019551
   9 O :   -0.115456
  10 H :   -0.013501
  11 H :   -0.012316
  12 H :   -0.018843

  Mayer bond orders larger than 0.100000
B(  0-C ,  1-C ) :   1.3962 B(  0-C , 10-H ) :   0.7514 B(  0-C , 11-H ) :   0.7865
B(  0-C , 12-H ) :   0.8236 B(  1-C ,  2-H ) :   0.9593 B(  1-C ,  3-H ) :   0.8780
B(  1-C ,  4-C ) :   1.2429 B(  1-C ,  6-H ) :   0.1445 B(  1-C ,  7-H ) :   0.1306
B(  1-C , 10-H ) :   0.2190 B(  1-C , 11-H ) :   0.1972 B(  1-C , 12-H ) :   0.2081
B(  3-H ,  4-C ) :   0.1088 B(  4-C ,  5-C ) :   1.0992 B(  4-C ,  6-H ) :   0.8684
B(  4-C ,  7-H ) :   0.8109 B(  5-C ,  6-H ) :   0.1097 B(  5-C ,  8-F ) :   0.7280
B(  5-C ,  9-O ) :   1.7779 B(  8-F ,  9-O ) :   0.1150

Dispersion correction           -0.009595485
FINAL SINGLE POINT ENERGY      -331.108827977482

DIPOLE MOMENT
-------------
                                X             Y             Z
Electronic contribution:      2.79561       8.99591       4.26116
Nuclear contribution   :     -2.53960     -10.05333      -3.90042
                        -----------------------------------------
Total Dipole Moment    :      0.25601      -1.05742       0.36074
                        -----------------------------------------
Magnitude (a.u.)       :      1.14622
Magnitude (Debye)      :      2.91346

Rotational constants in cm-1:     0.183043     0.080991     0.078218
Rotational constants in MHz :  5487.486217  2428.040459  2344.904824

                             ****ORCA TERMINATED NORMALLY****
TOTAL RUN TIME: 0 days 0 hours 0 minutes 6 seconds 258 msec
