                         Program Version 5.0.0 -  RELEASE  -
|  1> !PBE D3BJ RIJCOSX def2-SVPD def2/J TightSCF
|  2> *xyz 0 1
|  3> C         -0.69912        3.48945        3.75516
|  4> H         -0.96672        4.34901        3.14049
|  5> C         -1.08067        3.79296        5.15686
|  6> C          0.77696        3.13839        3.61741
|  7> H         -1.33146        2.65651        3.44632
|  8> H          1.37140        3.88834        4.14974
|  9> H          1.04693        3.23206        2.56133
| 10> C          1.11892        1.73117        4.11516
| 11> H         -0.87449        4.76274        5.42734
| 12> H         -0.68079        3.13476        5.83900
| 13> H         -2.05755        3.53169        5.34620
| 14> H          0.52974        1.01235        3.58499
| 15> H          0.90870        1.66226        5.16204
| 16> H          2.15725        1.53562        3.94624
| 17> *
| 18> %MaxCore 64000
| 19>
| 20> %pal nprocs 4
| 21> end
| 22>
| 23> %scf
| 24>   MaxIter 150
| 25> end
| 26>
| 27>
| 28>                          ****END OF INPUT****

CARTESIAN COORDINATES (ANGSTROEM)
---------------------------------
  C     -0.699120    3.489450    3.755160
  H     -0.966720    4.349010    3.140490
  C     -1.080670    3.792960    5.156860
  C      0.776960    3.138390    3.617410
  H     -1.331460    2.656510    3.446320
  H      1.371400    3.888340    4.149740
  H      1.046930    3.232060    2.561330
  C      1.118920    1.731170    4.115160
  H     -0.874490    4.762740    5.427340
  H     -0.680790    3.134760    5.839000
  H     -2.057550    3.531690    5.346200
  H      0.529740    1.012350    3.584990
  H      0.908700    1.662260    5.162040
  H      2.157250    1.535620    3.946240

 Total Charge           Charge          ....    0
 Multiplicity           Mult            ....    1
 Number of Electrons    NEL             ....   34
 Basis Dimension        Dim             ....  160

ORBITAL ENERGIES
----------------

  NO   OCC          E(Eh)            E(eV)
   0   2.0000      -9.886368      -269.0218
   1   2.0000      -9.882482      -268.9160
   2   2.0000      -9.876400      -268.7505
   3   2.0000      -9.858300      -268.2580
   4   2.0000      -0.722827       -19.6691
   5   2.0000      -0.655277       -17.8310
   6   2.0000      -0.575750       -15.6670
   7   2.0000      -0.507196       -13.8015
   8   2.0000      -0.418898       -11.3988
   9   2.0000      -0.410038       -11.1577
  10   2.0000      -0.381327       -10.3764
  11   2.0000      -0.343858        -9.3568
  12   2.0000      -0.334897        -9.1130
  13   2.0000      -0.321062        -8.7365
  14   2.0000      -0.283446        -7.7130
  15   2.0000      -0.280818        -7.6415
  16   2.0000      -0.276769        -7.5313
  17   0.0000       0.008390         0.2283
  18   0.0000       0.034779         0.9464
  19   0.0000       0.036034         0.9805
  20   0.0000       0.042429         1.1545
  21   0.0000       0.075994         2.0679

MULLIKEN ATOMIC CHARGES
-----------------------
   0 C :   -0.201734
   1 H :   -0.163106
   2 C :    1.120908
   3 C :   -0.274207
   4 H :    0.006568
   5 H :   -0.088627
   6 H :   -0.095412
   7 C :    0.751782
   8 H :   -0.143270
   9 H :   -0.478821
  10 H :   -0.192529
  11 H :    0.023059
  12 H :   -0.201604
  13 H :   -0.063008
Sum of atomic charges:    0.0000000

LOEWDIN ATOMIC CHARGES
----------------------
   0 C :   -0.078633
   1 H :    0.022080
   2 C :    0.120433
   3 C :   -0.082455
   4 H :    0.023028
   5 H :    0.023708
   6 H :    0.015142
   7 C :    0.125119
   8 H :   -0.024149
   9 H :   -0.044178
  10 H :   -0.033999
  11 H :   -0.017354
  12 H :   -0.028625
  13 H :   -0.020115

  Mayer bond orders larger than 0.100000
B(  0-C ,  1-H ) :   0.9336 B(  0-C ,  2-C ) :   1.2654 B(  0-C ,  3-C ) :   1.2153
B(  0-C ,  4-H ) :   0.8467 B(  0-C ,  5-H ) :   0.1365 B(  0-C ,  6-H ) :   0.1013
B(  0-C ,  8-H ) :   0.2078 B(  0-C ,  9-H ) :   0.2707 B(  0-C , 10-H ) :   0.2205
B(  1-H ,  3-C ) :   0.1174 B(  2-C ,  4-H ) :   0.1338 B(  2-C ,  8-H ) :   0.7281
B(  2-C ,  9-H ) :   0.5225 B(  2-C , 10-H ) :   0.5465 B(  3-C ,  5-H ) :   0.9115
B(  3-C ,  6-H ) :   0.9280 B(  3-C ,  7-C ) :   1.3009 B(  3-C , 11-H ) :   0.2145
B(  3-C , 12-H ) :   0.2144 B(  3-C , 13-H ) :   0.2185 B(  7-C , 11-H ) :   0.7607
B(  7-C , 12-H ) :   0.8345 B(  7-C , 13-H ) :   0.7628 B(  9-H , 10-H ) :   0.3545

Dispersion correction           -0.009310226
FINAL SINGLE POINT ENERGY      -158.093024975279

DIPOLE MOMENT
-------------
                                X             Y             Z
Electronic contribution:      0.12334       0.47278      -0.75956
Nuclear contribution   :     -0.14518      -0.47660       0.76944
                        -----------------------------------------
Total Dipole Moment    :     -0.02184      -0.00381       0.00987
                        -----------------------------------------
Magnitude (a.u.)       :      0.02427
Magnitude (Debye)      :      0.06170

Rotational constants in cm-1:     0.472466     0.157481     0.138592
Rotational constants in MHz : 14164.171374  4721.163669  4154.874787

                             ****ORCA TERMINATED NORMALLY****
TOTAL RUN TIME: 0 days 0 hours 0 minutes 4 seconds 940 msec
