                         Program Version 5.0.0 -  RELEASE  -
|  1> !LC-PBE RIJCOSX def2-SVPD def2/J TightSCF
|  2> *xyz -1 1
|  3> C         -1.10433        0.25137       -2.86006
|  4> C         -0.71189        0.84252       -4.21834
|  5> H          0.15463        1.49980       -4.13091
|  6> H         -1.53813        1.45922       -4.58267
|  7> C         -0.39762       -0.20587       -5.28802
|  8> O          0.61717       -0.00535       -5.99827
|  9> O         -1.13317       -1.22138       -5.34147
| 10> C         -0.19626       -0.86337       -2.32576
| 11> H         -1.14384        1.06671       -2.12968
| 12> H         -2.11440       -0.15683       -2.93032
| 13> H         -0.15538       -1.66172       -3.03700
| 14> H         -0.58845       -1.22999       -1.40020
| 15> H          0.78852       -0.47602       -2.16737
| 16> *
| 17>
| 18> %MaxCore 64000
| 19>
| 20> %pal nprocs 4
| 21> end
| 22>
| 23> %scf
| 24>   MaxIter 150
| 25> end
| 26>
| 27>
| 28>                          ****END OF INPUT****

CARTESIAN COORDINATES (ANGSTROEM)
---------------------------------
  C     -1.104330    0.251370   -2.860060
  C     -0.711890    0.842520   -4.218340
  H      0.154630    1.499800   -4.130910
  H     -1.538130    1.459220   -4.582670
  C     -0.397620   -0.205870   -5.288020
  O      0.617170   -0.005350   -5.998270
  O     -1.133170   -1.221380   -5.341470
  C     -0.196260   -0.863370   -2.325760
  H     -1.143840    1.066710   -2.129680
  H     -2.114400   -0.156830   -2.930320
  H     -0.155380   -1.661720   -3.037000
  H     -0.588450   -1.229990   -1.400200
  H      0.788520   -0.476020   -2.167370

 Total Charge           Charge          ....   -1
 Multiplicity           Mult            ....    1
 Number of Electrons    NEL             ....   48
 Basis Dimension        Dim             ....  182

ORBITAL ENERGIES
----------------

  NO   OCC          E(Eh)            E(eV)
   0   2.0000     -18.730857      -509.6925
   1   2.0000     -18.729809      -509.6640
   2   2.0000     -10.021744      -272.7055
   3   2.0000      -9.980869      -271.5932
   4   2.0000      -9.968432      -271.2548
   5   2.0000      -9.956551      -270.9315
   6   2.0000      -0.985143       -26.8071
   7   2.0000      -0.881464       -23.9859
   8   2.0000      -0.809178       -22.0189
   9   2.0000      -0.708398       -19.2765
  10   2.0000      -0.602051       -16.3826
  11   2.0000      -0.474820       -12.9205
  12   2.0000      -0.451406       -12.2834
  13   2.0000      -0.435372       -11.8471
  14   2.0000      -0.398624       -10.8471
  15   2.0000      -0.378829       -10.3085
  16   2.0000      -0.355084        -9.6623
  17   2.0000      -0.345537        -9.4025
  18   2.0000      -0.328985        -8.9521
  19   2.0000      -0.309271        -8.4157
  20   2.0000      -0.298277        -8.1165
  21   2.0000      -0.182579        -4.9682
  22   2.0000      -0.177477        -4.8294
  23   2.0000      -0.167652        -4.5621
  24   0.0000       0.213903         5.8206
  25   0.0000       0.236174         6.4266
  26   0.0000       0.253771         6.9055
  27   0.0000       0.263133         7.1602
  28   0.0000       0.289570         7.8796

MULLIKEN ATOMIC CHARGES
-----------------------
   0 C :   -0.522980
   1 C :   -0.009273
   2 H :    0.077457
   3 H :    0.043544
   4 C :    0.267108
   5 O :   -0.633655
   6 O :   -0.673353
   7 C :    0.428973
   8 H :   -0.081267
   9 H :    0.071242
  10 H :   -0.002965
  11 H :    0.007515
  12 H :    0.027653
Sum of atomic charges:   -1.0000000

LOEWDIN ATOMIC CHARGES
----------------------
   0 C :   -0.112989
   1 C :   -0.026066
   2 H :    0.016346
   3 H :    0.025466
   4 C :   -0.326519
   5 O :   -0.323098
   6 O :   -0.313476
   7 C :    0.083678
   8 H :    0.010226
   9 H :    0.021737
  10 H :   -0.017228
  11 H :   -0.024429
  12 H :   -0.013648

  Mayer bond orders larger than 0.100000
B(  0-C ,  1-C ) :   1.2057 B(  0-C ,  2-H ) :   0.1144 B(  0-C ,  3-H ) :   0.1042
B(  0-C ,  7-C ) :   1.3340 B(  0-C ,  8-H ) :   0.9975 B(  0-C ,  9-H ) :   0.9183
B(  0-C , 10-H ) :   0.1743 B(  0-C , 11-H ) :   0.1800 B(  0-C , 12-H ) :   0.1607
B(  1-C ,  2-H ) :   0.8977 B(  1-C ,  3-H ) :   0.8617 B(  1-C ,  4-C ) :   1.0259
B(  2-H ,  4-C ) :   0.1779 B(  4-C ,  5-O ) :   1.5272 B(  4-C ,  6-O ) :   1.6088
B(  7-C , 10-H ) :   0.8854 B(  7-C , 11-H ) :   0.7913 B(  7-C , 12-H ) :   0.8314

FINAL SINGLE POINT ENERGY      -306.024735535798

DIPOLE MOMENT
-------------
                                X             Y             Z
Electronic contribution:      0.63899      -0.96770      -7.04530
Nuclear contribution   :     -1.15173       1.87787       9.37659
                        -----------------------------------------
Total Dipole Moment    :     -0.51274       0.91017       2.33129
                        -----------------------------------------
Magnitude (a.u.)       :      2.55465
Magnitude (Debye)      :      6.49339

Rotational constants in cm-1:     0.203160     0.081703     0.075834
Rotational constants in MHz :  6090.598467  2449.397428  2273.436534

                             ****ORCA TERMINATED NORMALLY****
TOTAL RUN TIME: 0 days 0 hours 0 minutes 18 seconds 437 msec
