                         Program Version 5.0.0 -  RELEASE  -
|  1> !LC-PBE RIJCOSX def2-SVPD def2/J TightSCF
|  2> *xyz 1 1
|  3> C          2.23447       -2.98975       -2.39762
|  4> N          2.75680       -2.94555       -3.76503
|  5> C          1.98721       -2.59045       -4.81898
|  6> N          0.74322       -3.01749       -4.91352
|  7> N          2.49964       -1.84860       -5.80324
|  8> H          3.30978       -1.29282       -5.55895
|  9> H          1.80103       -1.30430       -6.28913
| 10> H          3.71612       -2.62880       -3.82953
| 11> H          0.39583       -3.62775       -4.18502
| 12> H          0.03920       -2.45438       -5.37137
| 13> C          2.19120       -1.61950       -1.71549
| 14> H          2.87278       -3.66637       -1.82801
| 15> H          1.24619       -3.44744       -2.40784
| 16> C          1.29873       -0.55431       -2.35977
| 17> H          1.87292       -1.78796       -0.68131
| 18> H          3.21681       -1.23843       -1.65443
| 19> H          1.61097       -0.39090       -3.37007
| 20> H          1.37981        0.35955       -1.80916
| 21> H          0.28197       -0.88750       -2.35015
| 22> *
| 23>
| 24> %MaxCore 64000
| 25>
| 26> %pal nprocs 4
| 27> end
| 28>
| 29> %scf
| 30>   MaxIter 150
| 31> end
| 32>
| 33>
| 34>                          ****END OF INPUT****

CARTESIAN COORDINATES (ANGSTROEM)
---------------------------------
  C      2.234470   -2.989750   -2.397620
  N      2.756800   -2.945550   -3.765030
  C      1.987210   -2.590450   -4.818980
  N      0.743220   -3.017490   -4.913520
  N      2.499640   -1.848600   -5.803240
  H      3.309780   -1.292820   -5.558950
  H      1.801030   -1.304300   -6.289130
  H      3.716120   -2.628800   -3.829530
  H      0.395830   -3.627750   -4.185020
  H      0.039200   -2.454380   -5.371370
  C      2.191200   -1.619500   -1.715490
  H      2.872780   -3.666370   -1.828010
  H      1.246190   -3.447440   -2.407840
  C      1.298730   -0.554310   -2.359770
  H      1.872920   -1.787960   -0.681310
  H      3.216810   -1.238430   -1.654430
  H      1.610970   -0.390900   -3.370070
  H      1.379810    0.359550   -1.809160
  H      0.281970   -0.887500   -2.350150

 Total Charge           Charge          ....    1
 Multiplicity           Mult            ....    1
 Number of Electrons    NEL             ....   56
 Basis Dimension        Dim             ....  236

ORBITAL ENERGIES
----------------

  NO   OCC          E(Eh)            E(eV)
   0   2.0000     -14.459058      -393.4510
   1   2.0000     -14.455596      -393.3568
   2   2.0000     -14.454467      -393.3260
   3   2.0000     -10.477809      -285.1157
   4   2.0000     -10.334490      -281.2158
   5   2.0000     -10.277378      -279.6617
   6   2.0000     -10.256276      -279.0875
   7   2.0000      -1.394059       -37.9343
   8   2.0000      -1.271655       -34.6035
   9   2.0000      -1.264034       -34.3961
  10   2.0000      -1.112875       -30.2829
  11   2.0000      -1.033402       -28.1203
  12   2.0000      -0.982141       -26.7254
  13   2.0000      -0.940038       -25.5797
  14   2.0000      -0.923583       -25.1320
  15   2.0000      -0.882251       -24.0073
  16   2.0000      -0.847250       -23.0548
  17   2.0000      -0.825882       -22.4734
  18   2.0000      -0.799032       -21.7428
  19   2.0000      -0.770988       -20.9796
  20   2.0000      -0.742240       -20.1974
  21   2.0000      -0.730630       -19.8815
  22   2.0000      -0.696442       -18.9512
  23   2.0000      -0.656283       -17.8584
  24   2.0000      -0.627862       -17.0850
  25   2.0000      -0.625595       -17.0233
  26   2.0000      -0.612571       -16.6689
  27   2.0000      -0.574568       -15.6348
  28   0.0000      -0.104320        -2.8387
  29   0.0000      -0.070677        -1.9232
  30   0.0000      -0.044790        -1.2188
  31   0.0000      -0.034118        -0.9284
  32   0.0000      -0.011705        -0.3185

MULLIKEN ATOMIC CHARGES
-----------------------
   0 C :    0.522805
   1 N :   -0.433581
   2 C :    0.901689
   3 N :   -0.018927
   4 N :   -0.112318
   5 H :    0.060214
   6 H :    0.086656
   7 H :   -0.084524
   8 H :    0.061051
   9 H :    0.025749
  10 C :   -0.466090
  11 H :   -0.133168
  12 H :   -0.019101
  13 C :    0.566579
  14 H :    0.060797
  15 H :    0.040744
  16 H :   -0.141042
  17 H :    0.019586
  18 H :    0.062880
Sum of atomic charges:    1.0000000

LOEWDIN ATOMIC CHARGES
----------------------
   0 C :    0.048502
   1 N :    0.050366
   2 C :   -0.060809
   3 N :    0.272973
   4 N :    0.257911
   5 H :    0.043841
   6 H :    0.043967
   7 H :    0.061057
   8 H :    0.034414
   9 H :    0.057828
  10 C :   -0.069989
  11 H :    0.052051
  12 H :    0.028959
  13 C :    0.108314
  14 H :    0.050110
  15 H :    0.040242
  16 H :   -0.029996
  17 H :    0.010099
  18 H :    0.000160

  Mayer bond orders larger than 0.100000
B(  0-C ,  1-N ) :   0.9413 B(  0-C , 10-C ) :   1.1424 B(  0-C , 11-H ) :   0.9370
B(  0-C , 12-H ) :   0.8195 B(  0-C , 14-H ) :   0.1135 B(  1-N ,  2-C ) :   1.0972
B(  1-N ,  4-N ) :   0.1406 B(  1-N ,  7-H ) :   1.1736 B(  1-N , 11-H ) :   0.1637
B(  1-N , 12-H ) :   0.1144 B(  2-C ,  3-N ) :   1.0512 B(  2-C ,  4-N ) :   0.9760
B(  2-C ,  7-H ) :  -0.1571 B(  3-N ,  4-N ) :   0.1285 B(  3-N ,  8-H ) :   0.9648
B(  3-N ,  9-H ) :   1.1626 B(  4-N ,  5-H ) :   0.9866 B(  4-N ,  6-H ) :   0.9784
B(  8-H ,  9-H ) :  -0.1466 B( 10-C , 12-H ) :   0.1226 B( 10-C , 13-C ) :   1.2895
B( 10-C , 14-H ) :   0.9457 B( 10-C , 15-H ) :   0.9614 B( 10-C , 16-H ) :   0.1899
B( 10-C , 17-H ) :   0.1655 B( 10-C , 18-H ) :   0.1921 B( 13-C , 16-H ) :   0.8616
B( 13-C , 17-H ) :   0.8322 B( 13-C , 18-H ) :   0.7744 B( 16-H , 18-H ) :   0.1190

FINAL SINGLE POINT ENERGY      -322.450958277143

DIPOLE MOMENT
-------------
                                X             Y             Z
Electronic contribution:      1.22785      -3.55217      -5.58012
Nuclear contribution   :     -1.48325       3.81474       4.74728
                        -----------------------------------------
Total Dipole Moment    :     -0.25540       0.26257      -0.83284
                        -----------------------------------------
Magnitude (a.u.)       :      0.90983
Magnitude (Debye)      :      2.31261

Rotational constants in cm-1:     0.127669     0.058023     0.053953
Rotational constants in MHz :  3827.411023  1739.493733  1617.466565

                             ****ORCA TERMINATED NORMALLY****
TOTAL RUN TIME: 0 days 0 hours 0 minutes 35 seconds 467 msec
