                         Program Version 5.0.0 -  RELEASE  -
|  1> !LC-PBE RIJCOSX def2-SVPD def2/J TightSCF
|  2> *xyz 0 1
|  3> C         -1.10433        0.25137       -2.86006
|  4> C         -0.71189        0.84252       -4.21834
|  5> H          0.15463        1.49980       -4.13091
|  6> H         -1.53813        1.45922       -4.58267
|  7> C         -0.39762       -0.20587       -5.28802
|  8> F          0.61717       -0.00535       -5.99827
|  9> O         -1.13317       -1.22138       -5.34147
| 10> C         -0.19626       -0.86337       -2.32576
| 11> H         -1.14384        1.06671       -2.12968
| 12> H         -2.11440       -0.15683       -2.93032
| 13> H         -0.15538       -1.66172       -3.03700
| 14> H         -0.58845       -1.22999       -1.40020
| 15> H          0.78852       -0.47602       -2.16737
| 16> *
| 17>
| 18> %MaxCore 64000
| 19>
| 20> %pal nprocs 4
| 21> end
| 22>
| 23> %scf
| 24>   MaxIter 150
| 25> end
| 26>
| 27>
| 28>                          ****END OF INPUT****

CARTESIAN COORDINATES (ANGSTROEM)
---------------------------------
  C     -1.104330    0.251370   -2.860060
  C     -0.711890    0.842520   -4.218340
  H      0.154630    1.499800   -4.130910
  H     -1.538130    1.459220   -4.582670
  C     -0.397620   -0.205870   -5.288020
  F      0.617170   -0.005350   -5.998270
  O     -1.133170   -1.221380   -5.341470
  C     -0.196260   -0.863370   -2.325760
  H     -1.143840    1.066710   -2.129680
  H     -2.114400   -0.156830   -2.930320
  H     -0.155380   -1.661720   -3.037000
  H     -0.588450   -1.229990   -1.400200
  H      0.788520   -0.476020   -2.167370

 Total Charge           Charge          ....    0
 Multiplicity           Mult            ....    1
 Number of Electrons    NEL             ....   48
 Basis Dimension        Dim             ....  182

ORBITAL ENERGIES
----------------

  NO   OCC          E(Eh)            E(eV)
   0   2.0000     -24.582632      -668.9274
   1   2.0000     -19.004835      -517.1479
   2   2.0000     -10.320558      -280.8367
   3   2.0000     -10.162135      -276.5258
   4   2.0000     -10.142856      -276.0011
   5   2.0000     -10.115747      -275.2635
   6   2.0000      -1.469026       -39.9742
   7   2.0000      -1.194905       -32.5150
   8   2.0000      -0.987223       -26.8637
   9   2.0000      -0.897569       -24.4241
  10   2.0000      -0.822091       -22.3702
  11   2.0000      -0.769524       -20.9398
  12   2.0000      -0.711401       -19.3582
  13   2.0000      -0.688228       -18.7276
  14   2.0000      -0.661347       -17.9962
  15   2.0000      -0.614039       -16.7089
  16   2.0000      -0.601257       -16.3610
  17   2.0000      -0.558329       -15.1929
  18   2.0000      -0.545290       -14.8381
  19   2.0000      -0.506878       -13.7929
  20   2.0000      -0.489123       -13.3097
  21   2.0000      -0.482578       -13.1316
  22   2.0000      -0.472516       -12.8578
  23   2.0000      -0.434052       -11.8112
  24   0.0000       0.062182         1.6921
  25   0.0000       0.083563         2.2739
  26   0.0000       0.109249         2.9728
  27   0.0000       0.114910         3.1269
  28   0.0000       0.129386         3.5208

MULLIKEN ATOMIC CHARGES
-----------------------
   0 C :   -0.500293
   1 C :   -0.123672
   2 H :    0.130967
   3 H :    0.125453
   4 C :    0.614827
   5 F :   -0.315903
   6 O :   -0.469775
   7 C :    0.433907
   8 H :   -0.036598
   9 H :    0.088816
  10 H :   -0.024958
  11 H :    0.038312
  12 H :    0.038918
Sum of atomic charges:   -0.0000000

LOEWDIN ATOMIC CHARGES
----------------------
   0 C :   -0.085036
   1 C :    0.016213
   2 H :    0.038006
   3 H :    0.053527
   4 C :   -0.025168
   5 F :   -0.020242
   6 O :   -0.127850
   7 C :    0.101449
   8 H :    0.035160
   9 H :    0.037266
  10 H :   -0.016207
  11 H :   -0.002893
  12 H :   -0.004224

  Mayer bond orders larger than 0.100000
B(  0-C ,  1-C ) :   1.2438 B(  0-C ,  2-H ) :   0.1134 B(  0-C ,  3-H ) :   0.1066
B(  0-C ,  7-C ) :   1.3541 B(  0-C ,  8-H ) :   0.9875 B(  0-C ,  9-H ) :   0.9182
B(  0-C , 10-H ) :   0.1589 B(  0-C , 11-H ) :   0.1688 B(  0-C , 12-H ) :   0.1532
B(  1-C ,  2-H ) :   0.8888 B(  1-C ,  3-H ) :   0.8471 B(  1-C ,  4-C ) :   1.0996
B(  4-C ,  5-F ) :   0.8004 B(  4-C ,  6-O ) :   1.9092 B(  7-C , 10-H ) :   0.8882
B(  7-C , 11-H ) :   0.8007 B(  7-C , 12-H ) :   0.8345

FINAL SINGLE POINT ENERGY      -330.528868273578

DIPOLE MOMENT
-------------
                                X             Y             Z
Electronic contribution:      2.61540      -0.63000     -10.65762
Nuclear contribution   :     -2.39146       1.63977      11.24418
                        -----------------------------------------
Total Dipole Moment    :      0.22395       1.00977       0.58655
                        -----------------------------------------
Magnitude (a.u.)       :      1.18904
Magnitude (Debye)      :      3.02231

Rotational constants in cm-1:     0.198868     0.077542     0.072498
Rotational constants in MHz :  5961.919605  2324.650173  2173.425242

                             ****ORCA TERMINATED NORMALLY****
TOTAL RUN TIME: 0 days 0 hours 0 minutes 21 seconds 335 msec
