                         Program Version 5.0.0 -  RELEASE  -
|  1> !LC-PBE RIJCOSX def2-SVPD def2/J TightSCF
|  2> *xyz 0 1
|  3> C          2.23447       -2.98975       -2.39762
|  4> C          2.75680       -2.94555       -3.76503
|  5> C          1.98721       -2.59045       -4.81898
|  6> N          0.74322       -3.01749       -4.91352
|  7> N          2.49964       -1.84860       -5.80324
|  8> H          3.30978       -1.29282       -5.55895
|  9> H          1.80103       -1.30430       -6.28913
| 10> H          3.71612       -2.62880       -3.82953
| 11> H          0.39583       -3.62775       -4.18502
| 12> H          0.03920       -2.45438       -5.37137
| 13> C          2.19120       -1.61950       -1.71549
| 14> H          2.87278       -3.66637       -1.82801
| 15> H          1.24619       -3.44744       -2.40784
| 16> C          1.29873       -0.55431       -2.35977
| 17> H          1.87292       -1.78796       -0.68131
| 18> H          3.21681       -1.23843       -1.65443
| 19> H          1.61097       -0.39090       -3.37007
| 20> H          1.37981        0.35955       -1.80916
| 21> H          0.28197       -0.88750       -2.35015
| 22> *
| 23>
| 24> %MaxCore 64000
| 25>
| 26> %pal nprocs 4
| 27> end
| 28>
| 29> %scf
| 30>   MaxIter 150
| 31> end
| 32>
| 33>
| 34>                          ****END OF INPUT****

CARTESIAN COORDINATES (ANGSTROEM)
---------------------------------
  C      2.234470   -2.989750   -2.397620
  C      2.756800   -2.945550   -3.765030
  C      1.987210   -2.590450   -4.818980
  N      0.743220   -3.017490   -4.913520
  N      2.499640   -1.848600   -5.803240
  H      3.309780   -1.292820   -5.558950
  H      1.801030   -1.304300   -6.289130
  H      3.716120   -2.628800   -3.829530
  H      0.395830   -3.627750   -4.185020
  H      0.039200   -2.454380   -5.371370
  C      2.191200   -1.619500   -1.715490
  H      2.872780   -3.666370   -1.828010
  H      1.246190   -3.447440   -2.407840
  C      1.298730   -0.554310   -2.359770
  H      1.872920   -1.787960   -0.681310
  H      3.216810   -1.238430   -1.654430
  H      1.610970   -0.390900   -3.370070
  H      1.379810    0.359550   -1.809160
  H      0.281970   -0.887500   -2.350150

 Total Charge           Charge          ....    0
 Multiplicity           Mult            ....    1
 Number of Electrons    NEL             ....   56
 Basis Dimension        Dim             ....  236

ORBITAL ENERGIES
----------------

  NO   OCC          E(Eh)            E(eV)
   0   2.0000     -14.236378      -387.3915
   1   2.0000     -14.232862      -387.2959
   2   2.0000     -10.183960      -277.1196
   3   2.0000     -10.110186      -275.1121
   4   2.0000     -10.105441      -274.9830
   5   2.0000     -10.102555      -274.9045
   6   2.0000     -10.053909      -273.5808
   7   2.0000      -1.143066       -31.1044
   8   2.0000      -1.041463       -28.3396
   9   2.0000      -0.962416       -26.1887
  10   2.0000      -0.889729       -24.2108
  11   2.0000      -0.822816       -22.3900
  12   2.0000      -0.756049       -20.5731
  13   2.0000      -0.722496       -19.6601
  14   2.0000      -0.693956       -18.8835
  15   2.0000      -0.656403       -17.8616
  16   2.0000      -0.612201       -16.6588
  17   2.0000      -0.598459       -16.2849
  18   2.0000      -0.585488       -15.9319
  19   2.0000      -0.554243       -15.0817
  20   2.0000      -0.531961       -14.4754
  21   2.0000      -0.514616       -14.0034
  22   2.0000      -0.485998       -13.2247
  23   2.0000      -0.471224       -12.8226
  24   2.0000      -0.445516       -12.1231
  25   2.0000      -0.439567       -11.9612
  26   2.0000      -0.411594       -11.2001
  27   2.0000      -0.278142        -7.5686
  28   0.0000       0.081278         2.2117
  29   0.0000       0.111986         3.0473
  30   0.0000       0.112531         3.0621
  31   0.0000       0.121724         3.3123
  32   0.0000       0.134504         3.6600

MULLIKEN ATOMIC CHARGES
-----------------------
   0 C :   -0.002237
   1 C :   -0.141020
   2 C :    0.208613
   3 N :   -0.030208
   4 N :   -0.089735
   5 H :    0.096467
   6 H :    0.064088
   7 H :   -0.116265
   8 H :    0.048973
   9 H :   -0.063726
  10 C :   -0.427106
  11 H :    0.026537
  12 H :   -0.100373
  13 C :    0.600647
  14 H :   -0.015815
  15 H :    0.008583
  16 H :   -0.094660
  17 H :   -0.028106
  18 H :    0.055345
Sum of atomic charges:   -0.0000000

LOEWDIN ATOMIC CHARGES
----------------------
   0 C :   -0.094045
   1 C :   -0.037124
   2 C :   -0.257485
   3 N :    0.187192
   4 N :    0.177580
   5 H :    0.012469
   6 H :   -0.000334
   7 H :   -0.043470
   8 H :    0.005399
   9 H :    0.010706
  10 C :   -0.094800
  11 H :    0.024240
  12 H :    0.006921
  13 C :    0.093498
  14 H :    0.025927
  15 H :    0.030760
  16 H :   -0.026821
  17 H :   -0.010970
  18 H :   -0.009642

  Mayer bond orders larger than 0.100000
B(  0-C ,  1-C ) :   1.2560 B(  0-C ,  2-C ) :   0.1307 B(  0-C ,  7-H ) :   0.2797
B(  0-C , 10-C ) :   1.1800 B(  0-C , 11-H ) :   0.8545 B(  0-C , 12-H ) :   0.8598
B(  0-C , 14-H ) :   0.1633 B(  0-C , 15-H ) :   0.1389 B(  1-C ,  2-C ) :   1.8570
B(  1-C ,  3-N ) :   0.1219 B(  1-C ,  4-N ) :   0.2331 B(  1-C ,  7-H ) :   0.6972
B(  1-C , 11-H ) :   0.1659 B(  1-C , 12-H ) :   0.1692 B(  2-C ,  3-N ) :   1.0392
B(  2-C ,  4-N ) :   0.9504 B(  2-C ,  6-H ) :   0.1089 B(  2-C ,  7-H ) :   0.2548
B(  3-N ,  4-N ) :   0.1016 B(  3-N ,  8-H ) :   0.9757 B(  3-N ,  9-H ) :   1.1688
B(  4-N ,  5-H ) :   0.9285 B(  4-N ,  6-H ) :   0.8555 B(  8-H ,  9-H ) :  -0.1324
B( 10-C , 12-H ) :   0.1205 B( 10-C , 13-C ) :   1.2977 B( 10-C , 14-H ) :   0.9302
B( 10-C , 15-H ) :   0.9557 B( 10-C , 16-H ) :   0.2058 B( 10-C , 17-H ) :   0.1854
B( 10-C , 18-H ) :   0.1834 B( 13-C , 16-H ) :   0.8576 B( 13-C , 17-H ) :   0.8033
B( 13-C , 18-H ) :   0.7798 B( 16-H , 18-H ) :   0.1192

FINAL SINGLE POINT ENERGY      -306.002489872891

DIPOLE MOMENT
-------------
                                X             Y             Z
Electronic contribution:      0.55971      -2.81835      -4.99462
Nuclear contribution   :     -1.30515       3.65216       4.73330
                        -----------------------------------------
Total Dipole Moment    :     -0.74545       0.83381      -0.26132
                        -----------------------------------------
Magnitude (a.u.)       :      1.14857
Magnitude (Debye)      :      2.91943

Rotational constants in cm-1:     0.129987     0.058163     0.054282
Rotational constants in MHz :  3896.918182  1743.696851  1627.337267

                             ****ORCA TERMINATED NORMALLY****
TOTAL RUN TIME: 0 days 0 hours 0 minutes 39 seconds 685 msec
