                         Program Version 5.0.0 -  RELEASE  -
|  1> !LC-PBE RIJCOSX def2-SVPD def2/J TightSCF
|  2> *xyz 0 1
|  3> C         -1.10433        0.25137       -2.86006
|  4> C         -0.71189        0.84252       -4.21834
|  5> H          0.15463        1.49980       -4.13091
|  6> H         -1.53813        1.45922       -4.58267
|  7> C         -0.39762       -0.20587       -5.28802
|  8> O          0.61717       -0.00535       -5.99827
|  9> F         -1.13317       -1.22138       -5.34147
| 10> C         -0.19626       -0.86337       -2.32576
| 11> H         -1.14384        1.06671       -2.12968
| 12> H         -2.11440       -0.15683       -2.93032
| 13> H         -0.15538       -1.66172       -3.03700
| 14> H         -0.58845       -1.22999       -1.40020
| 15> H          0.78852       -0.47602       -2.16737
| 16> *
| 17>
| 18> %MaxCore 64000
| 19>
| 20> %pal nprocs 4
| 21> end
| 22>
| 23> %scf
| 24>   MaxIter 150
| 25> end
| 26>
| 27>
| 28>                          ****END OF INPUT****

CARTESIAN COORDINATES (ANGSTROEM)
---------------------------------
  C     -1.104330    0.251370   -2.860060
  C     -0.711890    0.842520   -4.218340
  H      0.154630    1.499800   -4.130910
  H     -1.538130    1.459220   -4.582670
  C     -0.397620   -0.205870   -5.288020
  O      0.617170   -0.005350   -5.998270
  F     -1.133170   -1.221380   -5.341470
  C     -0.196260   -0.863370   -2.325760
  H     -1.143840    1.066710   -2.129680
  H     -2.114400   -0.156830   -2.930320
  H     -0.155380   -1.661720   -3.037000
  H     -0.588450   -1.229990   -1.400200
  H      0.788520   -0.476020   -2.167370

 Total Charge           Charge          ....    0
 Multiplicity           Mult            ....    1
 Number of Electrons    NEL             ....   48
 Basis Dimension        Dim             ....  182

ORBITAL ENERGIES
----------------

  NO   OCC          E(Eh)            E(eV)
   0   2.0000     -24.583232      -668.9437
   1   2.0000     -19.003234      -517.1043
   2   2.0000     -10.319332      -280.8033
   3   2.0000     -10.160895      -276.4920
   4   2.0000     -10.148359      -276.1509
   5   2.0000     -10.124252      -275.4949
   6   2.0000      -1.469212       -39.9793
   7   2.0000      -1.193080       -32.4654
   8   2.0000      -0.993370       -27.0310
   9   2.0000      -0.898008       -24.4360
  10   2.0000      -0.821515       -22.3546
  11   2.0000      -0.776352       -21.1256
  12   2.0000      -0.713428       -19.4134
  13   2.0000      -0.700940       -19.0736
  14   2.0000      -0.642293       -17.4777
  15   2.0000      -0.621773       -16.9193
  16   2.0000      -0.601517       -16.3681
  17   2.0000      -0.563003       -15.3201
  18   2.0000      -0.544413       -14.8142
  19   2.0000      -0.516685       -14.0597
  20   2.0000      -0.500833       -13.6284
  21   2.0000      -0.486198       -13.2301
  22   2.0000      -0.475172       -12.9301
  23   2.0000      -0.427908       -11.6440
  24   0.0000       0.065458         1.7812
  25   0.0000       0.081248         2.2109
  26   0.0000       0.110261         3.0004
  27   0.0000       0.114269         3.1094
  28   0.0000       0.125092         3.4039

MULLIKEN ATOMIC CHARGES
-----------------------
   0 C :   -0.497140
   1 C :   -0.101112
   2 H :    0.116775
   3 H :    0.108450
   4 C :    0.641861
   5 O :   -0.430315
   6 F :   -0.359050
   7 C :    0.433431
   8 H :   -0.046741
   9 H :    0.070012
  10 H :   -0.027646
  11 H :    0.038350
  12 H :    0.053125
Sum of atomic charges:    0.0000000

LOEWDIN ATOMIC CHARGES
----------------------
   0 C :   -0.093508
   1 C :    0.021599
   2 H :    0.048307
   3 H :    0.051460
   4 C :   -0.031409
   5 O :   -0.131063
   6 F :   -0.018030
   7 C :    0.101250
   8 H :    0.035587
   9 H :    0.032462
  10 H :   -0.014683
  11 H :   -0.002655
  12 H :    0.000682

  Mayer bond orders larger than 0.100000
B(  0-C ,  1-C ) :   1.2081 B(  0-C ,  2-H ) :   0.1080 B(  0-C ,  7-C ) :   1.3522
B(  0-C ,  8-H ) :   0.9956 B(  0-C ,  9-H ) :   0.9256 B(  0-C , 10-H ) :   0.1562
B(  0-C , 11-H ) :   0.1729 B(  0-C , 12-H ) :   0.1579 B(  1-C ,  2-H ) :   0.9223
B(  1-C ,  3-H ) :   0.8602 B(  1-C ,  4-C ) :   1.0548 B(  2-H ,  4-C ) :   0.1143
B(  4-C ,  5-O ) :   1.8766 B(  4-C ,  6-F ) :   0.7865 B(  7-C , 10-H ) :   0.8862
B(  7-C , 11-H ) :   0.8000 B(  7-C , 12-H ) :   0.8366

FINAL SINGLE POINT ENERGY      -330.527867667803

DIPOLE MOMENT
-------------
                                X             Y             Z
Electronic contribution:     -0.38482      -2.70040      -9.47005
Nuclear contribution   :     -0.41432       3.01336      10.50227
                        -----------------------------------------
Total Dipole Moment    :     -0.79914       0.31296       1.03223
                        -----------------------------------------
Magnitude (a.u.)       :      1.34241
Magnitude (Debye)      :      3.41213

Rotational constants in cm-1:     0.192167     0.080512     0.073747
Rotational constants in MHz :  5761.018137  2413.690728  2210.882638

                             ****ORCA TERMINATED NORMALLY****
TOTAL RUN TIME: 0 days 0 hours 0 minutes 21 seconds 281 msec
