                         Program Version 5.0.0 -  RELEASE  -
|  1> !LC-PBE RIJCOSX def2-SVPD def2/J TightSCF
|  2> *xyz 0 1
|  3> C          2.23447       -2.98975       -2.39762
|  4> N          2.75680       -2.94555       -3.76503
|  5> C          1.98721       -2.59045       -4.81898
|  6> C          0.74322       -3.01749       -4.91352
|  7> N          2.49964       -1.84860       -5.80324
|  8> H          3.30978       -1.29282       -5.55895
|  9> H          1.80103       -1.30430       -6.28913
| 10> H          3.71612       -2.62880       -3.82953
| 11> H          0.39583       -3.62775       -4.18502
| 12> H          0.03920       -2.45438       -5.37137
| 13> C          2.19120       -1.61950       -1.71549
| 14> H          2.87278       -3.66637       -1.82801
| 15> H          1.24619       -3.44744       -2.40784
| 16> C          1.29873       -0.55431       -2.35977
| 17> H          1.87292       -1.78796       -0.68131
| 18> H          3.21681       -1.23843       -1.65443
| 19> H          1.61097       -0.39090       -3.37007
| 20> H          1.37981        0.35955       -1.80916
| 21> H          0.28197       -0.88750       -2.35015
| 22> *
| 23>
| 24> %MaxCore 64000
| 25>
| 26> %pal nprocs 4
| 27> end
| 28>
| 29> %scf
| 30>   MaxIter 150
| 31> end
| 32>
| 33>
| 34>                          ****END OF INPUT****

CARTESIAN COORDINATES (ANGSTROEM)
---------------------------------
  C      2.234470   -2.989750   -2.397620
  N      2.756800   -2.945550   -3.765030
  C      1.987210   -2.590450   -4.818980
  C      0.743220   -3.017490   -4.913520
  N      2.499640   -1.848600   -5.803240
  H      3.309780   -1.292820   -5.558950
  H      1.801030   -1.304300   -6.289130
  H      3.716120   -2.628800   -3.829530
  H      0.395830   -3.627750   -4.185020
  H      0.039200   -2.454380   -5.371370
  C      2.191200   -1.619500   -1.715490
  H      2.872780   -3.666370   -1.828010
  H      1.246190   -3.447440   -2.407840
  C      1.298730   -0.554310   -2.359770
  H      1.872920   -1.787960   -0.681310
  H      3.216810   -1.238430   -1.654430
  H      1.610970   -0.390900   -3.370070
  H      1.379810    0.359550   -1.809160
  H      0.281970   -0.887500   -2.350150

 Total Charge           Charge          ....    0
 Multiplicity           Mult            ....    1
 Number of Electrons    NEL             ....   56
 Basis Dimension        Dim             ....  236

ORBITAL ENERGIES
----------------

  NO   OCC          E(Eh)            E(eV)
   0   2.0000     -14.233805      -387.3215
   1   2.0000     -14.231262      -387.2523
   2   2.0000     -10.180666      -277.0300
   3   2.0000     -10.159299      -276.4486
   4   2.0000     -10.129021      -275.6247
   5   2.0000     -10.110893      -275.1314
   6   2.0000     -10.044558      -273.3263
   7   2.0000      -1.140814       -31.0431
   8   2.0000      -1.054746       -28.7011
   9   2.0000      -0.949736       -25.8436
  10   2.0000      -0.885965       -24.1083
  11   2.0000      -0.852095       -23.1867
  12   2.0000      -0.761660       -20.7258
  13   2.0000      -0.712658       -19.3924
  14   2.0000      -0.693706       -18.8767
  15   2.0000      -0.657637       -17.8952
  16   2.0000      -0.620267       -16.8783
  17   2.0000      -0.601975       -16.3806
  18   2.0000      -0.567331       -15.4379
  19   2.0000      -0.551407       -15.0045
  20   2.0000      -0.543630       -14.7929
  21   2.0000      -0.516034       -14.0420
  22   2.0000      -0.502156       -13.6644
  23   2.0000      -0.492514       -13.4020
  24   2.0000      -0.474953       -12.9241
  25   2.0000      -0.462297       -12.5797
  26   2.0000      -0.384498       -10.4627
  27   2.0000      -0.295661        -8.0453
  28   0.0000       0.082610         2.2479
  29   0.0000       0.105329         2.8662
  30   0.0000       0.111696         3.0394
  31   0.0000       0.121242         3.2991
  32   0.0000       0.138212         3.7609

MULLIKEN ATOMIC CHARGES
-----------------------
   0 C :    0.516582
   1 N :   -0.382229
   2 C :    0.354028
   3 C :    0.218604
   4 N :   -0.102513
   5 H :    0.007899
   6 H :    0.095164
   7 H :   -0.184577
   8 H :   -0.105471
   9 H :   -0.289445
  10 C :   -0.488591
  11 H :   -0.166774
  12 H :   -0.012084
  13 C :    0.599407
  14 H :    0.015800
  15 H :    0.015812
  16 H :   -0.153095
  17 H :    0.019627
  18 H :    0.041857
Sum of atomic charges:    0.0000000

LOEWDIN ATOMIC CHARGES
----------------------
   0 C :    0.024607
   1 N :   -0.010700
   2 C :   -0.266491
   3 C :    0.131065
   4 N :    0.174408
   5 H :   -0.002974
   6 H :    0.011520
   7 H :    0.024317
   8 H :   -0.089797
   9 H :   -0.074953
  10 C :   -0.089563
  11 H :    0.030174
  12 H :    0.020193
  13 C :    0.098695
  14 H :    0.030219
  15 H :    0.026311
  16 H :   -0.024590
  17 H :   -0.009214
  18 H :   -0.003228

  Mayer bond orders larger than 0.100000
B(  0-C ,  1-N ) :   0.9495 B(  0-C , 10-C ) :   1.1049 B(  0-C , 11-H ) :   0.9474
B(  0-C , 12-H ) :   0.7933 B(  0-C , 14-H ) :   0.1250 B(  0-C , 15-H ) :   0.1003
B(  1-N ,  2-C ) :   1.0177 B(  1-N ,  3-C ) :   0.2532 B(  1-N ,  4-N ) :   0.1094
B(  1-N ,  7-H ) :   1.1292 B(  1-N , 11-H ) :   0.1429 B(  1-N , 12-H ) :   0.1219
B(  2-C ,  3-C ) :   1.9232 B(  2-C ,  4-N ) :   0.9058 B(  2-C ,  7-H ) :  -0.1146
B(  2-C ,  8-H ) :   0.2554 B(  2-C ,  9-H ) :   0.1602 B(  3-C ,  4-N ) :   0.1884
B(  3-C ,  8-H ) :   0.6108 B(  3-C ,  9-H ) :   0.8895 B(  4-N ,  5-H ) :   0.9270
B(  4-N ,  6-H ) :   0.9166 B(  8-H ,  9-H ) :   0.1366 B( 10-C , 12-H ) :   0.1287
B( 10-C , 13-C ) :   1.2818 B( 10-C , 14-H ) :   0.9529 B( 10-C , 15-H ) :   0.9679
B( 10-C , 16-H ) :   0.2051 B( 10-C , 17-H ) :   0.1613 B( 10-C , 18-H ) :   0.1957
B( 13-C , 16-H ) :   0.8734 B( 13-C , 17-H ) :   0.7997 B( 13-C , 18-H ) :   0.7748
B( 16-H , 18-H ) :   0.1429

FINAL SINGLE POINT ENERGY      -305.994597847534

DIPOLE MOMENT
-------------
                                X             Y             Z
Electronic contribution:      2.35201      -2.66678      -3.87442
Nuclear contribution   :     -1.74624       3.63640       4.48172
                        -----------------------------------------
Total Dipole Moment    :      0.60578       0.96962       0.60730
                        -----------------------------------------
Magnitude (a.u.)       :      1.29458
Magnitude (Debye)      :      3.29056

Rotational constants in cm-1:     0.131012     0.059513     0.054636
Rotational constants in MHz :  3927.631151  1784.169731  1637.945644

                             ****ORCA TERMINATED NORMALLY****
TOTAL RUN TIME: 0 days 0 hours 0 minutes 39 seconds 743 msec
