                         Program Version 5.0.0 -  RELEASE  -
|  1> !LC-PBE RIJCOSX def2-SVPD def2/J TightSCF
|  2> *xyz 0 1
|  3> C          2.23447       -2.98975       -2.39762
|  4> N          2.75680       -2.94555       -3.76503
|  5> C          1.98721       -2.59045       -4.81898
|  6> N          0.74322       -3.01749       -4.91352
|  7> C          2.49964       -1.84860       -5.80324
|  8> H          3.30978       -1.29282       -5.55895
|  9> H          1.80103       -1.30430       -6.28913
| 10> H          3.71612       -2.62880       -3.82953
| 11> H          0.39583       -3.62775       -4.18502
| 12> H          0.03920       -2.45438       -5.37137
| 13> C          2.19120       -1.61950       -1.71549
| 14> H          2.87278       -3.66637       -1.82801
| 15> H          1.24619       -3.44744       -2.40784
| 16> C          1.29873       -0.55431       -2.35977
| 17> H          1.87292       -1.78796       -0.68131
| 18> H          3.21681       -1.23843       -1.65443
| 19> H          1.61097       -0.39090       -3.37007
| 20> H          1.37981        0.35955       -1.80916
| 21> H          0.28197       -0.88750       -2.35015
| 22> *
| 23>
| 24> %MaxCore 64000
| 25>
| 26> %pal nprocs 4
| 27> end
| 28>
| 29> %scf
| 30>   MaxIter 150
| 31> end
| 32>
| 33>
| 34>                          ****END OF INPUT****

CARTESIAN COORDINATES (ANGSTROEM)
---------------------------------
  C      2.234470   -2.989750   -2.397620
  N      2.756800   -2.945550   -3.765030
  C      1.987210   -2.590450   -4.818980
  N      0.743220   -3.017490   -4.913520
  C      2.499640   -1.848600   -5.803240
  H      3.309780   -1.292820   -5.558950
  H      1.801030   -1.304300   -6.289130
  H      3.716120   -2.628800   -3.829530
  H      0.395830   -3.627750   -4.185020
  H      0.039200   -2.454380   -5.371370
  C      2.191200   -1.619500   -1.715490
  H      2.872780   -3.666370   -1.828010
  H      1.246190   -3.447440   -2.407840
  C      1.298730   -0.554310   -2.359770
  H      1.872920   -1.787960   -0.681310
  H      3.216810   -1.238430   -1.654430
  H      1.610970   -0.390900   -3.370070
  H      1.379810    0.359550   -1.809160
  H      0.281970   -0.887500   -2.350150

 Total Charge           Charge          ....    0
 Multiplicity           Mult            ....    1
 Number of Electrons    NEL             ....   56
 Basis Dimension        Dim             ....  236

ORBITAL ENERGIES
----------------

  NO   OCC          E(Eh)            E(eV)
   0   2.0000     -14.233882      -387.3236
   1   2.0000     -14.233228      -387.3058
   2   2.0000     -10.185638      -277.1653
   3   2.0000     -10.168268      -276.6926
   4   2.0000     -10.132365      -275.7157
   5   2.0000     -10.113134      -275.1924
   6   2.0000     -10.039885      -273.1992
   7   2.0000      -1.143196       -31.1079
   8   2.0000      -1.053816       -28.6758
   9   2.0000      -0.957679       -26.0598
  10   2.0000      -0.895574       -24.3698
  11   2.0000      -0.837267       -22.7832
  12   2.0000      -0.757200       -20.6044
  13   2.0000      -0.753540       -20.5049
  14   2.0000      -0.691369       -18.8131
  15   2.0000      -0.638790       -17.3824
  16   2.0000      -0.636608       -17.3230
  17   2.0000      -0.596493       -16.2314
  18   2.0000      -0.590765       -16.0755
  19   2.0000      -0.546183       -14.8624
  20   2.0000      -0.529287       -14.4026
  21   2.0000      -0.521059       -14.1787
  22   2.0000      -0.502817       -13.6824
  23   2.0000      -0.495091       -13.4721
  24   2.0000      -0.474645       -12.9157
  25   2.0000      -0.470761       -12.8101
  26   2.0000      -0.386350       -10.5131
  27   2.0000      -0.291230        -7.9248
  28   0.0000       0.082793         2.2529
  29   0.0000       0.103870         2.8264
  30   0.0000       0.105967         2.8835
  31   0.0000       0.120225         3.2715
  32   0.0000       0.135991         3.7005

MULLIKEN ATOMIC CHARGES
-----------------------
   0 C :    0.537482
   1 N :   -0.458127
   2 C :    0.196324
   3 N :    0.097443
   4 C :    0.346706
   5 H :   -0.117713
   6 H :   -0.290443
   7 H :   -0.090755
   8 H :   -0.034940
   9 H :   -0.021759
  10 C :   -0.495904
  11 H :   -0.174993
  12 H :   -0.048119
  13 C :    0.554722
  14 H :    0.017135
  15 H :    0.016525
  16 H :   -0.054516
  17 H :   -0.045823
  18 H :    0.066756
Sum of atomic charges:    0.0000000

LOEWDIN ATOMIC CHARGES
----------------------
   0 C :    0.018173
   1 N :   -0.006583
   2 C :   -0.261535
   3 N :    0.188248
   4 C :    0.108722
   5 H :   -0.090510
   6 H :   -0.090055
   7 H :    0.036791
   8 H :   -0.007568
   9 H :    0.025007
  10 C :   -0.090057
  11 H :    0.029312
  12 H :    0.014888
  13 C :    0.100708
  14 H :    0.029097
  15 H :    0.030214
  16 H :   -0.019620
  17 H :   -0.007772
  18 H :   -0.007460

  Mayer bond orders larger than 0.100000
B(  0-C ,  1-N ) :   0.9634 B(  0-C , 10-C ) :   1.1197 B(  0-C , 11-H ) :   0.9391
B(  0-C , 12-H ) :   0.8189 B(  0-C , 14-H ) :   0.1103 B(  0-C , 15-H ) :   0.1128
B(  1-N ,  2-C ) :   1.0309 B(  1-N ,  4-C ) :   0.2019 B(  1-N ,  7-H ) :   1.1218
B(  1-N , 11-H ) :   0.1607 B(  1-N , 12-H ) :   0.1292 B(  2-C ,  3-N ) :   1.0694
B(  2-C ,  4-C ) :   2.0998 B(  2-C ,  5-H ) :   0.2160 B(  2-C ,  6-H ) :   0.2596
B(  2-C ,  7-H ) :  -0.1094 B(  3-N ,  4-C ) :   0.1931 B(  3-N ,  8-H ) :   0.9681
B(  3-N ,  9-H ) :   1.0814 B(  4-C ,  5-H ) :   0.7352 B(  4-C ,  6-H ) :   0.7389
B(  5-H ,  6-H ) :   0.2374 B(  8-H ,  9-H ) :  -0.1413 B( 10-C , 12-H ) :   0.1296
B( 10-C , 13-C ) :   1.2957 B( 10-C , 14-H ) :   0.9665 B( 10-C , 15-H ) :   0.9465
B( 10-C , 16-H ) :   0.2029 B( 10-C , 17-H ) :   0.1725 B( 10-C , 18-H ) :   0.1898
B( 13-C , 16-H ) :   0.8642 B( 13-C , 17-H ) :   0.8269 B( 13-C , 18-H ) :   0.7782
B( 16-H , 18-H ) :   0.1035

FINAL SINGLE POINT ENERGY      -305.990476420676

DIPOLE MOMENT
-------------
                                X             Y             Z
Electronic contribution:      0.74426      -3.80358      -2.99199
Nuclear contribution   :     -1.36148       3.89245       4.28682
                        -----------------------------------------
Total Dipole Moment    :     -0.61722       0.08888       1.29483
                        -----------------------------------------
Magnitude (a.u.)       :      1.43717
Magnitude (Debye)      :      3.65299

Rotational constants in cm-1:     0.130039     0.059901     0.055416
Rotational constants in MHz :  3898.472533  1795.778295  1661.317267

                             ****ORCA TERMINATED NORMALLY****
TOTAL RUN TIME: 0 days 0 hours 0 minutes 40 seconds 437 msec
