                         Program Version 5.0.0 -  RELEASE  -
|  1> !LC-PBE RIJCOSX def2-SVPD def2/J TightSCF xyzfile
|  2>
|  3> *xyzfile 0 1 D1.xyz
|  4>
|  5> %MaxCore 64000
|  6>
|  7> %pal nprocs 4
|  8> end
|  9>
| 10> %scf
| 11>   MaxIter 150
| 12> end
| 13>
| 14>
| 15>                          ****END OF INPUT****

CARTESIAN COORDINATES (ANGSTROEM)
---------------------------------
  C      2.234473   -2.989754   -2.397622
  C      2.756799   -2.945553   -3.765029
  C     -1.104325    0.251374   -2.860056
  C     -0.711893    0.842517   -4.218344
  H      0.154626    1.499800   -4.130909
  H     -1.538134    1.459222   -4.582671
  C     -0.397624   -0.205875   -5.288018
  C      1.987208   -2.590451   -4.818975
  N      0.743221   -3.017493   -4.913524
  N      2.499636   -1.848598   -5.803241
  H      3.309780   -1.292818   -5.558947
  H      1.801025   -1.304298   -6.289129
  H      3.716116   -2.628797   -3.829533
  H      0.395828   -3.627747   -4.185024
  H      0.039201   -2.454383   -5.371367
  F      0.617165   -0.005348   -5.998273
  O     -1.133173   -1.221380   -5.341465
  C      2.191199   -1.619503   -1.715492
  H      2.872783   -3.666368   -1.828014
  H      1.246188   -3.447444   -2.407842
  C      1.298729   -0.554314   -2.359773
  H      1.872917   -1.787955   -0.681310
  H      3.216809   -1.238432   -1.654428
  C     -0.196255   -0.863365   -2.325763
  H      1.612531   -0.371346   -3.393065
  H      1.480944    0.388638   -1.834444
  H     -0.404105   -1.761825   -2.909448
  H     -0.490439   -1.087880   -1.294131
  H     -1.143842    1.066711   -2.129680
  H     -2.114401   -0.156834   -2.930323

 Total Charge           Charge          ....    0
 Multiplicity           Mult            ....    1
 Number of Electrons    NEL             ....  102
 Basis Dimension        Dim             ....  402

ORBITAL ENERGIES
----------------

  NO   OCC          E(Eh)            E(eV)
   0   2.0000     -24.619560      -669.9323
   1   2.0000     -19.037819      -518.0454
   2   2.0000     -14.217598      -386.8805
   3   2.0000     -14.208069      -386.6212
   4   2.0000     -10.351397      -281.6758
   5   2.0000     -10.177010      -276.9305
   6   2.0000     -10.171923      -276.7921
   7   2.0000     -10.149939      -276.1939
   8   2.0000     -10.128482      -275.6100
   9   2.0000     -10.124768      -275.5089
  10   2.0000     -10.111553      -275.1493
  11   2.0000     -10.100714      -274.8544
  12   2.0000     -10.041416      -273.2408
  13   2.0000      -1.506703       -40.9995
  14   2.0000      -1.232401       -33.5353
  15   2.0000      -1.128381       -30.7048
  16   2.0000      -1.025902       -27.9162
  17   2.0000      -1.009627       -27.4733
  18   2.0000      -0.965506       -26.2727
  19   2.0000      -0.924504       -25.1570
  20   2.0000      -0.874917       -23.8077
  21   2.0000      -0.853013       -23.2117
  22   2.0000      -0.815035       -22.1782
  23   2.0000      -0.774255       -21.0685
  24   2.0000      -0.753536       -20.5048
  25   2.0000      -0.738467       -20.0947
  26   2.0000      -0.727570       -19.7982
  27   2.0000      -0.705071       -19.1860
  28   2.0000      -0.696056       -18.9407
  29   2.0000      -0.667965       -18.1763
  30   2.0000      -0.642123       -17.4730
  31   2.0000      -0.633326       -17.2337
  32   2.0000      -0.624197       -16.9853
  33   2.0000      -0.600447       -16.3390
  34   2.0000      -0.589447       -16.0397
  35   2.0000      -0.582576       -15.8527
  36   2.0000      -0.567046       -15.4301
  37   2.0000      -0.553039       -15.0490
  38   2.0000      -0.536061       -14.5870
  39   2.0000      -0.526970       -14.3396
  40   2.0000      -0.515618       -14.0307
  41   2.0000      -0.509339       -13.8598
  42   2.0000      -0.492189       -13.3931
  43   2.0000      -0.479394       -13.0450
  44   2.0000      -0.470538       -12.8040
  45   2.0000      -0.460532       -12.5317
  46   2.0000      -0.445982       -12.1358
  47   2.0000      -0.439495       -11.9593
  48   2.0000      -0.430766       -11.7217
  49   2.0000      -0.391575       -10.6553
  50   2.0000      -0.265847        -7.2341
  51   0.0000       0.032314         0.8793
  52   0.0000       0.073142         1.9903
  53   0.0000       0.096201         2.6178
  54   0.0000       0.099734         2.7139
  55   0.0000       0.105927         2.8824

MULLIKEN ATOMIC CHARGES
-----------------------
   0 C :    0.126002
   1 C :   -0.159631
   2 C :    0.345132
   3 C :   -0.050294
   4 H :    0.263325
   5 H :   -0.101320
   6 C :    0.565694
   7 C :    0.250518
   8 N :    0.184329
   9 N :    0.030045
  10 H :    0.173748
  11 H :   -0.120872
  12 H :   -0.130408
  13 H :    0.115313
  14 H :   -0.444919
  15 F :   -0.333814
  16 O :   -0.516374
  17 C :    0.281621
  18 H :   -0.053959
  19 H :   -0.093619
  20 C :   -0.130852
  21 H :    0.055172
  22 H :   -0.005711
  23 C :   -0.142163
  24 H :   -0.100092
  25 H :   -0.034138
  26 H :   -0.099116
  27 H :   -0.041098
  28 H :    0.012893
  29 H :    0.154586
Sum of atomic charges:    0.0000000

LOEWDIN ATOMIC CHARGES
----------------------
   0 C :   -0.084910
   1 C :   -0.039305
   2 C :   -0.033807
   3 C :    0.033905
   4 H :    0.040300
   5 H :    0.055513
   6 C :    0.019034
   7 C :   -0.232408
   8 N :    0.220424
   9 N :    0.194405
  10 H :    0.017725
  11 H :   -0.059084
  12 H :   -0.047648
  13 H :    0.013413
  14 H :   -0.095271
  15 F :   -0.015842
  16 O :   -0.111120
  17 C :   -0.046713
  18 H :    0.023845
  19 H :    0.003642
  20 C :   -0.049171
  21 H :    0.029970
  22 H :    0.034484
  23 C :   -0.045306
  24 H :    0.011269
  25 H :    0.035797
  26 H :    0.003557
  27 H :    0.042086
  28 H :    0.040740
  29 H :    0.040476

  Mayer bond orders larger than 0.100000
B(  0-C ,  1-C ) :   1.2093 B(  0-C ,  7-C ) :   0.1369 B(  0-C , 12-H ) :   0.3288
B(  0-C , 17-C ) :   1.1672 B(  0-C , 18-H ) :   0.8035 B(  0-C , 19-H ) :   0.8317
B(  0-C , 21-H ) :   0.1647 B(  0-C , 22-H ) :   0.1638 B(  1-C ,  7-C ) :   1.7906
B(  1-C ,  8-N ) :   0.1532 B(  1-C ,  9-N ) :   0.2893 B(  1-C , 12-H ) :   0.5908
B(  1-C , 18-H ) :   0.1844 B(  1-C , 19-H ) :   0.1789 B(  2-C ,  3-C ) :   1.2148
B(  2-C ,  5-H ) :   0.1494 B(  2-C , 23-C ) :   1.2715 B(  2-C , 28-H ) :   0.8365
B(  2-C , 29-H ) :   0.6896 B(  3-C ,  4-H ) :   0.8142 B(  3-C ,  5-H ) :   0.8570
B(  3-C ,  6-C ) :   1.2105 B(  3-C , 28-H ) :   0.1200 B(  4-H ,  6-C ) :   0.1359
B(  5-H ,  6-C ) :   0.1525 B(  6-C , 15-F ) :   0.7269 B(  6-C , 16-O ) :   1.7614
B(  7-C ,  8-N ) :   1.0109 B(  7-C ,  9-N ) :   0.9018 B(  7-C , 11-H ) :   0.1305
B(  7-C , 12-H ) :   0.3476 B(  8-N , 13-H ) :   0.8842 B(  8-N , 14-H ) :   1.2176
B(  9-N , 10-H ) :   0.8498 B(  9-N , 11-H ) :   0.8196 B( 13-H , 14-H ) :  -0.2326
B( 14-H , 16-O ) :   0.1650 B( 17-C , 19-H ) :   0.1097 B( 17-C , 20-C ) :   1.2543
B( 17-C , 21-H ) :   0.8033 B( 17-C , 22-H ) :   0.7597 B( 20-C , 21-H ) :   0.1297
B( 20-C , 22-H ) :   0.2388 B( 20-C , 23-C ) :   1.2911 B( 20-C , 24-H ) :   0.9608
B( 20-C , 25-H ) :   0.8276 B( 20-C , 26-H ) :   0.1271 B( 20-C , 27-H ) :   0.1824
B( 21-H , 22-H ) :  -0.1020 B( 23-C , 24-H ) :   0.1316 B( 23-C , 25-H ) :   0.1893
B( 23-C , 26-H ) :   0.9825 B( 23-C , 27-H ) :   0.8307 B( 23-C , 28-H ) :   0.1384
B( 23-C , 29-H ) :   0.2206

FINAL SINGLE POINT ENERGY      -635.344878611791

DIPOLE MOMENT
-------------
                                X             Y             Z
Electronic contribution:     -3.11771       2.32618     -14.46353
Nuclear contribution   :      2.31842      -0.27661      14.74721
                        -----------------------------------------
Total Dipole Moment    :     -0.79929       2.04957       0.28367
                        -----------------------------------------
Magnitude (a.u.)       :      2.21813
Magnitude (Debye)      :      5.63803

Rotational constants in cm-1:     0.032691     0.023990     0.017099
Rotational constants in MHz :   980.050971   719.190545   512.606858

                             ****ORCA TERMINATED NORMALLY****
TOTAL RUN TIME: 0 days 0 hours 3 minutes 2 seconds 138 msec
