                         Program Version 5.0.0 -  RELEASE  -
|  1> !LC-PBE RIJCOSX def2-SVPD def2/J TightSCF xyzfile
|  2>
|  3> *xyzfile 0 1 D2.xyz
|  4>
|  5> %MaxCore 64000
|  6>
|  7> %pal nprocs 4
|  8> end
|  9>
| 10> %scf
| 11>   MaxIter 150
| 12> end
| 13>
| 14>
| 15>                          ****END OF INPUT****

CARTESIAN COORDINATES (ANGSTROEM)
---------------------------------
  C      2.234473   -2.989754   -2.397622
  N      2.756799   -2.945553   -3.765029
  C     -1.104325    0.251374   -2.860056
  C     -0.711893    0.842517   -4.218344
  H      0.154626    1.499800   -4.130909
  H     -1.538134    1.459222   -4.582671
  C     -0.397624   -0.205875   -5.288018
  C      1.987208   -2.590451   -4.818975
  C      0.743221   -3.017493   -4.913524
  N      2.499636   -1.848598   -5.803241
  H      3.309780   -1.292818   -5.558947
  H      1.801025   -1.304298   -6.289129
  H      3.716116   -2.628797   -3.829533
  H      0.395828   -3.627747   -4.185024
  H      0.039201   -2.454383   -5.371367
  F      0.617165   -0.005348   -5.998273
  O     -1.133173   -1.221380   -5.341465
  C      2.191199   -1.619503   -1.715492
  H      2.872783   -3.666368   -1.828014
  H      1.246188   -3.447444   -2.407842
  C      1.298729   -0.554314   -2.359773
  H      1.872917   -1.787955   -0.681310
  H      3.216809   -1.238432   -1.654428
  C     -0.196255   -0.863365   -2.325763
  H      1.612531   -0.371346   -3.393065
  H      1.480944    0.388638   -1.834444
  H     -0.404105   -1.761825   -2.909448
  H     -0.490439   -1.087880   -1.294131
  H     -1.143842    1.066711   -2.129680
  H     -2.114401   -0.156834   -2.930323

 Total Charge           Charge          ....    0
 Multiplicity           Mult            ....    1
 Number of Electrons    NEL             ....  102
 Basis Dimension        Dim             ....  402

ORBITAL ENERGIES
----------------

  NO   OCC          E(Eh)            E(eV)
   0   2.0000     -24.602044      -669.4557
   1   2.0000     -19.012405      -517.3538
   2   2.0000     -14.224531      -387.0692
   3   2.0000     -14.215207      -386.8154
   4   2.0000     -10.329256      -281.0733
   5   2.0000     -10.166236      -276.6373
   6   2.0000     -10.166094      -276.6335
   7   2.0000     -10.155749      -276.3520
   8   2.0000     -10.143350      -276.0146
   9   2.0000     -10.131362      -275.6884
  10   2.0000     -10.130123      -275.6547
  11   2.0000     -10.124437      -275.4999
  12   2.0000     -10.023475      -272.7526
  13   2.0000      -1.488826       -40.5130
  14   2.0000      -1.207305       -32.8524
  15   2.0000      -1.130203       -30.7544
  16   2.0000      -1.046384       -28.4735
  17   2.0000      -1.001265       -27.2458
  18   2.0000      -0.958081       -26.0707
  19   2.0000      -0.902382       -24.5551
  20   2.0000      -0.873085       -23.7579
  21   2.0000      -0.855272       -23.2731
  22   2.0000      -0.824077       -22.4243
  23   2.0000      -0.779060       -21.1993
  24   2.0000      -0.748361       -20.3639
  25   2.0000      -0.728894       -19.8342
  26   2.0000      -0.701185       -19.0802
  27   2.0000      -0.699870       -19.0444
  28   2.0000      -0.683710       -18.6047
  29   2.0000      -0.675408       -18.3788
  30   2.0000      -0.643560       -17.5122
  31   2.0000      -0.633072       -17.2268
  32   2.0000      -0.618073       -16.8186
  33   2.0000      -0.595230       -16.1970
  34   2.0000      -0.588352       -16.0099
  35   2.0000      -0.567876       -15.4527
  36   2.0000      -0.559096       -15.2138
  37   2.0000      -0.550192       -14.9715
  38   2.0000      -0.539411       -14.6781
  39   2.0000      -0.521425       -14.1887
  40   2.0000      -0.513547       -13.9743
  41   2.0000      -0.500188       -13.6108
  42   2.0000      -0.499577       -13.5942
  43   2.0000      -0.487181       -13.2569
  44   2.0000      -0.481188       -13.0938
  45   2.0000      -0.458530       -12.4772
  46   2.0000      -0.450962       -12.2713
  47   2.0000      -0.446222       -12.1423
  48   2.0000      -0.420623       -11.4457
  49   2.0000      -0.374580       -10.1929
  50   2.0000      -0.281450        -7.6586
  51   0.0000       0.051595         1.4040
  52   0.0000       0.077043         2.0964
  53   0.0000       0.092903         2.5280
  54   0.0000       0.098034         2.6676
  55   0.0000       0.107885         2.9357

MULLIKEN ATOMIC CHARGES
-----------------------
   0 C :    0.587894
   1 N :   -0.399948
   2 C :    0.362129
   3 C :   -0.042147
   4 H :    0.238045
   5 H :   -0.111811
   6 C :    0.479337
   7 C :    0.321091
   8 C :    0.688201
   9 N :    0.054307
  10 H :    0.098459
  11 H :   -0.106882
  12 H :   -0.138796
  13 H :   -0.028711
  14 H :   -0.726333
  15 F :   -0.355260
  16 O :   -0.534965
  17 C :    0.197153
  18 H :   -0.241379
  19 H :    0.052544
  20 C :   -0.126759
  21 H :    0.096063
  22 H :    0.007125
  23 C :   -0.219724
  24 H :   -0.149471
  25 H :   -0.058141
  26 H :   -0.071006
  27 H :   -0.041445
  28 H :    0.010944
  29 H :    0.159487
Sum of atomic charges:   -0.0000000

LOEWDIN ATOMIC CHARGES
----------------------
   0 C :    0.034366
   1 N :   -0.010028
   2 C :   -0.033254
   3 C :    0.031371
   4 H :    0.036765
   5 H :    0.053328
   6 C :    0.013583
   7 C :   -0.243125
   8 C :    0.159943
   9 N :    0.186827
  10 H :    0.001538
  11 H :   -0.050187
  12 H :    0.022539
  13 H :   -0.072176
  14 H :   -0.153596
  15 F :   -0.019032
  16 O :   -0.114606
  17 C :   -0.041382
  18 H :    0.030400
  19 H :    0.017107
  20 C :   -0.048743
  21 H :    0.034393
  22 H :    0.030054
  23 C :   -0.041891
  24 H :    0.011437
  25 H :    0.036336
  26 H :    0.007826
  27 H :    0.040540
  28 H :    0.038375
  29 H :    0.041291

  Mayer bond orders larger than 0.100000
B(  0-C ,  1-N ) :   0.9559 B(  0-C , 17-C ) :   1.1052 B(  0-C , 18-H ) :   0.9005
B(  0-C , 19-H ) :   0.7850 B(  0-C , 21-H ) :   0.1310 B(  0-C , 22-H ) :   0.1020
B(  1-N ,  7-C ) :   0.9839 B(  1-N ,  8-C ) :   0.2845 B(  1-N ,  9-N ) :   0.1272
B(  1-N , 12-H ) :   1.0849 B(  1-N , 18-H ) :   0.1751 B(  1-N , 19-H ) :   0.1139
B(  2-C ,  3-C ) :   1.2074 B(  2-C ,  5-H ) :   0.1441 B(  2-C , 23-C ) :   1.2854
B(  2-C , 28-H ) :   0.8272 B(  2-C , 29-H ) :   0.6868 B(  3-C ,  4-H ) :   0.8333
B(  3-C ,  5-H ) :   0.8434 B(  3-C ,  6-C ) :   1.2206 B(  3-C , 28-H ) :   0.1261
B(  4-H ,  6-C ) :   0.1351 B(  5-H ,  6-C ) :   0.1722 B(  6-C , 14-H ) :   0.1044
B(  6-C , 15-F ) :   0.6971 B(  6-C , 16-O ) :   1.8592 B(  7-C ,  8-C ) :   1.9485
B(  7-C ,  9-N ) :   0.8409 B(  7-C , 13-H ) :   0.3185 B(  7-C , 14-H ) :   0.1489
B(  8-C ,  9-N ) :   0.1996 B(  8-C , 13-H ) :   0.4331 B(  8-C , 14-H ) :   0.3752
B(  9-N , 10-H ) :   0.8451 B(  9-N , 11-H ) :   0.9361 B( 14-H , 16-O ) :   0.2497
B( 15-F , 16-O ) :   0.1027 B( 17-C , 19-H ) :   0.1140 B( 17-C , 20-C ) :   1.2392
B( 17-C , 21-H ) :   0.8196 B( 17-C , 22-H ) :   0.7917 B( 18-H , 19-H ) :  -0.1154
B( 20-C , 21-H ) :   0.1435 B( 20-C , 22-H ) :   0.2099 B( 20-C , 23-C ) :   1.2993
B( 20-C , 24-H ) :   0.9751 B( 20-C , 25-H ) :   0.8645 B( 20-C , 26-H ) :   0.1317
B( 20-C , 27-H ) :   0.2050 B( 23-C , 24-H ) :   0.1450 B( 23-C , 25-H ) :   0.1952
B( 23-C , 26-H ) :   0.9993 B( 23-C , 27-H ) :   0.8062 B( 23-C , 28-H ) :   0.1419
B( 23-C , 29-H ) :   0.2184

FINAL SINGLE POINT ENERGY      -635.322784812861

DIPOLE MOMENT
-------------
                                X             Y             Z
Electronic contribution:     -1.48670       2.25081     -13.48318
Nuclear contribution   :      2.00823      -0.28769      14.57028
                        -----------------------------------------
Total Dipole Moment    :      0.52153       1.96312       1.08710
                        -----------------------------------------
Magnitude (a.u.)       :      2.30382
Magnitude (Debye)      :      5.85586

Rotational constants in cm-1:     0.033070     0.023715     0.016943
Rotational constants in MHz :   991.423248   710.957140   507.940500

                             ****ORCA TERMINATED NORMALLY****
TOTAL RUN TIME: 0 days 0 hours 3 minutes 3 seconds 134 msec
