                         Program Version 5.0.0 -  RELEASE  -
|  1> !B3LYP D3BJ RIJCOSX def2-SVPD def2/J TightSCF
|  2> *xyz -1 1
|  3> C          3.38093        2.08304       -3.35013
|  4> C          2.49556        1.81615       -2.13636
|  5> C          1.87218        0.42790       -2.07750
|  6> H          2.61427       -0.36583       -2.19889
|  7> H          1.38995        0.27309       -1.11236
|  8> S          0.57902        0.14047       -3.29794
|  9> O          0.22886       -1.24687       -3.12787
| 10> O         -0.43927        1.11897       -3.01455
| 11> O          1.24788        0.40347       -4.59565
| 12> H          1.69700        2.56197       -2.14111
| 13> H          3.08079        1.98744       -1.22584
| 14> H          2.81820        1.91840       -4.24519
| 15> H          4.22171        1.42153       -3.33067
| 16> H          3.72372        3.09635       -3.32565
| 17> *
| 18>
| 19> %MaxCore 64000
| 20>
| 21> %pal nprocs 8
| 22> end
| 23>
| 24> %scf
| 25>   MaxIter 150
| 26> end
| 27>
| 28>
| 29>                          ****END OF INPUT****

CARTESIAN COORDINATES (ANGSTROEM)
---------------------------------
  C      3.380930    2.083040   -3.350130
  C      2.495560    1.816150   -2.136360
  C      1.872180    0.427900   -2.077500
  H      2.614270   -0.365830   -2.198890
  H      1.389950    0.273090   -1.112360
  S      0.579020    0.140470   -3.297940
  O      0.228860   -1.246870   -3.127870
  O     -0.439270    1.118970   -3.014550
  O      1.247880    0.403470   -4.595650
  H      1.697000    2.561970   -2.141110
  H      3.080790    1.987440   -1.225840
  H      2.818200    1.918400   -4.245190
  H      4.221710    1.421530   -3.330670
  H      3.723720    3.096350   -3.325650

 Total Charge           Charge          ....   -1
 Multiplicity           Mult            ....    1
 Number of Electrons    NEL             ....   66
 Basis Dimension        Dim             ....  212

ORBITAL ENERGIES
----------------

  NO   OCC          E(Eh)            E(eV)
   0   2.0000     -88.884031     -2418.6574
   1   2.0000     -18.924310      -514.9566
   2   2.0000     -18.923992      -514.9480
   3   2.0000     -18.910391      -514.5779
   4   2.0000     -10.050002      -273.4745
   5   2.0000     -10.044081      -273.3134
   6   2.0000     -10.030013      -272.9305
   7   2.0000      -7.937635      -215.9940
   8   2.0000      -5.906598      -160.7267
   9   2.0000      -5.906508      -160.7242
  10   2.0000      -5.905860      -160.7066
  11   2.0000      -0.936328       -25.4788
  12   2.0000      -0.799148       -21.7459
  13   2.0000      -0.773739       -21.0545
  14   2.0000      -0.648691       -17.6518
  15   2.0000      -0.559308       -15.2195
  16   2.0000      -0.462618       -12.5885
  17   2.0000      -0.382865       -10.4183
  18   2.0000      -0.333073        -9.0634
  19   2.0000      -0.317290        -8.6339
  20   2.0000      -0.292829        -7.9683
  21   2.0000      -0.280254        -7.6261
  22   2.0000      -0.268653        -7.3104
  23   2.0000      -0.256706        -6.9853
  24   2.0000      -0.219580        -5.9751
  25   2.0000      -0.214208        -5.8289
  26   2.0000      -0.202998        -5.5239
  27   2.0000      -0.157245        -4.2788
  28   2.0000      -0.156484        -4.2581
  29   2.0000      -0.122814        -3.3419
  30   2.0000      -0.113788        -3.0963
  31   2.0000      -0.101081        -2.7505
  32   2.0000      -0.071017        -1.9325
  33   0.0000       0.136507         3.7145
  34   0.0000       0.162096         4.4109
  35   0.0000       0.167567         4.5597
  36   0.0000       0.177831         4.8390
  37   0.0000       0.195356         5.3159

MULLIKEN ATOMIC CHARGES
-----------------------
   0 C :    1.077751
   1 C :   -0.087094
   2 C :    0.203915
   3 H :   -0.114926
   4 H :   -0.116923
   5 S :    1.404650
   6 O :   -0.814356
   7 O :   -0.802273
   8 O :   -0.871069
   9 H :   -0.097464
  10 H :   -0.231596
  11 H :   -0.323540
  12 H :   -0.098722
  13 H :   -0.128350
Sum of atomic charges:   -1.0000000

LOEWDIN ATOMIC CHARGES
----------------------
   0 C :    0.121779
   1 C :   -0.085946
   2 C :   -0.089215
   3 H :    0.005210
   4 H :   -0.001343
   5 S :    0.870600
   6 O :   -0.572232
   7 O :   -0.569323
   8 O :   -0.579859
   9 H :    0.014617
  10 H :    0.002861
  11 H :   -0.054975
  12 H :   -0.026672
  13 H :   -0.035501

  Mayer bond orders larger than 0.100000
B(  0-C ,  1-C ) :   1.2415 B(  0-C ,  9-H ) :   0.1169 B(  0-C , 11-H ) :   0.7306
B(  0-C , 12-H ) :   0.6755 B(  0-C , 13-H ) :   0.6514 B(  1-C ,  2-C ) :   1.1947
B(  1-C ,  3-H ) :   0.1381 B(  1-C ,  4-H ) :   0.1489 B(  1-C ,  9-H ) :   0.8564
B(  1-C , 10-H ) :   0.8356 B(  1-C , 11-H ) :   0.2974 B(  1-C , 12-H ) :   0.2423
B(  1-C , 13-H ) :   0.2452 B(  2-C ,  3-H ) :   0.9200 B(  2-C ,  4-H ) :   0.8815
B(  2-C ,  5-S ) :   0.9038 B(  2-C ,  9-H ) :   0.1449 B(  2-C , 10-H ) :   0.1338
B(  5-S ,  6-O ) :   1.3347 B(  5-S ,  7-O ) :   1.2704 B(  5-S ,  8-O ) :   1.2314
B(  8-O , 11-H ) :   0.1169 B( 11-H , 12-H ) :   0.1283 B( 11-H , 13-H ) :   0.1143

Dispersion correction           -0.022785111
FINAL SINGLE POINT ENERGY      -741.851757061273

DIPOLE MOMENT
-------------
                                X             Y             Z
Electronic contribution:     -8.81947      -5.55292      -2.88776
Nuclear contribution   :     10.42821       6.37804       4.08250
                        -----------------------------------------
Total Dipole Moment    :      1.60874       0.82512       1.19474
                        -----------------------------------------
Magnitude (a.u.)       :      2.16709
Magnitude (Debye)      :      5.50830

Rotational constants in cm-1:     0.136992     0.054831     0.052480
Rotational constants in MHz :  4106.928256  1643.799656  1573.299166

                             ****ORCA TERMINATED NORMALLY****
TOTAL RUN TIME: 0 days 0 hours 0 minutes 14 seconds 149 msec
