                         Program Version 5.0.0 -  RELEASE  -
|  1> !B3LYP D3BJ RIJCOSX def2-SVPD def2/J TightSCF
|  2> *xyz 1 1
|  3> C          3.38093        2.08304       -3.35013
|  4> N          4.53592        1.18245       -3.42852
|  5> C          2.49556        1.81615       -2.13636
|  6> C          1.87218        0.42790       -2.07750
|  7> C          4.67196        0.12227       -4.22060
|  8> N          5.86602       -0.50785       -4.22428
|  9> N          3.69888       -0.31284       -4.98699
| 10> H          2.73141       -0.05009       -4.84900
| 11> H          3.89005       -1.05517       -5.64373
| 12> H          5.25193        1.30346       -2.72101
| 13> H          6.69516       -0.06232       -3.85160
| 14> H          5.97538       -1.39688       -4.69141
| 15> H          1.69700        2.56197       -2.14111
| 16> H          3.08079        1.98744       -1.22584
| 17> H          2.80646        1.98651       -4.26848
| 18> H          3.77871        3.09828       -3.30738
| 19> H          1.29954        0.25615       -2.96490
| 20> H          1.23321        0.35984       -1.22194
| 21> H          2.64581       -0.30765       -2.00430
| 22> *
| 23>
| 24> %MaxCore 64000
| 25>
| 26> %pal nprocs 8
| 27> end
| 28>
| 29> %scf
| 30>   MaxIter 150
| 31> end
| 32>
| 33>
| 34>                          ****END OF INPUT****

CARTESIAN COORDINATES (ANGSTROEM)
---------------------------------
  C      3.380930    2.083040   -3.350130
  N      4.535920    1.182450   -3.428520
  C      2.495560    1.816150   -2.136360
  C      1.872180    0.427900   -2.077500
  C      4.671960    0.122270   -4.220600
  N      5.866020   -0.507850   -4.224280
  N      3.698880   -0.312840   -4.986990
  H      2.731410   -0.050090   -4.849000
  H      3.890050   -1.055170   -5.643730
  H      5.251930    1.303460   -2.721010
  H      6.695160   -0.062320   -3.851600
  H      5.975380   -1.396880   -4.691410
  H      1.697000    2.561970   -2.141110
  H      3.080790    1.987440   -1.225840
  H      2.806460    1.986510   -4.268480
  H      3.778710    3.098280   -3.307380
  H      1.299540    0.256150   -2.964900
  H      1.233210    0.359840   -1.221940
  H      2.645810   -0.307650   -2.004300

 Total Charge           Charge          ....    1
 Multiplicity           Mult            ....    1
 Number of Electrons    NEL             ....   56
 Basis Dimension        Dim             ....  236

ORBITAL ENERGIES
----------------

  NO   OCC          E(Eh)            E(eV)
   0   2.0000     -14.553656      -396.0251
   1   2.0000     -14.548665      -395.8893
   2   2.0000     -14.546952      -395.8427
   3   2.0000     -10.515807      -286.1496
   4   2.0000     -10.384275      -282.5705
   5   2.0000     -10.324441      -280.9423
   6   2.0000     -10.304527      -280.4004
   7   2.0000      -1.202118       -32.7113
   8   2.0000      -1.093479       -29.7551
   9   2.0000      -1.078599       -29.3502
  10   2.0000      -0.933752       -25.4087
  11   2.0000      -0.860437       -23.4137
  12   2.0000      -0.821857       -22.3639
  13   2.0000      -0.785100       -21.3637
  14   2.0000      -0.760442       -20.6927
  15   2.0000      -0.727464       -19.7953
  16   2.0000      -0.695448       -18.9241
  17   2.0000      -0.691042       -18.8042
  18   2.0000      -0.639781       -17.4093
  19   2.0000      -0.631463       -17.1830
  20   2.0000      -0.599431       -16.3113
  21   2.0000      -0.578532       -15.7426
  22   2.0000      -0.555320       -15.1110
  23   2.0000      -0.511761       -13.9257
  24   2.0000      -0.491303       -13.3690
  25   2.0000      -0.484292       -13.1783
  26   2.0000      -0.475422       -12.9369
  27   2.0000      -0.443849       -12.0778
  28   0.0000      -0.168525        -4.5858
  29   0.0000      -0.151394        -4.1196
  30   0.0000      -0.120305        -3.2737
  31   0.0000      -0.110011        -2.9936
  32   0.0000      -0.094217        -2.5638

MULLIKEN ATOMIC CHARGES
-----------------------
   0 C :    0.974590
   1 N :   -0.464755
   2 C :   -0.151909
   3 C :    1.023464
   4 C :    1.382771
   5 N :    0.030062
   6 N :    0.128143
   7 H :   -0.141900
   8 H :   -0.148303
   9 H :   -0.259222
  10 H :   -0.109720
  11 H :   -0.057135
  12 H :   -0.117767
  13 H :   -0.132791
  14 H :   -0.141576
  15 H :   -0.334669
  16 H :   -0.131120
  17 H :   -0.251877
  18 H :   -0.096287
Sum of atomic charges:    1.0000000

LOEWDIN ATOMIC CHARGES
----------------------
   0 C :    0.086049
   1 N :    0.052466
   2 C :   -0.045958
   3 C :    0.139840
   4 C :   -0.040375
   5 N :    0.264702
   6 N :    0.288561
   7 H :    0.017712
   8 H :    0.040738
   9 H :    0.059762
  10 H :    0.033470
  11 H :    0.030459
  12 H :    0.034848
  13 H :    0.028661
  14 H :    0.022574
  15 H :    0.037754
  16 H :   -0.023105
  17 H :   -0.003751
  18 H :   -0.024409

  Mayer bond orders larger than 0.100000
B(  0-C ,  1-N ) :   0.9481 B(  0-C ,  2-C ) :   1.0991 B(  0-C ,  9-H ) :  -0.2068
B(  0-C , 12-H ) :   0.1239 B(  0-C , 13-H ) :   0.1390 B(  0-C , 14-H ) :   0.7011
B(  0-C , 15-H ) :   0.8490 B(  1-N ,  4-C ) :   0.9460 B(  1-N ,  5-N ) :   0.2691
B(  1-N ,  6-N ) :   0.2825 B(  1-N ,  9-H ) :   1.3302 B(  1-N , 14-H ) :   0.1795
B(  1-N , 15-H ) :   0.1649 B(  2-C ,  3-C ) :   1.2921 B(  2-C , 12-H ) :   0.8703
B(  2-C , 13-H ) :   0.8676 B(  2-C , 14-H ) :   0.1314 B(  2-C , 16-H ) :   0.2570
B(  2-C , 17-H ) :   0.2438 B(  2-C , 18-H ) :   0.2571 B(  3-C , 12-H ) :   0.1095
B(  3-C , 16-H ) :   0.7223 B(  3-C , 17-H ) :   0.7506 B(  3-C , 18-H ) :   0.7230
B(  4-C ,  5-N ) :   0.8425 B(  4-C ,  6-N ) :   0.9637 B(  4-C ,  7-H ) :  -0.1927
B(  4-C ,  8-H ) :  -0.2016 B(  4-C ,  9-H ) :  -0.2680 B(  4-C , 10-H ) :  -0.1771
B(  4-C , 11-H ) :  -0.1086 B(  5-N ,  6-N ) :   0.1815 B(  5-N , 10-H ) :   1.2153
B(  5-N , 11-H ) :   1.1852 B(  6-N ,  7-H ) :   1.1876 B(  6-N ,  8-H ) :   1.3159
B(  6-N , 14-H ) :   0.1047 B(  7-H ,  8-H ) :  -0.2370 B( 10-H , 11-H ) :  -0.1805
B( 14-H , 15-H ) :  -0.1543

Dispersion correction           -0.026162738
FINAL SINGLE POINT ENERGY      -323.324215740213

DIPOLE MOMENT
-------------
                                X             Y             Z
Electronic contribution:      5.30143      -1.45734      -3.77793
Nuclear contribution   :     -4.20917       0.72396       2.93051
                        -----------------------------------------
Total Dipole Moment    :      1.09226      -0.73338      -0.84742
                        -----------------------------------------
Magnitude (a.u.)       :      1.56492
Magnitude (Debye)      :      3.97772

Rotational constants in cm-1:     0.153116     0.051500     0.046494
Rotational constants in MHz :  4590.307026  1543.937577  1393.864628

                             ****ORCA TERMINATED NORMALLY****
TOTAL RUN TIME: 0 days 0 hours 0 minutes 17 seconds 640 msec
