                         Program Version 5.0.0 -  RELEASE  -
|  1> !B3LYP D3BJ RIJCOSX def2-SVPD def2/J TightSCF xyzfile
|  2>
|  3> *xyzfile 0 1 B.xyz
|  4>
|  5> %MaxCore 64000
|  6>
|  7> %pal nprocs 4
|  8> end
|  9>
| 10> %scf
| 11>   MaxIter 150
| 12> end
| 13>
| 14>
| 15>                          ****END OF INPUT****

CARTESIAN COORDINATES (ANGSTROEM)
---------------------------------
  C      3.380928    2.083045   -3.350127
  N      4.535924    1.182447   -3.428518
  C      2.495557    1.816150   -2.136364
  C      1.872181    0.427903   -2.077497
  H      2.614270   -0.365825   -2.198894
  H      1.389953    0.273087   -1.112360
  S      0.579024    0.140472   -3.297943
  C      4.671956    0.122273   -4.220598
  N      5.866023   -0.507849   -4.224284
  N      3.698881   -0.312844   -4.986988
  H      2.731405   -0.050091   -4.849000
  H      3.890046   -1.055172   -5.643730
  H      5.251933    1.303459   -2.721014
  H      6.695165   -0.062322   -3.851596
  H      5.975383   -1.396884   -4.691414
  O      0.228860   -1.246868   -3.127871
  O     -0.439269    1.118966   -3.014550
  O      1.247881    0.403474   -4.595647
  H      1.697003    2.561969   -2.141109
  H      3.080787    1.987436   -1.225838
  H      2.806463    1.986511   -4.268484
  H      3.778714    3.098282   -3.307383

 Total Charge           Charge          ....    0
 Multiplicity           Mult            ....    1
 Number of Electrons    NEL             ....   96
 Basis Dimension        Dim             ....  324

ORBITAL ENERGIES
----------------

  NO   OCC          E(Eh)            E(eV)
   0   2.0000     -89.027953     -2422.5738
   1   2.0000     -19.073063      -519.0044
   2   2.0000     -19.057957      -518.5934
   3   2.0000     -19.057883      -518.5914
   4   2.0000     -14.426017      -392.5519
   5   2.0000     -14.419732      -392.3809
   6   2.0000     -14.389843      -391.5675
   7   2.0000     -10.380066      -282.4559
   8   2.0000     -10.248310      -278.8707
   9   2.0000     -10.200088      -277.5585
  10   2.0000     -10.186078      -277.1773
  11   2.0000      -8.080984      -219.8948
  12   2.0000      -6.050547      -164.6438
  13   2.0000      -6.049449      -164.6139
  14   2.0000      -6.049124      -164.6050
  15   2.0000      -1.079677       -29.3795
  16   2.0000      -1.067735       -29.0546
  17   2.0000      -0.960544       -26.1377
  18   2.0000      -0.946217       -25.7479
  19   2.0000      -0.932788       -25.3825
  20   2.0000      -0.929074       -25.2814
  21   2.0000      -0.805223       -21.9112
  22   2.0000      -0.736072       -20.0295
  23   2.0000      -0.684554       -18.6277
  24   2.0000      -0.652144       -17.7457
  25   2.0000      -0.640864       -17.4388
  26   2.0000      -0.605756       -16.4835
  27   2.0000      -0.567963       -15.4551
  28   2.0000      -0.553177       -15.0527
  29   2.0000      -0.530701       -14.4411
  30   2.0000      -0.509444       -13.8627
  31   2.0000      -0.490250       -13.3404
  32   2.0000      -0.474962       -12.9244
  33   2.0000      -0.453821       -12.3491
  34   2.0000      -0.439792       -11.9673
  35   2.0000      -0.422155       -11.4874
  36   2.0000      -0.402375       -10.9492
  37   2.0000      -0.384344       -10.4585
  38   2.0000      -0.378346       -10.2953
  39   2.0000      -0.366465        -9.9720
  40   2.0000      -0.341898        -9.3035
  41   2.0000      -0.315303        -8.5798
  42   2.0000      -0.303300        -8.2532
  43   2.0000      -0.295540        -8.0420
  44   2.0000      -0.265761        -7.2317
  45   2.0000      -0.255582        -6.9548
  46   2.0000      -0.248507        -6.7622
  47   2.0000      -0.217049        -5.9062
  48   0.0000      -0.043842        -1.1930
  49   0.0000      -0.036502        -0.9933
  50   0.0000      -0.008544        -0.2325
  51   0.0000       0.009507         0.2587
  52   0.0000       0.033093         0.9005

MULLIKEN ATOMIC CHARGES
-----------------------
   0 C :    1.103081
   1 N :   -0.462017
   2 C :    0.347629
   3 C :    0.291049
   4 H :   -0.020206
   5 H :   -0.271414
   6 S :    1.464819
   7 C :    1.240735
   8 N :    0.053354
   9 N :    0.491008
  10 H :   -0.346552
  11 H :   -0.196089
  12 H :   -0.261028
  13 H :   -0.149494
  14 H :   -0.083779
  15 O :   -0.770111
  16 O :   -0.810279
  17 O :   -0.945658
  18 H :   -0.061961
  19 H :   -0.143662
  20 H :   -0.071495
  21 H :   -0.397931
Sum of atomic charges:    0.0000000

LOEWDIN ATOMIC CHARGES
----------------------
   0 C :    0.092966
   1 N :    0.045064
   2 C :   -0.012019
   3 C :   -0.068561
   4 H :   -0.002014
   5 H :    0.016136
   6 S :    0.934154
   7 C :   -0.046595
   8 N :    0.239929
   9 N :    0.315764
  10 H :   -0.133092
  11 H :    0.035101
  12 H :    0.045453
  13 H :    0.014894
  14 H :    0.016851
  15 O :   -0.527619
  16 O :   -0.519367
  17 O :   -0.535285
  18 H :    0.033785
  19 H :    0.018417
  20 H :    0.008779
  21 H :    0.027258

  Mayer bond orders larger than 0.100000
B(  0-C ,  1-N ) :   0.9096 B(  0-C ,  2-C ) :   1.0927 B(  0-C , 12-H ) :  -0.1928
B(  0-C , 18-H ) :   0.1560 B(  0-C , 19-H ) :   0.1528 B(  0-C , 20-H ) :   0.6994
B(  0-C , 21-H ) :   0.7342 B(  1-N ,  7-C ) :   0.9649 B(  1-N ,  8-N ) :   0.2515
B(  1-N ,  9-N ) :   0.1815 B(  1-N , 12-H ) :   1.3226 B(  1-N , 20-H ) :   0.2203
B(  1-N , 21-H ) :   0.1688 B(  2-C ,  3-C ) :   1.2127 B(  2-C ,  4-H ) :   0.1514
B(  2-C ,  5-H ) :   0.1883 B(  2-C , 18-H ) :   0.7973 B(  2-C , 19-H ) :   0.7095
B(  2-C , 20-H ) :   0.1588 B(  3-C ,  4-H ) :   0.9082 B(  3-C ,  5-H ) :   0.7638
B(  3-C ,  6-S ) :   0.8873 B(  3-C , 15-O ) :   0.1000 B(  3-C , 17-O ) :   0.1760
B(  3-C , 18-H ) :   0.1760 B(  3-C , 19-H ) :   0.1536 B(  5-H ,  6-S ) :   0.1169
B(  6-S , 15-O ) :   1.3304 B(  6-S , 16-O ) :   1.3250 B(  6-S , 17-O ) :   1.0927
B(  7-C ,  8-N ) :   0.8386 B(  7-C ,  9-N ) :   1.1127 B(  7-C , 10-H ) :  -0.2748
B(  7-C , 11-H ) :  -0.1777 B(  7-C , 12-H ) :  -0.2533 B(  7-C , 13-H ) :  -0.1796
B(  7-C , 14-H ) :  -0.1026 B(  8-N ,  9-N ) :   0.1641 B(  8-N , 13-H ) :   1.2391
B(  8-N , 14-H ) :   1.1945 B(  9-N , 10-H ) :   1.1158 B(  9-N , 11-H ) :   1.2087
B( 10-H , 11-H ) :  -0.2563 B( 10-H , 17-O ) :   0.2110 B( 13-H , 14-H ) :  -0.1819
B( 17-O , 20-H ) :   0.1069 B( 20-H , 21-H ) :  -0.1602

Dispersion correction           -0.042041631
FINAL SINGLE POINT ENERGY      -946.339330760952

DIPOLE MOMENT
-------------
                                X             Y             Z
Electronic contribution:     -7.04212      -3.17585      -2.41576
Nuclear contribution   :     13.40759       3.44219       2.21042
                        -----------------------------------------
Total Dipole Moment    :      6.36548       0.26635      -0.20534
                        -----------------------------------------
Magnitude (a.u.)       :      6.37435
Magnitude (Debye)      :     16.20232

Rotational constants in cm-1:     0.059860     0.020817     0.017914
Rotational constants in MHz :  1794.564877   624.092098   537.039275

                             ****ORCA TERMINATED NORMALLY****
TOTAL RUN TIME: 0 days 0 hours 1 minutes 24 seconds 906 msec
