                         Program Version 5.0.0 -  RELEASE  -
|  1> !B3LYP D3BJ RIJCOSX def2-SVPD def2/J TightSCF
|  2> *xyz 0 1
|  3> C          3.38093        2.08304       -3.35013
|  4> C          2.49556        1.81615       -2.13636
|  5> C          1.87218        0.42790       -2.07750
|  6> H          2.61427       -0.36583       -2.19889
|  7> H          1.38995        0.27309       -1.11236
|  8> S          0.57902        0.14047       -3.29794
|  9> F          0.22886       -1.24687       -3.12787
| 10> O         -0.43927        1.11897       -3.01455
| 11> O          1.24788        0.40347       -4.59565
| 12> H          1.69700        2.56197       -2.14111
| 13> H          3.08079        1.98744       -1.22584
| 14> H          2.81820        1.91840       -4.24519
| 15> H          4.22171        1.42153       -3.33067
| 16> H          3.72372        3.09635       -3.32565
| 17> *
| 18>
| 19> %MaxCore 64000
| 20>
| 21> %pal nprocs 8
| 22> end
| 23>
| 24> %scf
| 25>   MaxIter 150
| 26> end
| 27>
| 28>
| 29>                          ****END OF INPUT****

CARTESIAN COORDINATES (ANGSTROEM)
---------------------------------
  C      3.380930    2.083040   -3.350130
  C      2.495560    1.816150   -2.136360
  C      1.872180    0.427900   -2.077500
  H      2.614270   -0.365830   -2.198890
  H      1.389950    0.273090   -1.112360
  S      0.579020    0.140470   -3.297940
  F      0.228860   -1.246870   -3.127870
  O     -0.439270    1.118970   -3.014550
  O      1.247880    0.403470   -4.595650
  H      1.697000    2.561970   -2.141110
  H      3.080790    1.987440   -1.225840
  H      2.818200    1.918400   -4.245190
  H      4.221710    1.421530   -3.330670
  H      3.723720    3.096350   -3.325650

 Total Charge           Charge          ....    0
 Multiplicity           Mult            ....    1
 Number of Electrons    NEL             ....   66
 Basis Dimension        Dim             ....  212

ORBITAL ENERGIES
----------------

  NO   OCC          E(Eh)            E(eV)
   0   2.0000     -89.140210     -2425.6284
   1   2.0000     -24.818410      -675.3433
   2   2.0000     -19.155720      -521.2536
   3   2.0000     -19.141113      -520.8562
   4   2.0000     -10.243662      -278.7442
   5   2.0000     -10.209204      -277.8066
   6   2.0000     -10.170382      -276.7502
   7   2.0000      -8.194774      -222.9911
   8   2.0000      -6.167776      -167.8337
   9   2.0000      -6.161472      -167.6622
  10   2.0000      -6.159894      -167.6192
  11   2.0000      -1.380475       -37.5646
  12   2.0000      -1.111844       -30.2548
  13   2.0000      -1.005720       -27.3670
  14   2.0000      -0.825031       -22.4502
  15   2.0000      -0.755331       -20.5536
  16   2.0000      -0.707785       -19.2598
  17   2.0000      -0.632251       -17.2044
  18   2.0000      -0.593547       -16.1512
  19   2.0000      -0.581102       -15.8126
  20   2.0000      -0.558877       -15.2078
  21   2.0000      -0.495575       -13.4853
  22   2.0000      -0.487250       -13.2587
  23   2.0000      -0.454915       -12.3789
  24   2.0000      -0.444885       -12.1059
  25   2.0000      -0.434259       -11.8168
  26   2.0000      -0.391768       -10.6606
  27   2.0000      -0.373795       -10.1715
  28   2.0000      -0.372083       -10.1249
  29   2.0000      -0.358718        -9.7612
  30   2.0000      -0.339198        -9.2301
  31   2.0000      -0.316675        -8.6172
  32   2.0000      -0.309501        -8.4220
  33   0.0000      -0.005712        -0.1554
  34   0.0000       0.016143         0.4393
  35   0.0000       0.032733         0.8907
  36   0.0000       0.037562         1.0221
  37   0.0000       0.047766         1.2998

MULLIKEN ATOMIC CHARGES
-----------------------
   0 C :    1.095114
   1 C :   -0.094020
   2 C :    0.170518
   3 H :   -0.060119
   4 H :   -0.054111
   5 S :    1.585086
   6 F :   -0.434775
   7 O :   -0.657392
   8 O :   -0.743217
   9 H :   -0.084435
  10 H :   -0.202746
  11 H :   -0.332577
  12 H :   -0.083029
  13 H :   -0.104297
Sum of atomic charges:   -0.0000000

LOEWDIN ATOMIC CHARGES
----------------------
   0 C :    0.145360
   1 C :   -0.056663
   2 C :   -0.054412
   3 H :    0.022746
   4 H :    0.016581
   5 S :    1.133567
   6 F :   -0.255367
   7 O :   -0.459111
   8 O :   -0.476975
   9 H :    0.028031
  10 H :    0.030572
  11 H :   -0.047460
  12 H :   -0.013163
  13 H :   -0.013704

  Mayer bond orders larger than 0.100000
B(  0-C ,  1-C ) :   1.2649 B(  0-C ,  9-H ) :   0.1110 B(  0-C , 11-H ) :   0.7396
B(  0-C , 12-H ) :   0.6717 B(  0-C , 13-H ) :   0.6550 B(  1-C ,  2-C ) :   1.2428
B(  1-C ,  3-H ) :   0.1339 B(  1-C ,  4-H ) :   0.1549 B(  1-C ,  9-H ) :   0.8565
B(  1-C , 10-H ) :   0.8424 B(  1-C , 11-H ) :   0.2817 B(  1-C , 12-H ) :   0.2390
B(  1-C , 13-H ) :   0.2363 B(  2-C ,  3-H ) :   0.9109 B(  2-C ,  4-H ) :   0.8513
B(  2-C ,  5-S ) :   0.9404 B(  2-C ,  9-H ) :   0.1374 B(  2-C , 10-H ) :   0.1255
B(  5-S ,  6-F ) :   0.6738 B(  5-S ,  7-O ) :   1.4865 B(  5-S ,  8-O ) :   1.4245
B(  8-O , 11-H ) :   0.1058 B( 11-H , 12-H ) :   0.1285 B( 11-H , 13-H ) :   0.1122

Dispersion correction           -0.022019697
FINAL SINGLE POINT ENERGY      -766.333372459993

DIPOLE MOMENT
-------------
                                X             Y             Z
Electronic contribution:    -10.67726      -8.89195      -2.83137
Nuclear contribution   :     11.47400       8.34657       4.07449
                        -----------------------------------------
Total Dipole Moment    :      0.79674      -0.54538       1.24312
                        -----------------------------------------
Magnitude (a.u.)       :      1.57403
Magnitude (Debye)      :      4.00087

Rotational constants in cm-1:     0.134491     0.052696     0.050832
Rotational constants in MHz :  4031.952949  1579.780527  1523.918863

                             ****ORCA TERMINATED NORMALLY****
TOTAL RUN TIME: 0 days 0 hours 0 minutes 13 seconds 782 msec
