                         Program Version 5.0.0 -  RELEASE  -
|  1> !B3LYP D3BJ RIJCOSX def2-SVPD def2/J TightSCF
|  2> *xyz 0 1
|  3> C          3.38093        2.08304       -3.35013
|  4> C          4.53592        1.18245       -3.42852
|  5> C          2.49556        1.81615       -2.13636
|  6> C          1.87218        0.42790       -2.07750
|  7> C          4.67196        0.12227       -4.22060
|  8> N          5.86602       -0.50785       -4.22428
|  9> N          3.69888       -0.31284       -4.98699
| 10> H          2.73141       -0.05009       -4.84900
| 11> H          3.89005       -1.05517       -5.64373
| 12> H          5.25193        1.30346       -2.72101
| 13> H          6.69516       -0.06232       -3.85160
| 14> H          5.97538       -1.39688       -4.69141
| 15> H          1.69700        2.56197       -2.14111
| 16> H          3.08079        1.98744       -1.22584
| 17> H          2.80646        1.98651       -4.26848
| 18> H          3.77871        3.09828       -3.30738
| 19> H          1.29954        0.25615       -2.96490
| 20> H          1.23321        0.35984       -1.22194
| 21> H          2.64581       -0.30765       -2.00430
| 22> *
| 23>
| 24> %MaxCore 64000
| 25>
| 26> %pal nprocs 8
| 27> end
| 28>
| 29> %scf
| 30>   MaxIter 150
| 31> end
| 32>
| 33>
| 34>                          ****END OF INPUT****

CARTESIAN COORDINATES (ANGSTROEM)
---------------------------------
  C      3.380930    2.083040   -3.350130
  C      4.535920    1.182450   -3.428520
  C      2.495560    1.816150   -2.136360
  C      1.872180    0.427900   -2.077500
  C      4.671960    0.122270   -4.220600
  N      5.866020   -0.507850   -4.224280
  N      3.698880   -0.312840   -4.986990
  H      2.731410   -0.050090   -4.849000
  H      3.890050   -1.055170   -5.643730
  H      5.251930    1.303460   -2.721010
  H      6.695160   -0.062320   -3.851600
  H      5.975380   -1.396880   -4.691410
  H      1.697000    2.561970   -2.141110
  H      3.080790    1.987440   -1.225840
  H      2.806460    1.986510   -4.268480
  H      3.778710    3.098280   -3.307380
  H      1.299540    0.256150   -2.964900
  H      1.233210    0.359840   -1.221940
  H      2.645810   -0.307650   -2.004300

 Total Charge           Charge          ....    0
 Multiplicity           Mult            ....    1
 Number of Electrons    NEL             ....   56
 Basis Dimension        Dim             ....  236

ORBITAL ENERGIES
----------------

  NO   OCC          E(Eh)            E(eV)
   0   2.0000     -14.333653      -390.0385
   1   2.0000     -14.326733      -389.8502
   2   2.0000     -10.225725      -278.2561
   3   2.0000     -10.158691      -276.4320
   4   2.0000     -10.154604      -276.3208
   5   2.0000     -10.153881      -276.3012
   6   2.0000     -10.105185      -274.9761
   7   2.0000      -0.952157       -25.9095
   8   2.0000      -0.860450       -23.4140
   9   2.0000      -0.776737       -21.1361
  10   2.0000      -0.714046       -19.4302
  11   2.0000      -0.654315       -17.8048
  12   2.0000      -0.596262       -16.2251
  13   2.0000      -0.560723       -15.2581
  14   2.0000      -0.542710       -14.7679
  15   2.0000      -0.505776       -13.7629
  16   2.0000      -0.481736       -13.1087
  17   2.0000      -0.443917       -12.0796
  18   2.0000      -0.431974       -11.7546
  19   2.0000      -0.415052       -11.2941
  20   2.0000      -0.383885       -10.4460
  21   2.0000      -0.375717       -10.2238
  22   2.0000      -0.351493        -9.5646
  23   2.0000      -0.332649        -9.0518
  24   2.0000      -0.316569        -8.6143
  25   2.0000      -0.311036        -8.4637
  26   2.0000      -0.264614        -7.2005
  27   2.0000      -0.158807        -4.3214
  28   0.0000       0.012017         0.3270
  29   0.0000       0.034238         0.9317
  30   0.0000       0.046953         1.2777
  31   0.0000       0.059858         1.6288
  32   0.0000       0.063294         1.7223

MULLIKEN ATOMIC CHARGES
-----------------------
   0 C :    0.471701
   1 C :   -0.235377
   2 C :   -0.180064
   3 C :    1.011751
   4 C :    0.947070
   5 N :    0.065679
   6 N :    0.228320
   7 H :   -0.173510
   8 H :   -0.306455
   9 H :   -0.372981
  10 H :   -0.132168
  11 H :   -0.175403
  12 H :   -0.163381
  13 H :   -0.139464
  14 H :   -0.189696
  15 H :   -0.173463
  16 H :   -0.151617
  17 H :   -0.237969
  18 H :   -0.092973
Sum of atomic charges:    0.0000000

LOEWDIN ATOMIC CHARGES
----------------------
   0 C :   -0.052798
   1 C :   -0.025077
   2 C :   -0.075825
   3 C :    0.123339
   4 C :   -0.223446
   5 N :    0.184969
   6 N :    0.206595
   7 H :   -0.012256
   8 H :   -0.008637
   9 H :   -0.049940
  10 H :   -0.000093
  11 H :   -0.020281
  12 H :    0.008569
  13 H :    0.017805
  14 H :    0.000684
  15 H :    0.009748
  16 H :   -0.031984
  17 H :   -0.025903
  18 H :   -0.025466

  Mayer bond orders larger than 0.100000
B(  0-C ,  1-C ) :   1.1220 B(  0-C ,  2-C ) :   1.1225 B(  0-C ,  9-H ) :   0.2677
B(  0-C , 12-H ) :   0.1552 B(  0-C , 13-H ) :   0.1656 B(  0-C , 14-H ) :   0.7273
B(  0-C , 15-H ) :   0.7984 B(  1-C ,  2-C ) :   0.1211 B(  1-C ,  4-C ) :   1.5640
B(  1-C ,  5-N ) :   0.4362 B(  1-C ,  6-N ) :   0.2829 B(  1-C ,  9-H ) :   0.8036
B(  1-C , 14-H ) :   0.2781 B(  1-C , 15-H ) :   0.1646 B(  2-C ,  3-C ) :   1.2939
B(  2-C , 12-H ) :   0.8545 B(  2-C , 13-H ) :   0.8604 B(  2-C , 14-H ) :   0.1439
B(  2-C , 16-H ) :   0.2617 B(  2-C , 17-H ) :   0.2536 B(  2-C , 18-H ) :   0.2783
B(  3-C , 12-H ) :   0.1250 B(  3-C , 13-H ) :   0.1048 B(  3-C , 16-H ) :   0.7291
B(  3-C , 17-H ) :   0.7053 B(  3-C , 18-H ) :   0.7191 B(  4-C ,  5-N ) :   0.7499
B(  4-C ,  6-N ) :   1.0138 B(  4-C ,  8-H ) :  -0.2220 B(  4-C ,  9-H ) :   0.1294
B(  4-C , 10-H ) :  -0.1641 B(  4-C , 14-H ) :  -0.1342 B(  5-N ,  6-N ) :   0.1041
B(  5-N , 10-H ) :   1.2375 B(  5-N , 11-H ) :   1.1787 B(  6-N ,  7-H ) :   1.1486
B(  6-N ,  8-H ) :   1.3742 B(  7-H ,  8-H ) :  -0.2300 B( 10-H , 11-H ) :  -0.1700
B( 16-H , 18-H ) :   0.1124

Dispersion correction           -0.027215838
FINAL SINGLE POINT ENERGY      -306.853207223119

DIPOLE MOMENT
-------------
                                X             Y             Z
Electronic contribution:      4.23817      -1.64091      -3.47080
Nuclear contribution   :     -4.04774       0.83876       2.94666
                        -----------------------------------------
Total Dipole Moment    :      0.19042      -0.80215      -0.52413
                        -----------------------------------------
Magnitude (a.u.)       :      0.97694
Magnitude (Debye)      :      2.48319

Rotational constants in cm-1:     0.155283     0.051523     0.046710
Rotational constants in MHz :  4655.262593  1544.606434  1400.328421

                             ****ORCA TERMINATED NORMALLY****
TOTAL RUN TIME: 0 days 0 hours 0 minutes 19 seconds 390 msec
