                         Program Version 5.0.0 -  RELEASE  -
|  1> !B3LYP D3BJ RIJCOSX def2-SVPD def2/J TightSCF
|  2> *xyz 0 1
|  3> C          3.38093        2.08304       -3.35013
|  4> C          2.49556        1.81615       -2.13636
|  5> C          1.87218        0.42790       -2.07750
|  6> H          2.61427       -0.36583       -2.19889
|  7> H          1.38995        0.27309       -1.11236
|  8> S          0.57902        0.14047       -3.29794
|  9> O          0.22886       -1.24687       -3.12787
| 10> F         -0.43927        1.11897       -3.01455
| 11> O          1.24788        0.40347       -4.59565
| 12> H          1.69700        2.56197       -2.14111
| 13> H          3.08079        1.98744       -1.22584
| 14> H          2.81820        1.91840       -4.24519
| 15> H          4.22171        1.42153       -3.33067
| 16> H          3.72372        3.09635       -3.32565
| 17> *
| 18>
| 19> %MaxCore 64000
| 20>
| 21> %pal nprocs 8
| 22> end
| 23>
| 24> %scf
| 25>   MaxIter 150
| 26> end
| 27>
| 28>
| 29>                          ****END OF INPUT****

CARTESIAN COORDINATES (ANGSTROEM)
---------------------------------
  C      3.380930    2.083040   -3.350130
  C      2.495560    1.816150   -2.136360
  C      1.872180    0.427900   -2.077500
  H      2.614270   -0.365830   -2.198890
  H      1.389950    0.273090   -1.112360
  S      0.579020    0.140470   -3.297940
  O      0.228860   -1.246870   -3.127870
  F     -0.439270    1.118970   -3.014550
  O      1.247880    0.403470   -4.595650
  H      1.697000    2.561970   -2.141110
  H      3.080790    1.987440   -1.225840
  H      2.818200    1.918400   -4.245190
  H      4.221710    1.421530   -3.330670
  H      3.723720    3.096350   -3.325650

 Total Charge           Charge          ....    0
 Multiplicity           Mult            ....    1
 Number of Electrons    NEL             ....   66
 Basis Dimension        Dim             ....  212

ORBITAL ENERGIES
----------------

  NO   OCC          E(Eh)            E(eV)
   0   2.0000     -89.140621     -2425.6396
   1   2.0000     -24.819053      -675.3608
   2   2.0000     -19.155790      -521.2555
   3   2.0000     -19.141638      -520.8704
   4   2.0000     -10.243614      -278.7429
   5   2.0000     -10.212437      -277.8945
   6   2.0000     -10.173421      -276.8329
   7   2.0000      -8.195095      -222.9999
   8   2.0000      -6.168193      -167.8451
   9   2.0000      -6.161747      -167.6697
  10   2.0000      -6.160188      -167.6272
  11   2.0000      -1.381413       -37.5902
  12   2.0000      -1.111098       -30.2345
  13   2.0000      -1.006835       -27.3974
  14   2.0000      -0.828393       -22.5417
  15   2.0000      -0.752638       -20.4803
  16   2.0000      -0.711167       -19.3518
  17   2.0000      -0.631915       -17.1953
  18   2.0000      -0.599121       -16.3029
  19   2.0000      -0.591113       -16.0850
  20   2.0000      -0.550086       -14.9686
  21   2.0000      -0.493058       -13.4168
  22   2.0000      -0.488328       -13.2881
  23   2.0000      -0.458706       -12.4820
  24   2.0000      -0.449473       -12.2308
  25   2.0000      -0.434859       -11.8331
  26   2.0000      -0.392333       -10.6759
  27   2.0000      -0.379059       -10.3147
  28   2.0000      -0.375383       -10.2147
  29   2.0000      -0.361888        -9.8475
  30   2.0000      -0.337752        -9.1907
  31   2.0000      -0.319493        -8.6939
  32   2.0000      -0.308233        -8.3875
  33   0.0000      -0.009908        -0.2696
  34   0.0000       0.020513         0.5582
  35   0.0000       0.032261         0.8779
  36   0.0000       0.033774         0.9190
  37   0.0000       0.041559         1.1309

MULLIKEN ATOMIC CHARGES
-----------------------
   0 C :    1.098111
   1 C :   -0.041897
   2 C :    0.187623
   3 H :   -0.069670
   4 H :   -0.071640
   5 S :    1.538360
   6 O :   -0.660731
   7 F :   -0.405943
   8 O :   -0.729222
   9 H :   -0.117619
  10 H :   -0.208090
  11 H :   -0.335144
  12 H :   -0.080130
  13 H :   -0.104008
Sum of atomic charges:    0.0000000

LOEWDIN ATOMIC CHARGES
----------------------
   0 C :    0.143241
   1 C :   -0.071865
   2 C :   -0.043707
   3 H :    0.037111
   4 H :    0.016999
   5 S :    1.130823
   6 O :   -0.459025
   7 F :   -0.252942
   8 O :   -0.472418
   9 H :    0.020544
  10 H :    0.027477
  11 H :   -0.050700
  12 H :   -0.010959
  13 H :   -0.014579

  Mayer bond orders larger than 0.100000
B(  0-C ,  1-C ) :   1.2755 B(  0-C ,  9-H ) :   0.1132 B(  0-C , 11-H ) :   0.7349
B(  0-C , 12-H ) :   0.6749 B(  0-C , 13-H ) :   0.6599 B(  1-C ,  2-C ) :   1.1967
B(  1-C ,  3-H ) :   0.1276 B(  1-C ,  4-H ) :   0.1403 B(  1-C ,  9-H ) :   0.8430
B(  1-C , 10-H ) :   0.8393 B(  1-C , 11-H ) :   0.2875 B(  1-C , 12-H ) :   0.2401
B(  1-C , 13-H ) :   0.2342 B(  2-C ,  3-H ) :   0.9236 B(  2-C ,  4-H ) :   0.8797
B(  2-C ,  5-S ) :   0.9707 B(  2-C ,  9-H ) :   0.1302 B(  2-C , 10-H ) :   0.1178
B(  5-S ,  6-O ) :   1.5579 B(  5-S ,  7-F ) :   0.6495 B(  5-S ,  8-O ) :   1.4605
B(  8-O , 11-H ) :   0.1017 B( 11-H , 12-H ) :   0.1265 B( 11-H , 13-H ) :   0.1122

Dispersion correction           -0.021912620
FINAL SINGLE POINT ENERGY      -766.332882257859

DIPOLE MOMENT
-------------
                                X             Y             Z
Electronic contribution:    -11.80192      -4.83834      -2.63722
Nuclear contribution   :     12.19253       5.80225       3.95262
                        -----------------------------------------
Total Dipole Moment    :      0.39061       0.96392       1.31540
                        -----------------------------------------
Magnitude (a.u.)       :      1.67690
Magnitude (Debye)      :      4.26234

Rotational constants in cm-1:     0.130581     0.053444     0.051914
Rotational constants in MHz :  3914.711139  1602.211061  1556.338643

                             ****ORCA TERMINATED NORMALLY****
TOTAL RUN TIME: 0 days 0 hours 0 minutes 13 seconds 892 msec
