                         Program Version 5.0.0 -  RELEASE  -
|  1> !B3LYP D3BJ RIJCOSX def2-SVPD def2/J TightSCF
|  2> *xyz 0 1
|  3> C          3.38093        2.08304       -3.35013
|  4> N          4.53592        1.18245       -3.42852
|  5> C          2.49556        1.81615       -2.13636
|  6> C          1.87218        0.42790       -2.07750
|  7> C          4.67196        0.12227       -4.22060
|  8> C          5.86602       -0.50785       -4.22428
|  9> N          3.69888       -0.31284       -4.98699
| 10> H          2.73141       -0.05009       -4.84900
| 11> H          3.89005       -1.05517       -5.64373
| 12> H          5.25193        1.30346       -2.72101
| 13> H          6.69516       -0.06232       -3.85160
| 14> H          5.97538       -1.39688       -4.69141
| 15> H          1.69700        2.56197       -2.14111
| 16> H          3.08079        1.98744       -1.22584
| 17> H          2.80646        1.98651       -4.26848
| 18> H          3.77871        3.09828       -3.30738
| 19> H          1.29954        0.25615       -2.96490
| 20> H          1.23321        0.35984       -1.22194
| 21> H          2.64581       -0.30765       -2.00430
| 22> *
| 23>
| 24> %MaxCore 64000
| 25>
| 26> %pal nprocs 8
| 27> end
| 28>
| 29> %scf
| 30>   MaxIter 150
| 31> end
| 32>
| 33>
| 34>                          ****END OF INPUT****

CARTESIAN COORDINATES (ANGSTROEM)
---------------------------------
  C      3.380930    2.083040   -3.350130
  N      4.535920    1.182450   -3.428520
  C      2.495560    1.816150   -2.136360
  C      1.872180    0.427900   -2.077500
  C      4.671960    0.122270   -4.220600
  C      5.866020   -0.507850   -4.224280
  N      3.698880   -0.312840   -4.986990
  H      2.731410   -0.050090   -4.849000
  H      3.890050   -1.055170   -5.643730
  H      5.251930    1.303460   -2.721010
  H      6.695160   -0.062320   -3.851600
  H      5.975380   -1.396880   -4.691410
  H      1.697000    2.561970   -2.141110
  H      3.080790    1.987440   -1.225840
  H      2.806460    1.986510   -4.268480
  H      3.778710    3.098280   -3.307380
  H      1.299540    0.256150   -2.964900
  H      1.233210    0.359840   -1.221940
  H      2.645810   -0.307650   -2.004300

 Total Charge           Charge          ....    0
 Multiplicity           Mult            ....    1
 Number of Electrons    NEL             ....   56
 Basis Dimension        Dim             ....  236

ORBITAL ENERGIES
----------------

  NO   OCC          E(Eh)            E(eV)
   0   2.0000     -14.332214      -389.9994
   1   2.0000     -14.328350      -389.8942
   2   2.0000     -10.228884      -278.3421
   3   2.0000     -10.220467      -278.1131
   4   2.0000     -10.185570      -277.1634
   5   2.0000     -10.173172      -276.8261
   6   2.0000     -10.091604      -274.6065
   7   2.0000      -0.958895       -26.0929
   8   2.0000      -0.878616       -23.9084
   9   2.0000      -0.783949       -21.3323
  10   2.0000      -0.714606       -19.4454
  11   2.0000      -0.663873       -18.0649
  12   2.0000      -0.600956       -16.3528
  13   2.0000      -0.591955       -16.1079
  14   2.0000      -0.543855       -14.7990
  15   2.0000      -0.498143       -13.5552
  16   2.0000      -0.475893       -12.9497
  17   2.0000      -0.461108       -12.5474
  18   2.0000      -0.450124       -12.2485
  19   2.0000      -0.405725       -11.0403
  20   2.0000      -0.395910       -10.7733
  21   2.0000      -0.389785       -10.6066
  22   2.0000      -0.371662       -10.1134
  23   2.0000      -0.352195        -9.5837
  24   2.0000      -0.348083        -9.4718
  25   2.0000      -0.344370        -9.3708
  26   2.0000      -0.253408        -6.8956
  27   2.0000      -0.156655        -4.2628
  28   0.0000       0.010311         0.2806
  29   0.0000       0.032653         0.8885
  30   0.0000       0.040892         1.1127
  31   0.0000       0.046450         1.2640
  32   0.0000       0.068445         1.8625

MULLIKEN ATOMIC CHARGES
-----------------------
   0 C :    0.962117
   1 N :   -0.330032
   2 C :   -0.160407
   3 C :    0.996811
   4 C :    0.665378
   5 C :    0.589776
   6 N :    0.291952
   7 H :   -0.268052
   8 H :   -0.171700
   9 H :   -0.306096
  10 H :   -0.496185
  11 H :   -0.428804
  12 H :   -0.131993
  13 H :   -0.149726
  14 H :   -0.176791
  15 H :   -0.399497
  16 H :   -0.129328
  17 H :   -0.290877
  18 H :   -0.066547
Sum of atomic charges:   -0.0000000

LOEWDIN ATOMIC CHARGES
----------------------
   0 C :    0.056110
   1 N :   -0.002343
   2 C :   -0.067684
   3 C :    0.128611
   4 C :   -0.242354
   5 C :    0.149849
   6 N :    0.203903
   7 H :   -0.025292
   8 H :    0.009976
   9 H :    0.035417
  10 H :   -0.112408
  11 H :   -0.115528
  12 H :    0.014563
  13 H :    0.017331
  14 H :    0.008516
  15 H :    0.012880
  16 H :   -0.029399
  17 H :   -0.022010
  18 H :   -0.020136

  Mayer bond orders larger than 0.100000
B(  0-C ,  1-N ) :   0.9712 B(  0-C ,  2-C ) :   1.0874 B(  0-C ,  9-H ) :  -0.2200
B(  0-C , 12-H ) :   0.1411 B(  0-C , 13-H ) :   0.1523 B(  0-C , 14-H ) :   0.7055
B(  0-C , 15-H ) :   0.8385 B(  1-N ,  4-C ) :   1.0139 B(  1-N ,  5-C ) :   0.2198
B(  1-N ,  6-N ) :   0.2026 B(  1-N ,  9-H ) :   1.2584 B(  1-N , 14-H ) :   0.2119
B(  1-N , 15-H ) :   0.1664 B(  2-C ,  3-C ) :   1.2847 B(  2-C , 12-H ) :   0.8581
B(  2-C , 13-H ) :   0.8588 B(  2-C , 14-H ) :   0.1356 B(  2-C , 16-H ) :   0.2601
B(  2-C , 17-H ) :   0.2472 B(  2-C , 18-H ) :   0.2579 B(  3-C , 12-H ) :   0.1081
B(  3-C , 16-H ) :   0.7334 B(  3-C , 17-H ) :   0.7272 B(  3-C , 18-H ) :   0.7380
B(  4-C ,  5-C ) :   1.3338 B(  4-C ,  6-N ) :   1.0714 B(  4-C ,  7-H ) :  -0.1035
B(  4-C ,  8-H ) :  -0.1168 B(  4-C ,  9-H ) :  -0.2277 B(  4-C , 11-H ) :   0.2228
B(  5-C ,  6-N ) :   0.2029 B(  5-C , 10-H ) :   0.8003 B(  5-C , 11-H ) :   0.6748
B(  6-N ,  7-H ) :   1.1622 B(  6-N ,  8-H ) :   1.2605 B(  6-N , 14-H ) :   0.1174
B(  7-H ,  8-H ) :  -0.2204 B( 14-H , 15-H ) :  -0.1594

Dispersion correction           -0.026864737
FINAL SINGLE POINT ENERGY      -306.842337516336

DIPOLE MOMENT
-------------
                                X             Y             Z
Electronic contribution:      2.70681       0.00746      -2.61183
Nuclear contribution   :     -3.75638       0.46849       2.77235
                        -----------------------------------------
Total Dipole Moment    :     -1.04957       0.47595       0.16051
                        -----------------------------------------
Magnitude (a.u.)       :      1.16357
Magnitude (Debye)      :      2.95756

Rotational constants in cm-1:     0.154609     0.053528     0.048030
Rotational constants in MHz :  4635.053294  1604.739826  1439.897073

                             ****ORCA TERMINATED NORMALLY****
TOTAL RUN TIME: 0 days 0 hours 0 minutes 17 seconds 531 msec
