                         Program Version 5.0.0 -  RELEASE  -
|  1> !B3LYP D3BJ RIJCOSX def2-SVPD def2/J TightSCF
|  2> *xyz 0 1
|  3> C          3.38093        2.08304       -3.35013
|  4> C          2.49556        1.81615       -2.13636
|  5> C          1.87218        0.42790       -2.07750
|  6> H          2.61427       -0.36583       -2.19889
|  7> H          1.38995        0.27309       -1.11236
|  8> S          0.57902        0.14047       -3.29794
|  9> O          0.22886       -1.24687       -3.12787
| 10> O         -0.43927        1.11897       -3.01455
| 11> F          1.24788        0.40347       -4.59565
| 12> H          1.69700        2.56197       -2.14111
| 13> H          3.08079        1.98744       -1.22584
| 14> H          2.81820        1.91840       -4.24519
| 15> H          4.22171        1.42153       -3.33067
| 16> H          3.72372        3.09635       -3.32565
| 17> *
| 18>
| 19> %MaxCore 64000
| 20>
| 21> %pal nprocs 8
| 22> end
| 23>
| 24> %scf
| 25>   MaxIter 150
| 26> end
| 27>
| 28>
| 29>                          ****END OF INPUT****

CARTESIAN COORDINATES (ANGSTROEM)
---------------------------------
  C      3.380930    2.083040   -3.350130
  C      2.495560    1.816150   -2.136360
  C      1.872180    0.427900   -2.077500
  H      2.614270   -0.365830   -2.198890
  H      1.389950    0.273090   -1.112360
  S      0.579020    0.140470   -3.297940
  O      0.228860   -1.246870   -3.127870
  O     -0.439270    1.118970   -3.014550
  F      1.247880    0.403470   -4.595650
  H      1.697000    2.561970   -2.141110
  H      3.080790    1.987440   -1.225840
  H      2.818200    1.918400   -4.245190
  H      4.221710    1.421530   -3.330670
  H      3.723720    3.096350   -3.325650

 Total Charge           Charge          ....    0
 Multiplicity           Mult            ....    1
 Number of Electrons    NEL             ....   66
 Basis Dimension        Dim             ....  212

ORBITAL ENERGIES
----------------

  NO   OCC          E(Eh)            E(eV)
   0   2.0000     -89.137489     -2425.5544
   1   2.0000     -24.796569      -674.7489
   2   2.0000     -19.155256      -521.2410
   3   2.0000     -19.154724      -521.2265
   4   2.0000     -10.242252      -278.7058
   5   2.0000     -10.212478      -277.8957
   6   2.0000     -10.188227      -277.2357
   7   2.0000      -8.191975      -222.9150
   8   2.0000      -6.164852      -167.7542
   9   2.0000      -6.158837      -167.5905
  10   2.0000      -6.157281      -167.5481
  11   2.0000      -1.344942       -36.5977
  12   2.0000      -1.120782       -30.4980
  13   2.0000      -1.026798       -27.9406
  14   2.0000      -0.829845       -22.5812
  15   2.0000      -0.749620       -20.3982
  16   2.0000      -0.700178       -19.0528
  17   2.0000      -0.636328       -17.3154
  18   2.0000      -0.578374       -15.7384
  19   2.0000      -0.567354       -15.4385
  20   2.0000      -0.550200       -14.9717
  21   2.0000      -0.495070       -13.4716
  22   2.0000      -0.480657       -13.0793
  23   2.0000      -0.468080       -12.7371
  24   2.0000      -0.458554       -12.4779
  25   2.0000      -0.439041       -11.9469
  26   2.0000      -0.402113       -10.9420
  27   2.0000      -0.388555       -10.5731
  28   2.0000      -0.372622       -10.1396
  29   2.0000      -0.365722        -9.9518
  30   2.0000      -0.345279        -9.3955
  31   2.0000      -0.332458        -9.0466
  32   2.0000      -0.324547        -8.8314
  33   0.0000      -0.005338        -0.1452
  34   0.0000       0.022358         0.6084
  35   0.0000       0.031666         0.8617
  36   0.0000       0.034433         0.9370
  37   0.0000       0.047893         1.3032

MULLIKEN ATOMIC CHARGES
-----------------------
   0 C :    1.082163
   1 C :   -0.042586
   2 C :    0.181652
   3 H :   -0.063572
   4 H :   -0.064075
   5 S :    1.524801
   6 O :   -0.671279
   7 O :   -0.671469
   8 F :   -0.447968
   9 H :   -0.087567
  10 H :   -0.198599
  11 H :   -0.360664
  12 H :   -0.075529
  13 H :   -0.105309
Sum of atomic charges:   -0.0000000

LOEWDIN ATOMIC CHARGES
----------------------
   0 C :    0.141997
   1 C :   -0.070122
   2 C :   -0.043067
   3 H :    0.025044
   4 H :    0.030985
   5 S :    1.119883
   6 O :   -0.459822
   7 O :   -0.457776
   8 F :   -0.274612
   9 H :    0.024987
  10 H :    0.029140
  11 H :   -0.043430
  12 H :   -0.011971
  13 H :   -0.011235

  Mayer bond orders larger than 0.100000
B(  0-C ,  1-C ) :   1.2637 B(  0-C ,  9-H ) :   0.1090 B(  0-C , 11-H ) :   0.7254
B(  0-C , 12-H ) :   0.6863 B(  0-C , 13-H ) :   0.6705 B(  1-C ,  2-C ) :   1.2089
B(  1-C ,  3-H ) :   0.1365 B(  1-C ,  4-H ) :   0.1415 B(  1-C ,  9-H ) :   0.8649
B(  1-C , 10-H ) :   0.8311 B(  1-C , 11-H ) :   0.2732 B(  1-C , 12-H ) :   0.2354
B(  1-C , 13-H ) :   0.2330 B(  2-C ,  3-H ) :   0.9263 B(  2-C ,  4-H ) :   0.8674
B(  2-C ,  5-S ) :   0.9827 B(  2-C ,  9-H ) :   0.1411 B(  2-C , 10-H ) :   0.1287
B(  5-S ,  6-O ) :   1.5430 B(  5-S ,  7-O ) :   1.5020 B(  5-S ,  8-F ) :   0.6200
B(  6-O ,  7-O ) :   0.1016 B( 11-H , 12-H ) :   0.1190 B( 11-H , 13-H ) :   0.1109

Dispersion correction           -0.021805727
FINAL SINGLE POINT ENERGY      -766.351824631132

DIPOLE MOMENT
-------------
                                X             Y             Z
Electronic contribution:     -8.86442      -6.01774      -5.31478
Nuclear contribution   :     10.37810       6.57173       5.65300
                        -----------------------------------------
Total Dipole Moment    :      1.51368       0.55399       0.33822
                        -----------------------------------------
Magnitude (a.u.)       :      1.64697
Magnitude (Debye)      :      4.18627

Rotational constants in cm-1:     0.130522     0.054787     0.051463
Rotational constants in MHz :  3912.959799  1642.486768  1542.828917

                             ****ORCA TERMINATED NORMALLY****
TOTAL RUN TIME: 0 days 0 hours 0 minutes 13 seconds 574 msec
