                         Program Version 5.0.0 -  RELEASE  -
|  1> !B3LYP D3BJ RIJCOSX def2-SVPD def2/J TightSCF
|  2> *xyz 0 1
|  3> C          3.38093        2.08304       -3.35013
|  4> N          4.53592        1.18245       -3.42852
|  5> C          2.49556        1.81615       -2.13636
|  6> C          1.87218        0.42790       -2.07750
|  7> C          4.67196        0.12227       -4.22060
|  8> N          5.86602       -0.50785       -4.22428
|  9> C          3.69888       -0.31284       -4.98699
| 10> H          2.73141       -0.05009       -4.84900
| 11> H          3.89005       -1.05517       -5.64373
| 12> H          5.25193        1.30346       -2.72101
| 13> H          6.69516       -0.06232       -3.85160
| 14> H          5.97538       -1.39688       -4.69141
| 15> H          1.69700        2.56197       -2.14111
| 16> H          3.08079        1.98744       -1.22584
| 17> H          2.80646        1.98651       -4.26848
| 18> H          3.77871        3.09828       -3.30738
| 19> H          1.29954        0.25615       -2.96490
| 20> H          1.23321        0.35984       -1.22194
| 21> H          2.64581       -0.30765       -2.00430
| 22> *
| 23>
| 24> %MaxCore 64000
| 25>
| 26> %pal nprocs 8
| 27> end
| 28>
| 29> %scf
| 30>   MaxIter 150
| 31> end
| 32>
| 33>
| 34>                          ****END OF INPUT****

CARTESIAN COORDINATES (ANGSTROEM)
---------------------------------
  C      3.380930    2.083040   -3.350130
  N      4.535920    1.182450   -3.428520
  C      2.495560    1.816150   -2.136360
  C      1.872180    0.427900   -2.077500
  C      4.671960    0.122270   -4.220600
  N      5.866020   -0.507850   -4.224280
  C      3.698880   -0.312840   -4.986990
  H      2.731410   -0.050090   -4.849000
  H      3.890050   -1.055170   -5.643730
  H      5.251930    1.303460   -2.721010
  H      6.695160   -0.062320   -3.851600
  H      5.975380   -1.396880   -4.691410
  H      1.697000    2.561970   -2.141110
  H      3.080790    1.987440   -1.225840
  H      2.806460    1.986510   -4.268480
  H      3.778710    3.098280   -3.307380
  H      1.299540    0.256150   -2.964900
  H      1.233210    0.359840   -1.221940
  H      2.645810   -0.307650   -2.004300

 Total Charge           Charge          ....    0
 Multiplicity           Mult            ....    1
 Number of Electrons    NEL             ....   56
 Basis Dimension        Dim             ....  236

ORBITAL ENERGIES
----------------

  NO   OCC          E(Eh)            E(eV)
   0   2.0000     -14.329403      -389.9229
   1   2.0000     -14.326918      -389.8552
   2   2.0000     -10.226856      -278.2869
   3   2.0000     -10.212440      -277.8946
   4   2.0000     -10.178095      -276.9600
   5   2.0000     -10.160458      -276.4801
   6   2.0000     -10.096498      -274.7397
   7   2.0000      -0.953058       -25.9340
   8   2.0000      -0.870252       -23.6808
   9   2.0000      -0.770527       -20.9671
  10   2.0000      -0.711072       -19.3493
  11   2.0000      -0.679741       -18.4967
  12   2.0000      -0.597961       -16.2713
  13   2.0000      -0.560525       -15.2527
  14   2.0000      -0.540439       -14.7061
  15   2.0000      -0.512693       -13.9511
  16   2.0000      -0.465786       -12.6747
  17   2.0000      -0.455671       -12.3994
  18   2.0000      -0.429786       -11.6951
  19   2.0000      -0.412276       -11.2186
  20   2.0000      -0.388323       -10.5668
  21   2.0000      -0.386921       -10.5286
  22   2.0000      -0.371200       -10.1009
  23   2.0000      -0.345191        -9.3931
  24   2.0000      -0.343067        -9.3353
  25   2.0000      -0.331786        -9.0283
  26   2.0000      -0.246795        -6.7156
  27   2.0000      -0.169480        -4.6118
  28   0.0000       0.014037         0.3820
  29   0.0000       0.033633         0.9152
  30   0.0000       0.043663         1.1881
  31   0.0000       0.053776         1.4633
  32   0.0000       0.067806         1.8451

MULLIKEN ATOMIC CHARGES
-----------------------
   0 C :    0.978184
   1 N :   -0.438830
   2 C :   -0.206610
   3 C :    1.008944
   4 C :    0.929542
   5 N :    0.164399
   6 C :    0.416538
   7 H :   -0.416678
   8 H :   -0.562223
   9 H :   -0.370824
  10 H :   -0.220337
  11 H :   -0.067314
  12 H :   -0.150119
  13 H :   -0.153270
  14 H :   -0.067213
  15 H :   -0.368582
  16 H :   -0.091704
  17 H :   -0.289752
  18 H :   -0.094150
Sum of atomic charges:   -0.0000000

LOEWDIN ATOMIC CHARGES
----------------------
   0 C :    0.064085
   1 N :   -0.011334
   2 C :   -0.065501
   3 C :    0.130852
   4 C :   -0.238643
   5 N :    0.187561
   6 C :    0.162004
   7 H :   -0.113726
   8 H :   -0.100965
   9 H :    0.020328
  10 H :   -0.016798
  11 H :   -0.001596
  12 H :    0.014377
  13 H :    0.013380
  14 H :    0.014726
  15 H :    0.013341
  16 H :   -0.024172
  17 H :   -0.024959
  18 H :   -0.022960

  Mayer bond orders larger than 0.100000
B(  0-C ,  1-N ) :   0.9279 B(  0-C ,  2-C ) :   1.0751 B(  0-C ,  9-H ) :  -0.2001
B(  0-C , 12-H ) :   0.1343 B(  0-C , 13-H ) :   0.1283 B(  0-C , 14-H ) :   0.7087
B(  0-C , 15-H ) :   0.8318 B(  1-N ,  2-C ) :   0.1032 B(  1-N ,  4-C ) :   0.8830
B(  1-N ,  5-N ) :   0.1759 B(  1-N ,  6-C ) :   0.4077 B(  1-N ,  9-H ) :   1.3842
B(  1-N , 14-H ) :   0.1609 B(  1-N , 15-H ) :   0.1649 B(  2-C ,  3-C ) :   1.2809
B(  2-C , 12-H ) :   0.8753 B(  2-C , 13-H ) :   0.8808 B(  2-C , 14-H ) :   0.1428
B(  2-C , 16-H ) :   0.2577 B(  2-C , 17-H ) :   0.2478 B(  2-C , 18-H ) :   0.2534
B(  3-C , 12-H ) :   0.1101 B(  3-C , 16-H ) :   0.7350 B(  3-C , 17-H ) :   0.7223
B(  3-C , 18-H ) :   0.7478 B(  4-C ,  5-N ) :   0.9595 B(  4-C ,  6-C ) :   1.3720
B(  4-C ,  8-H ) :   0.2856 B(  4-C ,  9-H ) :  -0.2985 B(  5-N ,  6-C ) :   0.3286
B(  5-N ,  8-H ) :   0.1055 B(  5-N , 10-H ) :   1.1961 B(  5-N , 11-H ) :   1.1401
B(  6-C ,  7-H ) :   0.6568 B(  6-C ,  8-H ) :   0.7256 B(  7-H ,  8-H ) :  -0.1681
B( 10-H , 11-H ) :  -0.1795 B( 14-H , 15-H ) :  -0.1597 B( 16-H , 18-H ) :   0.1030

Dispersion correction           -0.027076504
FINAL SINGLE POINT ENERGY      -306.846585416947

DIPOLE MOMENT
-------------
                                X             Y             Z
Electronic contribution:      4.86829      -0.22861      -1.97614
Nuclear contribution   :     -4.23110       0.51121       2.60527
                        -----------------------------------------
Total Dipole Moment    :      0.63719       0.28261       0.62913
                        -----------------------------------------
Magnitude (a.u.)       :      0.93898
Magnitude (Debye)      :      2.38670

Rotational constants in cm-1:     0.158478     0.052124     0.047173
Rotational constants in MHz :  4751.056263  1562.646208  1414.197352

                             ****ORCA TERMINATED NORMALLY****
TOTAL RUN TIME: 0 days 0 hours 0 minutes 17 seconds 126 msec
