                         Program Version 5.0.0 -  RELEASE  -
|  1> !B3LYP D3BJ RIJCOSX def2-SVPD def2/J TightSCF xyzfile
|  2>
|  3> *xyzfile 0 1 D1.xyz
|  4>
|  5> %MaxCore 64000
|  6>
|  7> %pal nprocs 4
|  8> end
|  9>
| 10> %scf
| 11>   MaxIter 150
| 12> end
| 13>
| 14>
| 15>                          ****END OF INPUT****

CARTESIAN COORDINATES (ANGSTROEM)
---------------------------------
  C      3.380928    2.083045   -3.350127
  C      4.535924    1.182447   -3.428518
  C      2.495557    1.816150   -2.136364
  C      1.872181    0.427903   -2.077497
  H      2.614270   -0.365825   -2.198894
  H      1.389953    0.273087   -1.112360
  S      0.579024    0.140472   -3.297943
  C      4.671956    0.122273   -4.220598
  N      5.866023   -0.507849   -4.224284
  N      3.698881   -0.312844   -4.986988
  H      2.731405   -0.050091   -4.849000
  H      3.890046   -1.055172   -5.643730
  H      5.251933    1.303459   -2.721014
  H      6.695165   -0.062322   -3.851596
  H      5.975383   -1.396884   -4.691414
  F      0.228860   -1.246868   -3.127871
  O     -0.439269    1.118966   -3.014550
  O      1.247881    0.403474   -4.595647
  H      1.697003    2.561969   -2.141109
  H      3.080787    1.987436   -1.225838
  H      2.806463    1.986511   -4.268484
  H      3.778714    3.098282   -3.307383

 Total Charge           Charge          ....    0
 Multiplicity           Mult            ....    1
 Number of Electrons    NEL             ....   96
 Basis Dimension        Dim             ....  324

ORBITAL ENERGIES
----------------

  NO   OCC          E(Eh)            E(eV)
   0   2.0000     -89.149662     -2425.8856
   1   2.0000     -24.825334      -675.5317
   2   2.0000     -19.162646      -521.4421
   3   2.0000     -19.157115      -521.2916
   4   2.0000     -14.324414      -389.7871
   5   2.0000     -14.307289      -389.3211
   6   2.0000     -10.238097      -278.5928
   7   2.0000     -10.223274      -278.1894
   8   2.0000     -10.193967      -277.3920
   9   2.0000     -10.159884      -276.4645
  10   2.0000     -10.104718      -274.9634
  11   2.0000      -8.203827      -223.2375
  12   2.0000      -6.176834      -168.0802
  13   2.0000      -6.170829      -167.9168
  14   2.0000      -6.168682      -167.8584
  15   2.0000      -1.387277       -37.7497
  16   2.0000      -1.122634       -30.5484
  17   2.0000      -1.022984       -27.8368
  18   2.0000      -0.943503       -25.6740
  19   2.0000      -0.851739       -23.1770
  20   2.0000      -0.821846       -22.3636
  21   2.0000      -0.763248       -20.7690
  22   2.0000      -0.726401       -19.7664
  23   2.0000      -0.679987       -18.5034
  24   2.0000      -0.628020       -17.0893
  25   2.0000      -0.603156       -16.4127
  26   2.0000      -0.591073       -16.0839
  27   2.0000      -0.581514       -15.8238
  28   2.0000      -0.553407       -15.0590
  29   2.0000      -0.535946       -14.5838
  30   2.0000      -0.517280       -14.0759
  31   2.0000      -0.492878       -13.4119
  32   2.0000      -0.486513       -13.2387
  33   2.0000      -0.471836       -12.8393
  34   2.0000      -0.454317       -12.3626
  35   2.0000      -0.441098       -12.0029
  36   2.0000      -0.411126       -11.1873
  37   2.0000      -0.404987       -11.0202
  38   2.0000      -0.394893       -10.7456
  39   2.0000      -0.382499       -10.4083
  40   2.0000      -0.359421        -9.7804
  41   2.0000      -0.354860        -9.6562
  42   2.0000      -0.340368        -9.2619
  43   2.0000      -0.337881        -9.1942
  44   2.0000      -0.321079        -8.7370
  45   2.0000      -0.314310        -8.5528
  46   2.0000      -0.255489        -6.9522
  47   2.0000      -0.159246        -4.3333
  48   0.0000      -0.008552        -0.2327
  49   0.0000       0.017846         0.4856
  50   0.0000       0.023220         0.6318
  51   0.0000       0.034512         0.9391
  52   0.0000       0.044192         1.2025

MULLIKEN ATOMIC CHARGES
-----------------------
   0 C :    0.599938
   1 C :   -0.110248
   2 C :    0.342847
   3 C :    0.221688
   4 H :    0.015921
   5 H :   -0.179957
   6 S :    1.611812
   7 C :    0.857501
   8 N :    0.088403
   9 N :    0.630405
  10 H :   -0.402394
  11 H :   -0.317109
  12 H :   -0.452840
  13 H :   -0.154750
  14 H :   -0.175833
  15 F :   -0.428892
  16 O :   -0.694090
  17 O :   -0.841383
  18 H :   -0.081924
  19 H :   -0.099052
  20 H :   -0.196594
  21 H :   -0.233449
Sum of atomic charges:    0.0000000

LOEWDIN ATOMIC CHARGES
----------------------
   0 C :   -0.030976
   1 C :   -0.023344
   2 C :   -0.011770
   3 C :   -0.036731
   4 H :    0.015630
   5 H :    0.016305
   6 S :    1.173016
   7 C :   -0.216123
   8 N :    0.184757
   9 N :    0.232879
  10 H :   -0.146213
  11 H :   -0.004544
  12 H :   -0.055630
  13 H :   -0.002230
  14 H :   -0.020027
  15 F :   -0.246914
  16 O :   -0.444203
  17 O :   -0.454246
  18 H :    0.023887
  19 H :    0.035049
  20 H :   -0.005017
  21 H :    0.016445

  Mayer bond orders larger than 0.100000
B(  0-C ,  1-C ) :   1.0676 B(  0-C ,  2-C ) :   1.1140 B(  0-C , 12-H ) :   0.2450
B(  0-C , 18-H ) :   0.1863 B(  0-C , 19-H ) :   0.1810 B(  0-C , 20-H ) :   0.7414
B(  0-C , 21-H ) :   0.6769 B(  1-C ,  2-C ) :   0.1376 B(  1-C ,  7-C ) :   1.5342
B(  1-C ,  8-N ) :   0.4108 B(  1-C ,  9-N ) :   0.2197 B(  1-C , 10-H ) :  -0.1205
B(  1-C , 12-H ) :   0.7354 B(  1-C , 20-H ) :   0.3250 B(  1-C , 21-H ) :   0.1452
B(  2-C ,  3-C ) :   1.2836 B(  2-C ,  4-H ) :   0.1660 B(  2-C ,  5-H ) :   0.1978
B(  2-C , 18-H ) :   0.7581 B(  2-C , 19-H ) :   0.7021 B(  2-C , 20-H ) :   0.1755
B(  2-C , 21-H ) :   0.1210 B(  3-C ,  4-H ) :   0.9162 B(  3-C ,  5-H ) :   0.7137
B(  3-C ,  6-S ) :   0.9240 B(  3-C , 17-O ) :   0.1592 B(  3-C , 18-H ) :   0.1734
B(  3-C , 19-H ) :   0.1604 B(  5-H ,  6-S ) :   0.1030 B(  6-S , 15-F ) :   0.6383
B(  6-S , 16-O ) :   1.5157 B(  6-S , 17-O ) :   1.3500 B(  7-C ,  8-N ) :   0.7632
B(  7-C ,  9-N ) :   1.0674 B(  7-C , 10-H ) :  -0.1224 B(  7-C , 11-H ) :  -0.2019
B(  7-C , 12-H ) :   0.1345 B(  7-C , 13-H ) :  -0.1875 B(  7-C , 20-H ) :  -0.1565
B(  8-N ,  9-N ) :   0.1003 B(  8-N , 12-H ) :   0.1153 B(  8-N , 13-H ) :   1.2562
B(  8-N , 14-H ) :   1.1664 B(  9-N , 10-H ) :   1.0906 B(  9-N , 11-H ) :   1.2082
B( 10-H , 11-H ) :  -0.2072 B( 10-H , 17-O ) :   0.1329 B( 13-H , 14-H ) :  -0.1693

Dispersion correction           -0.042368212
FINAL SINGLE POINT ENERGY      -954.215374670551

DIPOLE MOMENT
-------------
                                X             Y             Z
Electronic contribution:    -15.24815      -6.67729      -1.12604
Nuclear contribution   :     15.92508       5.34175       1.81950
                        -----------------------------------------
Total Dipole Moment    :      0.67693      -1.33554       0.69346
                        -----------------------------------------
Magnitude (a.u.)       :      1.65009
Magnitude (Debye)      :      4.19419

Rotational constants in cm-1:     0.058561     0.020662     0.017762
Rotational constants in MHz :  1755.621534   619.433801   532.501507

                             ****ORCA TERMINATED NORMALLY****
TOTAL RUN TIME: 0 days 0 hours 1 minutes 32 seconds 992 msec
