                         Program Version 5.0.0 -  RELEASE  -
|  1> !B3LYP D3BJ RIJCOSX def2-SVPD def2/J TightSCF xyzfile
|  2>
|  3> *xyzfile 0 1 D2.xyz
|  4>
|  5> %MaxCore 64000
|  6>
|  7> %pal nprocs 4
|  8> end
|  9>
| 10> %scf
| 11>   MaxIter 150
| 12> end
| 13>
| 14>
| 15>                          ****END OF INPUT****

CARTESIAN COORDINATES (ANGSTROEM)
---------------------------------
  C      3.380928    2.083045   -3.350127
  N      4.535924    1.182447   -3.428518
  C      2.495557    1.816150   -2.136364
  C      1.872181    0.427903   -2.077497
  H      2.614270   -0.365825   -2.198894
  H      1.389953    0.273087   -1.112360
  S      0.579024    0.140472   -3.297943
  C      4.671956    0.122273   -4.220598
  C      5.866023   -0.507849   -4.224284
  N      3.698881   -0.312844   -4.986988
  H      2.731405   -0.050091   -4.849000
  H      3.890046   -1.055172   -5.643730
  H      5.251933    1.303459   -2.721014
  H      6.695165   -0.062322   -3.851596
  H      5.975383   -1.396884   -4.691414
  F      0.228860   -1.246868   -3.127871
  O     -0.439269    1.118966   -3.014550
  O      1.247881    0.403474   -4.595647
  H      1.697003    2.561969   -2.141109
  H      3.080787    1.987436   -1.225838
  H      2.806463    1.986511   -4.268484
  H      3.778714    3.098282   -3.307383

 Total Charge           Charge          ....    0
 Multiplicity           Mult            ....    1
 Number of Electrons    NEL             ....   96
 Basis Dimension        Dim             ....  324

ORBITAL ENERGIES
----------------

  NO   OCC          E(Eh)            E(eV)
   0   2.0000     -89.163432     -2426.2603
   1   2.0000     -24.836632      -675.8391
   2   2.0000     -19.175422      -521.7898
   3   2.0000     -19.168944      -521.6135
   4   2.0000     -14.330703      -389.9583
   5   2.0000     -14.303838      -389.2272
   6   2.0000     -10.256822      -279.1023
   7   2.0000     -10.226645      -278.2812
   8   2.0000     -10.221958      -278.1536
   9   2.0000     -10.221536      -278.1421
  10   2.0000     -10.085562      -274.4421
  11   2.0000      -8.217418      -223.6073
  12   2.0000      -6.190377      -168.4487
  13   2.0000      -6.184381      -168.2856
  14   2.0000      -6.182451      -168.2330
  15   2.0000      -1.398473       -38.0544
  16   2.0000      -1.135358       -30.8947
  17   2.0000      -1.035343       -28.1731
  18   2.0000      -0.953510       -25.9463
  19   2.0000      -0.872819       -23.7506
  20   2.0000      -0.833225       -22.6732
  21   2.0000      -0.771083       -20.9822
  22   2.0000      -0.727193       -19.7879
  23   2.0000      -0.684865       -18.6361
  24   2.0000      -0.637402       -17.3446
  25   2.0000      -0.613167       -16.6851
  26   2.0000      -0.599387       -16.3101
  27   2.0000      -0.595893       -16.2151
  28   2.0000      -0.583025       -15.8649
  29   2.0000      -0.546696       -14.8764
  30   2.0000      -0.510569       -13.8933
  31   2.0000      -0.495182       -13.4746
  32   2.0000      -0.491236       -13.3672
  33   2.0000      -0.482945       -13.1416
  34   2.0000      -0.467909       -12.7325
  35   2.0000      -0.449737       -12.2380
  36   2.0000      -0.418907       -11.3990
  37   2.0000      -0.411671       -11.2021
  38   2.0000      -0.409479       -11.1425
  39   2.0000      -0.389372       -10.5954
  40   2.0000      -0.385161       -10.4808
  41   2.0000      -0.371315       -10.1040
  42   2.0000      -0.359270        -9.7762
  43   2.0000      -0.347899        -9.4668
  44   2.0000      -0.342608        -9.3228
  45   2.0000      -0.328526        -8.9396
  46   2.0000      -0.248565        -6.7638
  47   2.0000      -0.151652        -4.1267
  48   0.0000      -0.017591        -0.4787
  49   0.0000       0.003457         0.0941
  50   0.0000       0.022486         0.6119
  51   0.0000       0.027175         0.7395
  52   0.0000       0.035314         0.9609

MULLIKEN ATOMIC CHARGES
-----------------------
   0 C :    1.130838
   1 N :   -0.287935
   2 C :    0.316882
   3 C :    0.254725
   4 H :    0.067356
   5 H :   -0.231314
   6 S :    1.606756
   7 C :    0.467296
   8 C :    0.546147
   9 N :    0.764354
  10 H :   -0.510669
  11 H :   -0.236208
  12 H :   -0.290926
  13 H :   -0.473553
  14 H :   -0.379543
  15 F :   -0.424584
  16 O :   -0.686360
  17 O :   -0.851452
  18 H :   -0.073902
  19 H :   -0.120772
  20 H :   -0.147997
  21 H :   -0.439139
Sum of atomic charges:   -0.0000000

LOEWDIN ATOMIC CHARGES
----------------------
   0 C :    0.080738
   1 N :   -0.000614
   2 C :   -0.002127
   3 C :   -0.034595
   4 H :    0.020984
   5 H :    0.018925
   6 S :    1.175888
   7 C :   -0.241666
   8 C :    0.143608
   9 N :    0.231914
  10 H :   -0.154967
  11 H :    0.013468
  12 H :    0.032794
  13 H :   -0.117240
  14 H :   -0.117019
  15 F :   -0.240522
  16 O :   -0.441902
  17 O :   -0.454789
  18 H :    0.029289
  19 H :    0.034280
  20 H :    0.002284
  21 H :    0.021269

  Mayer bond orders larger than 0.100000
B(  0-C ,  1-N ) :   0.9344 B(  0-C ,  2-C ) :   1.0743 B(  0-C , 12-H ) :  -0.2037
B(  0-C , 18-H ) :   0.1657 B(  0-C , 19-H ) :   0.1546 B(  0-C , 20-H ) :   0.7032
B(  0-C , 21-H ) :   0.7350 B(  1-N ,  7-C ) :   1.0308 B(  1-N ,  8-C ) :   0.2136
B(  1-N ,  9-N ) :   0.1258 B(  1-N , 12-H ) :   1.2398 B(  1-N , 20-H ) :   0.2668
B(  1-N , 21-H ) :   0.1703 B(  2-C ,  3-C ) :   1.2646 B(  2-C ,  4-H ) :   0.1612
B(  2-C ,  5-H ) :   0.1996 B(  2-C , 18-H ) :   0.7985 B(  2-C , 19-H ) :   0.7270
B(  2-C , 20-H ) :   0.1583 B(  2-C , 21-H ) :   0.1003 B(  3-C ,  4-H ) :   0.8929
B(  3-C ,  5-H ) :   0.7198 B(  3-C ,  6-S ) :   0.9288 B(  3-C , 17-O ) :   0.1594
B(  3-C , 18-H ) :   0.1410 B(  3-C , 19-H ) :   0.1454 B(  6-S , 15-F ) :   0.6464
B(  6-S , 16-O ) :   1.5200 B(  6-S , 17-O ) :   1.3527 B(  7-C ,  8-C ) :   1.3734
B(  7-C ,  9-N ) :   1.1187 B(  7-C , 11-H ) :  -0.1017 B(  7-C , 12-H ) :  -0.2109
B(  7-C , 13-H ) :   0.1399 B(  7-C , 14-H ) :   0.2252 B(  8-C ,  9-N ) :   0.1480
B(  8-C , 13-H ) :   0.6841 B(  8-C , 14-H ) :   0.7180 B(  9-N , 10-H ) :   0.8925
B(  9-N , 11-H ) :   1.1370 B(  9-N , 20-H ) :   0.1243 B( 10-H , 11-H ) :  -0.2266
B( 10-H , 17-O ) :   0.1464 B( 13-H , 14-H ) :   0.1532 B( 20-H , 21-H ) :  -0.1670

Dispersion correction           -0.041919371
FINAL SINGLE POINT ENERGY      -954.199490267057

DIPOLE MOMENT
-------------
                                X             Y             Z
Electronic contribution:    -16.71409      -5.22805      -0.35656
Nuclear contribution   :     16.05479       5.17692       1.74190
                        -----------------------------------------
Total Dipole Moment    :     -0.65930      -0.05113       1.38534
                        -----------------------------------------
Magnitude (a.u.)       :      1.53508
Magnitude (Debye)      :      3.90185

Rotational constants in cm-1:     0.058652     0.021107     0.018077
Rotational constants in MHz :  1758.344290   632.763813   541.920558

                             ****ORCA TERMINATED NORMALLY****
TOTAL RUN TIME: 0 days 0 hours 1 minutes 28 seconds 710 msec
