                         Program Version 5.0.0 -  RELEASE  -
|  1> !B3LYP D3BJ RIJCOSX def2-SVPD def2/J TightSCF
|  2> *xyz -1 1
|  3> C         -7.33044       -2.67899       -3.20681
|  4> S         -6.01966       -2.92697       -4.41913
|  5> O         -5.64583       -1.58838       -4.91931
|  6> O         -4.88196       -3.50370       -3.66724
|  7> O         -6.54927       -3.80515       -5.42507
|  8> C         -7.46900       -1.24615       -2.71383
|  9> H         -7.11825       -3.37982       -2.39805
| 10> H         -8.24184       -3.00474       -3.70651
| 11> H         -7.67580       -0.60214       -3.54292
| 12> H         -6.55749       -0.94096       -2.24382
| 13> H         -8.27114       -1.18777       -2.00810
| 14> *
| 15> %MaxCore 64000
| 16>
| 17> %pal nprocs 4
| 18> end
| 19>
| 20> %scf
| 21>   MaxIter 150
| 22> end
| 23>
| 24>
| 25>                          ****END OF INPUT****

CARTESIAN COORDINATES (ANGSTROEM)
---------------------------------
  C     -7.330440   -2.678990   -3.206810
  S     -6.019660   -2.926970   -4.419130
  O     -5.645830   -1.588380   -4.919310
  O     -4.881960   -3.503700   -3.667240
  O     -6.549270   -3.805150   -5.425070
  C     -7.469000   -1.246150   -2.713830
  H     -7.118250   -3.379820   -2.398050
  H     -8.241840   -3.004740   -3.706510
  H     -7.675800   -0.602140   -3.542920
  H     -6.557490   -0.940960   -2.243820
  H     -8.271140   -1.187770   -2.008100

 Total Charge           Charge          ....   -1
 Multiplicity           Mult            ....    1
 Number of Electrons    NEL             ....   58
 Basis Dimension        Dim             ....  176

ORBITAL ENERGIES
----------------

  NO   OCC          E(Eh)            E(eV)
   0   2.0000     -88.880040     -2418.5489
   1   2.0000     -18.922206      -514.8994
   2   2.0000     -18.911431      -514.6062
   3   2.0000     -18.908106      -514.5157
   4   2.0000     -10.049246      -273.4539
   5   2.0000     -10.043309      -273.2923
   6   2.0000      -7.933898      -215.8923
   7   2.0000      -5.902828      -160.6241
   8   2.0000      -5.902726      -160.6213
   9   2.0000      -5.902125      -160.6050
  10   2.0000      -0.926405       -25.2088
  11   2.0000      -0.786622       -21.4051
  12   2.0000      -0.763525       -20.7766
  13   2.0000      -0.631597       -17.1866
  14   2.0000      -0.506891       -13.7932
  15   2.0000      -0.382803       -10.4166
  16   2.0000      -0.323320        -8.7980
  17   2.0000      -0.316085        -8.6011
  18   2.0000      -0.278585        -7.5807
  19   2.0000      -0.260298        -7.0831
  20   2.0000      -0.258559        -7.0358
  21   2.0000      -0.232531        -6.3275
  22   2.0000      -0.223501        -6.0818
  23   2.0000      -0.149446        -4.0666
  24   2.0000      -0.147766        -4.0209
  25   2.0000      -0.114597        -3.1183
  26   2.0000      -0.108051        -2.9402
  27   2.0000      -0.099172        -2.6986
  28   2.0000      -0.063248        -1.7211
  29   0.0000       0.138767         3.7760
  30   0.0000       0.168812         4.5936
  31   0.0000       0.178230         4.8499
  32   0.0000       0.184732         5.0268
  33   0.0000       0.205971         5.6048

MULLIKEN ATOMIC CHARGES
-----------------------
   0 C :   -0.200144
   1 S :    1.336104
   2 O :   -0.844560
   3 O :   -0.835728
   4 O :   -0.784566
   5 C :    1.005107
   6 H :   -0.119586
   7 H :   -0.102386
   8 H :   -0.085739
   9 H :   -0.115940
  10 H :   -0.252562
Sum of atomic charges:   -1.0000000

LOEWDIN ATOMIC CHARGES
----------------------
   0 C :   -0.118117
   1 S :    0.874014
   2 O :   -0.588725
   3 O :   -0.603118
   4 O :   -0.578318
   5 C :    0.102824
   6 H :   -0.002099
   7 H :   -0.008504
   8 H :   -0.024158
   9 H :   -0.015575
  10 H :   -0.038225

  Mayer bond orders larger than 0.100000
B(  0-C ,  1-S ) :   0.8721 B(  0-C ,  5-C ) :   1.2645 B(  0-C ,  6-H ) :   0.9524
B(  0-C ,  7-H ) :   0.9572 B(  0-C ,  8-H ) :   0.2247 B(  0-C ,  9-H ) :   0.2145
B(  0-C , 10-H ) :   0.2445 B(  1-S ,  2-O ) :   1.2681 B(  1-S ,  3-O ) :   1.2691
B(  1-S ,  4-O ) :   1.3330 B(  5-C ,  8-H ) :   0.7602 B(  5-C ,  9-H ) :   0.7616
B(  5-C , 10-H ) :   0.7115

Dispersion correction           -0.016663319
FINAL SINGLE POINT ENERGY      -702.586280519166

DIPOLE MOMENT
-------------
                                X             Y             Z
Electronic contribution:      4.63199      -3.49371      -5.05673
Nuclear contribution   :     -6.18165       4.01759       6.33106
                        -----------------------------------------
Total Dipole Moment    :     -1.54966       0.52388       1.27433
                        -----------------------------------------
Magnitude (a.u.)       :      2.07360
Magnitude (Debye)      :      5.27068

Rotational constants in cm-1:     0.161711     0.082788     0.081165
Rotational constants in MHz :  4847.971521  2481.906910  2433.276832

                             ****ORCA TERMINATED NORMALLY****
TOTAL RUN TIME: 0 days 0 hours 0 minutes 21 seconds 765 msec
