                         Program Version 5.0.0 -  RELEASE  -
|  1> !B3LYP D3BJ RIJCOSX def2-SVPD def2/J TightSCF
|  2> *xyz 1 1
|  3> C         -2.16038       -1.36949       -3.46710
|  4> N         -3.03011       -1.91086       -4.54107
|  5> C         -2.04772        0.14658       -3.51177
|  6> H         -3.47744       -2.79151       -4.25710
|  7> H         -2.53801       -2.01786       -5.43808
|  8> H         -3.89159       -1.37604       -4.71437
|  9> H         -1.18444       -1.84400       -3.56639
| 10> H         -2.59819       -1.70838       -2.52848
| 11> H         -1.61525        0.44478       -4.44395
| 12> H         -1.42718        0.48198       -2.70720
| 13> H         -3.02145        0.57958       -3.41560
| 14> *
| 15> %MaxCore 64000
| 16>
| 17> %pal nprocs 4
| 18> end
| 19>
| 20> %scf
| 21>   MaxIter 150
| 22> end
| 23>
| 24>
| 25>                          ****END OF INPUT****

CARTESIAN COORDINATES (ANGSTROEM)
---------------------------------
  C     -2.160380   -1.369490   -3.467100
  N     -3.030110   -1.910860   -4.541070
  C     -2.047720    0.146580   -3.511770
  H     -3.477440   -2.791510   -4.257100
  H     -2.538010   -2.017860   -5.438080
  H     -3.891590   -1.376040   -4.714370
  H     -1.184440   -1.844000   -3.566390
  H     -2.598190   -1.708380   -2.528480
  H     -1.615250    0.444780   -4.443950
  H     -1.427180    0.481980   -2.707200
  H     -3.021450    0.579580   -3.415600

 Total Charge           Charge          ....    1
 Multiplicity           Mult            ....    1
 Number of Electrons    NEL             ....   26
 Basis Dimension        Dim             ....  124

ORBITAL ENERGIES
----------------

  NO   OCC          E(Eh)            E(eV)
   0   2.0000     -14.666525      -399.0964
   1   2.0000     -10.438440      -284.0444
   2   2.0000     -10.358957      -281.8815
   3   2.0000      -1.209620       -32.9154
   4   2.0000      -0.962233       -26.1837
   5   2.0000      -0.843980       -22.9659
   6   2.0000      -0.811685       -22.0871
   7   2.0000      -0.771414       -20.9912
   8   2.0000      -0.701851       -19.0983
   9   2.0000      -0.644102       -17.5269
  10   2.0000      -0.583956       -15.8902
  11   2.0000      -0.569541       -15.4980
  12   2.0000      -0.551871       -15.0172
  13   0.0000      -0.198483        -5.4010
  14   0.0000      -0.139723        -3.8021
  15   0.0000      -0.138043        -3.7563
  16   0.0000      -0.125007        -3.4016
  17   0.0000      -0.094562        -2.5732

MULLIKEN ATOMIC CHARGES
-----------------------
   0 C :    0.415566
   1 N :   -0.774996
   2 C :    0.827181
   3 H :    0.339726
   4 H :    0.385876
   5 H :    0.354533
   6 H :   -0.165664
   7 H :   -0.132418
   8 H :   -0.054085
   9 H :   -0.087774
  10 H :   -0.107944
Sum of atomic charges:    1.0000000

LOEWDIN ATOMIC CHARGES
----------------------
   0 C :    0.060235
   1 N :    0.326747
   2 C :    0.181572
   3 H :    0.104437
   4 H :    0.112256
   5 H :    0.103896
   6 H :    0.052243
   7 H :    0.049794
   8 H :   -0.000827
   9 H :    0.012687
  10 H :   -0.003041

  Mayer bond orders larger than 0.100000
B(  0-C ,  1-N ) :   0.7112 B(  0-C ,  2-C ) :   1.3224 B(  0-C ,  6-H ) :   0.8756
B(  0-C ,  7-H ) :   0.8759 B(  0-C ,  8-H ) :   0.1729 B(  0-C ,  9-H ) :   0.2027
B(  0-C , 10-H ) :   0.1906 B(  1-N ,  3-H ) :   0.7827 B(  1-N ,  4-H ) :   0.7223
B(  1-N ,  5-H ) :   0.7726 B(  1-N ,  6-H ) :   0.1344 B(  2-C ,  8-H ) :   0.7773
B(  2-C ,  9-H ) :   0.7892 B(  2-C , 10-H ) :   0.8057

Dispersion correction           -0.009980011
FINAL SINGLE POINT ENERGY      -135.357539824760

DIPOLE MOMENT
-------------
                                X             Y             Z
Electronic contribution:     -0.64547      -1.48828      -0.77189
Nuclear contribution   :     -0.15215       0.37393      -0.04773
                        -----------------------------------------
Total Dipole Moment    :     -0.79761      -1.11435      -0.81963
                        -----------------------------------------
Magnitude (a.u.)       :      1.59679
Magnitude (Debye)      :      4.05872

Rotational constants in cm-1:     1.020762     0.277172     0.247319
Rotational constants in MHz : 30601.664035  8309.399682  7414.438136

                             ****ORCA TERMINATED NORMALLY****
TOTAL RUN TIME: 0 days 0 hours 0 minutes 12 seconds 306 msec
