                         Program Version 5.0.0 -  RELEASE  -
|  1> !B3LYP D3BJ RIJCOSX def2-SVPD def2/J TightSCF
|  2> *xyz 0 1
|  3> C         -7.33044       -2.67899       -3.20681
|  4> S         -6.01966       -2.92697       -4.41913
|  5> F         -5.64583       -1.58838       -4.91931
|  6> O         -4.88196       -3.50370       -3.66724
|  7> O         -6.54927       -3.80515       -5.42507
|  8> C         -7.46900       -1.24615       -2.71383
|  9> H         -7.11825       -3.37982       -2.39805
| 10> H         -8.24184       -3.00474       -3.70651
| 11> H         -7.67580       -0.60214       -3.54292
| 12> H         -6.55749       -0.94096       -2.24382
| 13> H         -8.27114       -1.18777       -2.00810
| 14> *
| 15> %MaxCore 64000
| 16>
| 17> %pal nprocs 4
| 18> end
| 19>
| 20> %scf
| 21>   MaxIter 150
| 22> end
| 23>
| 24>
| 25>                          ****END OF INPUT****

CARTESIAN COORDINATES (ANGSTROEM)
---------------------------------
  C     -7.330440   -2.678990   -3.206810
  S     -6.019660   -2.926970   -4.419130
  F     -5.645830   -1.588380   -4.919310
  O     -4.881960   -3.503700   -3.667240
  O     -6.549270   -3.805150   -5.425070
  C     -7.469000   -1.246150   -2.713830
  H     -7.118250   -3.379820   -2.398050
  H     -8.241840   -3.004740   -3.706510
  H     -7.675800   -0.602140   -3.542920
  H     -6.557490   -0.940960   -2.243820
  H     -8.271140   -1.187770   -2.008100

 Total Charge           Charge          ....    0
 Multiplicity           Mult            ....    1
 Number of Electrons    NEL             ....   58
 Basis Dimension        Dim             ....  176

ORBITAL ENERGIES
----------------

  NO   OCC          E(Eh)            E(eV)
   0   2.0000     -89.137207     -2425.5467
   1   2.0000     -24.800785      -674.8637
   2   2.0000     -19.156594      -521.2774
   3   2.0000     -19.141844      -520.8760
   4   2.0000     -10.251134      -278.9475
   5   2.0000     -10.214792      -277.9586
   6   2.0000      -8.191939      -222.9140
   7   2.0000      -6.164874      -167.7548
   8   2.0000      -6.158665      -167.5858
   9   2.0000      -6.157211      -167.5462
  10   2.0000      -1.349816       -36.7304
  11   2.0000      -1.111890       -30.2561
  12   2.0000      -1.008211       -27.4348
  13   2.0000      -0.828266       -22.5383
  14   2.0000      -0.726417       -19.7668
  15   2.0000      -0.679011       -18.4768
  16   2.0000      -0.591280       -16.0896
  17   2.0000      -0.571712       -15.5571
  18   2.0000      -0.546183       -14.8624
  19   2.0000      -0.503753       -13.7078
  20   2.0000      -0.479290       -13.0421
  21   2.0000      -0.455110       -12.3842
  22   2.0000      -0.448697       -12.2097
  23   2.0000      -0.420442       -11.4408
  24   2.0000      -0.403538       -10.9808
  25   2.0000      -0.389005       -10.5854
  26   2.0000      -0.339574        -9.2403
  27   2.0000      -0.326002        -8.8710
  28   2.0000      -0.312872        -8.5137
  29   0.0000      -0.014989        -0.4079
  30   0.0000       0.026975         0.7340
  31   0.0000       0.033465         0.9106
  32   0.0000       0.037591         1.0229
  33   0.0000       0.042058         1.1445

MULLIKEN ATOMIC CHARGES
-----------------------
   0 C :   -0.187005
   1 S :    1.470932
   2 F :   -0.437799
   3 O :   -0.694059
   4 O :   -0.643269
   5 C :    0.999905
   6 H :   -0.071142
   7 H :   -0.052380
   8 H :   -0.082324
   9 H :   -0.100800
  10 H :   -0.202060
Sum of atomic charges:    0.0000000

LOEWDIN ATOMIC CHARGES
----------------------
   0 C :   -0.069993
   1 S :    1.133134
   2 F :   -0.273700
   3 O :   -0.486073
   4 O :   -0.462503
   5 C :    0.134197
   6 H :    0.029198
   7 H :    0.017862
   8 H :   -0.011396
   9 H :   -0.003684
  10 H :   -0.007042

  Mayer bond orders larger than 0.100000
B(  0-C ,  1-S ) :   0.9453 B(  0-C ,  5-C ) :   1.2834 B(  0-C ,  6-H ) :   0.9476
B(  0-C ,  7-H ) :   0.9580 B(  0-C ,  8-H ) :   0.2055 B(  0-C ,  9-H ) :   0.1948
B(  0-C , 10-H ) :   0.2382 B(  1-S ,  2-F ) :   0.6462 B(  1-S ,  3-O ) :   1.4851
B(  1-S ,  4-O ) :   1.5464 B(  5-C ,  8-H ) :   0.7660 B(  5-C ,  9-H ) :   0.7714
B(  5-C , 10-H ) :   0.7226

Dispersion correction           -0.015809017
FINAL SINGLE POINT ENERGY      -727.083531620583

DIPOLE MOMENT
-------------
                                X             Y             Z
Electronic contribution:      5.60208      -1.70790      -6.34187
Nuclear contribution   :     -6.81251       2.87933       7.15058
                        -----------------------------------------
Total Dipole Moment    :     -1.21043       1.17143       0.80871
                        -----------------------------------------
Magnitude (a.u.)       :      1.86853
Magnitude (Debye)      :      4.74943

Rotational constants in cm-1:     0.152543     0.082494     0.078987
Rotational constants in MHz :  4573.135887  2473.116216  2367.980829

                             ****ORCA TERMINATED NORMALLY****
TOTAL RUN TIME: 0 days 0 hours 0 minutes 20 seconds 791 msec
