                         Program Version 5.0.0 -  RELEASE  -
|  1> !B3LYP D3BJ RIJCOSX def2-SVPD def2/J TightSCF
|  2> *xyz 0 1
|  3> C         -2.16038       -1.36949       -3.46710
|  4> C         -3.03011       -1.91086       -4.54107
|  5> C         -2.04772        0.14658       -3.51177
|  6> H         -3.47744       -2.79151       -4.25710
|  7> H         -2.53801       -2.01786       -5.43808
|  8> H         -3.89159       -1.37604       -4.71437
|  9> H         -1.18444       -1.84400       -3.56639
| 10> H         -2.59819       -1.70838       -2.52848
| 11> H         -1.61525        0.44478       -4.44395
| 12> H         -1.42718        0.48198       -2.70720
| 13> H         -3.02145        0.57958       -3.41560
| 14> *
| 15> %MaxCore 64000
| 16>
| 17> %pal nprocs 4
| 18> end
| 19>
| 20> %scf
| 21>   MaxIter 150
| 22> end
| 23>
| 24>
| 25>                          ****END OF INPUT****

CARTESIAN COORDINATES (ANGSTROEM)
---------------------------------
  C     -2.160380   -1.369490   -3.467100
  C     -3.030110   -1.910860   -4.541070
  C     -2.047720    0.146580   -3.511770
  H     -3.477440   -2.791510   -4.257100
  H     -2.538010   -2.017860   -5.438080
  H     -3.891590   -1.376040   -4.714370
  H     -1.184440   -1.844000   -3.566390
  H     -2.598190   -1.708380   -2.528480
  H     -1.615250    0.444780   -4.443950
  H     -1.427180    0.481980   -2.707200
  H     -3.021450    0.579580   -3.415600

 Total Charge           Charge          ....    0
 Multiplicity           Mult            ....    1
 Number of Electrons    NEL             ....   26
 Basis Dimension        Dim             ....  124

ORBITAL ENERGIES
----------------

  NO   OCC          E(Eh)            E(eV)
   0   2.0000     -10.170211      -276.7455
   1   2.0000     -10.162109      -276.5250
   2   2.0000     -10.145081      -276.0617
   3   2.0000      -0.783696       -21.3255
   4   2.0000      -0.685221       -18.6458
   5   2.0000      -0.583183       -15.8692
   6   2.0000      -0.469192       -12.7674
   7   2.0000      -0.439200       -11.9512
   8   2.0000      -0.402111       -10.9420
   9   2.0000      -0.394145       -10.7252
  10   2.0000      -0.341087        -9.2815
  11   2.0000      -0.329049        -8.9539
  12   2.0000      -0.328154        -8.9295
  13   0.0000       0.025143         0.6842
  14   0.0000       0.053927         1.4674
  15   0.0000       0.060587         1.6487
  16   0.0000       0.081653         2.2219
  17   0.0000       0.103377         2.8130

MULLIKEN ATOMIC CHARGES
-----------------------
   0 C :   -0.373367
   1 C :    1.127077
   2 C :    0.858315
   3 H :   -0.278316
   4 H :   -0.266192
   5 H :   -0.325975
   6 H :   -0.200860
   7 H :   -0.141582
   8 H :   -0.130736
   9 H :   -0.165551
  10 H :   -0.102815
Sum of atomic charges:   -0.0000000

LOEWDIN ATOMIC CHARGES
----------------------
   0 C :   -0.107013
   1 C :    0.117134
   2 C :    0.125099
   3 H :   -0.039273
   4 H :   -0.029636
   5 H :   -0.037804
   6 H :    0.018661
   7 H :    0.017016
   8 H :   -0.018666
   9 H :   -0.025462
  10 H :   -0.020057

  Mayer bond orders larger than 0.100000
B(  0-C ,  1-C ) :   1.3016 B(  0-C ,  2-C ) :   1.2636 B(  0-C ,  3-H ) :   0.2373
B(  0-C ,  4-H ) :   0.2516 B(  0-C ,  5-H ) :   0.2074 B(  0-C ,  6-H ) :   0.9015
B(  0-C ,  7-H ) :   0.8750 B(  0-C ,  8-H ) :   0.2049 B(  0-C ,  9-H ) :   0.2171
B(  0-C , 10-H ) :   0.1756 B(  1-C ,  3-H ) :   0.5760 B(  1-C ,  4-H ) :   0.6386
B(  1-C ,  5-H ) :   0.5859 B(  1-C ,  6-H ) :   0.1260 B(  1-C ,  7-H ) :   0.1259
B(  2-C ,  8-H ) :   0.7834 B(  2-C ,  9-H ) :   0.7690 B(  2-C , 10-H ) :   0.8007
B(  3-H ,  5-H ) :   0.2320 B(  4-H ,  5-H ) :   0.1272

Dispersion correction           -0.010057642
FINAL SINGLE POINT ENERGY      -118.960637045640

DIPOLE MOMENT
-------------
                                X             Y             Z
Electronic contribution:      0.31814      -0.13101       0.27510
Nuclear contribution   :     -0.34625       0.09603      -0.26933
                        -----------------------------------------
Total Dipole Moment    :     -0.02811      -0.03498       0.00577
                        -----------------------------------------
Magnitude (a.u.)       :      0.04524
Magnitude (Debye)      :      0.11500

Rotational constants in cm-1:     1.028617     0.291238     0.258956
Rotational constants in MHz : 30837.159054  8731.095379  7763.318586

                             ****ORCA TERMINATED NORMALLY****
TOTAL RUN TIME: 0 days 0 hours 0 minutes 12 seconds 111 msec
