                         Program Version 5.0.0 -  RELEASE  -
|  1> !B3LYP D3BJ RIJCOSX def2-SVPD def2/J TightSCF
|  2> *xyz 0 1
|  3> C         -7.33044       -2.67899       -3.20681
|  4> S         -6.01966       -2.92697       -4.41913
|  5> O         -5.64583       -1.58838       -4.91931
|  6> F         -4.88196       -3.50370       -3.66724
|  7> O         -6.54927       -3.80515       -5.42507
|  8> C         -7.46900       -1.24615       -2.71383
|  9> H         -7.11825       -3.37982       -2.39805
| 10> H         -8.24184       -3.00474       -3.70651
| 11> H         -7.67580       -0.60214       -3.54292
| 12> H         -6.55749       -0.94096       -2.24382
| 13> H         -8.27114       -1.18777       -2.00810
| 14> *
| 15> %MaxCore 64000
| 16>
| 17> %pal nprocs 4
| 18> end
| 19>
| 20> %scf
| 21>   MaxIter 150
| 22> end
| 23>
| 24>
| 25>                          ****END OF INPUT****

CARTESIAN COORDINATES (ANGSTROEM)
---------------------------------
  C     -7.330440   -2.678990   -3.206810
  S     -6.019660   -2.926970   -4.419130
  O     -5.645830   -1.588380   -4.919310
  F     -4.881960   -3.503700   -3.667240
  O     -6.549270   -3.805150   -5.425070
  C     -7.469000   -1.246150   -2.713830
  H     -7.118250   -3.379820   -2.398050
  H     -8.241840   -3.004740   -3.706510
  H     -7.675800   -0.602140   -3.542920
  H     -6.557490   -0.940960   -2.243820
  H     -8.271140   -1.187770   -2.008100

 Total Charge           Charge          ....    0
 Multiplicity           Mult            ....    1
 Number of Electrons    NEL             ....   58
 Basis Dimension        Dim             ....  176

ORBITAL ENERGIES
----------------

  NO   OCC          E(Eh)            E(eV)
   0   2.0000     -89.137222     -2425.5471
   1   2.0000     -24.797906      -674.7853
   2   2.0000     -19.156532      -521.2757
   3   2.0000     -19.145030      -520.9628
   4   2.0000     -10.251381      -278.9542
   5   2.0000     -10.205984      -277.7189
   6   2.0000      -8.191953      -222.9144
   7   2.0000      -6.164797      -167.7527
   8   2.0000      -6.158689      -167.5864
   9   2.0000      -6.157320      -167.5492
  10   2.0000      -1.346080       -36.6287
  11   2.0000      -1.112796       -30.2807
  12   2.0000      -1.011604       -27.5271
  13   2.0000      -0.824014       -22.4226
  14   2.0000      -0.727197       -19.7880
  15   2.0000      -0.672379       -18.2964
  16   2.0000      -0.581564       -15.8252
  17   2.0000      -0.567914       -15.4537
  18   2.0000      -0.554196       -15.0804
  19   2.0000      -0.498382       -13.5617
  20   2.0000      -0.486254       -13.2316
  21   2.0000      -0.459308       -12.4984
  22   2.0000      -0.434623       -11.8267
  23   2.0000      -0.409453       -11.1418
  24   2.0000      -0.401869       -10.9354
  25   2.0000      -0.387728       -10.5506
  26   2.0000      -0.338960        -9.2236
  27   2.0000      -0.331863        -9.0305
  28   2.0000      -0.315737        -8.5916
  29   0.0000      -0.007546        -0.2053
  30   0.0000       0.014766         0.4018
  31   0.0000       0.029177         0.7939
  32   0.0000       0.038217         1.0399
  33   0.0000       0.045871         1.2482

MULLIKEN ATOMIC CHARGES
-----------------------
   0 C :   -0.220212
   1 S :    1.491917
   2 O :   -0.708835
   3 F :   -0.426165
   4 O :   -0.649911
   5 C :    1.028225
   6 H :   -0.075441
   7 H :   -0.057626
   8 H :   -0.060517
   9 H :   -0.110182
  10 H :   -0.211253
Sum of atomic charges:    0.0000000

LOEWDIN ATOMIC CHARGES
----------------------
   0 C :   -0.076069
   1 S :    1.136225
   2 O :   -0.476635
   3 F :   -0.278623
   4 O :   -0.463261
   5 C :    0.138618
   6 H :    0.016242
   7 H :    0.022192
   8 H :   -0.006092
   9 H :   -0.004631
  10 H :   -0.007965

  Mayer bond orders larger than 0.100000
B(  0-C ,  1-S ) :   0.9342 B(  0-C ,  5-C ) :   1.3097 B(  0-C ,  6-H ) :   0.9277
B(  0-C ,  7-H ) :   0.9608 B(  0-C ,  8-H ) :   0.2184 B(  0-C ,  9-H ) :   0.2105
B(  0-C , 10-H ) :   0.2381 B(  1-S ,  2-O ) :   1.4866 B(  1-S ,  3-F ) :   0.6360
B(  1-S ,  4-O ) :   1.5463 B(  5-C ,  8-H ) :   0.7665 B(  5-C ,  9-H ) :   0.7590
B(  5-C , 10-H ) :   0.7140

Dispersion correction           -0.015892975
FINAL SINGLE POINT ENERGY      -727.086647357211

DIPOLE MOMENT
-------------
                                X             Y             Z
Electronic contribution:      6.93699      -4.95728      -4.24011
Nuclear contribution   :     -7.60849       4.87515       5.84588
                        -----------------------------------------
Total Dipole Moment    :     -0.67150      -0.08213       1.60577
                        -----------------------------------------
Magnitude (a.u.)       :      1.74246
Magnitude (Debye)      :      4.42898

Rotational constants in cm-1:     0.153704     0.080342     0.079431
Rotational constants in MHz :  4607.928650  2408.599360  2381.267225

                             ****ORCA TERMINATED NORMALLY****
TOTAL RUN TIME: 0 days 0 hours 0 minutes 21 seconds 75 msec
