                         Program Version 5.0.0 -  RELEASE  -
|  1> !B3LYP D3BJ RIJCOSX def2-SVPD def2/J TightSCF
|  2> *xyz 0 1
|  3> C         -7.33044       -2.67899       -3.20681
|  4> S         -6.01966       -2.92697       -4.41913
|  5> O         -5.64583       -1.58838       -4.91931
|  6> O         -4.88196       -3.50370       -3.66724
|  7> F         -6.54927       -3.80515       -5.42507
|  8> C         -7.46900       -1.24615       -2.71383
|  9> H         -7.11825       -3.37982       -2.39805
| 10> H         -8.24184       -3.00474       -3.70651
| 11> H         -7.67580       -0.60214       -3.54292
| 12> H         -6.55749       -0.94096       -2.24382
| 13> H         -8.27114       -1.18777       -2.00810
| 14> *
| 15> %MaxCore 64000
| 16>
| 17> %pal nprocs 4
| 18> end
| 19>
| 20> %scf
| 21>   MaxIter 150
| 22> end
| 23>
| 24>
| 25>                          ****END OF INPUT****

CARTESIAN COORDINATES (ANGSTROEM)
---------------------------------
  C     -7.330440   -2.678990   -3.206810
  S     -6.019660   -2.926970   -4.419130
  O     -5.645830   -1.588380   -4.919310
  O     -4.881960   -3.503700   -3.667240
  F     -6.549270   -3.805150   -5.425070
  C     -7.469000   -1.246150   -2.713830
  H     -7.118250   -3.379820   -2.398050
  H     -8.241840   -3.004740   -3.706510
  H     -7.675800   -0.602140   -3.542920
  H     -6.557490   -0.940960   -2.243820
  H     -8.271140   -1.187770   -2.008100

 Total Charge           Charge          ....    0
 Multiplicity           Mult            ....    1
 Number of Electrons    NEL             ....   58
 Basis Dimension        Dim             ....  176

ORBITAL ENERGIES
----------------

  NO   OCC          E(Eh)            E(eV)
   0   2.0000     -89.139337     -2425.6047
   1   2.0000     -24.819538      -675.3740
   2   2.0000     -19.145439      -520.9739
   3   2.0000     -19.142430      -520.8920
   4   2.0000     -10.252204      -278.9766
   5   2.0000     -10.206170      -277.7240
   6   2.0000      -8.194137      -222.9738
   7   2.0000      -6.167193      -167.8179
   8   2.0000      -6.160656      -167.6400
   9   2.0000      -6.159281      -167.6026
  10   2.0000      -1.383516       -37.6474
  11   2.0000      -1.097020       -29.8514
  12   2.0000      -0.994164       -27.0526
  13   2.0000      -0.824553       -22.4372
  14   2.0000      -0.742049       -20.1922
  15   2.0000      -0.679821       -18.4989
  16   2.0000      -0.596025       -16.2187
  17   2.0000      -0.593854       -16.1596
  18   2.0000      -0.559449       -15.2234
  19   2.0000      -0.499752       -13.5989
  20   2.0000      -0.485291       -13.2054
  21   2.0000      -0.449220       -12.2239
  22   2.0000      -0.431950       -11.7540
  23   2.0000      -0.411562       -11.1992
  24   2.0000      -0.395105       -10.7514
  25   2.0000      -0.381978       -10.3942
  26   2.0000      -0.330730        -8.9996
  27   2.0000      -0.324022        -8.8171
  28   2.0000      -0.302345        -8.2272
  29   0.0000      -0.007394        -0.2012
  30   0.0000       0.012098         0.3292
  31   0.0000       0.030257         0.8233
  32   0.0000       0.037368         1.0168
  33   0.0000       0.046723         1.2714

MULLIKEN ATOMIC CHARGES
-----------------------
   0 C :   -0.220374
   1 S :    1.492750
   2 O :   -0.698795
   3 O :   -0.686442
   4 F :   -0.398407
   5 C :    1.001145
   6 H :   -0.076035
   7 H :   -0.055804
   8 H :   -0.060640
   9 H :   -0.086508
  10 H :   -0.210890
Sum of atomic charges:    0.0000000

LOEWDIN ATOMIC CHARGES
----------------------
   0 C :   -0.081443
   1 S :    1.139475
   2 O :   -0.477407
   3 O :   -0.485097
   4 F :   -0.259694
   5 C :    0.145163
   6 H :    0.021755
   7 H :    0.010014
   8 H :   -0.007989
   9 H :    0.001730
  10 H :   -0.006506

  Mayer bond orders larger than 0.100000
B(  0-C ,  1-S ) :   0.9262 B(  0-C ,  5-C ) :   1.3227 B(  0-C ,  6-H ) :   0.9568
B(  0-C ,  7-H ) :   0.9219 B(  0-C ,  8-H ) :   0.2209 B(  0-C ,  9-H ) :   0.2029
B(  0-C , 10-H ) :   0.2380 B(  1-S ,  2-O ) :   1.4807 B(  1-S ,  3-O ) :   1.4852
B(  1-S ,  4-F ) :   0.6962 B(  5-C ,  8-H ) :   0.7611 B(  5-C ,  9-H ) :   0.7694
B(  5-C , 10-H ) :   0.7161

Dispersion correction           -0.015916971
FINAL SINGLE POINT ENERGY      -727.068005356003

DIPOLE MOMENT
-------------
                                X             Y             Z
Electronic contribution:      4.10577      -5.44914      -7.22460
Nuclear contribution   :     -5.87110       5.18927       7.67759
                        -----------------------------------------
Total Dipole Moment    :     -1.76533      -0.25987       0.45300
                        -----------------------------------------
Magnitude (a.u.)       :      1.84096
Magnitude (Debye)      :      4.67935

Rotational constants in cm-1:     0.155988     0.080452     0.078187
Rotational constants in MHz :  4676.405251  2411.902056  2343.983816

                             ****ORCA TERMINATED NORMALLY****
TOTAL RUN TIME: 0 days 0 hours 0 minutes 20 seconds 895 msec
