                         Program Version 5.0.0 -  RELEASE  -
|  1> !M062X D3Zero RIJCOSX def2-SVPD def2/J TightSCF
|  2> *xyz -1 1
|  3> C         -0.87096        0.24804       -2.66280
|  4> C         -0.47749        0.60819       -4.10105
|  5> H          0.20677        1.45830       -4.11875
|  6> H         -1.36844        0.92942       -4.64785
|  7> C          0.18467       -0.50664       -4.91676
|  8> O         -0.15869       -1.70109       -4.65798
|  9> O          1.05594       -0.17441       -5.74037
| 10> C          0.10016       -0.67355       -1.91581
| 11> H         -1.00105        1.18104       -2.10407
| 12> H         -1.84465       -0.24659       -2.66328
| 13> H          0.22336       -1.58297       -2.46597
| 14> H         -0.29270       -0.89423       -0.94532
| 15> H          1.04759       -0.18666       -1.81480
| 16> *
| 17>
| 18> %MaxCore 64000
| 19>
| 20> %pal nprocs 4
| 21> end
| 22>
| 23> %scf
| 24>   MaxIter 150
| 25> end
| 26>
| 27>
| 28>                          ****END OF INPUT****

CARTESIAN COORDINATES (ANGSTROEM)
---------------------------------
  C     -0.870960    0.248040   -2.662800
  C     -0.477490    0.608190   -4.101050
  H      0.206770    1.458300   -4.118750
  H     -1.368440    0.929420   -4.647850
  C      0.184670   -0.506640   -4.916760
  O     -0.158690   -1.701090   -4.657980
  O      1.055940   -0.174410   -5.740370
  C      0.100160   -0.673550   -1.915810
  H     -1.001050    1.181040   -2.104070
  H     -1.844650   -0.246590   -2.663280
  H      0.223360   -1.582970   -2.465970
  H     -0.292700   -0.894230   -0.945320
  H      1.047590   -0.186660   -1.814800

 Total Charge           Charge          ....   -1
 Multiplicity           Mult            ....    1
 Number of Electrons    NEL             ....   48
 Basis Dimension        Dim             ....  182

ORBITAL ENERGIES
----------------

  NO   OCC          E(Eh)            E(eV)
   0   2.0000     -19.377357      -527.2847
   1   2.0000     -19.373628      -527.1832
   2   2.0000     -10.442539      -284.1559
   3   2.0000     -10.401284      -283.0333
   4   2.0000     -10.384371      -282.5731
   5   2.0000     -10.378399      -282.4106
   6   2.0000      -0.933678       -25.4067
   7   2.0000      -0.832711       -22.6592
   8   2.0000      -0.721838       -19.6422
   9   2.0000      -0.624361       -16.9897
  10   2.0000      -0.522369       -14.2144
  11   2.0000      -0.393520       -10.7082
  12   2.0000      -0.374607       -10.1936
  13   2.0000      -0.362793        -9.8721
  14   2.0000      -0.324475        -8.8294
  15   2.0000      -0.306061        -8.3283
  16   2.0000      -0.285827        -7.7778
  17   2.0000      -0.269147        -7.3239
  18   2.0000      -0.256712        -6.9855
  19   2.0000      -0.241252        -6.5648
  20   2.0000      -0.226693        -6.1686
  21   2.0000      -0.114834        -3.1248
  22   2.0000      -0.113550        -3.0899
  23   2.0000      -0.106874        -2.9082
  24   0.0000       0.166336         4.5262
  25   0.0000       0.189323         5.1517
  26   0.0000       0.205855         5.6016
  27   0.0000       0.216670         5.8959
  28   0.0000       0.239582         6.5194

MULLIKEN ATOMIC CHARGES
-----------------------
   0 C :   -0.375779
   1 C :    0.156260
   2 H :    0.018573
   3 H :   -0.061630
   4 C :    0.488264
   5 O :   -0.802953
   6 O :   -0.726225
   7 C :    0.704037
   8 H :   -0.163577
   9 H :   -0.042065
  10 H :   -0.092947
  11 H :   -0.058616
  12 H :   -0.043341
Sum of atomic charges:   -1.0000000

LOEWDIN ATOMIC CHARGES
----------------------
   0 C :   -0.086915
   1 C :    0.004149
   2 H :    0.003540
   3 H :    0.011822
   4 C :   -0.278472
   5 O :   -0.334136
   6 O :   -0.327796
   7 C :    0.112016
   8 H :   -0.003251
   9 H :    0.008358
  10 H :   -0.046944
  11 H :   -0.038421
  12 H :   -0.023950

  Mayer bond orders larger than 0.100000
B(  0-C ,  1-C ) :   1.1957 B(  0-C ,  2-H ) :   0.1212 B(  0-C ,  3-H ) :   0.1154
B(  0-C ,  7-C ) :   1.3356 B(  0-C ,  8-H ) :   0.9506 B(  0-C ,  9-H ) :   0.8962
B(  0-C , 10-H ) :   0.2100 B(  0-C , 11-H ) :   0.2264 B(  0-C , 12-H ) :   0.2001
B(  1-C ,  2-H ) :   0.8543 B(  1-C ,  3-H ) :   0.8512 B(  1-C ,  4-C ) :   1.0253
B(  1-C ,  8-H ) :   0.1035 B(  1-C ,  9-H ) :   0.1074 B(  2-H ,  4-C ) :   0.2047
B(  4-C ,  5-O ) :   1.3920 B(  4-C ,  6-O ) :   1.3510 B(  7-C , 10-H ) :   0.8653
B(  7-C , 11-H ) :   0.7159 B(  7-C , 12-H ) :   0.7634

Dispersion correction           -0.000196104
FINAL SINGLE POINT ENERGY      -306.797416993750

DIPOLE MOMENT
-------------
                                X             Y             Z
Electronic contribution:      1.81040      -1.99688      -6.70921
Nuclear contribution   :     -2.71698       3.10699       8.64748
                        -----------------------------------------
Total Dipole Moment    :     -0.90659       1.11012       1.93826
                        -----------------------------------------
Magnitude (a.u.)       :      2.41063
Magnitude (Debye)      :      6.12732

Rotational constants in cm-1:     0.212307     0.084237     0.072775
Rotational constants in MHz :  6364.813744  2525.362351  2181.751235

                             ****ORCA TERMINATED NORMALLY****
TOTAL RUN TIME: 0 days 0 hours 0 minutes 19 seconds 879 msec
