                         Program Version 5.0.0 -  RELEASE  -
|  1> !M062X D3Zero RIJCOSX def2-SVPD def2/J TightSCF
|  2> *xyz 1 1
|  3> C          2.48645       -2.67712       -2.56345
|  4> C          3.03764       -2.36672       -3.92351
|  5> N          2.28036       -2.45441       -4.96769
|  6> N          4.32174       -2.01793       -4.01664
|  7> H          4.87994       -1.91167       -3.17382
|  8> H          4.71015       -1.67088       -4.88356
|  9> H          1.27042       -2.41265       -4.86614
| 10> H          2.58183       -2.05528       -5.84688
| 11> C          2.49799       -1.46946       -1.61030
| 12> C          1.58284       -0.32199       -2.04262
| 13> H          2.19308       -1.83391       -0.62542
| 14> H          3.52336       -1.10398       -1.49039
| 15> H          1.47259       -3.05153       -2.69437
| 16> H          3.08320       -3.49064       -2.14147
| 17> H          1.88480        0.03130       -3.00642
| 18> H          1.65140        0.47571       -1.33278
| 19> H          0.57235       -0.67052       -2.09099
| 20> *
| 21>
| 22> %MaxCore 64000
| 23>
| 24> %pal nprocs 4
| 25> end
| 26>
| 27> %scf
| 28>   MaxIter 150
| 29> end
| 30>
| 31>
| 32>                          ****END OF INPUT****

CARTESIAN COORDINATES (ANGSTROEM)
---------------------------------
  C      2.486450   -2.677120   -2.563450
  C      3.037640   -2.366720   -3.923510
  N      2.280360   -2.454410   -4.967690
  N      4.321740   -2.017930   -4.016640
  H      4.879940   -1.911670   -3.173820
  H      4.710150   -1.670880   -4.883560
  H      1.270420   -2.412650   -4.866140
  H      2.581830   -2.055280   -5.846880
  C      2.497990   -1.469460   -1.610300
  C      1.582840   -0.321990   -2.042620
  H      2.193080   -1.833910   -0.625420
  H      3.523360   -1.103980   -1.490390
  H      1.472590   -3.051530   -2.694370
  H      3.083200   -3.490640   -2.141470
  H      1.884800    0.031300   -3.006420
  H      1.651400    0.475710   -1.332780
  H      0.572350   -0.670520   -2.090990

 Total Charge           Charge          ....    1
 Multiplicity           Mult            ....    1
 Number of Electrons    NEL             ....   48
 Basis Dimension        Dim             ....  208

ORBITAL ENERGIES
----------------

  NO   OCC          E(Eh)            E(eV)
   0   2.0000     -15.010585      -408.4588
   1   2.0000     -15.004898      -408.3040
   2   2.0000     -10.877446      -295.9904
   3   2.0000     -10.744913      -292.3840
   4   2.0000     -10.714883      -291.5668
   5   2.0000     -10.679872      -290.6141
   6   2.0000      -1.306819       -35.5603
   7   2.0000      -1.202181       -32.7130
   8   2.0000      -1.064130       -28.9565
   9   2.0000      -0.975534       -26.5456
  10   2.0000      -0.916421       -24.9371
  11   2.0000      -0.859987       -23.4014
  12   2.0000      -0.846744       -23.0411
  13   2.0000      -0.809443       -22.0261
  14   2.0000      -0.769465       -20.9382
  15   2.0000      -0.727217       -19.7886
  16   2.0000      -0.696203       -18.9446
  17   2.0000      -0.660565       -17.9749
  18   2.0000      -0.642065       -17.4715
  19   2.0000      -0.628933       -17.1141
  20   2.0000      -0.566890       -15.4258
  21   2.0000      -0.562751       -15.3132
  22   2.0000      -0.559699       -15.2302
  23   2.0000      -0.552428       -15.0323
  24   0.0000      -0.173818        -4.7298
  25   0.0000      -0.133506        -3.6329
  26   0.0000      -0.096519        -2.6264
  27   0.0000      -0.090888        -2.4732
  28   0.0000      -0.065788        -1.7902

MULLIKEN ATOMIC CHARGES
-----------------------
   0 C :    0.119591
   1 C :    0.671456
   2 N :    0.062607
   3 N :   -0.005866
   4 H :    0.051981
   5 H :   -0.131395
   6 H :    0.042051
   7 H :   -0.090752
   8 C :   -0.377860
   9 C :    0.722384
  10 H :   -0.053265
  11 H :   -0.050058
  12 H :    0.083993
  13 H :    0.016028
  14 H :   -0.084565
  15 H :   -0.036342
  16 H :    0.060012
Sum of atomic charges:    1.0000000

LOEWDIN ATOMIC CHARGES
----------------------
   0 C :    0.047326
   1 C :   -0.045960
   2 N :    0.280116
   3 N :    0.283603
   4 H :    0.049061
   5 H :    0.046123
   6 H :    0.060020
   7 H :    0.052629
   8 C :   -0.047277
   9 C :    0.146897
  10 H :    0.041072
  11 H :    0.020459
  12 H :    0.037657
  13 H :    0.053700
  14 H :   -0.021278
  15 H :    0.000949
  16 H :   -0.005098

  Mayer bond orders larger than 0.100000
B(  0-C ,  1-C ) :   1.1622 B(  0-C ,  8-C ) :   1.1572 B(  0-C , 10-H ) :   0.1053
B(  0-C , 11-H ) :   0.1141 B(  0-C , 12-H ) :   0.7696 B(  0-C , 13-H ) :   0.8677
B(  1-C ,  2-N ) :   1.0536 B(  1-C ,  3-N ) :   1.0617 B(  1-C ,  5-H ) :  -0.1610
B(  1-C ,  7-H ) :  -0.1188 B(  1-C , 12-H ) :   0.2067 B(  1-C , 13-H ) :   0.1378
B(  2-N ,  3-N ) :   0.1504 B(  2-N ,  6-H ) :   1.0625 B(  2-N ,  7-H ) :   1.1944
B(  3-N ,  4-H ) :   1.0890 B(  3-N ,  5-H ) :   1.3028 B(  4-H ,  5-H ) :  -0.1934
B(  6-H ,  7-H ) :  -0.1419 B(  8-C ,  9-C ) :   1.3576 B(  8-C , 10-H ) :   0.9987
B(  8-C , 11-H ) :   0.9050 B(  8-C , 12-H ) :   0.1314 B(  8-C , 14-H ) :   0.2406
B(  8-C , 15-H ) :   0.2169 B(  8-C , 16-H ) :   0.2112 B(  9-C , 14-H ) :   0.8140
B(  9-C , 15-H ) :   0.7861 B(  9-C , 16-H ) :   0.7629

Dispersion correction           -0.000355991
FINAL SINGLE POINT ENERGY      -268.022508266101

DIPOLE MOMENT
-------------
                                X             Y             Z
Electronic contribution:      2.36672      -2.80419      -4.27412
Nuclear contribution   :     -1.82438       2.64851       2.98450
                        -----------------------------------------
Total Dipole Moment    :      0.54234      -0.15568      -1.28962
                        -----------------------------------------
Magnitude (a.u.)       :      1.40765
Magnitude (Debye)      :      3.57796

Rotational constants in cm-1:     0.176712     0.077069     0.069669
Rotational constants in MHz :  5297.698588  2310.466480  2088.633881

                             ****ORCA TERMINATED NORMALLY****
TOTAL RUN TIME: 0 days 0 hours 0 minutes 25 seconds 812 msec
