                         Program Version 5.0.0 -  RELEASE  -
|  1> !M062X D3Zero RIJCOSX def2-SVPD def2/J TightSCF
|  2> *xyz 0 1
|  3> C         -0.87096        0.24804       -2.66280
|  4> C         -0.47749        0.60819       -4.10105
|  5> H          0.20677        1.45830       -4.11875
|  6> H         -1.36844        0.92942       -4.64785
|  7> C          0.18467       -0.50664       -4.91676
|  8> F         -0.15869       -1.70109       -4.65798
|  9> O          1.05594       -0.17441       -5.74037
| 10> C          0.10016       -0.67355       -1.91581
| 11> H         -1.00105        1.18104       -2.10407
| 12> H         -1.84465       -0.24659       -2.66328
| 13> H          0.22336       -1.58297       -2.46597
| 14> H         -0.29270       -0.89423       -0.94532
| 15> H          1.04759       -0.18666       -1.81480
| 16> *
| 17>
| 18> %MaxCore 64000
| 19>
| 20> %pal nprocs 4
| 21> end
| 22>
| 23> %scf
| 24>   MaxIter 150
| 25> end
| 26>
| 27>
| 28>                          ****END OF INPUT****

CARTESIAN COORDINATES (ANGSTROEM)
---------------------------------
  C     -0.870960    0.248040   -2.662800
  C     -0.477490    0.608190   -4.101050
  H      0.206770    1.458300   -4.118750
  H     -1.368440    0.929420   -4.647850
  C      0.184670   -0.506640   -4.916760
  F     -0.158690   -1.701090   -4.657980
  O      1.055940   -0.174410   -5.740370
  C      0.100160   -0.673550   -1.915810
  H     -1.001050    1.181040   -2.104070
  H     -1.844650   -0.246590   -2.663280
  H      0.223360   -1.582970   -2.465970
  H     -0.292700   -0.894230   -0.945320
  H      1.047590   -0.186660   -1.814800

 Total Charge           Charge          ....    0
 Multiplicity           Mult            ....    1
 Number of Electrons    NEL             ....   48
 Basis Dimension        Dim             ....  182

ORBITAL ENERGIES
----------------

  NO   OCC          E(Eh)            E(eV)
   0   2.0000     -25.325458      -689.1407
   1   2.0000     -19.651088      -534.7333
   2   2.0000     -10.738914      -292.2207
   3   2.0000     -10.582947      -287.9766
   4   2.0000     -10.568961      -287.5960
   5   2.0000     -10.546523      -286.9855
   6   2.0000      -1.437145       -39.1067
   7   2.0000      -1.151692       -31.3391
   8   2.0000      -0.908128       -24.7114
   9   2.0000      -0.818348       -22.2684
  10   2.0000      -0.753192       -20.4954
  11   2.0000      -0.701030       -19.0760
  12   2.0000      -0.641463       -17.4551
  13   2.0000      -0.632551       -17.2126
  14   2.0000      -0.575600       -15.6629
  15   2.0000      -0.548902       -14.9364
  16   2.0000      -0.523105       -14.2344
  17   2.0000      -0.494332       -13.4515
  18   2.0000      -0.479801       -13.0560
  19   2.0000      -0.446419       -12.1477
  20   2.0000      -0.431451       -11.7404
  21   2.0000      -0.420122       -11.4321
  22   2.0000      -0.402889       -10.9632
  23   2.0000      -0.369349       -10.0505
  24   0.0000       0.013178         0.3586
  25   0.0000       0.027570         0.7502
  26   0.0000       0.057952         1.5770
  27   0.0000       0.059902         1.6300
  28   0.0000       0.074405         2.0247

MULLIKEN ATOMIC CHARGES
-----------------------
   0 C :   -0.361246
   1 C :    0.039003
   2 H :    0.081963
   3 H :    0.022337
   4 C :    0.790702
   5 F :   -0.462401
   6 O :   -0.522035
   7 C :    0.693405
   8 H :   -0.125967
   9 H :   -0.009404
  10 H :   -0.111345
  11 H :   -0.025675
  12 H :   -0.009336
Sum of atomic charges:   -0.0000000

LOEWDIN ATOMIC CHARGES
----------------------
   0 C :   -0.065764
   1 C :    0.051835
   2 H :    0.037111
   3 H :    0.040575
   4 C :    0.014635
   5 F :   -0.060843
   6 O :   -0.136279
   7 C :    0.132697
   8 H :    0.023448
   9 H :    0.021453
  10 H :   -0.035755
  11 H :   -0.013430
  12 H :   -0.009683

  Mayer bond orders larger than 0.100000
B(  0-C ,  1-C ) :   1.2243 B(  0-C ,  2-H ) :   0.1118 B(  0-C ,  3-H ) :   0.1051
B(  0-C ,  7-C ) :   1.3505 B(  0-C ,  8-H ) :   0.9557 B(  0-C ,  9-H ) :   0.9022
B(  0-C , 10-H ) :   0.1894 B(  0-C , 11-H ) :   0.2151 B(  0-C , 12-H ) :   0.1932
B(  1-C ,  2-H ) :   0.8795 B(  1-C ,  3-H ) :   0.8561 B(  1-C ,  4-C ) :   1.0663
B(  1-C ,  8-H ) :   0.1065 B(  1-C ,  9-H ) :   0.1014 B(  2-H ,  4-C ) :   0.1480
B(  4-C ,  5-F ) :   0.6368 B(  4-C ,  6-O ) :   1.7438 B(  7-C , 10-H ) :   0.8656
B(  7-C , 11-H ) :   0.7402 B(  7-C , 12-H ) :   0.7745

Dispersion correction           -0.000205477
FINAL SINGLE POINT ENERGY      -331.330468467122

DIPOLE MOMENT
-------------
                                X             Y             Z
Electronic contribution:      1.73128      -4.29423      -8.46043
Nuclear contribution   :     -2.55684       4.59749       9.38828
                        -----------------------------------------
Total Dipole Moment    :     -0.82556       0.30326       0.92785
                        -----------------------------------------
Magnitude (a.u.)       :      1.27845
Magnitude (Debye)      :      3.24955

Rotational constants in cm-1:     0.200184     0.083263     0.071070
Rotational constants in MHz :  6001.373539  2496.169674  2130.635527

                             ****ORCA TERMINATED NORMALLY****
TOTAL RUN TIME: 0 days 0 hours 0 minutes 19 seconds 813 msec
