                         Program Version 5.0.0 -  RELEASE  -
|  1> !M062X D3Zero RIJCOSX def2-SVPD def2/J TightSCF
|  2> *xyz 0 1
|  3> C          2.48645       -2.67712       -2.56345
|  4> C          3.03764       -2.36672       -3.92351
|  5> C          2.28036       -2.45441       -4.96769
|  6> N          4.32174       -2.01793       -4.01664
|  7> H          4.87994       -1.91167       -3.17382
|  8> H          4.71015       -1.67088       -4.88356
|  9> H          1.27042       -2.41265       -4.86614
| 10> H          2.58183       -2.05528       -5.84688
| 11> C          2.49799       -1.46946       -1.61030
| 12> C          1.58284       -0.32199       -2.04262
| 13> H          2.19308       -1.83391       -0.62542
| 14> H          3.52336       -1.10398       -1.49039
| 15> H          1.47259       -3.05153       -2.69437
| 16> H          3.08320       -3.49064       -2.14147
| 17> H          1.88480        0.03130       -3.00642
| 18> H          1.65140        0.47571       -1.33278
| 19> H          0.57235       -0.67052       -2.09099
| 20> *
| 21>
| 22> %MaxCore 64000
| 23>
| 24> %pal nprocs 4
| 25> end
| 26>
| 27> %scf
| 28>   MaxIter 150
| 29> end
| 30>
| 31>
| 32>                          ****END OF INPUT****

CARTESIAN COORDINATES (ANGSTROEM)
---------------------------------
  C      2.486450   -2.677120   -2.563450
  C      3.037640   -2.366720   -3.923510
  C      2.280360   -2.454410   -4.967690
  N      4.321740   -2.017930   -4.016640
  H      4.879940   -1.911670   -3.173820
  H      4.710150   -1.670880   -4.883560
  H      1.270420   -2.412650   -4.866140
  H      2.581830   -2.055280   -5.846880
  C      2.497990   -1.469460   -1.610300
  C      1.582840   -0.321990   -2.042620
  H      2.193080   -1.833910   -0.625420
  H      3.523360   -1.103980   -1.490390
  H      1.472590   -3.051530   -2.694370
  H      3.083200   -3.490640   -2.141470
  H      1.884800    0.031300   -3.006420
  H      1.651400    0.475710   -1.332780
  H      0.572350   -0.670520   -2.090990

 Total Charge           Charge          ....    0
 Multiplicity           Mult            ....    1
 Number of Electrons    NEL             ....   48
 Basis Dimension        Dim             ....  208

ORBITAL ENERGIES
----------------

  NO   OCC          E(Eh)            E(eV)
   0   2.0000     -14.762914      -401.7193
   1   2.0000     -10.572005      -287.6789
   2   2.0000     -10.550462      -287.0927
   3   2.0000     -10.547931      -287.0238
   4   2.0000     -10.531551      -286.5781
   5   2.0000     -10.482506      -285.2435
   6   2.0000      -1.022783       -27.8313
   7   2.0000      -0.883577       -24.0434
   8   2.0000      -0.827247       -22.5105
   9   2.0000      -0.769937       -20.9510
  10   2.0000      -0.678287       -18.4571
  11   2.0000      -0.640903       -17.4399
  12   2.0000      -0.599024       -16.3003
  13   2.0000      -0.543094       -14.7783
  14   2.0000      -0.521286       -14.1849
  15   2.0000      -0.517657       -14.0862
  16   2.0000      -0.462793       -12.5932
  17   2.0000      -0.454845       -12.3770
  18   2.0000      -0.435127       -11.8404
  19   2.0000      -0.430648       -11.7185
  20   2.0000      -0.397642       -10.8204
  21   2.0000      -0.385603       -10.4928
  22   2.0000      -0.381057       -10.3691
  23   2.0000      -0.251706        -6.8493
  24   0.0000       0.035331         0.9614
  25   0.0000       0.059728         1.6253
  26   0.0000       0.063063         1.7160
  27   0.0000       0.068790         1.8719
  28   0.0000       0.091227         2.4824

MULLIKEN ATOMIC CHARGES
-----------------------
   0 C :    0.194778
   1 C :   -0.145625
   2 C :    0.403260
   3 N :    0.106998
   4 H :   -0.105537
   5 H :   -0.177257
   6 H :   -0.017134
   7 H :   -0.414124
   8 C :   -0.352972
   9 C :    0.737613
  10 H :   -0.119922
  11 H :   -0.054941
  12 H :    0.131067
  13 H :   -0.075970
  14 H :   -0.077016
  15 H :   -0.059550
  16 H :    0.026330
Sum of atomic charges:    0.0000000

LOEWDIN ATOMIC CHARGES
----------------------
   0 C :    0.005475
   1 C :   -0.266419
   2 C :    0.167517
   3 N :    0.171408
   4 H :   -0.002495
   5 H :    0.006766
   6 H :   -0.075370
   7 H :   -0.081901
   8 C :   -0.071875
   9 C :    0.129010
  10 H :    0.017196
  11 H :    0.007483
  12 H :    0.023126
  13 H :    0.025546
  14 H :   -0.020402
  15 H :   -0.020213
  16 H :   -0.014852

  Mayer bond orders larger than 0.100000
B(  0-C ,  1-C ) :   1.1770 B(  0-C ,  8-C ) :   1.1322 B(  0-C , 10-H ) :   0.1477
B(  0-C , 11-H ) :   0.1464 B(  0-C , 12-H ) :   0.7608 B(  0-C , 13-H ) :   0.9225
B(  1-C ,  2-C ) :   2.1060 B(  1-C ,  3-N ) :   1.1300 B(  1-C ,  6-H ) :   0.1515
B(  1-C ,  7-H ) :   0.2974 B(  1-C , 12-H ) :   0.1484 B(  1-C , 13-H ) :   0.1635
B(  2-C ,  3-N ) :   0.2597 B(  2-C ,  6-H ) :   0.8442 B(  2-C ,  7-H ) :   0.6328
B(  3-N ,  4-H ) :   1.1564 B(  3-N ,  5-H ) :   1.2091 B(  4-H ,  5-H ) :  -0.1691
B(  8-C ,  9-C ) :   1.3289 B(  8-C , 10-H ) :   0.9701 B(  8-C , 11-H ) :   0.8821
B(  8-C , 12-H ) :   0.1382 B(  8-C , 14-H ) :   0.2519 B(  8-C , 15-H ) :   0.2248
B(  8-C , 16-H ) :   0.2174 B(  9-C , 14-H ) :   0.8246 B(  9-C , 15-H ) :   0.7641
B(  9-C , 16-H ) :   0.7659

Dispersion correction           -0.000351886
FINAL SINGLE POINT ENERGY      -251.567165530167

DIPOLE MOMENT
-------------
                                X             Y             Z
Electronic contribution:      2.44937      -2.10236      -2.13969
Nuclear contribution   :     -1.92525       2.50924       2.56958
                        -----------------------------------------
Total Dipole Moment    :      0.52412       0.40688       0.42989
                        -----------------------------------------
Magnitude (a.u.)       :      0.79061
Magnitude (Debye)      :      2.00957

Rotational constants in cm-1:     0.181985     0.078726     0.071856
Rotational constants in MHz :  5455.785660  2360.157292  2154.177820

                             ****ORCA TERMINATED NORMALLY****
TOTAL RUN TIME: 0 days 0 hours 0 minutes 27 seconds 363 msec
