                         Program Version 5.0.0 -  RELEASE  -
|  1> !M062X D3Zero RIJCOSX def2-SVPD def2/J TightSCF
|  2> *xyz 0 1
|  3> C         -0.87096        0.24804       -2.66280
|  4> C         -0.47749        0.60819       -4.10105
|  5> H          0.20677        1.45830       -4.11875
|  6> H         -1.36844        0.92942       -4.64785
|  7> C          0.18467       -0.50664       -4.91676
|  8> O         -0.15869       -1.70109       -4.65798
|  9> F          1.05594       -0.17441       -5.74037
| 10> C          0.10016       -0.67355       -1.91581
| 11> H         -1.00105        1.18104       -2.10407
| 12> H         -1.84465       -0.24659       -2.66328
| 13> H          0.22336       -1.58297       -2.46597
| 14> H         -0.29270       -0.89423       -0.94532
| 15> H          1.04759       -0.18666       -1.81480
| 16> *
| 17>
| 18> %MaxCore 64000
| 19>
| 20> %pal nprocs 4
| 21> end
| 22>
| 23> %scf
| 24>   MaxIter 150
| 25> end
| 26>
| 27>
| 28>                          ****END OF INPUT****

CARTESIAN COORDINATES (ANGSTROEM)
---------------------------------
  C     -0.870960    0.248040   -2.662800
  C     -0.477490    0.608190   -4.101050
  H      0.206770    1.458300   -4.118750
  H     -1.368440    0.929420   -4.647850
  C      0.184670   -0.506640   -4.916760
  O     -0.158690   -1.701090   -4.657980
  F      1.055940   -0.174410   -5.740370
  C      0.100160   -0.673550   -1.915810
  H     -1.001050    1.181040   -2.104070
  H     -1.844650   -0.246590   -2.663280
  H      0.223360   -1.582970   -2.465970
  H     -0.292700   -0.894230   -0.945320
  H      1.047590   -0.186660   -1.814800

 Total Charge           Charge          ....    0
 Multiplicity           Mult            ....    1
 Number of Electrons    NEL             ....   48
 Basis Dimension        Dim             ....  182

ORBITAL ENERGIES
----------------

  NO   OCC          E(Eh)            E(eV)
   0   2.0000     -25.334654      -689.3910
   1   2.0000     -19.648371      -534.6594
   2   2.0000     -10.741826      -292.3000
   3   2.0000     -10.584811      -288.0274
   4   2.0000     -10.563971      -287.4603
   5   2.0000     -10.533967      -286.6438
   6   2.0000      -1.455798       -39.6143
   7   2.0000      -1.137555       -30.9544
   8   2.0000      -0.901854       -24.5407
   9   2.0000      -0.819760       -22.3068
  10   2.0000      -0.759743       -20.6737
  11   2.0000      -0.696303       -18.9474
  12   2.0000      -0.651047       -17.7159
  13   2.0000      -0.627895       -17.0859
  14   2.0000      -0.590431       -16.0664
  15   2.0000      -0.542934       -14.7740
  16   2.0000      -0.525740       -14.3061
  17   2.0000      -0.484647       -13.1879
  18   2.0000      -0.472176       -12.8486
  19   2.0000      -0.430285       -11.7087
  20   2.0000      -0.420569       -11.4443
  21   2.0000      -0.411370       -11.1939
  22   2.0000      -0.402345       -10.9484
  23   2.0000      -0.367286        -9.9944
  24   0.0000       0.009153         0.2491
  25   0.0000       0.029193         0.7944
  26   0.0000       0.054795         1.4910
  27   0.0000       0.063864         1.7378
  28   0.0000       0.078422         2.1340

MULLIKEN ATOMIC CHARGES
-----------------------
   0 C :   -0.372929
   1 C :    0.012634
   2 H :    0.096968
   3 H :    0.034517
   4 C :    0.787179
   5 O :   -0.598835
   6 F :   -0.389369
   7 C :    0.704481
   8 H :   -0.111735
   9 H :   -0.003194
  10 H :   -0.107668
  11 H :   -0.024427
  12 H :   -0.027624
Sum of atomic charges:   -0.0000000

LOEWDIN ATOMIC CHARGES
----------------------
   0 C :   -0.056030
   1 C :    0.044510
   2 H :    0.026985
   3 H :    0.040960
   4 C :    0.021989
   5 O :   -0.150317
   6 F :   -0.040147
   7 C :    0.132992
   8 H :    0.023116
   9 H :    0.025990
  10 H :   -0.041595
  11 H :   -0.014624
  12 H :   -0.013832

  Mayer bond orders larger than 0.100000
B(  0-C ,  1-C ) :   1.2517 B(  0-C ,  2-H ) :   0.1146 B(  0-C ,  3-H ) :   0.1188
B(  0-C ,  7-C ) :   1.3616 B(  0-C ,  8-H ) :   0.9456 B(  0-C ,  9-H ) :   0.8957
B(  0-C , 10-H ) :   0.1930 B(  0-C , 11-H ) :   0.2130 B(  0-C , 12-H ) :   0.1888
B(  1-C ,  2-H ) :   0.8525 B(  1-C ,  3-H ) :   0.8374 B(  1-C ,  4-C ) :   1.1132
B(  1-C ,  8-H ) :   0.1005 B(  1-C ,  9-H ) :   0.1085 B(  2-H ,  4-C ) :   0.1197
B(  4-C ,  5-O ) :   1.7501 B(  4-C ,  6-F ) :   0.6591 B(  7-C , 10-H ) :   0.8670
B(  7-C , 11-H ) :   0.7316 B(  7-C , 12-H ) :   0.7679

Dispersion correction           -0.000194180
FINAL SINGLE POINT ENERGY      -331.323749645360

DIPOLE MOMENT
-------------
                                X             Y             Z
Electronic contribution:      3.79340      -1.74741     -10.35500
Nuclear contribution   :     -3.92885       2.87300      10.61091
                        -----------------------------------------
Total Dipole Moment    :     -0.13545       1.12558       0.25592
                        -----------------------------------------
Magnitude (a.u.)       :      1.16223
Magnitude (Debye)      :      2.95415

Rotational constants in cm-1:     0.209332     0.079487     0.069375
Rotational constants in MHz :  6275.605762  2382.960864  2079.805430

                             ****ORCA TERMINATED NORMALLY****
TOTAL RUN TIME: 0 days 0 hours 0 minutes 20 seconds 831 msec
