                         Program Version 5.0.0 -  RELEASE  -
|  1> !M062X D3Zero RIJCOSX def2-SVPD def2/J TightSCF
|  2> *xyz 0 1
|  3> C          2.48645       -2.67712       -2.56345
|  4> C          3.03764       -2.36672       -3.92351
|  5> N          2.28036       -2.45441       -4.96769
|  6> C          4.32174       -2.01793       -4.01664
|  7> H          4.87994       -1.91167       -3.17382
|  8> H          4.71015       -1.67088       -4.88356
|  9> H          1.27042       -2.41265       -4.86614
| 10> H          2.58183       -2.05528       -5.84688
| 11> C          2.49799       -1.46946       -1.61030
| 12> C          1.58284       -0.32199       -2.04262
| 13> H          2.19308       -1.83391       -0.62542
| 14> H          3.52336       -1.10398       -1.49039
| 15> H          1.47259       -3.05153       -2.69437
| 16> H          3.08320       -3.49064       -2.14147
| 17> H          1.88480        0.03130       -3.00642
| 18> H          1.65140        0.47571       -1.33278
| 19> H          0.57235       -0.67052       -2.09099
| 20> *
| 21>
| 22> %MaxCore 64000
| 23>
| 24> %pal nprocs 4
| 25> end
| 26>
| 27> %scf
| 28>   MaxIter 150
| 29> end
| 30>
| 31>
| 32>                          ****END OF INPUT****

CARTESIAN COORDINATES (ANGSTROEM)
---------------------------------
  C      2.486450   -2.677120   -2.563450
  C      3.037640   -2.366720   -3.923510
  N      2.280360   -2.454410   -4.967690
  C      4.321740   -2.017930   -4.016640
  H      4.879940   -1.911670   -3.173820
  H      4.710150   -1.670880   -4.883560
  H      1.270420   -2.412650   -4.866140
  H      2.581830   -2.055280   -5.846880
  C      2.497990   -1.469460   -1.610300
  C      1.582840   -0.321990   -2.042620
  H      2.193080   -1.833910   -0.625420
  H      3.523360   -1.103980   -1.490390
  H      1.472590   -3.051530   -2.694370
  H      3.083200   -3.490640   -2.141470
  H      1.884800    0.031300   -3.006420
  H      1.651400    0.475710   -1.332780
  H      0.572350   -0.670520   -2.090990

 Total Charge           Charge          ....    0
 Multiplicity           Mult            ....    1
 Number of Electrons    NEL             ....   48
 Basis Dimension        Dim             ....  208

ORBITAL ENERGIES
----------------

  NO   OCC          E(Eh)            E(eV)
   0   2.0000     -14.766863      -401.8268
   1   2.0000     -10.572479      -287.6918
   2   2.0000     -10.548744      -287.0459
   3   2.0000     -10.546905      -286.9959
   4   2.0000     -10.532729      -286.6101
   5   2.0000     -10.483120      -285.2602
   6   2.0000      -1.038718       -28.2650
   7   2.0000      -0.884989       -24.0818
   8   2.0000      -0.817546       -22.2466
   9   2.0000      -0.765038       -20.8177
  10   2.0000      -0.688628       -18.7385
  11   2.0000      -0.639304       -17.3963
  12   2.0000      -0.593140       -16.1402
  13   2.0000      -0.558150       -15.1880
  14   2.0000      -0.522494       -14.2178
  15   2.0000      -0.501257       -13.6399
  16   2.0000      -0.466983       -12.7073
  17   2.0000      -0.458550       -12.4778
  18   2.0000      -0.437306       -11.8997
  19   2.0000      -0.423393       -11.5211
  20   2.0000      -0.397051       -10.8043
  21   2.0000      -0.390740       -10.6326
  22   2.0000      -0.386078       -10.5057
  23   2.0000      -0.241309        -6.5664
  24   0.0000       0.036065         0.9814
  25   0.0000       0.057232         1.5574
  26   0.0000       0.065050         1.7701
  27   0.0000       0.068546         1.8652
  28   0.0000       0.088034         2.3955

MULLIKEN ATOMIC CHARGES
-----------------------
   0 C :    0.465060
   1 C :   -0.102826
   2 N :    0.067052
   3 C :    0.391314
   4 H :   -0.134753
   5 H :   -0.501176
   6 H :   -0.034599
   7 H :   -0.109401
   8 C :   -0.452653
   9 C :    0.716671
  10 H :   -0.093469
  11 H :   -0.068932
  12 H :   -0.053844
  13 H :    0.018464
  14 H :   -0.063800
  15 H :   -0.077049
  16 H :    0.033940
Sum of atomic charges:   -0.0000000

LOEWDIN ATOMIC CHARGES
----------------------
   0 C :    0.006892
   1 C :   -0.269046
   2 N :    0.161025
   3 C :    0.183880
   4 H :   -0.083845
   5 H :   -0.089934
   6 H :    0.006198
   7 H :    0.013431
   8 C :   -0.067076
   9 C :    0.125849
  10 H :    0.017481
  11 H :    0.014292
  12 H :    0.012282
  13 H :    0.029768
  14 H :   -0.022091
  15 H :   -0.019413
  16 H :   -0.019693

  Mayer bond orders larger than 0.100000
B(  0-C ,  1-C ) :   1.0460 B(  0-C ,  2-N ) :   0.1101 B(  0-C ,  3-C ) :   0.1081
B(  0-C ,  8-C ) :   1.1522 B(  0-C , 11-H ) :   0.1348 B(  0-C , 12-H ) :   0.6183
B(  0-C , 13-H ) :   0.8137 B(  1-C ,  2-N ) :   0.9454 B(  1-C ,  3-C ) :   1.7877
B(  1-C ,  4-H ) :   0.1164 B(  1-C ,  5-H ) :   0.1432 B(  1-C , 12-H ) :   0.2949
B(  1-C , 13-H ) :   0.1372 B(  2-N ,  3-C ) :   0.2809 B(  2-N ,  6-H ) :   1.0055
B(  2-N ,  7-H ) :   1.1134 B(  3-C ,  4-H ) :   0.8108 B(  3-C ,  5-H ) :   0.8085
B(  4-H ,  5-H ) :  -0.1685 B(  6-H ,  7-H ) :  -0.1291 B(  8-C ,  9-C ) :   1.3300
B(  8-C , 10-H ) :   0.9799 B(  8-C , 11-H ) :   0.9374 B(  8-C , 12-H ) :   0.1930
B(  8-C , 14-H ) :   0.2496 B(  8-C , 15-H ) :   0.2240 B(  8-C , 16-H ) :   0.2289
B(  9-C , 14-H ) :   0.8166 B(  9-C , 15-H ) :   0.7808 B(  9-C , 16-H ) :   0.7682

Dispersion correction           -0.000352291
FINAL SINGLE POINT ENERGY      -251.567728240661

DIPOLE MOMENT
-------------
                                X             Y             Z
Electronic contribution:      0.70855      -2.41154      -2.94894
Nuclear contribution   :     -1.44240       2.61248       2.79453
                        -----------------------------------------
Total Dipole Moment    :     -0.73385       0.20094      -0.15441
                        -----------------------------------------
Magnitude (a.u.)       :      0.77637
Magnitude (Debye)      :      1.97338

Rotational constants in cm-1:     0.182540     0.078634     0.071436
Rotational constants in MHz :  5472.425685  2357.397154  2141.608207

                             ****ORCA TERMINATED NORMALLY****
TOTAL RUN TIME: 0 days 0 hours 0 minutes 28 seconds 623 msec
