                         Program Version 5.0.0 -  RELEASE  -
|  1> !PBE D3BJ RIJCOSX def2-TZVP def2/J TightSCF
|  2> *xyz -1 1
|  3> C         -0.10608        1.76991       -4.08984
|  4> C         -0.25875        1.00432       -5.40983
|  5> C          0.39596       -0.37070       -5.33994
|  6> H          0.23915        1.56939       -6.20125
|  7> H         -1.30936        0.88869       -5.68245
|  8> O         -0.32633       -1.39040       -5.49128
|  9> O          1.61941       -0.40073       -5.03683
| 10> H         -0.57627        2.72718       -4.17630
| 11> H          0.93321        1.90140       -3.87192
| 12> H         -0.56868        1.21534       -3.30031
| 13> *
| 14> %MaxCore 64000
| 15>
| 16> %pal nprocs 4
| 17> end
| 18>
| 19> %scf
| 20>   MaxIter 150
| 21> end
| 22>
| 23>
| 24>                          ****END OF INPUT****

CARTESIAN COORDINATES (ANGSTROEM)
---------------------------------
  C     -0.106080    1.769910   -4.089840
  C     -0.258750    1.004320   -5.409830
  C      0.395960   -0.370700   -5.339940
  H      0.239150    1.569390   -6.201250
  H     -1.309360    0.888690   -5.682450
  O     -0.326330   -1.390400   -5.491280
  O      1.619410   -0.400730   -5.036830
  H     -0.576270    2.727180   -4.176300
  H      0.933210    1.901400   -3.871920
  H     -0.568680    1.215340   -3.300310

 Total Charge           Charge          ....   -1
 Multiplicity           Mult            ....    1
 Number of Electrons    NEL             ....   40
 Basis Dimension        Dim             ....  185

ORBITAL ENERGIES
----------------

  NO   OCC          E(Eh)            E(eV)
   0   2.0000     -18.473191      -502.6811
   1   2.0000     -18.472693      -502.6675
   2   2.0000      -9.742907      -265.1180
   3   2.0000      -9.711319      -264.2584
   4   2.0000      -9.700030      -263.9512
   5   2.0000      -0.719536       -19.5796
   6   2.0000      -0.630516       -17.1572
   7   2.0000      -0.527901       -14.3649
   8   2.0000      -0.404537       -11.0080
   9   2.0000      -0.260601        -7.0913
  10   2.0000      -0.238208        -6.4820
  11   2.0000      -0.202337        -5.5059
  12   2.0000      -0.176195        -4.7945
  13   2.0000      -0.159613        -4.3433
  14   2.0000      -0.150423        -4.0932
  15   2.0000      -0.120855        -3.2886
  16   2.0000      -0.108929        -2.9641
  17   2.0000       0.000483         0.0131
  18   2.0000       0.012622         0.3435
  19   2.0000       0.031625         0.8605
  20   0.0000       0.166923         4.5422
  21   0.0000       0.207425         5.6443
  22   0.0000       0.216969         5.9040
  23   0.0000       0.229345         6.2408
  24   0.0000       0.236384         6.4323

MULLIKEN ATOMIC CHARGES
-----------------------
   0 C :   -0.321906
   1 C :   -0.117087
   2 C :    0.113435
   3 H :    0.026026
   4 H :    0.024785
   5 O :   -0.474628
   6 O :   -0.478715
   7 H :    0.053534
   8 H :    0.087705
   9 H :    0.086850
Sum of atomic charges:   -1.0000000

LOEWDIN ATOMIC CHARGES
----------------------
   0 C :   -0.331660
   1 C :   -0.302140
   2 C :   -0.732324
   3 H :    0.120708
   4 H :    0.115350
   5 O :   -0.090089
   6 O :   -0.091966
   7 H :    0.092882
   8 H :    0.110187
   9 H :    0.109053

  Mayer bond orders larger than 0.100000
B(  0-C ,  1-C ) :   0.9795 B(  0-C ,  7-H ) :   0.9591 B(  0-C ,  8-H ) :   0.9610
B(  0-C ,  9-H ) :   0.9778 B(  1-C ,  2-C ) :   0.9345 B(  1-C ,  3-H ) :   0.9356
B(  1-C ,  4-H ) :   0.9306 B(  2-C ,  5-O ) :   1.9370 B(  2-C ,  6-O ) :   1.8796

Dispersion correction           -0.006554504
FINAL SINGLE POINT ENERGY      -267.635293801190

DIPOLE MOMENT
-------------
                                X             Y             Z
Electronic contribution:      1.81926      -5.51303      -1.71432
Nuclear contribution   :     -2.46071       7.20791       1.95694
                        -----------------------------------------
Total Dipole Moment    :     -0.64146       1.69488       0.24262
                        -----------------------------------------
Magnitude (a.u.)       :      1.82838
Magnitude (Debye)      :      4.64736

Rotational constants in cm-1:     0.309435     0.135317     0.107436
Rotational constants in MHz :  9276.637721  4056.700783  3220.846587

                             ****ORCA TERMINATED NORMALLY****
TOTAL RUN TIME: 0 days 0 hours 0 minutes 10 seconds 206 msec
