                         Program Version 5.0.0 -  RELEASE  -
|  1> !PBE D3BJ RIJCOSX def2-TZVP def2/J TightSCF
|  2> *xyz 1 1
|  3> C          0.81607       -2.10149       -2.18655
|  4> H          1.69623       -2.36869       -1.60046
|  5> N          1.10055       -2.46749       -3.59927
|  6> C          0.51624       -0.61363       -2.03937
|  7> H         -0.02007       -2.71285       -1.84084
|  8> H          1.70061       -1.75723       -4.07838
|  9> H          0.29386       -2.35977       -4.25632
| 10> H          1.50132       -3.42848       -3.69491
| 11> H         -0.34841       -0.36504       -2.61858
| 12> H          1.35358       -0.04503       -2.38643
| 13> H          0.33317       -0.38682       -1.00984
| 14> *
| 15> %MaxCore 64000
| 16>
| 17> %pal nprocs 4
| 18> end
| 19>
| 20> %scf
| 21>   MaxIter 150
| 22> end
| 23>
| 24>
| 25>                          ****END OF INPUT****

CARTESIAN COORDINATES (ANGSTROEM)
---------------------------------
  C      0.816070   -2.101490   -2.186550
  H      1.696230   -2.368690   -1.600460
  N      1.100550   -2.467490   -3.599270
  C      0.516240   -0.613630   -2.039370
  H     -0.020070   -2.712850   -1.840840
  H      1.700610   -1.757230   -4.078380
  H      0.293860   -2.359770   -4.256320
  H      1.501320   -3.428480   -3.694910
  H     -0.348410   -0.365040   -2.618580
  H      1.353580   -0.045030   -2.386430
  H      0.333170   -0.386820   -1.009840

 Total Charge           Charge          ....    1
 Multiplicity           Mult            ....    1
 Number of Electrons    NEL             ....   26
 Basis Dimension        Dim             ....  141

ORBITAL ENERGIES
----------------

  NO   OCC          E(Eh)            E(eV)
   0   2.0000     -14.320877      -389.6909
   1   2.0000     -10.134971      -275.7866
   2   2.0000     -10.056382      -273.6481
   3   2.0000      -1.131451       -30.7883
   4   2.0000      -0.897886       -24.4327
   5   2.0000      -0.791655       -21.5420
   6   2.0000      -0.737978       -20.0814
   7   2.0000      -0.721363       -19.6293
   8   2.0000      -0.655287       -17.8313
   9   2.0000      -0.591415       -16.0932
  10   2.0000      -0.540823       -14.7165
  11   2.0000      -0.526911       -14.3380
  12   2.0000      -0.508465       -13.8360
  13   0.0000      -0.222464        -6.0536
  14   0.0000      -0.165879        -4.5138
  15   0.0000      -0.160610        -4.3704
  16   0.0000      -0.138473        -3.7681
  17   0.0000      -0.098727        -2.6865

MULLIKEN ATOMIC CHARGES
-----------------------
   0 C :   -0.184134
   1 H :    0.186934
   2 N :   -0.279487
   3 C :   -0.367198
   4 H :    0.191012
   5 H :    0.313971
   6 H :    0.317099
   7 H :    0.336253
   8 H :    0.151349
   9 H :    0.152046
  10 H :    0.182155
Sum of atomic charges:    1.0000000

LOEWDIN ATOMIC CHARGES
----------------------
   0 C :   -0.285216
   1 H :    0.155861
   2 N :    0.155524
   3 C :   -0.279426
   4 H :    0.155638
   5 H :    0.226482
   6 H :    0.226025
   7 H :    0.230213
   8 H :    0.132269
   9 H :    0.131960
  10 H :    0.150668

  Mayer bond orders larger than 0.100000
B(  0-C ,  1-H ) :   0.9385 B(  0-C ,  2-N ) :   0.8815 B(  0-C ,  3-C ) :   1.0235
B(  0-C ,  4-H ) :   0.9406 B(  2-N ,  5-H ) :   0.8753 B(  2-N ,  6-H ) :   0.8762
B(  2-N ,  7-H ) :   0.8665 B(  3-C ,  8-H ) :   0.9565 B(  3-C ,  9-H ) :   0.9528
B(  3-C , 10-H ) :   0.9485

Dispersion correction           -0.006143002
FINAL SINGLE POINT ENERGY      -135.396615752282

DIPOLE MOMENT
-------------
                                X             Y             Z
Electronic contribution:      0.41627      -1.42369      -1.06181
Nuclear contribution   :     -0.07506       0.54337      -0.16191
                        -----------------------------------------
Total Dipole Moment    :      0.34121      -0.88033      -1.22372
                        -----------------------------------------
Magnitude (a.u.)       :      1.54560
Magnitude (Debye)      :      3.92861

Rotational constants in cm-1:     0.999557     0.280801     0.246932
Rotational constants in MHz : 29965.963633  8418.199581  7402.841054

                             ****ORCA TERMINATED NORMALLY****
TOTAL RUN TIME: 0 days 0 hours 0 minutes 8 seconds 314 msec
