                         Program Version 5.0.0 -  RELEASE  -
|  1> !PBE D3BJ RIJCOSX def2-TZVP def2/J TightSCF xyzfile
|  2>
|  3> *xyzfile 0 1 B.xyz
|  4>
|  5> %MaxCore 64000
|  6>
|  7> %pal nprocs 18
|  8> end
|  9>
| 10> %scf
| 11>   MaxIter 150
| 12> end
| 13>
| 14>
| 15>                          ****END OF INPUT****

CARTESIAN COORDINATES (ANGSTROEM)
---------------------------------
  C      0.816067   -2.101491   -2.186546
  H      1.696232   -2.368691   -1.600457
  N      1.100552   -2.467492   -3.599269
  C      0.516243   -0.613634   -2.039373
  H     -0.020066   -2.712849   -1.840844
  C     -0.868621   -0.193925   -2.546303
  C     -0.984801    1.284739   -2.928686
  H     -0.764939    1.904116   -2.051568
  H     -2.032613    1.478953   -3.178952
  C     -0.106085    1.769914   -4.089836
  H     -0.347744    2.822196   -4.262942
  H      0.949683    1.745875   -3.808781
  C     -0.258747    1.004323   -5.409829
  C      0.395958   -0.370696   -5.339939
  H      0.239150    1.569393   -6.201253
  H     -1.309360    0.888694   -5.682455
  H      1.700606   -1.757225   -4.078378
  H      0.293855   -2.359766   -4.256324
  H      1.501324   -3.428479   -3.694915
  O     -0.326329   -1.390398   -5.491279
  O      1.619412   -0.400726   -5.036827
  H     -1.607271   -0.412651   -1.768955
  H     -1.157234   -0.796164   -3.409254
  H      1.299044   -0.056805   -2.558982
  H      0.612393   -0.365579   -0.979171

 Total Charge           Charge          ....    0
 Multiplicity           Mult            ....    1
 Number of Electrons    NEL             ....   80
 Basis Dimension        Dim             ....  400

ORBITAL ENERGIES
----------------

  NO   OCC          E(Eh)            E(eV)
   0   2.0000     -18.685453      -508.4570
   1   2.0000     -18.683611      -508.4069
   2   2.0000     -14.067275      -382.7900
   3   2.0000      -9.951543      -270.7952
   4   2.0000      -9.944415      -270.6013
   5   2.0000      -9.895390      -269.2673
   6   2.0000      -9.877504      -268.7806
   7   2.0000      -9.873302      -268.6662
   8   2.0000      -9.866331      -268.4765
   9   2.0000      -9.856429      -268.2071
  10   2.0000      -0.940683       -25.5973
  11   2.0000      -0.896716       -24.4009
  12   2.0000      -0.845069       -22.9955
  13   2.0000      -0.741204       -20.1692
  14   2.0000      -0.700857       -19.0713
  15   2.0000      -0.656563       -17.8660
  16   2.0000      -0.597452       -16.2575
  17   2.0000      -0.565945       -15.4002
  18   2.0000      -0.522841       -14.2272
  19   2.0000      -0.508521       -13.8376
  20   2.0000      -0.486605       -13.2412
  21   2.0000      -0.464478       -12.6391
  22   2.0000      -0.429169       -11.6783
  23   2.0000      -0.418425       -11.3859
  24   2.0000      -0.406118       -11.0510
  25   2.0000      -0.395464       -10.7611
  26   2.0000      -0.376558       -10.2467
  27   2.0000      -0.368340       -10.0230
  28   2.0000      -0.352007        -9.5786
  29   2.0000      -0.343803        -9.3554
  30   2.0000      -0.338319        -9.2061
  31   2.0000      -0.328590        -8.9414
  32   2.0000      -0.308450        -8.3934
  33   2.0000      -0.305309        -8.3079
  34   2.0000      -0.283976        -7.7274
  35   2.0000      -0.270700        -7.3661
  36   2.0000      -0.266885        -7.2623
  37   2.0000      -0.211347        -5.7511
  38   2.0000      -0.193340        -5.2610
  39   2.0000      -0.181195        -4.9306
  40   0.0000      -0.023724        -0.6456
  41   0.0000       0.008044         0.2189
  42   0.0000       0.018501         0.5034
  43   0.0000       0.032446         0.8829
  44   0.0000       0.038918         1.0590

MULLIKEN ATOMIC CHARGES
-----------------------
   0 C :   -0.148351
   1 H :    0.130811
   2 N :   -0.242755
   3 C :   -0.241545
   4 H :    0.125660
   5 C :   -0.180897
   6 C :   -0.183622
   7 H :    0.081936
   8 H :    0.089550
   9 C :   -0.199429
  10 H :    0.092639
  11 H :    0.109256
  12 C :   -0.105476
  13 C :    0.143490
  14 H :    0.092126
  15 H :    0.073936
  16 H :    0.264814
  17 H :    0.263701
  18 H :    0.247795
  19 O :   -0.432208
  20 O :   -0.447056
  21 H :    0.085838
  22 H :    0.129616
  23 H :    0.146384
  24 H :    0.103786
Sum of atomic charges:   -0.0000000

LOEWDIN ATOMIC CHARGES
----------------------
   0 C :   -0.287187
   1 H :    0.135481
   2 N :    0.118537
   3 C :   -0.270857
   4 H :    0.136856
   5 C :   -0.273304
   6 C :   -0.269766
   7 H :    0.136484
   8 H :    0.140187
   9 C :   -0.271244
  10 H :    0.137415
  11 H :    0.138280
  12 C :   -0.242186
  13 C :   -0.665711
  14 H :    0.147388
  15 H :    0.139026
  16 H :    0.173449
  17 H :    0.174458
  18 H :    0.189829
  19 O :   -0.034129
  20 O :   -0.027565
  21 H :    0.135720
  22 H :    0.145766
  23 H :    0.149624
  24 H :    0.143451

  Mayer bond orders larger than 0.100000
B(  0-C ,  1-H ) :   0.9562 B(  0-C ,  2-N ) :   0.9411 B(  0-C ,  3-C ) :   1.0095
B(  0-C ,  4-H ) :   0.9582 B(  2-N , 16-H ) :   0.7564 B(  2-N , 17-H ) :   0.7677
B(  2-N , 18-H ) :   0.8984 B(  3-C ,  5-C ) :   0.9597 B(  3-C , 23-H ) :   0.9577
B(  3-C , 24-H ) :   0.9357 B(  5-C ,  6-C ) :   1.0070 B(  5-C , 21-H ) :   0.9366
B(  5-C , 22-H ) :   0.9550 B(  6-C ,  7-H ) :   0.9445 B(  6-C ,  8-H ) :   0.9429
B(  6-C ,  9-C ) :   1.0309 B(  9-C , 10-H ) :   0.9420 B(  9-C , 11-H ) :   0.9602
B(  9-C , 12-C ) :   0.9896 B( 12-C , 13-C ) :   0.9744 B( 12-C , 14-H ) :   0.9151
B( 12-C , 15-H ) :   0.9431 B( 13-C , 19-O ) :   1.7623 B( 13-C , 20-O ) :   1.7192
B( 16-H , 20-O ) :   0.2230 B( 17-H , 19-O ) :   0.2122

Dispersion correction           -0.026802072
FINAL SINGLE POINT ENERGY      -480.601429652698

DIPOLE MOMENT
-------------
                                X             Y             Z
Electronic contribution:      2.31526      -3.10284      -6.34399
Nuclear contribution   :     -2.02598       1.95876       8.24116
                        -----------------------------------------
Total Dipole Moment    :      0.28928      -1.14407       1.89716
                        -----------------------------------------
Magnitude (a.u.)       :      2.23424
Magnitude (Debye)      :      5.67898

Rotational constants in cm-1:     0.052900     0.041948     0.028766
Rotational constants in MHz :  1585.892512  1257.572595   862.390225

                             ****ORCA TERMINATED NORMALLY****
TOTAL RUN TIME: 0 days 0 hours 0 minutes 16 seconds 309 msec
