                         Program Version 5.0.0 -  RELEASE  -
|  1> !PBE D3BJ RIJCOSX def2-TZVP def2/J TightSCF
|  2> *xyz 0 1
|  3> C         -0.10608        1.76991       -4.08984
|  4> C         -0.25875        1.00432       -5.40983
|  5> C          0.39596       -0.37070       -5.33994
|  6> H          0.23915        1.56939       -6.20125
|  7> H         -1.30936        0.88869       -5.68245
|  8> F         -0.32633       -1.39040       -5.49128
|  9> O          1.61941       -0.40073       -5.03683
| 10> H         -0.57627        2.72718       -4.17630
| 11> H          0.93321        1.90140       -3.87192
| 12> H         -0.56868        1.21534       -3.30031
| 13> *
| 14> %MaxCore 64000
| 15>
| 16> %pal nprocs 4
| 17> end
| 18>
| 19> %scf
| 20>   MaxIter 150
| 21> end
| 22>
| 23>
| 24>                          ****END OF INPUT****

CARTESIAN COORDINATES (ANGSTROEM)
---------------------------------
  C     -0.106080    1.769910   -4.089840
  C     -0.258750    1.004320   -5.409830
  C      0.395960   -0.370700   -5.339940
  H      0.239150    1.569390   -6.201250
  H     -1.309360    0.888690   -5.682450
  F     -0.326330   -1.390400   -5.491280
  O      1.619410   -0.400730   -5.036830
  H     -0.576270    2.727180   -4.176300
  H      0.933210    1.901400   -3.871920
  H     -0.568680    1.215340   -3.300310

 Total Charge           Charge          ....    0
 Multiplicity           Mult            ....    1
 Number of Electrons    NEL             ....   40
 Basis Dimension        Dim             ....  185

ORBITAL ENERGIES
----------------

  NO   OCC          E(Eh)            E(eV)
   0   2.0000     -24.323381      -661.8728
   1   2.0000     -18.750066      -510.2152
   2   2.0000     -10.045669      -273.3566
   3   2.0000      -9.912264      -269.7264
   4   2.0000      -9.884509      -268.9712
   5   2.0000      -1.211646       -32.9706
   6   2.0000      -0.940669       -25.5969
   7   2.0000      -0.727830       -19.8053
   8   2.0000      -0.622452       -16.9378
   9   2.0000      -0.574562       -15.6346
  10   2.0000      -0.486505       -13.2385
  11   2.0000      -0.471666       -12.8347
  12   2.0000      -0.449604       -12.2344
  13   2.0000      -0.415341       -11.3020
  14   2.0000      -0.383200       -10.4274
  15   2.0000      -0.354630        -9.6500
  16   2.0000      -0.332350        -9.0437
  17   2.0000      -0.327892        -8.9224
  18   2.0000      -0.303668        -8.2632
  19   2.0000      -0.241734        -6.5779
  20   0.0000      -0.067335        -1.8323
  21   0.0000       0.014349         0.3904
  22   0.0000       0.054042         1.4706
  23   0.0000       0.064497         1.7551
  24   0.0000       0.077044         2.0965

MULLIKEN ATOMIC CHARGES
-----------------------
   0 C :   -0.352346
   1 C :   -0.197253
   2 C :    0.300542
   3 H :    0.123843
   4 H :    0.103894
   5 F :   -0.063071
   6 O :   -0.296788
   7 H :    0.122884
   8 H :    0.139889
   9 H :    0.118405
Sum of atomic charges:   -0.0000000

LOEWDIN ATOMIC CHARGES
----------------------
   0 C :   -0.289700
   1 C :   -0.267110
   2 C :   -0.529803
   3 H :    0.157005
   4 H :    0.138753
   5 F :    0.340436
   6 O :    0.081344
   7 H :    0.120832
   8 H :    0.126783
   9 H :    0.121461

  Mayer bond orders larger than 0.100000
B(  0-C ,  1-C ) :   0.9920 B(  0-C ,  7-H ) :   0.9610 B(  0-C ,  8-H ) :   0.9638
B(  0-C ,  9-H ) :   0.9705 B(  1-C ,  2-C ) :   1.0037 B(  1-C ,  3-H ) :   0.9303
B(  1-C ,  4-H ) :   0.9416 B(  2-C ,  5-F ) :   1.1952 B(  2-C ,  6-O ) :   2.0696

Dispersion correction           -0.006229910
FINAL SINGLE POINT ENERGY      -292.191643229877

DIPOLE MOMENT
-------------
                                X             Y             Z
Electronic contribution:      0.89677      -8.23263      -2.55935
Nuclear contribution   :     -1.80992       8.85192       2.42184
                        -----------------------------------------
Total Dipole Moment    :     -0.91315       0.61930      -0.13750
                        -----------------------------------------
Magnitude (a.u.)       :      1.11188
Magnitude (Debye)      :      2.82618

Rotational constants in cm-1:     0.298360     0.128849     0.102271
Rotational constants in MHz :  8944.606599  3862.796179  3066.020510

                             ****ORCA TERMINATED NORMALLY****
TOTAL RUN TIME: 0 days 0 hours 0 minutes 10 seconds 590 msec
