                         Program Version 5.0.0 -  RELEASE  -
|  1> !PBE D3BJ RIJCOSX def2-TZVP def2/J TightSCF
|  2> *xyz 0 1
|  3> C          0.81607       -2.10149       -2.18655
|  4> H          1.69623       -2.36869       -1.60046
|  5> C          1.10055       -2.46749       -3.59927
|  6> C          0.51624       -0.61363       -2.03937
|  7> H         -0.02007       -2.71285       -1.84084
|  8> H          1.70061       -1.75723       -4.07838
|  9> H          0.29386       -2.35977       -4.25632
| 10> H          1.50132       -3.42848       -3.69491
| 11> H         -0.34841       -0.36504       -2.61858
| 12> H          1.35358       -0.04503       -2.38643
| 13> H          0.33317       -0.38682       -1.00984
| 14> *
| 15> %MaxCore 64000
| 16>
| 17> %pal nprocs 4
| 18> end
| 19>
| 20> %scf
| 21>   MaxIter 150
| 22> end
| 23>
| 24>
| 25>                          ****END OF INPUT****

CARTESIAN COORDINATES (ANGSTROEM)
---------------------------------
  C      0.816070   -2.101490   -2.186550
  H      1.696230   -2.368690   -1.600460
  C      1.100550   -2.467490   -3.599270
  C      0.516240   -0.613630   -2.039370
  H     -0.020070   -2.712850   -1.840840
  H      1.700610   -1.757230   -4.078380
  H      0.293860   -2.359770   -4.256320
  H      1.501320   -3.428480   -3.694910
  H     -0.348410   -0.365040   -2.618580
  H      1.353580   -0.045030   -2.386430
  H      0.333170   -0.386820   -1.009840

 Total Charge           Charge          ....    0
 Multiplicity           Mult            ....    1
 Number of Electrons    NEL             ....   26
 Basis Dimension        Dim             ....  141

ORBITAL ENERGIES
----------------

  NO   OCC          E(Eh)            E(eV)
   0   2.0000      -9.869808      -268.5711
   1   2.0000      -9.858388      -268.2604
   2   2.0000      -9.845692      -267.9149
   3   2.0000      -0.716992       -19.5104
   4   2.0000      -0.621497       -16.9118
   5   2.0000      -0.529565       -14.4102
   6   2.0000      -0.411126       -11.1873
   7   2.0000      -0.397988       -10.8298
   8   2.0000      -0.366796        -9.9810
   9   2.0000      -0.331341        -9.0162
  10   2.0000      -0.299918        -8.1612
  11   2.0000      -0.295800        -8.0491
  12   2.0000      -0.278765        -7.5856
  13   0.0000       0.022024         0.5993
  14   0.0000       0.065490         1.7821
  15   0.0000       0.066378         1.8062
  16   0.0000       0.074572         2.0292
  17   0.0000       0.093992         2.5576

MULLIKEN ATOMIC CHARGES
-----------------------
   0 C :   -0.138520
   1 H :    0.087370
   2 C :   -0.356228
   3 C :   -0.342542
   4 H :    0.088519
   5 H :    0.105498
   6 H :    0.110847
   7 H :    0.116881
   8 H :    0.105811
   9 H :    0.108469
  10 H :    0.113895
Sum of atomic charges:    0.0000000

LOEWDIN ATOMIC CHARGES
----------------------
   0 C :   -0.326065
   1 H :    0.134311
   2 C :   -0.323361
   3 C :   -0.309924
   4 H :    0.133254
   5 H :    0.115429
   6 H :    0.113474
   7 H :    0.113128
   8 H :    0.116820
   9 H :    0.116649
  10 H :    0.116287

  Mayer bond orders larger than 0.100000
B(  0-C ,  1-H ) :   0.9563 B(  0-C ,  2-C ) :   1.0142 B(  0-C ,  3-C ) :   1.0084
B(  0-C ,  4-H ) :   0.9569 B(  2-C ,  5-H ) :   0.9713 B(  2-C ,  6-H ) :   0.9715
B(  2-C ,  7-H ) :   0.9689 B(  3-C ,  8-H ) :   0.9718 B(  3-C ,  9-H ) :   0.9708
B(  3-C , 10-H ) :   0.9712

Dispersion correction           -0.006140592
FINAL SINGLE POINT ENERGY      -118.993211954556

DIPOLE MOMENT
-------------
                                X             Y             Z
Electronic contribution:     -0.01820      -0.30891       0.46488
Nuclear contribution   :      0.01737       0.30387      -0.47422
                        -----------------------------------------
Total Dipole Moment    :     -0.00083      -0.00504      -0.00933
                        -----------------------------------------
Magnitude (a.u.)       :      0.01064
Magnitude (Debye)      :      0.02704

Rotational constants in cm-1:     1.006891     0.295208     0.258491
Rotational constants in MHz : 30185.831813  8850.104914  7749.351732

                             ****ORCA TERMINATED NORMALLY****
TOTAL RUN TIME: 0 days 0 hours 0 minutes 7 seconds 745 msec
