                         Program Version 5.0.0 -  RELEASE  -
|  1> !PBE D3BJ RIJCOSX def2-TZVP def2/J TightSCF
|  2> *xyz 0 1
|  3> C         -0.10608        1.76991       -4.08984
|  4> C         -0.25875        1.00432       -5.40983
|  5> C          0.39596       -0.37070       -5.33994
|  6> H          0.23915        1.56939       -6.20125
|  7> H         -1.30936        0.88869       -5.68245
|  8> O         -0.32633       -1.39040       -5.49128
|  9> F          1.61941       -0.40073       -5.03683
| 10> H         -0.57627        2.72718       -4.17630
| 11> H          0.93321        1.90140       -3.87192
| 12> H         -0.56868        1.21534       -3.30031
| 13> *
| 14> %MaxCore 64000
| 15>
| 16> %pal nprocs 4
| 17> end
| 18>
| 19> %scf
| 20>   MaxIter 150
| 21> end
| 22>
| 23>
| 24>                          ****END OF INPUT****

CARTESIAN COORDINATES (ANGSTROEM)
---------------------------------
  C     -0.106080    1.769910   -4.089840
  C     -0.258750    1.004320   -5.409830
  C      0.395960   -0.370700   -5.339940
  H      0.239150    1.569390   -6.201250
  H     -1.309360    0.888690   -5.682450
  O     -0.326330   -1.390400   -5.491280
  F      1.619410   -0.400730   -5.036830
  H     -0.576270    2.727180   -4.176300
  H      0.933210    1.901400   -3.871920
  H     -0.568680    1.215340   -3.300310

 Total Charge           Charge          ....    0
 Multiplicity           Mult            ....    1
 Number of Electrons    NEL             ....   40
 Basis Dimension        Dim             ....  185

ORBITAL ENERGIES
----------------

  NO   OCC          E(Eh)            E(eV)
   0   2.0000     -24.321894      -661.8324
   1   2.0000     -18.750438      -510.2254
   2   2.0000     -10.044777      -273.3323
   3   2.0000      -9.911990      -269.7190
   4   2.0000      -9.889413      -269.1046
   5   2.0000      -1.210132       -32.9294
   6   2.0000      -0.940391       -25.5893
   7   2.0000      -0.732236       -19.9252
   8   2.0000      -0.619923       -16.8690
   9   2.0000      -0.577882       -15.7250
  10   2.0000      -0.487687       -13.2706
  11   2.0000      -0.474589       -12.9142
  12   2.0000      -0.444198       -12.0872
  13   2.0000      -0.415090       -11.2952
  14   2.0000      -0.384979       -10.4758
  15   2.0000      -0.356961        -9.7134
  16   2.0000      -0.335800        -9.1376
  17   2.0000      -0.332476        -9.0471
  18   2.0000      -0.308617        -8.3979
  19   2.0000      -0.238466        -6.4890
  20   0.0000      -0.063970        -1.7407
  21   0.0000       0.010381         0.2825
  22   0.0000       0.053049         1.4435
  23   0.0000       0.067191         1.8284
  24   0.0000       0.081540         2.2188

MULLIKEN ATOMIC CHARGES
-----------------------
   0 C :   -0.358161
   1 C :   -0.192287
   2 C :    0.290894
   3 H :    0.111508
   4 H :    0.127322
   5 O :   -0.291035
   6 F :   -0.068694
   7 H :    0.127798
   8 H :    0.123620
   9 H :    0.129035
Sum of atomic charges:   -0.0000000

LOEWDIN ATOMIC CHARGES
----------------------
   0 C :   -0.296024
   1 C :   -0.261665
   2 C :   -0.532402
   3 H :    0.149542
   4 H :    0.151764
   5 O :    0.082130
   6 F :    0.338936
   7 H :    0.122743
   8 H :    0.121319
   9 H :    0.123658

  Mayer bond orders larger than 0.100000
B(  0-C ,  1-C ) :   0.9793 B(  0-C ,  7-H ) :   0.9614 B(  0-C ,  8-H ) :   0.9665
B(  0-C ,  9-H ) :   0.9688 B(  1-C ,  2-C ) :   1.0201 B(  1-C ,  3-H ) :   0.9245
B(  1-C ,  4-H ) :   0.9515 B(  2-C ,  5-O ) :   2.0977 B(  2-C ,  6-F ) :   1.1773

Dispersion correction           -0.006191723
FINAL SINGLE POINT ENERGY      -292.192868728791

DIPOLE MOMENT
-------------
                                X             Y             Z
Electronic contribution:      4.08027      -6.57548      -1.80869
Nuclear contribution   :     -3.93139       7.77287       1.92635
                        -----------------------------------------
Total Dipole Moment    :      0.14888       1.19739       0.11766
                        -----------------------------------------
Magnitude (a.u.)       :      1.21234
Magnitude (Debye)      :      3.08152

Rotational constants in cm-1:     0.286068     0.133630     0.103472
Rotational constants in MHz :  8576.109806  4006.118234  3102.010802

                             ****ORCA TERMINATED NORMALLY****
TOTAL RUN TIME: 0 days 0 hours 0 minutes 9 seconds 538 msec
