                         Program Version 5.0.0 -  RELEASE  -
|  1> !PBE D3BJ RIJCOSX def2-TZVP def2/J TightSCF xyzfile
|  2>
|  3> *xyzfile 0 1 D1.xyz
|  4>
|  5> %MaxCore 64000
|  6>
|  7> %pal nprocs 18
|  8> end
|  9>
| 10> %scf
| 11>   MaxIter 150
| 12> end
| 13>
| 14>
| 15>                          ****END OF INPUT****

CARTESIAN COORDINATES (ANGSTROEM)
---------------------------------
  C      0.816067   -2.101491   -2.186546
  H      1.696232   -2.368691   -1.600457
  C      1.100552   -2.467492   -3.599269
  C      0.516243   -0.613634   -2.039373
  H     -0.020066   -2.712849   -1.840844
  C     -0.868621   -0.193925   -2.546303
  C     -0.984801    1.284739   -2.928686
  H     -0.764939    1.904116   -2.051568
  H     -2.032613    1.478953   -3.178952
  C     -0.106085    1.769914   -4.089836
  H     -0.347744    2.822196   -4.262942
  H      0.949683    1.745875   -3.808781
  C     -0.258747    1.004323   -5.409829
  C      0.395958   -0.370696   -5.339939
  H      0.239150    1.569393   -6.201253
  H     -1.309360    0.888694   -5.682455
  H      1.700606   -1.757225   -4.078378
  H      0.293855   -2.359766   -4.256324
  H      1.501324   -3.428479   -3.694915
  F     -0.326329   -1.390398   -5.491279
  O      1.619412   -0.400726   -5.036827
  H     -1.607271   -0.412651   -1.768955
  H     -1.157234   -0.796164   -3.409254
  H      1.299044   -0.056805   -2.558982
  H      0.612393   -0.365579   -0.979171

 Total Charge           Charge          ....    0
 Multiplicity           Mult            ....    1
 Number of Electrons    NEL             ....   80
 Basis Dimension        Dim             ....  400

ORBITAL ENERGIES
----------------

  NO   OCC          E(Eh)            E(eV)
   0   2.0000     -24.332655      -662.1252
   1   2.0000     -18.759062      -510.4600
   2   2.0000     -10.054450      -273.5955
   3   2.0000      -9.913903      -269.7710
   4   2.0000      -9.895601      -269.2730
   5   2.0000      -9.884357      -268.9670
   6   2.0000      -9.877023      -268.7675
   7   2.0000      -9.863838      -268.4087
   8   2.0000      -9.854722      -268.1606
   9   2.0000      -9.805694      -266.8265
  10   2.0000      -1.226073       -33.3632
  11   2.0000      -0.956655       -26.0319
  12   2.0000      -0.751272       -20.4431
  13   2.0000      -0.720316       -19.6008
  14   2.0000      -0.675411       -18.3789
  15   2.0000      -0.639555       -17.4032
  16   2.0000      -0.600929       -16.3521
  17   2.0000      -0.575293       -15.6545
  18   2.0000      -0.538319       -14.6484
  19   2.0000      -0.498980       -13.5779
  20   2.0000      -0.498181       -13.5562
  21   2.0000      -0.479467       -13.0469
  22   2.0000      -0.468030       -12.7358
  23   2.0000      -0.427540       -11.6340
  24   2.0000      -0.408269       -11.1096
  25   2.0000      -0.396684       -10.7943
  26   2.0000      -0.391041       -10.6408
  27   2.0000      -0.376598       -10.2478
  28   2.0000      -0.364725        -9.9247
  29   2.0000      -0.354404        -9.6438
  30   2.0000      -0.334544        -9.1034
  31   2.0000      -0.324795        -8.8381
  32   2.0000      -0.320288        -8.7155
  33   2.0000      -0.308912        -8.4059
  34   2.0000      -0.297309        -8.0902
  35   2.0000      -0.284590        -7.7441
  36   2.0000      -0.274678        -7.4744
  37   2.0000      -0.266597        -7.2545
  38   2.0000      -0.256382        -6.9765
  39   2.0000      -0.221289        -6.0216
  40   0.0000      -0.078688        -2.1412
  41   0.0000       0.008795         0.2393
  42   0.0000       0.035713         0.9718
  43   0.0000       0.040667         1.1066
  44   0.0000       0.041816         1.1379

MULLIKEN ATOMIC CHARGES
-----------------------
   0 C :   -0.103661
   1 H :    0.078843
   2 C :   -0.412223
   3 C :   -0.204124
   4 H :    0.064043
   5 C :   -0.190572
   6 C :   -0.173872
   7 H :    0.093172
   8 H :    0.090311
   9 C :   -0.208571
  10 H :    0.106345
  11 H :    0.129838
  12 C :   -0.153124
  13 C :    0.260397
  14 H :    0.129971
  15 H :    0.097367
  16 H :    0.154738
  17 H :    0.100153
  18 H :    0.093813
  19 F :   -0.056928
  20 O :   -0.287965
  21 H :    0.093558
  22 H :    0.098754
  23 H :    0.114032
  24 H :    0.085708
Sum of atomic charges:    0.0000000

LOEWDIN ATOMIC CHARGES
----------------------
   0 C :   -0.305962
   1 H :    0.135728
   2 C :   -0.341638
   3 C :   -0.270529
   4 H :    0.132326
   5 C :   -0.269568
   6 C :   -0.270658
   7 H :    0.142117
   8 H :    0.137972
   9 C :   -0.261024
  10 H :    0.142948
  11 H :    0.145112
  12 C :   -0.235237
  13 C :   -0.526098
  14 H :    0.161523
  15 H :    0.143227
  16 H :    0.115667
  17 H :    0.105717
  18 H :    0.106420
  19 F :    0.352353
  20 O :    0.106818
  21 H :    0.139981
  22 H :    0.138430
  23 H :    0.140173
  24 H :    0.134201

  Mayer bond orders larger than 0.100000
B(  0-C ,  1-H ) :   0.9399 B(  0-C ,  2-C ) :   1.0233 B(  0-C ,  3-C ) :   1.0189
B(  0-C ,  4-H ) :   0.9474 B(  2-C , 16-H ) :   0.9385 B(  2-C , 17-H ) :   0.9746
B(  2-C , 18-H ) :   0.9492 B(  3-C ,  5-C ) :   0.9744 B(  3-C , 23-H ) :   0.9693
B(  3-C , 24-H ) :   0.9413 B(  5-C ,  6-C ) :   1.0153 B(  5-C , 21-H ) :   0.9422
B(  5-C , 22-H ) :   0.9548 B(  6-C ,  7-H ) :   0.9428 B(  6-C ,  8-H ) :   0.9461
B(  6-C ,  9-C ) :   1.0232 B(  9-C , 10-H ) :   0.9405 B(  9-C , 11-H ) :   0.9578
B(  9-C , 12-C ) :   0.9759 B( 12-C , 13-C ) :   1.0259 B( 12-C , 14-H ) :   0.9193
B( 12-C , 15-H ) :   0.9329 B( 13-C , 19-F ) :   1.1745 B( 13-C , 20-O ) :   2.0065

Dispersion correction           -0.026146394
FINAL SINGLE POINT ENERGY      -488.500484673493

DIPOLE MOMENT
-------------
                                X             Y             Z
Electronic contribution:      0.38702      -2.01993     -10.57022
Nuclear contribution   :     -1.21560       2.80077      10.24180
                        -----------------------------------------
Total Dipole Moment    :     -0.82858       0.78084      -0.32841
                        -----------------------------------------
Magnitude (a.u.)       :      1.18496
Magnitude (Debye)      :      3.01192

Rotational constants in cm-1:     0.051255     0.042531     0.028894
Rotational constants in MHz :  1536.587743  1275.050721   866.218876

                             ****ORCA TERMINATED NORMALLY****
TOTAL RUN TIME: 0 days 0 hours 0 minutes 13 seconds 228 msec
