                         Program Version 5.0.0 -  RELEASE  -
|  1> !PBE D3BJ RIJCOSX def2-TZVP def2/J TightSCF xyzfile
|  2>
|  3> *xyzfile 0 1 D2.xyz
|  4>
|  5> %MaxCore 64000
|  6>
|  7> %pal nprocs 18
|  8> end
|  9>
| 10> %scf
| 11>   MaxIter 150
| 12> end
| 13>
| 14>
| 15>                          ****END OF INPUT****

CARTESIAN COORDINATES (ANGSTROEM)
---------------------------------
  C      0.816067   -2.101491   -2.186546
  H      1.696232   -2.368691   -1.600457
  C      1.100552   -2.467492   -3.599269
  C      0.516243   -0.613634   -2.039373
  H     -0.020066   -2.712849   -1.840844
  C     -0.868621   -0.193925   -2.546303
  C     -0.984801    1.284739   -2.928686
  H     -0.764939    1.904116   -2.051568
  H     -2.032613    1.478953   -3.178952
  C     -0.106085    1.769914   -4.089836
  H     -0.347744    2.822196   -4.262942
  H      0.949683    1.745875   -3.808781
  C     -0.258747    1.004323   -5.409829
  C      0.395958   -0.370696   -5.339939
  H      0.239150    1.569393   -6.201253
  H     -1.309360    0.888694   -5.682455
  H      1.700606   -1.757225   -4.078378
  H      0.293855   -2.359766   -4.256324
  H      1.501324   -3.428479   -3.694915
  O     -0.326329   -1.390398   -5.491279
  F      1.619412   -0.400726   -5.036827
  H     -1.607271   -0.412651   -1.768955
  H     -1.157234   -0.796164   -3.409254
  H      1.299044   -0.056805   -2.558982
  H      0.612393   -0.365579   -0.979171

 Total Charge           Charge          ....    0
 Multiplicity           Mult            ....    1
 Number of Electrons    NEL             ....   80
 Basis Dimension        Dim             ....  400

ORBITAL ENERGIES
----------------

  NO   OCC          E(Eh)            E(eV)
   0   2.0000     -24.332840      -662.1302
   1   2.0000     -18.758653      -510.4489
   2   2.0000     -10.054076      -273.5853
   3   2.0000      -9.913759      -269.7671
   4   2.0000      -9.899381      -269.3759
   5   2.0000      -9.884344      -268.9667
   6   2.0000      -9.871877      -268.6274
   7   2.0000      -9.867506      -268.5085
   8   2.0000      -9.855703      -268.1873
   9   2.0000      -9.806857      -266.8581
  10   2.0000      -1.225936       -33.3594
  11   2.0000      -0.956227       -26.0203
  12   2.0000      -0.753649       -20.5078
  13   2.0000      -0.721908       -19.6441
  14   2.0000      -0.676078       -18.3970
  15   2.0000      -0.638789       -17.3823
  16   2.0000      -0.600519       -16.3409
  17   2.0000      -0.576006       -15.6739
  18   2.0000      -0.539426       -14.6785
  19   2.0000      -0.504084       -13.7168
  20   2.0000      -0.498598       -13.5675
  21   2.0000      -0.484945       -13.1960
  22   2.0000      -0.455114       -12.3843
  23   2.0000      -0.428851       -11.6696
  24   2.0000      -0.407543       -11.0898
  25   2.0000      -0.397374       -10.8131
  26   2.0000      -0.392106       -10.6697
  27   2.0000      -0.382460       -10.4073
  28   2.0000      -0.365445        -9.9443
  29   2.0000      -0.346780        -9.4364
  30   2.0000      -0.341736        -9.2991
  31   2.0000      -0.330958        -9.0058
  32   2.0000      -0.324997        -8.8436
  33   2.0000      -0.308257        -8.3881
  34   2.0000      -0.292072        -7.9477
  35   2.0000      -0.285930        -7.7806
  36   2.0000      -0.276718        -7.5299
  37   2.0000      -0.263144        -7.1605
  38   2.0000      -0.258219        -7.0265
  39   2.0000      -0.221581        -6.0295
  40   0.0000      -0.077318        -2.1039
  41   0.0000       0.006364         0.1732
  42   0.0000       0.035105         0.9553
  43   0.0000       0.036491         0.9930
  44   0.0000       0.044400         1.2082

MULLIKEN ATOMIC CHARGES
-----------------------
   0 C :   -0.097323
   1 H :    0.076409
   2 C :   -0.406348
   3 C :   -0.208251
   4 H :    0.069324
   5 C :   -0.204289
   6 C :   -0.164663
   7 H :    0.090895
   8 H :    0.092430
   9 C :   -0.228748
  10 H :    0.110881
  11 H :    0.119459
  12 C :   -0.146591
  13 C :    0.259976
  14 H :    0.122240
  15 H :    0.114226
  16 H :    0.092169
  17 H :    0.158914
  18 H :    0.093360
  19 O :   -0.276707
  20 F :   -0.067190
  21 H :    0.089146
  22 H :    0.132641
  23 H :    0.089163
  24 H :    0.088879
Sum of atomic charges:    0.0000000

LOEWDIN ATOMIC CHARGES
----------------------
   0 C :   -0.305647
   1 H :    0.133763
   2 C :   -0.339584
   3 C :   -0.272101
   4 H :    0.135068
   5 C :   -0.270556
   6 C :   -0.270272
   7 H :    0.140743
   8 H :    0.139632
   9 C :   -0.268520
  10 H :    0.143624
  11 H :    0.139040
  12 C :   -0.230231
  13 C :   -0.525326
  14 H :    0.155121
  15 H :    0.155576
  16 H :    0.108563
  17 H :    0.113907
  18 H :    0.107176
  19 O :    0.100660
  20 F :    0.356117
  21 H :    0.138924
  22 H :    0.146727
  23 H :    0.132680
  24 H :    0.134916

  Mayer bond orders larger than 0.100000
B(  0-C ,  1-H ) :   0.9396 B(  0-C ,  2-C ) :   1.0184 B(  0-C ,  3-C ) :   1.0216
B(  0-C ,  4-H ) :   0.9493 B(  2-C , 16-H ) :   0.9685 B(  2-C , 17-H ) :   0.9492
B(  2-C , 18-H ) :   0.9492 B(  3-C ,  5-C ) :   0.9725 B(  3-C , 23-H ) :   0.9711
B(  3-C , 24-H ) :   0.9418 B(  5-C ,  6-C ) :   1.0049 B(  5-C , 21-H ) :   0.9403
B(  5-C , 22-H ) :   0.9568 B(  6-C ,  7-H ) :   0.9438 B(  6-C ,  8-H ) :   0.9451
B(  6-C ,  9-C ) :   1.0241 B(  9-C , 10-H ) :   0.9428 B(  9-C , 11-H ) :   0.9651
B(  9-C , 12-C ) :   0.9562 B( 12-C , 13-C ) :   1.0352 B( 12-C , 14-H ) :   0.9165
B( 12-C , 15-H ) :   0.9460 B( 13-C , 19-O ) :   2.0372 B( 13-C , 20-F ) :   1.1601

Dispersion correction           -0.026099238
FINAL SINGLE POINT ENERGY      -488.500341410291

DIPOLE MOMENT
-------------
                                X             Y             Z
Electronic contribution:      3.60109      -0.37578      -9.81752
Nuclear contribution   :     -3.57245       1.60200       9.69133
                        -----------------------------------------
Total Dipole Moment    :      0.02865       1.22621      -0.12618
                        -----------------------------------------
Magnitude (a.u.)       :      1.23302
Magnitude (Debye)      :      3.13409

Rotational constants in cm-1:     0.051520     0.042563     0.028962
Rotational constants in MHz :  1544.537298  1275.996546   868.258224

                             ****ORCA TERMINATED NORMALLY****
TOTAL RUN TIME: 0 days 0 hours 0 minutes 10 seconds 681 msec
