                         Program Version 5.0.0 -  RELEASE  -
|  1> !LC-PBE RIJCOSX def2-TZVPD def2/J TightSCF
|  2> *xyz -1 1
|  3> C         -0.05517        1.61942       -3.78858
|  4> C          1.22302        2.46987       -3.75691
|  5> H          1.11470        3.25807       -4.53300
|  6> H          1.23773        3.01124       -2.79216
|  7> O          2.35381        1.71203       -3.93448
|  8> H         -0.10198        1.08015       -4.71156
|  9> H         -0.91014        2.25726       -3.70441
| 10> H         -0.04403        0.92826       -2.97183
| 11> *
| 12>
| 13> %MaxCore 64000
| 14>
| 15> %pal nprocs 4
| 16> end
| 17>
| 18> %scf
| 19>   MaxIter 150
| 20> end
| 21>
| 22>
| 23>                          ****END OF INPUT****

CARTESIAN COORDINATES (ANGSTROEM)
---------------------------------
  C     -0.055170    1.619420   -3.788580
  C      1.223020    2.469870   -3.756910
  H      1.114700    3.258070   -4.533000
  H      1.237730    3.011240   -2.792160
  O      2.353810    1.712030   -3.934480
  H     -0.101980    1.080150   -4.711560
  H     -0.910140    2.257260   -3.704410
  H     -0.044030    0.928260   -2.971830

 Total Charge           Charge          ....   -1
 Multiplicity           Mult            ....    1
 Number of Electrons    NEL             ....   26
 Basis Dimension        Dim             ....  159

ORBITAL ENERGIES
----------------

  NO   OCC          E(Eh)            E(eV)
   0   2.0000     -18.631232      -506.9816
   1   2.0000      -9.925265      -270.0802
   2   2.0000      -9.901837      -269.4427
   3   2.0000      -0.840969       -22.8839
   4   2.0000      -0.694308       -18.8931
   5   2.0000      -0.528483       -14.3808
   6   2.0000      -0.395006       -10.7486
   7   2.0000      -0.366964        -9.9856
   8   2.0000      -0.308272        -8.3885
   9   2.0000      -0.287797        -7.8314
  10   2.0000      -0.240169        -6.5353
  11   2.0000      -0.091550        -2.4912
  12   2.0000      -0.089571        -2.4374
  13   0.0000       0.209800         5.7090
  14   0.0000       0.230494         6.2720
  15   0.0000       0.261731         7.1221
  16   0.0000       0.262545         7.1442
  17   0.0000       0.285973         7.7817

MULLIKEN ATOMIC CHARGES
-----------------------
   0 C :   -1.001198
   1 C :   -0.387479
   2 H :    0.212592
   3 H :    0.212683
   4 O :   -0.924034
   5 H :    0.271233
   6 H :    0.347646
   7 H :    0.268557
Sum of atomic charges:   -1.0000000

LOEWDIN ATOMIC CHARGES
----------------------
   0 C :   -0.191723
   1 C :   -0.639890
   2 H :    0.068008
   3 H :    0.066642
   4 O :   -0.440351
   5 H :    0.049758
   6 H :    0.038562
   7 H :    0.048994

  Mayer bond orders larger than 0.100000
B(  0-C ,  1-C ) :   0.7529 B(  0-C ,  4-O ) :   0.1962 B(  0-C ,  5-H ) :   0.9739
B(  0-C ,  6-H ) :   0.9288 B(  0-C ,  7-H ) :   0.9715 B(  1-C ,  2-H ) :   1.0376
B(  1-C ,  3-H ) :   1.0400 B(  1-C ,  4-O ) :   0.9879

FINAL SINGLE POINT ENERGY      -154.010342977920

DIPOLE MOMENT
-------------
                                X             Y             Z
Electronic contribution:      2.61618      -0.47055      -0.23422
Nuclear contribution   :     -4.28298       0.81046       0.39340
                        -----------------------------------------
Total Dipole Moment    :     -1.66679       0.33992       0.15918
                        -----------------------------------------
Magnitude (a.u.)       :      1.70853
Magnitude (Debye)      :      4.34275

Rotational constants in cm-1:     1.266793     0.328147     0.288309
Rotational constants in MHz : 37977.512300  9837.594308  8643.275638

                             ****ORCA TERMINATED NORMALLY****
TOTAL RUN TIME: 0 days 0 hours 0 minutes 15 seconds 882 msec
