                         Program Version 5.0.0 -  RELEASE  -
|  1> !LC-PBE RIJCOSX def2-TZVPD def2/J TightSCF
|  2> *xyz 1 1
|  3> C          1.63556       -1.67040       -5.29211
|  4> C          0.33848       -1.50091       -4.50540
|  5> N          2.48451       -0.50741       -5.14039
|  6> H          1.39834       -1.82924       -6.35259
|  7> H          2.15586       -2.56540       -4.93209
|  8> C          3.45115       -0.14953       -5.95259
|  9> N          3.92267        1.08956       -5.85071
| 10> N          3.96616       -1.00618       -6.86788
| 11> H          3.52139       -1.90647       -6.99527
| 12> H          4.44482       -0.62347       -7.67035
| 13> H          2.25200        0.24080       -4.49879
| 14> H          3.46428        1.64078       -5.13639
| 15> H          4.83447        1.31375       -6.22465
| 16> H         -0.17658       -0.62881       -4.85045
| 17> H          0.56384       -1.39374       -3.46490
| 18> H         -0.28102       -2.36136       -4.64938
| 19> *
| 20>
| 21> %MaxCore 64000
| 22>
| 23> %pal nprocs 4
| 24> end
| 25>
| 26> %scf
| 27>   MaxIter 150
| 28> end
| 29>
| 30>
| 31>                          ****END OF INPUT****

CARTESIAN COORDINATES (ANGSTROEM)
---------------------------------
  C      1.635560   -1.670400   -5.292110
  C      0.338480   -1.500910   -4.505400
  N      2.484510   -0.507410   -5.140390
  H      1.398340   -1.829240   -6.352590
  H      2.155860   -2.565400   -4.932090
  C      3.451150   -0.149530   -5.952590
  N      3.922670    1.089560   -5.850710
  N      3.966160   -1.006180   -6.867880
  H      3.521390   -1.906470   -6.995270
  H      4.444820   -0.623470   -7.670350
  H      2.252000    0.240800   -4.498790
  H      3.464280    1.640780   -5.136390
  H      4.834470    1.313750   -6.224650
  H     -0.176580   -0.628810   -4.850450
  H      0.563840   -1.393740   -3.464900
  H     -0.281020   -2.361360   -4.649380

 Total Charge           Charge          ....    1
 Multiplicity           Mult            ....    1
 Number of Electrons    NEL             ....   48
 Basis Dimension        Dim             ....  312

ORBITAL ENERGIES
----------------

  NO   OCC          E(Eh)            E(eV)
   0   2.0000     -14.444858      -393.0646
   1   2.0000     -14.438046      -392.8792
   2   2.0000     -14.436053      -392.8250
   3   2.0000     -10.458283      -284.5843
   4   2.0000     -10.325766      -280.9784
   5   2.0000     -10.251883      -278.9679
   6   2.0000      -1.400943       -38.1216
   7   2.0000      -1.279438       -34.8153
   8   2.0000      -1.263629       -34.3851
   9   2.0000      -1.110526       -30.2189
  10   2.0000      -0.990529       -26.9537
  11   2.0000      -0.974921       -26.5289
  12   2.0000      -0.928768       -25.2731
  13   2.0000      -0.895679       -24.3727
  14   2.0000      -0.829996       -22.5853
  15   2.0000      -0.828421       -22.5425
  16   2.0000      -0.813560       -22.1381
  17   2.0000      -0.782987       -21.3062
  18   2.0000      -0.749961       -20.4075
  19   2.0000      -0.683088       -18.5878
  20   2.0000      -0.664211       -18.0741
  21   2.0000      -0.654367       -17.8062
  22   2.0000      -0.612537       -16.6680
  23   2.0000      -0.580865       -15.8061
  24   0.0000      -0.088947        -2.4204
  25   0.0000      -0.081413        -2.2154
  26   0.0000      -0.061457        -1.6723
  27   0.0000      -0.049388        -1.3439
  28   0.0000      -0.028286        -0.7697

MULLIKEN ATOMIC CHARGES
-----------------------
   0 C :   -0.530374
   1 C :   -1.555813
   2 N :   -0.177613
   3 H :    0.440272
   4 H :    0.416397
   5 C :    0.717266
   6 N :   -0.406342
   7 N :   -0.453035
   8 H :    0.283539
   9 H :    0.258783
  10 H :    0.209966
  11 H :    0.239801
  12 H :    0.269674
  13 H :    0.449090
  14 H :    0.423284
  15 H :    0.415106
Sum of atomic charges:    1.0000000

LOEWDIN ATOMIC CHARGES
----------------------
   0 C :   -0.234771
   1 C :   -0.083499
   2 N :    0.077397
   3 H :    0.137812
   4 H :    0.141057
   5 C :   -0.437832
   6 N :    0.195915
   7 N :    0.205404
   8 H :    0.126638
   9 H :    0.141756
  10 H :    0.170475
  11 H :    0.142031
  12 H :    0.148878
  13 H :    0.088086
  14 H :    0.088131
  15 H :    0.092522

  Mayer bond orders larger than 0.100000
B(  0-C ,  1-C ) :   0.5586 B(  0-C ,  2-N ) :   0.7887 B(  0-C ,  3-H ) :   0.7839
B(  0-C ,  4-H ) :   0.8356 B(  1-C , 13-H ) :   0.8794 B(  1-C , 14-H ) :   0.9052
B(  1-C , 15-H ) :   0.8997 B(  2-N ,  5-C ) :   1.2172 B(  2-N , 10-H ) :   1.0096
B(  5-C ,  6-N ) :   1.0477 B(  5-C ,  7-N ) :   1.0728 B(  6-N , 11-H ) :   0.9528
B(  6-N , 12-H ) :   0.9601 B(  7-N ,  8-H ) :   0.9175 B(  7-N ,  9-H ) :   0.9707

FINAL SINGLE POINT ENERGY      -283.600498082398

DIPOLE MOMENT
-------------
                                X             Y             Z
Electronic contribution:      4.70305       2.48230      -1.70800
Nuclear contribution   :     -3.96322      -1.85512       1.24891
                        -----------------------------------------
Total Dipole Moment    :      0.73983       0.62719      -0.45910
                        -----------------------------------------
Magnitude (a.u.)       :      1.07307
Magnitude (Debye)      :      2.72753

Rotational constants in cm-1:     0.261404     0.067000     0.054949
Rotational constants in MHz :  7836.702504  2008.609425  1647.329138

                             ****ORCA TERMINATED NORMALLY****
TOTAL RUN TIME: 0 days 0 hours 1 minutes 4 seconds 574 msec
