                         Program Version 5.0.0 -  RELEASE  -
|  1> !LC-PBE RIJCOSX def2-TZVPD def2/J TightSCF xyzfile
|  2>
|  3> *xyzfile 0 1 B.xyz
|  4>
|  5> %MaxCore 64000
|  6>
|  7> %pal nprocs 4
|  8> end
|  9>
| 10> %scf
| 11>   MaxIter 150
| 12> end
| 13>
| 14>
| 15>                          ****END OF INPUT****

CARTESIAN COORDINATES (ANGSTROEM)
---------------------------------
  C      1.635557   -1.670396   -5.292109
  C      0.338484   -1.500907   -4.505398
  N      2.484511   -0.507410   -5.140392
  C     -0.684873   -0.528026   -5.099889
  C     -0.290406    0.951335   -5.153423
  H      0.607991    1.070692   -5.764412
  C     -0.055168    1.619420   -3.788577
  H     -1.080912    1.483775   -5.689436
  H      0.045006    0.862302   -3.003015
  H     -0.922936    2.230329   -3.517028
  C      1.223022    2.469865   -3.756911
  H      1.114701    3.258074   -4.532999
  H      1.237732    3.011242   -2.792157
  O      2.353815    1.712032   -3.934477
  H      1.398337   -1.829239   -6.352591
  H      2.155864   -2.565398   -4.932091
  C      3.451149   -0.149530   -5.952589
  N      3.922667    1.089559   -5.850711
  N      3.966162   -1.006183   -6.867880
  H      3.521391   -1.906467   -6.995270
  H      4.444824   -0.623472   -7.670348
  H      2.251995    0.240804   -4.498792
  H      3.464277    1.640782   -5.136392
  H      4.834470    1.313745   -6.224653
  H     -0.937999   -0.869056   -6.110838
  H     -1.604638   -0.622496   -4.513132
  H      0.594887   -1.211578   -3.482312
  H     -0.126530   -2.487656   -4.434176

 Total Charge           Charge          ....    0
 Multiplicity           Mult            ....    1
 Number of Electrons    NEL             ....   88
 Basis Dimension        Dim             ....  563

ORBITAL ENERGIES
----------------

  NO   OCC          E(Eh)            E(eV)
   0   2.0000     -18.838369      -512.6181
   1   2.0000     -14.273207      -388.3937
   2   2.0000     -14.232127      -387.2759
   3   2.0000     -14.227568      -387.1518
   4   2.0000     -10.269571      -279.4492
   5   2.0000     -10.167846      -276.6812
   6   2.0000     -10.118797      -275.3465
   7   2.0000     -10.105377      -274.9813
   8   2.0000     -10.090712      -274.5822
   9   2.0000     -10.086340      -274.4633
  10   2.0000     -10.068024      -273.9649
  11   2.0000      -1.212283       -32.9879
  12   2.0000      -1.099402       -29.9163
  13   2.0000      -1.078497       -29.3474
  14   2.0000      -1.047286       -28.4981
  15   2.0000      -0.979219       -26.6459
  16   2.0000      -0.920363       -25.0444
  17   2.0000      -0.859835       -23.3973
  18   2.0000      -0.813067       -22.1247
  19   2.0000      -0.787086       -21.4177
  20   2.0000      -0.751946       -20.4615
  21   2.0000      -0.734017       -19.9736
  22   2.0000      -0.713558       -19.4169
  23   2.0000      -0.682632       -18.5754
  24   2.0000      -0.650164       -17.6919
  25   2.0000      -0.647158       -17.6101
  26   2.0000      -0.633699       -17.2438
  27   2.0000      -0.621727       -16.9180
  28   2.0000      -0.586888       -15.9700
  29   2.0000      -0.568507       -15.4699
  30   2.0000      -0.559169       -15.2158
  31   2.0000      -0.550648       -14.9839
  32   2.0000      -0.522257       -14.2113
  33   2.0000      -0.500532       -13.6202
  34   2.0000      -0.491638       -13.3781
  35   2.0000      -0.469497       -12.7757
  36   2.0000      -0.449109       -12.2209
  37   2.0000      -0.443558       -12.0698
  38   2.0000      -0.432842       -11.7782
  39   2.0000      -0.423365       -11.5204
  40   2.0000      -0.416483       -11.3331
  41   2.0000      -0.386942       -10.5292
  42   2.0000      -0.304089        -8.2747
  43   2.0000      -0.297310        -8.0902
  44   0.0000       0.041074         1.1177
  45   0.0000       0.065471         1.7816
  46   0.0000       0.080210         2.1826
  47   0.0000       0.084962         2.3119
  48   0.0000       0.090379         2.4593

MULLIKEN ATOMIC CHARGES
-----------------------
   0 C :   -0.913233
   1 C :   -0.911833
   2 N :   -0.161617
   3 C :   -0.728668
   4 C :   -0.783836
   5 H :    0.371207
   6 C :   -0.709229
   7 H :    0.408534
   8 H :    0.269002
   9 H :    0.421108
  10 C :   -0.573593
  11 H :    0.288836
  12 H :    0.351634
  13 O :   -1.079418
  14 H :    0.472286
  15 H :    0.437019
  16 C :    0.709475
  17 N :   -0.354004
  18 N :   -0.492251
  19 H :    0.272379
  20 H :    0.231851
  21 H :    0.452541
  22 H :    0.340474
  23 H :    0.187632
  24 H :    0.390183
  25 H :    0.330562
  26 H :    0.392707
  27 H :    0.380251
Sum of atomic charges:    0.0000000

LOEWDIN ATOMIC CHARGES
----------------------
   0 C :   -0.196735
   1 C :   -0.207619
   2 N :    0.081700
   3 C :   -0.227630
   4 C :   -0.230188
   5 H :    0.109855
   6 C :   -0.217985
   7 H :    0.114733
   8 H :    0.109216
   9 H :    0.112374
  10 C :   -0.423267
  11 H :    0.112815
  12 H :    0.104933
  13 O :   -0.335981
  14 H :    0.130155
  15 H :    0.129800
  16 C :   -0.454152
  17 N :    0.177204
  18 N :    0.164674
  19 H :    0.107806
  20 H :    0.121182
  21 H :    0.058923
  22 H :    0.052795
  23 H :    0.128095
  24 H :    0.115582
  25 H :    0.120230
  26 H :    0.122286
  27 H :    0.119198

  Mayer bond orders larger than 0.100000
B(  0-C ,  1-C ) :   0.7972 B(  0-C ,  2-N ) :   0.8548 B(  0-C , 14-H ) :   0.7845
B(  0-C , 15-H ) :   0.8635 B(  0-C , 16-C ) :  -0.2362 B(  0-C , 18-N ) :   0.1249
B(  1-C ,  3-C ) :   0.7368 B(  1-C , 26-H ) :   0.8730 B(  1-C , 27-H ) :   0.9513
B(  2-N , 13-O ) :  -0.1038 B(  2-N , 16-C ) :   1.3487 B(  2-N , 21-H ) :   0.6915
B(  3-C ,  4-C ) :   0.7045 B(  3-C , 24-H ) :   0.9011 B(  3-C , 25-H ) :   0.9839
B(  4-C ,  5-H ) :   0.9531 B(  4-C ,  6-C ) :   0.5943 B(  4-C ,  7-H ) :   0.8996
B(  6-C ,  8-H ) :   0.9667 B(  6-C ,  9-H ) :   0.9131 B(  6-C , 10-C ) :   0.8719
B( 10-C , 11-H ) :   1.0267 B( 10-C , 12-H ) :   0.9272 B( 10-C , 13-O ) :   0.8582
B( 13-O , 16-C ) :  -0.1742 B( 13-O , 22-H ) :   0.1860 B( 16-C , 17-N ) :   1.1551
B( 16-C , 18-N ) :   0.9796 B( 17-N , 22-H ) :   0.7452 B( 17-N , 23-H ) :   1.0381
B( 18-N , 19-H ) :   0.9314 B( 18-N , 20-H ) :   0.9926

FINAL SINGLE POINT ENERGY      -515.009999905900

DIPOLE MOMENT
-------------
                                X             Y             Z
Electronic contribution:      8.32025      -0.94022      -2.28060
Nuclear contribution   :     -7.46499      -1.05836       0.01518
                        -----------------------------------------
Total Dipole Moment    :      0.85525      -1.99858      -2.26542
                        -----------------------------------------
Magnitude (a.u.)       :      3.13973
Magnitude (Debye)      :      7.98057

Rotational constants in cm-1:     0.044680     0.028958     0.019773
Rotational constants in MHz :  1339.486245   868.136755   592.791310

                             ****ORCA TERMINATED NORMALLY****
TOTAL RUN TIME: 0 days 0 hours 4 minutes 26 seconds 677 msec
