                         Program Version 5.0.0 -  RELEASE  -
|  1> !LC-PBE RIJCOSX def2-TZVPD def2/J TightSCF
|  2> *xyz 0 1
|  3> C         -0.05517        1.61942       -3.78858
|  4> C          1.22302        2.46987       -3.75691
|  5> H          1.11470        3.25807       -4.53300
|  6> H          1.23773        3.01124       -2.79216
|  7> F          2.35381        1.71203       -3.93448
|  8> H         -0.10198        1.08015       -4.71156
|  9> H         -0.91014        2.25726       -3.70441
| 10> H         -0.04403        0.92826       -2.97183
| 11> *
| 12>
| 13> %MaxCore 64000
| 14>
| 15> %pal nprocs 4
| 16> end
| 17>
| 18> %scf
| 19>   MaxIter 150
| 20> end
| 21>
| 22>
| 23>                          ****END OF INPUT****

CARTESIAN COORDINATES (ANGSTROEM)
---------------------------------
  C     -0.055170    1.619420   -3.788580
  C      1.223020    2.469870   -3.756910
  H      1.114700    3.258070   -4.533000
  H      1.237730    3.011240   -2.792160
  F      2.353810    1.712030   -3.934480
  H     -0.101980    1.080150   -4.711560
  H     -0.910140    2.257260   -3.704410
  H     -0.044030    0.928260   -2.971830

 Total Charge           Charge          ....    0
 Multiplicity           Mult            ....    1
 Number of Electrons    NEL             ....   26
 Basis Dimension        Dim             ....  159

ORBITAL ENERGIES
----------------

  NO   OCC          E(Eh)            E(eV)
   0   2.0000     -24.475125      -666.0020
   1   2.0000     -10.195198      -277.4254
   2   2.0000     -10.108294      -275.0607
   3   2.0000      -1.353070       -36.8189
   4   2.0000      -0.941607       -25.6224
   5   2.0000      -0.794705       -21.6250
   6   2.0000      -0.656526       -17.8650
   7   2.0000      -0.648922       -17.6581
   8   2.0000      -0.605749       -16.4833
   9   2.0000      -0.545882       -14.8542
  10   2.0000      -0.536815       -14.6075
  11   2.0000      -0.470830       -12.8119
  12   2.0000      -0.463019       -12.5994
  13   0.0000       0.069083         1.8798
  14   0.0000       0.091143         2.4801
  15   0.0000       0.114757         3.1227
  16   0.0000       0.116684         3.1751
  17   0.0000       0.145587         3.9616

MULLIKEN ATOMIC CHARGES
-----------------------
   0 C :   -1.092749
   1 C :   -0.199747
   2 H :    0.272971
   3 H :    0.270810
   4 F :   -0.271291
   5 H :    0.329635
   6 H :    0.367436
   7 H :    0.322933
Sum of atomic charges:   -0.0000000

LOEWDIN ATOMIC CHARGES
----------------------
   0 C :   -0.109860
   1 C :   -0.309934
   2 H :    0.121355
   3 H :    0.119240
   4 F :   -0.043483
   5 H :    0.074055
   6 H :    0.075390
   7 H :    0.073237

  Mayer bond orders larger than 0.100000
B(  0-C ,  1-C ) :   0.7640 B(  0-C ,  5-H ) :   0.9253 B(  0-C ,  6-H ) :   0.9057
B(  0-C ,  7-H ) :   0.9293 B(  1-C ,  2-H ) :   0.9624 B(  1-C ,  3-H ) :   0.9654
B(  1-C ,  4-F ) :   0.7918

FINAL SINGLE POINT ENERGY      -178.633616712493

DIPOLE MOMENT
-------------
                                X             Y             Z
Electronic contribution:      4.98750      -0.71272      -0.42667
Nuclear contribution   :     -5.66833       1.07099       0.52006
                        -----------------------------------------
Total Dipole Moment    :     -0.68083       0.35827       0.09339
                        -----------------------------------------
Magnitude (a.u.)       :      0.77499
Magnitude (Debye)      :      1.96988

Rotational constants in cm-1:     1.245689     0.305293     0.269541
Rotational constants in MHz : 37344.801915  9152.442838  8080.640229

                             ****ORCA TERMINATED NORMALLY****
TOTAL RUN TIME: 0 days 0 hours 0 minutes 14 seconds 533 msec
