                         Program Version 5.0.0 -  RELEASE  -
|  1> !LC-PBE RIJCOSX def2-TZVPD def2/J TightSCF
|  2> *xyz 0 1
|  3> C          1.63556       -1.67040       -5.29211
|  4> C          0.33848       -1.50091       -4.50540
|  5> C          2.48451       -0.50741       -5.14039
|  6> H          1.39834       -1.82924       -6.35259
|  7> H          2.15586       -2.56540       -4.93209
|  8> C          3.45115       -0.14953       -5.95259
|  9> N          3.92267        1.08956       -5.85071
| 10> N          3.96616       -1.00618       -6.86788
| 11> H          3.52139       -1.90647       -6.99527
| 12> H          4.44482       -0.62347       -7.67035
| 13> H          2.25200        0.24080       -4.49879
| 14> H          3.46428        1.64078       -5.13639
| 15> H          4.83447        1.31375       -6.22465
| 16> H         -0.17658       -0.62881       -4.85045
| 17> H          0.56384       -1.39374       -3.46490
| 18> H         -0.28102       -2.36136       -4.64938
| 19> *
| 20>
| 21> %MaxCore 64000
| 22>
| 23> %pal nprocs 4
| 24> end
| 25>
| 26> %scf
| 27>   MaxIter 150
| 28> end
| 29>
| 30>
| 31>                          ****END OF INPUT****

CARTESIAN COORDINATES (ANGSTROEM)
---------------------------------
  C      1.635560   -1.670400   -5.292110
  C      0.338480   -1.500910   -4.505400
  C      2.484510   -0.507410   -5.140390
  H      1.398340   -1.829240   -6.352590
  H      2.155860   -2.565400   -4.932090
  C      3.451150   -0.149530   -5.952590
  N      3.922670    1.089560   -5.850710
  N      3.966160   -1.006180   -6.867880
  H      3.521390   -1.906470   -6.995270
  H      4.444820   -0.623470   -7.670350
  H      2.252000    0.240800   -4.498790
  H      3.464280    1.640780   -5.136390
  H      4.834470    1.313750   -6.224650
  H     -0.176580   -0.628810   -4.850450
  H      0.563840   -1.393740   -3.464900
  H     -0.281020   -2.361360   -4.649380

 Total Charge           Charge          ....    0
 Multiplicity           Mult            ....    1
 Number of Electrons    NEL             ....   48
 Basis Dimension        Dim             ....  312

ORBITAL ENERGIES
----------------

  NO   OCC          E(Eh)            E(eV)
   0   2.0000     -14.213869      -386.7790
   1   2.0000     -14.208828      -386.6419
   2   2.0000     -10.158515      -276.4272
   3   2.0000     -10.092262      -274.6244
   4   2.0000     -10.080954      -274.3167
   5   2.0000     -10.036716      -273.1129
   6   2.0000      -1.135333       -30.8940
   7   2.0000      -1.038426       -28.2570
   8   2.0000      -0.955674       -26.0052
   9   2.0000      -0.867137       -23.5960
  10   2.0000      -0.771829       -21.0025
  11   2.0000      -0.733942       -19.9716
  12   2.0000      -0.681354       -18.5406
  13   2.0000      -0.660712       -17.9789
  14   2.0000      -0.603455       -16.4208
  15   2.0000      -0.589292       -16.0354
  16   2.0000      -0.568882       -15.4801
  17   2.0000      -0.540406       -14.7052
  18   2.0000      -0.518223       -14.1016
  19   2.0000      -0.473256       -12.8780
  20   2.0000      -0.461286       -12.5522
  21   2.0000      -0.459607       -12.5065
  22   2.0000      -0.398944       -10.8558
  23   2.0000      -0.279863        -7.6155
  24   0.0000       0.063935         1.7398
  25   0.0000       0.083900         2.2830
  26   0.0000       0.085972         2.3394
  27   0.0000       0.107662         2.9296
  28   0.0000       0.116401         3.1674

MULLIKEN ATOMIC CHARGES
-----------------------
   0 C :   -0.461033
   1 C :   -1.487200
   2 C :   -0.741488
   3 H :    0.387569
   4 H :    0.321107
   5 C :    0.684562
   6 N :   -0.497586
   7 N :   -0.522401
   8 H :    0.235114
   9 H :    0.212188
  10 H :    0.266009
  11 H :    0.211980
  12 H :    0.212491
  13 H :    0.405033
  14 H :    0.372632
  15 H :    0.401022
Sum of atomic charges:    0.0000000

LOEWDIN ATOMIC CHARGES
----------------------
   0 C :   -0.309625
   1 C :   -0.135636
   2 C :   -0.168322
   3 H :    0.116988
   4 H :    0.117897
   5 C :   -0.553185
   6 N :    0.090297
   7 N :    0.117130
   8 H :    0.099954
   9 H :    0.103590
  10 H :    0.077645
  11 H :    0.113446
  12 H :    0.108329
  13 H :    0.076941
  14 H :    0.076027
  15 H :    0.068523

  Mayer bond orders larger than 0.100000
B(  0-C ,  1-C ) :   0.5183 B(  0-C ,  2-C ) :   0.5192 B(  0-C ,  3-H ) :   0.7957
B(  0-C ,  4-H ) :   0.9771 B(  1-C , 13-H ) :   0.9372 B(  1-C , 14-H ) :   0.9746
B(  1-C , 15-H ) :   0.9118 B(  2-C ,  5-C ) :   1.1183 B(  2-C , 10-H ) :   1.1614
B(  5-C ,  6-N ) :   1.0042 B(  5-C ,  7-N ) :   0.8250 B(  5-C , 10-H ) :  -0.3089
B(  6-N , 11-H ) :   0.9637 B(  6-N , 12-H ) :   1.0317 B(  7-N ,  8-H ) :   0.9418
B(  7-N ,  9-H ) :   1.0225

FINAL SINGLE POINT ENERGY      -267.137361492280

DIPOLE MOMENT
-------------
                                X             Y             Z
Electronic contribution:      4.49647       2.14333      -1.90016
Nuclear contribution   :     -3.99655      -1.83277       1.34879
                        -----------------------------------------
Total Dipole Moment    :      0.49992       0.31056      -0.55137
                        -----------------------------------------
Magnitude (a.u.)       :      0.80646
Magnitude (Debye)      :      2.04987

Rotational constants in cm-1:     0.262971     0.067064     0.055026
Rotational constants in MHz :  7883.664566  2010.513309  1649.636654

                             ****ORCA TERMINATED NORMALLY****
TOTAL RUN TIME: 0 days 0 hours 1 minutes 8 seconds 172 msec
