                         Program Version 5.0.0 -  RELEASE  -
|  1> !LC-PBE RIJCOSX def2-TZVPD def2/J TightSCF
|  2> *xyz 0 1
|  3> C          1.63556       -1.67040       -5.29211
|  4> C          0.33848       -1.50091       -4.50540
|  5> N          2.48451       -0.50741       -5.14039
|  6> H          1.39834       -1.82924       -6.35259
|  7> H          2.15586       -2.56540       -4.93209
|  8> C          3.45115       -0.14953       -5.95259
|  9> C          3.92267        1.08956       -5.85071
| 10> N          3.96616       -1.00618       -6.86788
| 11> H          3.52139       -1.90647       -6.99527
| 12> H          4.44482       -0.62347       -7.67035
| 13> H          2.25200        0.24080       -4.49879
| 14> H          3.46428        1.64078       -5.13639
| 15> H          4.83447        1.31375       -6.22465
| 16> H         -0.17658       -0.62881       -4.85045
| 17> H          0.56384       -1.39374       -3.46490
| 18> H         -0.28102       -2.36136       -4.64938
| 19> *
| 20>
| 21> %MaxCore 64000
| 22>
| 23> %pal nprocs 4
| 24> end
| 25>
| 26> %scf
| 27>   MaxIter 150
| 28> end
| 29>
| 30>
| 31>                          ****END OF INPUT****

CARTESIAN COORDINATES (ANGSTROEM)
---------------------------------
  C      1.635560   -1.670400   -5.292110
  C      0.338480   -1.500910   -4.505400
  N      2.484510   -0.507410   -5.140390
  H      1.398340   -1.829240   -6.352590
  H      2.155860   -2.565400   -4.932090
  C      3.451150   -0.149530   -5.952590
  C      3.922670    1.089560   -5.850710
  N      3.966160   -1.006180   -6.867880
  H      3.521390   -1.906470   -6.995270
  H      4.444820   -0.623470   -7.670350
  H      2.252000    0.240800   -4.498790
  H      3.464280    1.640780   -5.136390
  H      4.834470    1.313750   -6.224650
  H     -0.176580   -0.628810   -4.850450
  H      0.563840   -1.393740   -3.464900
  H     -0.281020   -2.361360   -4.649380

 Total Charge           Charge          ....    0
 Multiplicity           Mult            ....    1
 Number of Electrons    NEL             ....   48
 Basis Dimension        Dim             ....  312

ORBITAL ENERGIES
----------------

  NO   OCC          E(Eh)            E(eV)
   0   2.0000     -14.215954      -386.8358
   1   2.0000     -14.213022      -386.7560
   2   2.0000     -10.164710      -276.5958
   3   2.0000     -10.158470      -276.4260
   4   2.0000     -10.113132      -275.1923
   5   2.0000     -10.020982      -272.6848
   6   2.0000      -1.149316       -31.2745
   7   2.0000      -1.054652       -28.6985
   8   2.0000      -0.954641       -25.9771
   9   2.0000      -0.872926       -23.7535
  10   2.0000      -0.790405       -21.5080
  11   2.0000      -0.751537       -20.4504
  12   2.0000      -0.684182       -18.6176
  13   2.0000      -0.642677       -17.4881
  14   2.0000      -0.631363       -17.1802
  15   2.0000      -0.602333       -16.3903
  16   2.0000      -0.560096       -15.2410
  17   2.0000      -0.539086       -14.6693
  18   2.0000      -0.515139       -14.0177
  19   2.0000      -0.509332       -13.8596
  20   2.0000      -0.507450       -13.8084
  21   2.0000      -0.484897       -13.1947
  22   2.0000      -0.390070       -10.6143
  23   2.0000      -0.279769        -7.6129
  24   0.0000       0.059942         1.6311
  25   0.0000       0.077215         2.1011
  26   0.0000       0.086927         2.3654
  27   0.0000       0.110996         3.0204
  28   0.0000       0.117630         3.2009

MULLIKEN ATOMIC CHARGES
-----------------------
   0 C :   -0.465404
   1 C :   -1.489720
   2 N :   -0.254494
   3 H :    0.406259
   4 H :    0.345405
   5 C :    0.748122
   6 C :   -1.321973
   7 N :   -0.510007
   8 H :    0.248199
   9 H :    0.237358
  10 H :    0.175032
  11 H :    0.323408
  12 H :    0.351264
  13 H :    0.412371
  14 H :    0.386978
  15 H :    0.407205
Sum of atomic charges:   -0.0000000

LOEWDIN ATOMIC CHARGES
----------------------
   0 C :   -0.271323
   1 C :   -0.111062
   2 N :    0.002484
   3 H :    0.123152
   4 H :    0.122596
   5 C :   -0.569578
   6 C :   -0.028929
   7 N :    0.112167
   8 H :    0.092490
   9 H :    0.113767
  10 H :    0.148073
  11 H :    0.015831
  12 H :    0.018540
  13 H :    0.079296
  14 H :    0.077194
  15 H :    0.075302

  Mayer bond orders larger than 0.100000
B(  0-C ,  1-C ) :   0.5145 B(  0-C ,  2-N ) :   0.7280 B(  0-C ,  3-H ) :   0.8407
B(  0-C ,  4-H ) :   0.9169 B(  0-C ,  5-C ) :  -0.1191 B(  1-C , 13-H ) :   0.9316
B(  1-C , 14-H ) :   0.9400 B(  1-C , 15-H ) :   0.9006 B(  2-N ,  5-C ) :   1.0479
B(  2-N ,  6-C ) :   0.1148 B(  2-N , 10-H ) :   0.9826 B(  5-C ,  6-C ) :   0.9291
B(  5-C ,  7-N ) :   0.9177 B(  5-C , 11-H ) :  -0.1343 B(  5-C , 12-H ) :  -0.1056
B(  6-C , 11-H ) :   0.9957 B(  6-C , 12-H ) :   1.0108 B(  7-N ,  8-H ) :   0.9630
B(  7-N ,  9-H ) :   0.9747

FINAL SINGLE POINT ENERGY      -267.124338665778

DIPOLE MOMENT
-------------
                                X             Y             Z
Electronic contribution:      2.94130       0.54358      -1.28887
Nuclear contribution   :     -3.69145      -1.49398       1.19810
                        -----------------------------------------
Total Dipole Moment    :     -0.75015      -0.95041      -0.09077
                        -----------------------------------------
Magnitude (a.u.)       :      1.21418
Magnitude (Debye)      :      3.08621

Rotational constants in cm-1:     0.270790     0.068966     0.056679
Rotational constants in MHz :  8118.084803  2067.559423  1699.196934

                             ****ORCA TERMINATED NORMALLY****
TOTAL RUN TIME: 0 days 0 hours 1 minutes 8 seconds 325 msec
