                         Program Version 5.0.0 -  RELEASE  -
|  1> !LC-PBE RIJCOSX def2-TZVPD def2/J TightSCF
|  2> *xyz 0 1
|  3> C          1.63556       -1.67040       -5.29211
|  4> C          0.33848       -1.50091       -4.50540
|  5> N          2.48451       -0.50741       -5.14039
|  6> H          1.39834       -1.82924       -6.35259
|  7> H          2.15586       -2.56540       -4.93209
|  8> C          3.45115       -0.14953       -5.95259
|  9> N          3.92267        1.08956       -5.85071
| 10> C          3.96616       -1.00618       -6.86788
| 11> H          3.52139       -1.90647       -6.99527
| 12> H          4.44482       -0.62347       -7.67035
| 13> H          2.25200        0.24080       -4.49879
| 14> H          3.46428        1.64078       -5.13639
| 15> H          4.83447        1.31375       -6.22465
| 16> H         -0.17658       -0.62881       -4.85045
| 17> H          0.56384       -1.39374       -3.46490
| 18> H         -0.28102       -2.36136       -4.64938
| 19> *
| 20>
| 21> %MaxCore 64000
| 22>
| 23> %pal nprocs 4
| 24> end
| 25>
| 26> %scf
| 27>   MaxIter 150
| 28> end
| 29>
| 30>
| 31>                          ****END OF INPUT****

CARTESIAN COORDINATES (ANGSTROEM)
---------------------------------
  C      1.635560   -1.670400   -5.292110
  C      0.338480   -1.500910   -4.505400
  N      2.484510   -0.507410   -5.140390
  H      1.398340   -1.829240   -6.352590
  H      2.155860   -2.565400   -4.932090
  C      3.451150   -0.149530   -5.952590
  N      3.922670    1.089560   -5.850710
  C      3.966160   -1.006180   -6.867880
  H      3.521390   -1.906470   -6.995270
  H      4.444820   -0.623470   -7.670350
  H      2.252000    0.240800   -4.498790
  H      3.464280    1.640780   -5.136390
  H      4.834470    1.313750   -6.224650
  H     -0.176580   -0.628810   -4.850450
  H      0.563840   -1.393740   -3.464900
  H     -0.281020   -2.361360   -4.649380

 Total Charge           Charge          ....    0
 Multiplicity           Mult            ....    1
 Number of Electrons    NEL             ....   48
 Basis Dimension        Dim             ....  312

ORBITAL ENERGIES
----------------

  NO   OCC          E(Eh)            E(eV)
   0   2.0000     -14.222653      -387.0181
   1   2.0000     -14.215465      -386.8225
   2   2.0000     -10.166496      -276.6444
   3   2.0000     -10.151508      -276.2366
   4   2.0000     -10.109296      -275.0879
   5   2.0000     -10.022864      -272.7360
   6   2.0000      -1.157688       -31.5023
   7   2.0000      -1.060623       -28.8610
   8   2.0000      -0.939092       -25.5540
   9   2.0000      -0.874113       -23.7858
  10   2.0000      -0.808414       -21.9981
  11   2.0000      -0.721865       -19.6430
  12   2.0000      -0.685244       -18.6464
  13   2.0000      -0.671602       -18.2752
  14   2.0000      -0.625947       -17.0329
  15   2.0000      -0.608207       -16.5502
  16   2.0000      -0.546443       -14.8695
  17   2.0000      -0.530941       -14.4476
  18   2.0000      -0.530001       -14.4221
  19   2.0000      -0.505010       -13.7420
  20   2.0000      -0.495001       -13.4697
  21   2.0000      -0.484404       -13.1813
  22   2.0000      -0.382380       -10.4051
  23   2.0000      -0.284152        -7.7322
  24   0.0000       0.061039         1.6610
  25   0.0000       0.077117         2.0985
  26   0.0000       0.086722         2.3598
  27   0.0000       0.108420         2.9503
  28   0.0000       0.118881         3.2349

MULLIKEN ATOMIC CHARGES
-----------------------
   0 C :   -0.515892
   1 C :   -1.447170
   2 N :   -0.265328
   3 H :    0.397870
   4 H :    0.393061
   5 C :    0.706500
   6 N :   -0.479049
   7 C :   -1.328510
   8 H :    0.400893
   9 H :    0.311481
  10 H :    0.193479
  11 H :    0.194433
  12 H :    0.237004
  13 H :    0.408640
  14 H :    0.386618
  15 H :    0.405972
Sum of atomic charges:    0.0000000

LOEWDIN ATOMIC CHARGES
----------------------
   0 C :   -0.263667
   1 C :   -0.113159
   2 N :    0.003040
   3 H :    0.128465
   4 H :    0.128955
   5 C :   -0.580102
   6 N :    0.103617
   7 C :   -0.017072
   8 H :    0.000363
   9 H :    0.012805
  10 H :    0.143001
  11 H :    0.105644
  12 H :    0.120843
  13 H :    0.076779
  14 H :    0.074757
  15 H :    0.075734

  Mayer bond orders larger than 0.100000
B(  0-C ,  1-C ) :   0.4466 B(  0-C ,  2-N ) :   0.7914 B(  0-C ,  3-H ) :   0.8758
B(  0-C ,  4-H ) :   0.8842 B(  0-C ,  7-C ) :   0.1616 B(  1-C , 13-H ) :   0.9339
B(  1-C , 14-H ) :   0.9396 B(  1-C , 15-H ) :   0.8999 B(  2-N ,  5-C ) :   1.0005
B(  2-N , 10-H ) :   1.0395 B(  5-C ,  6-N ) :   0.8740 B(  5-C ,  7-C ) :   1.1770
B(  5-C ,  9-H ) :  -0.1264 B(  6-N , 11-H ) :   1.0163 B(  6-N , 12-H ) :   0.9797
B(  7-C ,  8-H ) :   0.8811 B(  7-C ,  9-H ) :   1.0836

FINAL SINGLE POINT ENERGY      -267.124807049935

DIPOLE MOMENT
-------------
                                X             Y             Z
Electronic contribution:      3.00526       2.61616      -0.20311
Nuclear contribution   :     -3.68222      -1.93858       0.98231
                        -----------------------------------------
Total Dipole Moment    :     -0.67696       0.67758       0.77920
                        -----------------------------------------
Magnitude (a.u.)       :      1.23473
Magnitude (Debye)      :      3.13843

Rotational constants in cm-1:     0.275407     0.068040     0.056255
Rotational constants in MHz :  8256.498401  2039.796466  1686.484500

                             ****ORCA TERMINATED NORMALLY****
TOTAL RUN TIME: 0 days 0 hours 1 minutes 8 seconds 281 msec
