                         Program Version 5.0.0 -  RELEASE  -
|  1> !LC-PBE RIJCOSX def2-TZVPD def2/J TightSCF xyzfile
|  2>
|  3> *xyzfile 0 1 D1.xyz
|  4>
|  5> %MaxCore 64000
|  6>
|  7> %pal nprocs 4
|  8> end
|  9>
| 10> %scf
| 11>   MaxIter 150
| 12> end
| 13>
| 14>
| 15>                          ****END OF INPUT****

CARTESIAN COORDINATES (ANGSTROEM)
---------------------------------
  C      1.635557   -1.670396   -5.292109
  C      0.338484   -1.500907   -4.505398
  C      2.484511   -0.507410   -5.140392
  C     -0.684873   -0.528026   -5.099889
  C     -0.290406    0.951335   -5.153423
  H      0.607991    1.070692   -5.764412
  C     -0.055168    1.619420   -3.788577
  H     -1.080912    1.483775   -5.689436
  H      0.045006    0.862302   -3.003015
  H     -0.922936    2.230329   -3.517028
  C      1.223022    2.469865   -3.756911
  H      1.114701    3.258074   -4.532999
  H      1.237732    3.011242   -2.792157
  F      2.353815    1.712032   -3.934477
  H      1.398337   -1.829239   -6.352591
  H      2.155864   -2.565398   -4.932091
  C      3.451149   -0.149530   -5.952589
  N      3.922667    1.089559   -5.850711
  N      3.966162   -1.006183   -6.867880
  H      3.521391   -1.906467   -6.995270
  H      4.444824   -0.623472   -7.670348
  H      2.251995    0.240804   -4.498792
  H      3.464277    1.640782   -5.136392
  H      4.834470    1.313745   -6.224653
  H     -0.937999   -0.869056   -6.110838
  H     -1.604638   -0.622496   -4.513132
  H      0.594887   -1.211578   -3.482312
  H     -0.126530   -2.487656   -4.434176

 Total Charge           Charge          ....    0
 Multiplicity           Mult            ....    1
 Number of Electrons    NEL             ....   88
 Basis Dimension        Dim             ....  563

ORBITAL ENERGIES
----------------

  NO   OCC          E(Eh)            E(eV)
   0   2.0000     -24.502722      -666.7530
   1   2.0000     -14.198985      -386.3740
   2   2.0000     -14.182550      -385.9268
   3   2.0000     -10.204685      -277.6836
   4   2.0000     -10.139182      -275.9012
   5   2.0000     -10.121989      -275.4333
   6   2.0000     -10.104038      -274.9448
   7   2.0000     -10.101314      -274.8707
   8   2.0000     -10.091895      -274.6144
   9   2.0000     -10.080944      -274.3164
  10   2.0000     -10.008233      -272.3379
  11   2.0000      -1.390455       -37.8362
  12   2.0000      -1.116891       -30.3922
  13   2.0000      -1.021318       -27.7915
  14   2.0000      -0.991616       -26.9832
  15   2.0000      -0.954276       -25.9672
  16   2.0000      -0.899675       -24.4814
  17   2.0000      -0.861055       -23.4305
  18   2.0000      -0.803545       -21.8656
  19   2.0000      -0.769765       -20.9464
  20   2.0000      -0.732125       -19.9221
  21   2.0000      -0.712269       -19.3818
  22   2.0000      -0.688741       -18.7416
  23   2.0000      -0.670009       -18.2319
  24   2.0000      -0.657000       -17.8779
  25   2.0000      -0.648576       -17.6487
  26   2.0000      -0.632967       -17.2239
  27   2.0000      -0.602678       -16.3997
  28   2.0000      -0.584539       -15.9061
  29   2.0000      -0.576439       -15.6857
  30   2.0000      -0.557277       -15.1643
  31   2.0000      -0.543247       -14.7825
  32   2.0000      -0.530476       -14.4350
  33   2.0000      -0.518353       -14.1051
  34   2.0000      -0.495768       -13.4905
  35   2.0000      -0.492567       -13.4034
  36   2.0000      -0.481350       -13.0982
  37   2.0000      -0.466147       -12.6845
  38   2.0000      -0.446957       -12.1623
  39   2.0000      -0.433712       -11.8019
  40   2.0000      -0.428335       -11.6556
  41   2.0000      -0.415601       -11.3091
  42   2.0000      -0.381283       -10.3752
  43   2.0000      -0.260213        -7.0808
  44   0.0000       0.064003         1.7416
  45   0.0000       0.072573         1.9748
  46   0.0000       0.079074         2.1517
  47   0.0000       0.085207         2.3186
  48   0.0000       0.094963         2.5841

MULLIKEN ATOMIC CHARGES
-----------------------
   0 C :   -0.749552
   1 C :   -0.924999
   2 C :   -1.147881
   3 C :   -0.790052
   4 C :   -0.827826
   5 H :    0.531679
   6 C :   -0.799603
   7 H :    0.409204
   8 H :    0.336054
   9 H :    0.442568
  10 C :   -0.396726
  11 H :    0.320940
  12 H :    0.364014
  13 F :   -0.450874
  14 H :    0.469566
  15 H :    0.373786
  16 C :    0.067414
  17 N :   -0.485119
  18 N :   -0.544170
  19 H :    0.241115
  20 H :    0.211949
  21 H :    1.411245
  22 H :    0.353076
  23 H :    0.130756
  24 H :    0.408814
  25 H :    0.330580
  26 H :    0.323664
  27 H :    0.390379
Sum of atomic charges:    0.0000000

LOEWDIN ATOMIC CHARGES
----------------------
   0 C :   -0.243258
   1 C :   -0.231366
   2 C :   -0.158002
   3 C :   -0.222494
   4 C :   -0.225180
   5 H :    0.114799
   6 C :   -0.190007
   7 H :    0.115994
   8 H :    0.118015
   9 H :    0.124721
  10 C :   -0.212691
  11 H :    0.140686
  12 H :    0.130032
  13 F :   -0.073490
  14 H :    0.122410
  15 H :    0.120533
  16 C :   -0.537026
  17 N :    0.103362
  18 N :    0.115874
  19 H :    0.097504
  20 H :    0.100490
  21 H :    0.039470
  22 H :    0.074117
  23 H :    0.108896
  24 H :    0.120200
  25 H :    0.117328
  26 H :    0.115259
  27 H :    0.113824

  Mayer bond orders larger than 0.100000
B(  0-C ,  1-C ) :   0.8202 B(  0-C ,  2-C ) :   0.1914 B(  0-C , 14-H ) :   0.6783
B(  0-C , 15-H ) :   1.0952 B(  1-C ,  2-C ) :   0.1962 B(  1-C ,  3-C ) :   0.7404
B(  1-C , 26-H ) :   0.9230 B(  1-C , 27-H ) :   0.9689 B(  2-C ,  5-H ) :  -0.1604
B(  2-C , 13-F ) :   0.3174 B(  2-C , 14-H ) :  -0.1029 B(  2-C , 15-H ) :  -0.1675
B(  2-C , 16-C ) :   2.1522 B(  2-C , 21-H ) :  -0.3568 B(  3-C ,  4-C ) :   0.7304
B(  3-C , 24-H ) :   0.8981 B(  3-C , 25-H ) :   0.9931 B(  4-C ,  5-H ) :   0.8736
B(  4-C ,  6-C ) :   0.5182 B(  4-C ,  7-H ) :   0.9020 B(  6-C ,  8-H ) :   0.9576
B(  6-C ,  9-H ) :   0.8663 B(  6-C , 10-C ) :   0.8720 B( 10-C , 11-H ) :   0.9616
B( 10-C , 12-H ) :   0.8975 B( 10-C , 13-F ) :   0.7454 B( 13-F , 16-C ) :   0.1145
B( 13-F , 21-H ) :  -0.5519 B( 16-C , 17-N ) :   0.9289 B( 16-C , 18-N ) :   0.7872
B( 16-C , 21-H ) :  -0.4411 B( 17-N , 22-H ) :   0.8252 B( 17-N , 23-H ) :   1.1211
B( 18-N , 19-H ) :   0.9507 B( 18-N , 20-H ) :   1.0258

FINAL SINGLE POINT ENERGY      -522.929321795237

DIPOLE MOMENT
-------------
                                X             Y             Z
Electronic contribution:      7.77651       3.83654       1.15052
Nuclear contribution   :     -8.11591      -2.99033      -1.35383
                        -----------------------------------------
Total Dipole Moment    :     -0.33940       0.84621      -0.20331
                        -----------------------------------------
Magnitude (a.u.)       :      0.93413
Magnitude (Debye)      :      2.37438

Rotational constants in cm-1:     0.043530     0.028984     0.019589
Rotational constants in MHz :  1305.007140   868.923804   587.262638

                             ****ORCA TERMINATED NORMALLY****
TOTAL RUN TIME: 0 days 0 hours 5 minutes 12 seconds 61 msec
