                         Program Version 5.0.0 -  RELEASE  -
|  1> !LC-PBE RIJCOSX def2-TZVPD def2/J TightSCF xyzfile
|  2>
|  3> *xyzfile 0 1 D2.xyz
|  4>
|  5> %MaxCore 64000
|  6>
|  7> %pal nprocs 4
|  8> end
|  9>
| 10> %scf
| 11>   MaxIter 150
| 12> end
| 13>
| 14>
| 15>                          ****END OF INPUT****

CARTESIAN COORDINATES (ANGSTROEM)
---------------------------------
  C      1.635557   -1.670396   -5.292109
  C      0.338484   -1.500907   -4.505398
  N      2.484511   -0.507410   -5.140392
  C     -0.684873   -0.528026   -5.099889
  C     -0.290406    0.951335   -5.153423
  H      0.607991    1.070692   -5.764412
  C     -0.055168    1.619420   -3.788577
  H     -1.080912    1.483775   -5.689436
  H      0.045006    0.862302   -3.003015
  H     -0.922936    2.230329   -3.517028
  C      1.223022    2.469865   -3.756911
  H      1.114701    3.258074   -4.532999
  H      1.237732    3.011242   -2.792157
  F      2.353815    1.712032   -3.934477
  H      1.398337   -1.829239   -6.352591
  H      2.155864   -2.565398   -4.932091
  C      3.451149   -0.149530   -5.952589
  C      3.922667    1.089559   -5.850711
  N      3.966162   -1.006183   -6.867880
  H      3.521391   -1.906467   -6.995270
  H      4.444824   -0.623472   -7.670348
  H      2.251995    0.240804   -4.498792
  H      3.464277    1.640782   -5.136392
  H      4.834470    1.313745   -6.224653
  H     -0.937999   -0.869056   -6.110838
  H     -1.604638   -0.622496   -4.513132
  H      0.594887   -1.211578   -3.482312
  H     -0.126530   -2.487656   -4.434176

 Total Charge           Charge          ....    0
 Multiplicity           Mult            ....    1
 Number of Electrons    NEL             ....   88
 Basis Dimension        Dim             ....  563

ORBITAL ENERGIES
----------------

  NO   OCC          E(Eh)            E(eV)
   0   2.0000     -24.504168      -666.7923
   1   2.0000     -14.197758      -386.3406
   2   2.0000     -14.187530      -386.0623
   3   2.0000     -10.206509      -277.7332
   4   2.0000     -10.145545      -276.0743
   5   2.0000     -10.144362      -276.0421
   6   2.0000     -10.130749      -275.6717
   7   2.0000     -10.119406      -275.3630
   8   2.0000     -10.118865      -275.3483
   9   2.0000     -10.116722      -275.2900
  10   2.0000      -9.994607      -271.9671
  11   2.0000      -1.391422       -37.8625
  12   2.0000      -1.130920       -30.7739
  13   2.0000      -1.040820       -28.3221
  14   2.0000      -1.000190       -27.2165
  15   2.0000      -0.953534       -25.9470
  16   2.0000      -0.911181       -24.7945
  17   2.0000      -0.853844       -23.2343
  18   2.0000      -0.816221       -22.2105
  19   2.0000      -0.784504       -21.3474
  20   2.0000      -0.741280       -20.1713
  21   2.0000      -0.724296       -19.7091
  22   2.0000      -0.696671       -18.9574
  23   2.0000      -0.669121       -18.2077
  24   2.0000      -0.658579       -17.9208
  25   2.0000      -0.652765       -17.7626
  26   2.0000      -0.630950       -17.1690
  27   2.0000      -0.622222       -16.9315
  28   2.0000      -0.593447       -16.1485
  29   2.0000      -0.582182       -15.8420
  30   2.0000      -0.564503       -15.3609
  31   2.0000      -0.551505       -15.0072
  32   2.0000      -0.536322       -14.5941
  33   2.0000      -0.519325       -14.1315
  34   2.0000      -0.503009       -13.6876
  35   2.0000      -0.497486       -13.5373
  36   2.0000      -0.487441       -13.2639
  37   2.0000      -0.478735       -13.0270
  38   2.0000      -0.461658       -12.5624
  39   2.0000      -0.451725       -12.2921
  40   2.0000      -0.448673       -12.2090
  41   2.0000      -0.445980       -12.1357
  42   2.0000      -0.370186       -10.0733
  43   2.0000      -0.260365        -7.0849
  44   0.0000       0.060444         1.6448
  45   0.0000       0.069353         1.8872
  46   0.0000       0.076076         2.0701
  47   0.0000       0.079148         2.1537
  48   0.0000       0.096688         2.6310

MULLIKEN ATOMIC CHARGES
-----------------------
   0 C :   -0.860865
   1 C :   -0.951634
   2 N :   -0.305933
   3 C :   -0.695949
   4 C :   -0.897036
   5 H :    0.498498
   6 C :   -0.798103
   7 H :    0.397166
   8 H :    0.327567
   9 H :    0.425265
  10 C :   -0.381636
  11 H :    0.326117
  12 H :    0.360053
  13 F :   -0.472553
  14 H :    0.464215
  15 H :    0.417201
  16 C :    0.711942
  17 C :   -1.447764
  18 N :   -0.539044
  19 H :    0.256090
  20 H :    0.234738
  21 H :    0.445036
  22 H :    0.672220
  23 H :    0.342468
  24 H :    0.408541
  25 H :    0.331046
  26 H :    0.362400
  27 H :    0.369952
Sum of atomic charges:   -0.0000000

LOEWDIN ATOMIC CHARGES
----------------------
   0 C :   -0.212601
   1 C :   -0.213018
   2 N :    0.019429
   3 C :   -0.223134
   4 C :   -0.223420
   5 H :    0.115969
   6 C :   -0.191026
   7 H :    0.118812
   8 H :    0.116289
   9 H :    0.125777
  10 C :   -0.211193
  11 H :    0.143574
  12 H :    0.131410
  13 F :   -0.071497
  14 H :    0.128018
  15 H :    0.124608
  16 C :   -0.554000
  17 C :   -0.014917
  18 N :    0.110906
  19 H :    0.090148
  20 H :    0.110925
  21 H :    0.089270
  22 H :   -0.007124
  23 H :    0.021171
  24 H :    0.120948
  25 H :    0.119590
  26 H :    0.116302
  27 H :    0.118786

  Mayer bond orders larger than 0.100000
B(  0-C ,  1-C ) :   0.7891 B(  0-C ,  2-N ) :   0.8779 B(  0-C , 14-H ) :   0.7887
B(  0-C , 15-H ) :   0.8865 B(  0-C , 16-C ) :  -0.2345 B(  0-C , 18-N ) :   0.1234
B(  1-C ,  3-C ) :   0.7272 B(  1-C , 26-H ) :   0.8968 B(  1-C , 27-H ) :   0.9744
B(  2-N , 16-C ) :   0.9729 B(  2-N , 21-H ) :   0.7427 B(  3-C ,  4-C ) :   0.7550
B(  3-C , 24-H ) :   0.8883 B(  3-C , 25-H ) :   0.9851 B(  4-C ,  5-H ) :   0.8426
B(  4-C ,  6-C ) :   0.5507 B(  4-C ,  7-H ) :   0.9144 B(  6-C ,  8-H ) :   0.9637
B(  6-C ,  9-H ) :   0.8865 B(  6-C , 10-C ) :   0.8869 B( 10-C , 11-H ) :   0.9602
B( 10-C , 12-H ) :   0.9027 B( 10-C , 13-F ) :   0.7369 B( 13-F , 17-C ) :   0.1617
B( 13-F , 22-H ) :  -0.1683 B( 16-C , 17-C ) :   1.0552 B( 16-C , 18-N ) :   0.8208
B( 16-C , 22-H ) :  -0.1061 B( 16-C , 23-H ) :  -0.1274 B( 17-C , 18-N ) :   0.1029
B( 17-C , 22-H ) :   0.6724 B( 17-C , 23-H ) :   1.0657 B( 18-N , 19-H ) :   0.9605
B( 18-N , 20-H ) :   0.9849

FINAL SINGLE POINT ENERGY      -522.918511342520

DIPOLE MOMENT
-------------
                                X             Y             Z
Electronic contribution:      6.29298       2.45364       1.71375
Nuclear contribution   :     -7.85451      -2.70006      -1.48294
                        -----------------------------------------
Total Dipole Moment    :     -1.56152      -0.24642       0.23081
                        -----------------------------------------
Magnitude (a.u.)       :      1.59761
Magnitude (Debye)      :      4.06080

Rotational constants in cm-1:     0.044065     0.029250     0.019826
Rotational constants in MHz :  1321.026981   876.903192   594.367265

                             ****ORCA TERMINATED NORMALLY****
TOTAL RUN TIME: 0 days 0 hours 4 minutes 47 seconds 883 msec
