                         Program Version 5.0.0 -  RELEASE  -
|  1> !LC-PBE RIJCOSX def2-TZVPD def2/J TightSCF xyzfile
|  2>
|  3> *xyzfile 0 1 D3.xyz
|  4>
|  5> %MaxCore 64000
|  6>
|  7> %pal nprocs 4
|  8> end
|  9>
| 10> %scf
| 11>   MaxIter 150
| 12> end
| 13>
| 14>
| 15>                          ****END OF INPUT****

CARTESIAN COORDINATES (ANGSTROEM)
---------------------------------
  C      1.635557   -1.670396   -5.292109
  C      0.338484   -1.500907   -4.505398
  N      2.484511   -0.507410   -5.140392
  C     -0.684873   -0.528026   -5.099889
  C     -0.290406    0.951335   -5.153423
  H      0.607991    1.070692   -5.764412
  C     -0.055168    1.619420   -3.788577
  H     -1.080912    1.483775   -5.689436
  H      0.045006    0.862302   -3.003015
  H     -0.922936    2.230329   -3.517028
  C      1.223022    2.469865   -3.756911
  H      1.114701    3.258074   -4.532999
  H      1.237732    3.011242   -2.792157
  F      2.353815    1.712032   -3.934477
  H      1.398337   -1.829239   -6.352591
  H      2.155864   -2.565398   -4.932091
  C      3.451149   -0.149530   -5.952589
  N      3.922667    1.089559   -5.850711
  C      3.966162   -1.006183   -6.867880
  H      3.521391   -1.906467   -6.995270
  H      4.444824   -0.623472   -7.670348
  H      2.251995    0.240804   -4.498792
  H      3.464277    1.640782   -5.136392
  H      4.834470    1.313745   -6.224653
  H     -0.937999   -0.869056   -6.110838
  H     -1.604638   -0.622496   -4.513132
  H      0.594887   -1.211578   -3.482312
  H     -0.126530   -2.487656   -4.434176

 Total Charge           Charge          ....    0
 Multiplicity           Mult            ....    1
 Number of Electrons    NEL             ....   88
 Basis Dimension        Dim             ....  563

ORBITAL ENERGIES
----------------

  NO   OCC          E(Eh)            E(eV)
   0   2.0000     -24.533108      -667.5798
   1   2.0000     -14.191941      -386.1823
   2   2.0000     -14.186502      -386.0343
   3   2.0000     -10.223932      -278.2073
   4   2.0000     -10.147135      -276.1176
   5   2.0000     -10.140722      -275.9431
   6   2.0000     -10.137214      -275.8476
   7   2.0000     -10.122934      -275.4590
   8   2.0000     -10.119941      -275.3776
   9   2.0000     -10.117021      -275.2981
  10   2.0000     -10.004988      -272.2496
  11   2.0000      -1.419102       -38.6157
  12   2.0000      -1.136009       -30.9124
  13   2.0000      -1.042935       -28.3797
  14   2.0000      -1.004489       -27.3335
  15   2.0000      -0.957273       -26.0487
  16   2.0000      -0.901486       -24.5307
  17   2.0000      -0.864021       -23.5112
  18   2.0000      -0.826165       -22.4811
  19   2.0000      -0.797913       -21.7123
  20   2.0000      -0.737621       -20.0717
  21   2.0000      -0.724224       -19.7071
  22   2.0000      -0.713144       -19.4056
  23   2.0000      -0.685703       -18.6589
  24   2.0000      -0.680290       -18.5116
  25   2.0000      -0.645282       -17.5590
  26   2.0000      -0.636085       -17.3087
  27   2.0000      -0.622521       -16.9397
  28   2.0000      -0.608587       -16.5605
  29   2.0000      -0.575924       -15.6717
  30   2.0000      -0.570287       -15.5183
  31   2.0000      -0.560018       -15.2389
  32   2.0000      -0.540959       -14.7203
  33   2.0000      -0.513971       -13.9859
  34   2.0000      -0.511072       -13.9070
  35   2.0000      -0.497212       -13.5298
  36   2.0000      -0.494220       -13.4484
  37   2.0000      -0.486853       -13.2480
  38   2.0000      -0.473722       -12.8906
  39   2.0000      -0.460148       -12.5213
  40   2.0000      -0.449967       -12.2442
  41   2.0000      -0.449274       -12.2254
  42   2.0000      -0.358573        -9.7573
  43   2.0000      -0.265518        -7.2251
  44   0.0000       0.055205         1.5022
  45   0.0000       0.069528         1.8920
  46   0.0000       0.073393         1.9971
  47   0.0000       0.079459         2.1622
  48   0.0000       0.093144         2.5346

MULLIKEN ATOMIC CHARGES
-----------------------
   0 C :   -0.933075
   1 C :   -0.924834
   2 N :   -0.277835
   3 C :   -0.708118
   4 C :   -0.896117
   5 H :    0.476873
   6 C :   -0.790986
   7 H :    0.395846
   8 H :    0.334144
   9 H :    0.433549
  10 C :   -0.369875
  11 H :    0.333805
  12 H :    0.364201
  13 F :   -0.466980
  14 H :    0.460897
  15 H :    0.465697
  16 C :    0.585328
  17 N :   -0.440039
  18 C :   -1.348605
  19 H :    0.444761
  20 H :    0.325722
  21 H :    0.508088
  22 H :    0.376920
  23 H :    0.172678
  24 H :    0.416051
  25 H :    0.329779
  26 H :    0.362251
  27 H :    0.369874
Sum of atomic charges:    0.0000000

LOEWDIN ATOMIC CHARGES
----------------------
   0 C :   -0.205314
   1 C :   -0.212861
   2 N :    0.019875
   3 C :   -0.222044
   4 C :   -0.224278
   5 H :    0.115386
   6 C :   -0.189836
   7 H :    0.119125
   8 H :    0.117600
   9 H :    0.127531
  10 C :   -0.207977
  11 H :    0.143976
  12 H :    0.133357
  13 F :   -0.060873
  14 H :    0.132701
  15 H :    0.130915
  16 C :   -0.568464
  17 N :    0.113485
  18 C :   -0.020714
  19 H :   -0.003249
  20 H :    0.008648
  21 H :    0.086556
  22 H :    0.068726
  23 H :    0.121301
  24 H :    0.122668
  25 H :    0.119586
  26 H :    0.114477
  27 H :    0.119696

  Mayer bond orders larger than 0.100000
B(  0-C ,  1-C ) :   0.7140 B(  0-C ,  2-N ) :   0.9571 B(  0-C , 14-H ) :   0.8385
B(  0-C , 15-H ) :   0.8466 B(  0-C , 16-C ) :  -0.1253 B(  0-C , 18-C ) :   0.2509
B(  1-C ,  3-C ) :   0.7208 B(  1-C , 26-H ) :   0.8991 B(  1-C , 27-H ) :   0.9734
B(  2-N , 16-C ) :   1.0437 B(  2-N , 18-C ) :   0.1002 B(  2-N , 21-H ) :   0.7150
B(  3-C ,  4-C ) :   0.7668 B(  3-C , 24-H ) :   0.8805 B(  3-C , 25-H ) :   0.9883
B(  4-C ,  5-H ) :   0.8647 B(  4-C ,  6-C ) :   0.5329 B(  4-C ,  7-H ) :   0.9197
B(  6-C ,  8-H ) :   0.9633 B(  6-C ,  9-H ) :   0.8797 B(  6-C , 10-C ) :   0.8844
B( 10-C , 11-H ) :   0.9490 B( 10-C , 12-H ) :   0.8948 B( 10-C , 13-F ) :   0.7221
B( 16-C , 17-N ) :   0.9047 B( 16-C , 18-C ) :   1.1341 B( 16-C , 20-H ) :  -0.1525
B( 17-N , 22-H ) :   0.8246 B( 17-N , 23-H ) :   1.0451 B( 18-C , 19-H ) :   0.8399
B( 18-C , 20-H ) :   1.1151

FINAL SINGLE POINT ENERGY      -522.930123892143

DIPOLE MOMENT
-------------
                                X             Y             Z
Electronic contribution:      6.20194       4.46339       2.82224
Nuclear contribution   :     -7.84660      -3.08098      -1.66782
                        -----------------------------------------
Total Dipole Moment    :     -1.64466       1.38240       1.15442
                        -----------------------------------------
Magnitude (a.u.)       :      2.43898
Magnitude (Debye)      :      6.19941

Rotational constants in cm-1:     0.043547     0.029898     0.020008
Rotational constants in MHz :  1305.520367   896.323854   599.829375

                             ****ORCA TERMINATED NORMALLY****
TOTAL RUN TIME: 0 days 0 hours 4 minutes 47 seconds 576 msec
