                         Program Version 5.0.0 -  RELEASE  -
|  1> !CAM-B3LYP RIJCOSX def2-SVPD def2/J TightSCF
|  2> *xyz -1 1
|  3> C          0.70466        1.44313       -4.50363
|  4> C          1.72854        1.42432       -5.63944
|  5> H          2.64672        1.95379       -5.38105
|  6> H          1.29992        1.93061       -6.50361
|  7> S          2.25263       -0.18811       -6.27184
|  8> O          3.56261       -0.44446       -5.63155
|  9> O          2.34494       -0.03374       -7.69650
| 10> C          1.05255        0.69566       -3.21491
| 11> H         -0.23248        1.03293       -4.88445
| 12> H          0.51170        2.49579       -4.26797
| 13> O          1.26606       -1.15918       -5.80536
| 14> H          1.24200       -0.33323       -3.43942
| 15> H          0.23391        0.76629       -2.52954
| 16> H          1.92506        1.13113       -2.77446
| 17> *
| 18>
| 19> %MaxCore 64000
| 20>
| 21> %pal nprocs 8
| 22> end
| 23>
| 24> %scf
| 25>   MaxIter 150
| 26> end
| 27>
| 28>
| 29>                          ****END OF INPUT****

CARTESIAN COORDINATES (ANGSTROEM)
---------------------------------
  C      0.704660    1.443130   -4.503630
  C      1.728540    1.424320   -5.639440
  H      2.646720    1.953790   -5.381050
  H      1.299920    1.930610   -6.503610
  S      2.252630   -0.188110   -6.271840
  O      3.562610   -0.444460   -5.631550
  O      2.344940   -0.033740   -7.696500
  C      1.052550    0.695660   -3.214910
  H     -0.232480    1.032930   -4.884450
  H      0.511700    2.495790   -4.267970
  O      1.266060   -1.159180   -5.805360
  H      1.242000   -0.333230   -3.439420
  H      0.233910    0.766290   -2.529540
  H      1.925060    1.131130   -2.774460

 Total Charge           Charge          ....   -1
 Multiplicity           Mult            ....    1
 Number of Electrons    NEL             ....   66
 Basis Dimension        Dim             ....  212

ORBITAL ENERGIES
----------------

  NO   OCC          E(Eh)            E(eV)
   0   2.0000     -88.965107     -2420.8636
   1   2.0000     -19.000476      -517.0292
   2   2.0000     -18.994186      -516.8581
   3   2.0000     -18.984930      -516.6062
   4   2.0000     -10.133315      -275.7415
   5   2.0000     -10.124648      -275.5057
   6   2.0000     -10.113846      -275.2117
   7   2.0000      -8.018099      -218.1836
   8   2.0000      -5.988041      -162.9429
   9   2.0000      -5.987926      -162.9398
  10   2.0000      -5.987474      -162.9275
  11   2.0000      -1.018925       -27.7264
  12   2.0000      -0.875575       -23.8256
  13   2.0000      -0.851615       -23.1736
  14   2.0000      -0.736952       -20.0535
  15   2.0000      -0.647147       -17.6098
  16   2.0000      -0.548799       -14.9336
  17   2.0000      -0.456885       -12.4325
  18   2.0000      -0.407590       -11.0911
  19   2.0000      -0.392007       -10.6670
  20   2.0000      -0.368537       -10.0284
  21   2.0000      -0.354420        -9.6443
  22   2.0000      -0.337336        -9.1794
  23   2.0000      -0.326049        -8.8722
  24   2.0000      -0.292305        -7.9540
  25   2.0000      -0.287521        -7.8238
  26   2.0000      -0.272353        -7.4111
  27   2.0000      -0.223659        -6.0861
  28   2.0000      -0.221639        -6.0311
  29   2.0000      -0.185864        -5.0576
  30   2.0000      -0.176620        -4.8061
  31   2.0000      -0.168368        -4.5815
  32   2.0000      -0.134000        -3.6463
  33   0.0000       0.163007         4.4356
  34   0.0000       0.186256         5.0683
  35   0.0000       0.192550         5.2395
  36   0.0000       0.200361         5.4521
  37   0.0000       0.219441         5.9713

MULLIKEN ATOMIC CHARGES
-----------------------
   0 C :   -0.132860
   1 C :    0.175217
   2 H :   -0.085011
   3 H :   -0.074304
   4 S :    1.308312
   5 O :   -0.814534
   6 O :   -0.799746
   7 C :    0.990787
   8 H :   -0.083351
   9 H :   -0.223547
  10 O :   -0.830598
  11 H :   -0.208535
  12 H :   -0.117347
  13 H :   -0.104482
Sum of atomic charges:   -1.0000000

LOEWDIN ATOMIC CHARGES
----------------------
   0 C :   -0.095715
   1 C :   -0.079952
   2 H :    0.004247
   3 H :   -0.004247
   4 S :    0.867861
   5 O :   -0.602686
   6 O :   -0.574192
   7 C :    0.124074
   8 H :    0.016309
   9 H :    0.006312
  10 O :   -0.579178
  11 H :   -0.029946
  12 H :   -0.031445
  13 H :   -0.021442

  Mayer bond orders larger than 0.100000
B(  0-C ,  1-C ) :   1.2534 B(  0-C ,  2-H ) :   0.1392 B(  0-C ,  3-H ) :   0.1590
B(  0-C ,  7-C ) :   1.2507 B(  0-C ,  8-H ) :   0.8676 B(  0-C ,  9-H ) :   0.8342
B(  0-C , 11-H ) :   0.2382 B(  0-C , 12-H ) :   0.2478 B(  0-C , 13-H ) :   0.2391
B(  1-C ,  2-H ) :   0.8971 B(  1-C ,  3-H ) :   0.8656 B(  1-C ,  4-S ) :   0.8869
B(  1-C ,  8-H ) :   0.1547 B(  1-C ,  9-H ) :   0.1703 B(  4-S ,  5-O ) :   1.2546
B(  4-S ,  6-O ) :   1.3553 B(  4-S , 10-O ) :   1.2627 B(  7-C , 11-H ) :   0.7725
B(  7-C , 12-H ) :   0.6803 B(  7-C , 13-H ) :   0.7207

FINAL SINGLE POINT ENERGY      -741.930571677822

DIPOLE MOMENT
-------------
                                X             Y             Z
Electronic contribution:      4.36802      -5.58376      -8.00149
Nuclear contribution   :     -5.44810       7.35485       9.25157
                        -----------------------------------------
Total Dipole Moment    :     -1.08008       1.77108       1.25008
                        -----------------------------------------
Magnitude (a.u.)       :      2.42198
Magnitude (Debye)      :      6.15619

Rotational constants in cm-1:     0.135801     0.054229     0.051056
Rotational constants in MHz :  4071.225075  1625.746654  1530.611411

                             ****ORCA TERMINATED NORMALLY****
TOTAL RUN TIME: 0 days 0 hours 0 minutes 20 seconds 183 msec
