                         Program Version 5.0.0 -  RELEASE  -
|  1> !CAM-B3LYP RIJCOSX def2-SVPD def2/J TightSCF
|  2> *xyz 1 1
|  3> C          2.91632       -1.24259       -1.54313
|  4> C          3.46659       -1.59097       -2.88908
|  5> N          4.65227       -1.14316       -3.25969
|  6> N          2.75226       -2.29204       -3.72803
|  7> H          1.77836       -2.48960       -3.51274
|  8> H          2.94861       -2.20854       -4.71681
|  9> H          5.14672       -0.51251       -2.63385
| 10> H          4.78303       -1.00720       -4.25350
| 11> C          2.80408        0.29070       -1.35924
| 12> C          2.38838        1.09367       -2.59711
| 13> H          3.76342        0.67472       -0.99989
| 14> H          2.09479        0.46122       -0.54576
| 15> H          1.94047       -1.71653       -1.44116
| 16> H          3.55857       -1.66343       -0.76637
| 17> H          3.08894        0.91965       -3.38694
| 18> H          2.37301        2.13633       -2.35728
| 19> H          1.41303        0.78551       -2.91115
| 20> *
| 21>
| 22> %MaxCore 64000
| 23>
| 24> %pal nprocs 8
| 25> end
| 26>
| 27> %scf
| 28>   MaxIter 150
| 29> end
| 30>
| 31>
| 32>                          ****END OF INPUT****

CARTESIAN COORDINATES (ANGSTROEM)
---------------------------------
  C      2.916320   -1.242590   -1.543130
  C      3.466590   -1.590970   -2.889080
  N      4.652270   -1.143160   -3.259690
  N      2.752260   -2.292040   -3.728030
  H      1.778360   -2.489600   -3.512740
  H      2.948610   -2.208540   -4.716810
  H      5.146720   -0.512510   -2.633850
  H      4.783030   -1.007200   -4.253500
  C      2.804080    0.290700   -1.359240
  C      2.388380    1.093670   -2.597110
  H      3.763420    0.674720   -0.999890
  H      2.094790    0.461220   -0.545760
  H      1.940470   -1.716530   -1.441160
  H      3.558570   -1.663430   -0.766370
  H      3.088940    0.919650   -3.386940
  H      2.373010    2.136330   -2.357280
  H      1.413030    0.785510   -2.911150

 Total Charge           Charge          ....    1
 Multiplicity           Mult            ....    1
 Number of Electrons    NEL             ....   48
 Basis Dimension        Dim             ....  208

ORBITAL ENERGIES
----------------

  NO   OCC          E(Eh)            E(eV)
   0   2.0000     -14.653657      -398.7463
   1   2.0000     -14.647562      -398.5804
   2   2.0000     -10.585149      -288.0366
   3   2.0000     -10.456158      -284.5265
   4   2.0000     -10.426091      -283.7084
   5   2.0000     -10.395091      -282.8648
   6   2.0000      -1.286482       -35.0070
   7   2.0000      -1.184116       -32.2214
   8   2.0000      -1.053827       -28.6761
   9   2.0000      -0.968192       -26.3458
  10   2.0000      -0.910364       -24.7723
  11   2.0000      -0.859512       -23.3885
  12   2.0000      -0.841771       -22.9058
  13   2.0000      -0.805931       -21.9305
  14   2.0000      -0.767477       -20.8841
  15   2.0000      -0.737860       -20.0782
  16   2.0000      -0.702274       -19.1099
  17   2.0000      -0.663677       -18.0596
  18   2.0000      -0.646447       -17.5907
  19   2.0000      -0.634400       -17.2629
  20   2.0000      -0.578934       -15.7536
  21   2.0000      -0.574398       -15.6302
  22   2.0000      -0.565136       -15.3781
  23   2.0000      -0.556746       -15.1498
  24   0.0000      -0.173773        -4.7286
  25   0.0000      -0.123063        -3.3487
  26   0.0000      -0.084708        -2.3050
  27   0.0000      -0.082156        -2.2356
  28   0.0000      -0.054653        -1.4872

MULLIKEN ATOMIC CHARGES
-----------------------
   0 C :    0.464395
   1 C :    0.204774
   2 N :    0.224205
   3 N :    0.202764
   4 H :    0.028930
   5 H :   -0.115696
   6 H :    0.030863
   7 H :   -0.057810
   8 C :   -0.229081
   9 C :    1.001704
  10 H :   -0.066417
  11 H :   -0.244382
  12 H :    0.014196
  13 H :   -0.059616
  14 H :   -0.156929
  15 H :   -0.157300
  16 H :   -0.084600
Sum of atomic charges:    1.0000000

LOEWDIN ATOMIC CHARGES
----------------------
   0 C :    0.056217
   1 C :   -0.066591
   2 N :    0.290172
   3 N :    0.293129
   4 H :    0.055940
   5 H :    0.049521
   6 H :    0.053646
   7 H :    0.047159
   8 C :   -0.034871
   9 C :    0.143673
  10 H :    0.025570
  11 H :    0.038398
  12 H :    0.035838
  13 H :    0.053711
  14 H :   -0.037816
  15 H :    0.002758
  16 H :   -0.006454

  Mayer bond orders larger than 0.100000
B(  0-C ,  1-C ) :   1.2230 B(  0-C ,  8-C ) :   1.1777 B(  0-C , 11-H ) :   0.1298
B(  0-C , 12-H ) :   0.7372 B(  0-C , 13-H ) :   0.7108 B(  1-C ,  2-N ) :   1.2041
B(  1-C ,  3-N ) :   1.1432 B(  1-C , 12-H ) :   0.1817 B(  1-C , 13-H ) :   0.2175
B(  2-N ,  3-N ) :   0.1585 B(  2-N ,  6-H ) :   0.9919 B(  2-N ,  7-H ) :   1.1099
B(  3-N ,  4-H ) :   1.0405 B(  3-N ,  5-H ) :   1.1639 B(  4-H ,  5-H ) :  -0.1388
B(  6-H ,  7-H ) :  -0.1216 B(  8-C ,  9-C ) :   1.3043 B(  8-C , 10-H ) :   0.8753
B(  8-C , 11-H ) :   0.9425 B(  8-C , 12-H ) :   0.1658 B(  8-C , 13-H ) :   0.1051
B(  8-C , 14-H ) :   0.2470 B(  8-C , 15-H ) :   0.2491 B(  8-C , 16-H ) :   0.2110
B(  9-C , 14-H ) :   0.7646 B(  9-C , 15-H ) :   0.6961 B(  9-C , 16-H ) :   0.7302
B( 14-H , 16-H ) :   0.1037

FINAL SINGLE POINT ENERGY      -268.010048124591

DIPOLE MOMENT
-------------
                                X             Y             Z
Electronic contribution:      2.03099      -4.55728      -1.88204
Nuclear contribution   :     -1.81078       3.96608       0.97433
                        -----------------------------------------
Total Dipole Moment    :      0.22021      -0.59120      -0.90771
                        -----------------------------------------
Magnitude (a.u.)       :      1.10542
Magnitude (Debye)      :      2.80975

Rotational constants in cm-1:     0.170042     0.080945     0.078209
Rotational constants in MHz :  5097.737821  2426.678005  2344.636232

                             ****ORCA TERMINATED NORMALLY****
TOTAL RUN TIME: 0 days 0 hours 0 minutes 19 seconds 508 msec
