                         Program Version 5.0.0 -  RELEASE  -
|  1> !CAM-B3LYP RIJCOSX def2-SVPD def2/J TightSCF xyzfile
|  2>
|  3> *xyzfile 0 1 B.xyz
|  4>
|  5> %MaxCore 64000
|  6>
|  7> %pal nprocs 4
|  8> end
|  9>
| 10> %scf
| 11>   MaxIter 150
| 12> end
| 13>
| 14>
| 15>                          ****END OF INPUT****

CARTESIAN COORDINATES (ANGSTROEM)
---------------------------------
  C      2.916324   -1.242589   -1.543125
  C      0.704661    1.443129   -4.503630
  C      1.728539    1.424320   -5.639443
  H      2.646718    1.953794   -5.381054
  H      1.299916    1.930613   -6.503614
  S      2.252625   -0.188115   -6.271840
  C      3.466585   -1.590971   -2.889082
  N      4.652275   -1.143164   -3.259692
  N      2.752264   -2.292043   -3.728029
  H      1.778364   -2.489604   -3.512738
  H      2.948612   -2.208544   -4.716813
  H      5.146723   -0.512508   -2.633852
  H      4.783030   -1.007203   -4.253498
  O      3.562607   -0.444464   -5.631552
  O      2.344944   -0.033742   -7.696501
  C      2.804084    0.290698   -1.359243
  C      1.052550    0.695659   -3.214915
  H     -0.232483    1.032925   -4.884449
  H      0.511700    2.495794   -4.267966
  C      2.388380    1.093669   -2.597108
  H      3.763425    0.674718   -0.999889
  H      2.094788    0.461222   -0.545756
  O      1.266058   -1.159177   -5.805365
  H      3.167316    1.013242   -3.359430
  H      2.357690    2.149375   -2.310997
  H      1.039284   -0.368429   -3.449329
  H      0.250787    0.865605   -2.488283
  H      1.940472   -1.716529   -1.441161
  H      3.558569   -1.663433   -0.766371

 Total Charge           Charge          ....    0
 Multiplicity           Mult            ....    1
 Number of Electrons    NEL             ....  112
 Basis Dimension        Dim             ....  404

ORBITAL ENERGIES
----------------

  NO   OCC          E(Eh)            E(eV)
   0   2.0000     -89.118776     -2425.0452
   1   2.0000     -19.155928      -521.2593
   2   2.0000     -19.148682      -521.0621
   3   2.0000     -19.139746      -520.8190
   4   2.0000     -14.479984      -394.0204
   5   2.0000     -14.479633      -394.0108
   6   2.0000     -10.423950      -283.6501
   7   2.0000     -10.324898      -280.9548
   8   2.0000     -10.303644      -280.3764
   9   2.0000     -10.275231      -279.6032
  10   2.0000     -10.262646      -279.2608
  11   2.0000     -10.259489      -279.1749
  12   2.0000     -10.258453      -279.1467
  13   2.0000      -8.170762      -222.3377
  14   2.0000      -6.141492      -167.1185
  15   2.0000      -6.140524      -167.0921
  16   2.0000      -6.139549      -167.0656
  17   2.0000      -1.173630       -31.9361
  18   2.0000      -1.120058       -30.4783
  19   2.0000      -1.024228       -27.8707
  20   2.0000      -1.020023       -27.7562
  21   2.0000      -1.015160       -27.6239
  22   2.0000      -0.927218       -25.2309
  23   2.0000      -0.881028       -23.9740
  24   2.0000      -0.833229       -22.6733
  25   2.0000      -0.778956       -21.1965
  26   2.0000      -0.748578       -20.3698
  27   2.0000      -0.715191       -19.4613
  28   2.0000      -0.678905       -18.4740
  29   2.0000      -0.668204       -18.1828
  30   2.0000      -0.656391       -17.8613
  31   2.0000      -0.611588       -16.6422
  32   2.0000      -0.598865       -16.2959
  33   2.0000      -0.589906       -16.0522
  34   2.0000      -0.570597       -15.5267
  35   2.0000      -0.546378       -14.8677
  36   2.0000      -0.540226       -14.7003
  37   2.0000      -0.521571       -14.1927
  38   2.0000      -0.508385       -13.8339
  39   2.0000      -0.505269       -13.7491
  40   2.0000      -0.499416       -13.5898
  41   2.0000      -0.487525       -13.2662
  42   2.0000      -0.478592       -13.0232
  43   2.0000      -0.455528       -12.3955
  44   2.0000      -0.447693       -12.1823
  45   2.0000      -0.443051       -12.0560
  46   2.0000      -0.414741       -11.2857
  47   2.0000      -0.407998       -11.1022
  48   2.0000      -0.394544       -10.7361
  49   2.0000      -0.392081       -10.6691
  50   2.0000      -0.376288       -10.2393
  51   2.0000      -0.373680       -10.1684
  52   2.0000      -0.337007        -9.1704
  53   2.0000      -0.330591        -8.9959
  54   2.0000      -0.320271        -8.7150
  55   2.0000      -0.293859        -7.9963
  56   0.0000      -0.015313        -0.4167
  57   0.0000       0.014570         0.3965
  58   0.0000       0.037337         1.0160
  59   0.0000       0.052327         1.4239
  60   0.0000       0.056780         1.5451

MULLIKEN ATOMIC CHARGES
-----------------------
   0 C :    0.582866
   1 C :    0.651906
   2 C :    0.315803
   3 H :    0.021325
   4 H :   -0.292179
   5 S :    1.300191
   6 C :    0.129892
   7 N :    0.377463
   8 N :    0.409535
   9 H :    0.039061
  10 H :   -0.218304
  11 H :    0.016550
  12 H :   -0.268102
  13 O :   -0.852279
  14 O :   -0.737830
  15 C :    0.552695
  16 C :    0.421609
  17 H :   -0.059408
  18 H :   -0.144563
  19 C :    0.099845
  20 H :   -0.093237
  21 H :   -0.188972
  22 O :   -0.885080
  23 H :   -0.087165
  24 H :   -0.257072
  25 H :   -0.477506
  26 H :   -0.142425
  27 H :    0.063331
  28 H :   -0.277949
Sum of atomic charges:   -0.0000000

LOEWDIN ATOMIC CHARGES
----------------------
   0 C :    0.051817
   1 C :   -0.029636
   2 C :   -0.052750
   3 H :    0.007187
   4 H :    0.011795
   5 S :    0.938145
   6 C :   -0.065547
   7 N :    0.290747
   8 N :    0.304078
   9 H :    0.040705
  10 H :   -0.024559
  11 H :    0.038762
  12 H :   -0.035450
  13 O :   -0.572190
  14 O :   -0.514825
  15 C :   -0.004501
  16 C :   -0.020073
  17 H :    0.030270
  18 H :    0.026343
  19 C :   -0.021201
  20 H :    0.018319
  21 H :    0.027622
  22 O :   -0.550384
  23 H :   -0.002644
  24 H :    0.032874
  25 H :   -0.019723
  26 H :    0.029968
  27 H :    0.027864
  28 H :    0.036990

  Mayer bond orders larger than 0.100000
B(  0-C ,  6-C ) :   1.1618 B(  0-C , 15-C ) :   1.1309 B(  0-C , 21-H ) :   0.1322
B(  0-C , 27-H ) :   0.7050 B(  0-C , 28-H ) :   0.6245 B(  1-C ,  2-C ) :   1.1810
B(  1-C ,  4-H ) :   0.2196 B(  1-C , 16-C ) :   1.2278 B(  1-C , 17-H ) :   0.6091
B(  1-C , 18-H ) :   0.6839 B(  2-C ,  3-H ) :   0.8596 B(  2-C ,  4-H ) :   0.8208
B(  2-C ,  5-S ) :   0.9104 B(  2-C , 17-H ) :   0.1338 B(  2-C , 18-H ) :   0.1856
B(  5-S , 13-O ) :   1.1514 B(  5-S , 14-O ) :   1.4378 B(  5-S , 22-O ) :   1.2285
B(  6-C ,  7-N ) :   1.0985 B(  6-C ,  8-N ) :   1.2084 B(  6-C , 27-H ) :   0.2228
B(  6-C , 28-H ) :   0.2866 B(  7-N ,  8-N ) :   0.1678 B(  7-N , 11-H ) :   1.0026
B(  7-N , 12-H ) :   1.0958 B(  8-N ,  9-H ) :   0.9645 B(  8-N , 10-H ) :   1.0806
B(  9-H , 10-H ) :  -0.1338 B( 10-H , 13-O ) :   0.1225 B( 11-H , 12-H ) :  -0.1570
B( 12-H , 13-O ) :   0.1339 B( 15-C , 19-C ) :   1.2040 B( 15-C , 20-H ) :   0.6448
B( 15-C , 21-H ) :   0.7862 B( 15-C , 23-H ) :   0.1525 B( 15-C , 27-H ) :   0.1381
B( 16-C , 17-H ) :   0.3142 B( 16-C , 18-H ) :   0.1033 B( 16-C , 19-C ) :   1.2203
B( 16-C , 23-H ) :   0.1647 B( 16-C , 24-H ) :   0.1819 B( 16-C , 25-H ) :   0.7729
B( 16-C , 26-H ) :   0.6356 B( 17-H , 18-H ) :  -0.1248 B( 19-C , 20-H ) :   0.2880
B( 19-C , 21-H ) :   0.1744 B( 19-C , 23-H ) :   0.8367 B( 19-C , 24-H ) :   0.7711
B( 19-C , 25-H ) :   0.1494 B( 19-C , 26-H ) :   0.2321 B( 20-H , 21-H ) :  -0.1571

FINAL SINGLE POINT ENERGY     -1008.913237831822

DIPOLE MOMENT
-------------
                                X             Y             Z
Electronic contribution:      2.73791      -6.22348     -13.23831
Nuclear contribution   :     -1.90023       6.18953      17.82209
                        -----------------------------------------
Total Dipole Moment    :      0.83767      -0.03396       4.58378
                        -----------------------------------------
Magnitude (a.u.)       :      4.65982
Magnitude (Debye)      :     11.84431

Rotational constants in cm-1:     0.036337     0.018755     0.015005
Rotational constants in MHz :  1089.341704   562.266628   449.834770

                             ****ORCA TERMINATED NORMALLY****
TOTAL RUN TIME: 0 days 0 hours 3 minutes 37 seconds 624 msec
