                         Program Version 5.0.0 -  RELEASE  -
|  1> !CAM-B3LYP RIJCOSX def2-SVPD def2/J TightSCF
|  2> *xyz 0 1
|  3> C          0.70466        1.44313       -4.50363
|  4> C          1.72854        1.42432       -5.63944
|  5> H          2.64672        1.95379       -5.38105
|  6> H          1.29992        1.93061       -6.50361
|  7> S          2.25263       -0.18811       -6.27184
|  8> F          3.56261       -0.44446       -5.63155
|  9> O          2.34494       -0.03374       -7.69650
| 10> C          1.05255        0.69566       -3.21491
| 11> H         -0.23248        1.03293       -4.88445
| 12> H          0.51170        2.49579       -4.26797
| 13> O          1.26606       -1.15918       -5.80536
| 14> H          1.24200       -0.33323       -3.43942
| 15> H          0.23391        0.76629       -2.52954
| 16> H          1.92506        1.13113       -2.77446
| 17> *
| 18>
| 19> %MaxCore 64000
| 20>
| 21> %pal nprocs 8
| 22> end
| 23>
| 24> %scf
| 25>   MaxIter 150
| 26> end
| 27>
| 28>
| 29>                          ****END OF INPUT****

CARTESIAN COORDINATES (ANGSTROEM)
---------------------------------
  C      0.704660    1.443130   -4.503630
  C      1.728540    1.424320   -5.639440
  H      2.646720    1.953790   -5.381050
  H      1.299920    1.930610   -6.503610
  S      2.252630   -0.188110   -6.271840
  F      3.562610   -0.444460   -5.631550
  O      2.344940   -0.033740   -7.696500
  C      1.052550    0.695660   -3.214910
  H     -0.232480    1.032930   -4.884450
  H      0.511700    2.495790   -4.267970
  O      1.266060   -1.159180   -5.805360
  H      1.242000   -0.333230   -3.439420
  H      0.233910    0.766290   -2.529540
  H      1.925060    1.131130   -2.774460

 Total Charge           Charge          ....    0
 Multiplicity           Mult            ....    1
 Number of Electrons    NEL             ....   66
 Basis Dimension        Dim             ....  212

ORBITAL ENERGIES
----------------

  NO   OCC          E(Eh)            E(eV)
   0   2.0000     -89.220628     -2427.8167
   1   2.0000     -24.876128      -676.9139
   2   2.0000     -19.232754      -523.3498
   3   2.0000     -19.225151      -523.1430
   4   2.0000     -10.323490      -280.9164
   5   2.0000     -10.289485      -279.9911
   6   2.0000     -10.258443      -279.1464
   7   2.0000      -8.274395      -225.1577
   8   2.0000      -6.248390      -170.0273
   9   2.0000      -6.242114      -169.8566
  10   2.0000      -6.240820      -169.8214
  11   2.0000      -1.431196       -38.9448
  12   2.0000      -1.201630       -32.6980
  13   2.0000      -1.102117       -29.9901
  14   2.0000      -0.912261       -24.8239
  15   2.0000      -0.832210       -22.6456
  16   2.0000      -0.779955       -21.2237
  17   2.0000      -0.712546       -19.3894
  18   2.0000      -0.648694       -17.6519
  19   2.0000      -0.643932       -17.5223
  20   2.0000      -0.628522       -17.1029
  21   2.0000      -0.573130       -15.5957
  22   2.0000      -0.555247       -15.1090
  23   2.0000      -0.529079       -14.3970
  24   2.0000      -0.521785       -14.1985
  25   2.0000      -0.508788       -13.8448
  26   2.0000      -0.467149       -12.7118
  27   2.0000      -0.451924       -12.2975
  28   2.0000      -0.442507       -12.0412
  29   2.0000      -0.428440       -11.6584
  30   2.0000      -0.406204       -11.0534
  31   2.0000      -0.396160       -10.7800
  32   2.0000      -0.386550       -10.5186
  33   0.0000       0.028260         0.7690
  34   0.0000       0.050476         1.3735
  35   0.0000       0.059407         1.6166
  36   0.0000       0.061331         1.6689
  37   0.0000       0.081139         2.2079

MULLIKEN ATOMIC CHARGES
-----------------------
   0 C :   -0.092204
   1 C :    0.145361
   2 H :   -0.037389
   3 H :   -0.035306
   4 S :    1.447769
   5 F :   -0.400441
   6 O :   -0.656555
   7 C :    1.001104
   8 H :   -0.064082
   9 H :   -0.191700
  10 O :   -0.696853
  11 H :   -0.235211
  12 H :   -0.092335
  13 H :   -0.092160
Sum of atomic charges:    0.0000000

LOEWDIN ATOMIC CHARGES
----------------------
   0 C :   -0.072882
   1 C :   -0.039303
   2 H :    0.021173
   3 H :    0.024676
   4 S :    1.126448
   5 F :   -0.274868
   6 O :   -0.461483
   7 C :    0.139765
   8 H :    0.030611
   9 H :    0.031039
  10 O :   -0.471174
  11 H :   -0.030626
  12 H :   -0.009993
  13 H :   -0.013383

  Mayer bond orders larger than 0.100000
B(  0-C ,  1-C ) :   1.2897 B(  0-C ,  2-H ) :   0.1402 B(  0-C ,  3-H ) :   0.1472
B(  0-C ,  7-C ) :   1.2695 B(  0-C ,  8-H ) :   0.8679 B(  0-C ,  9-H ) :   0.8252
B(  0-C , 11-H ) :   0.2239 B(  0-C , 12-H ) :   0.2393 B(  0-C , 13-H ) :   0.2306
B(  1-C ,  2-H ) :   0.8819 B(  1-C ,  3-H ) :   0.8707 B(  1-C ,  4-S ) :   0.9441
B(  1-C ,  8-H ) :   0.1547 B(  1-C ,  9-H ) :   0.1696 B(  4-S ,  5-F ) :   0.6324
B(  4-S ,  6-O ) :   1.5763 B(  4-S , 10-O ) :   1.4902 B(  7-C , 11-H ) :   0.7687
B(  7-C , 12-H ) :   0.6917 B(  7-C , 13-H ) :   0.7253

FINAL SINGLE POINT ENERGY      -766.432040913063

DIPOLE MOMENT
-------------
                                X             Y             Z
Electronic contribution:      7.35911      -6.65424      -8.18923
Nuclear contribution   :     -7.21372       8.00417       9.21533
                        -----------------------------------------
Total Dipole Moment    :      0.14539       1.34993       1.02611
                        -----------------------------------------
Magnitude (a.u.)       :      1.70186
Magnitude (Debye)      :      4.32579

Rotational constants in cm-1:     0.129205     0.053290     0.050128
Rotational constants in MHz :  3873.458819  1597.595736  1502.810344

                             ****ORCA TERMINATED NORMALLY****
TOTAL RUN TIME: 0 days 0 hours 0 minutes 19 seconds 924 msec
