                         Program Version 5.0.0 -  RELEASE  -
|  1> !CAM-B3LYP RIJCOSX def2-SVPD def2/J TightSCF
|  2> *xyz 0 1
|  3> C          2.91632       -1.24259       -1.54313
|  4> C          3.46659       -1.59097       -2.88908
|  5> C          4.65227       -1.14316       -3.25969
|  6> N          2.75226       -2.29204       -3.72803
|  7> H          1.77836       -2.48960       -3.51274
|  8> H          2.94861       -2.20854       -4.71681
|  9> H          5.14672       -0.51251       -2.63385
| 10> H          4.78303       -1.00720       -4.25350
| 11> C          2.80408        0.29070       -1.35924
| 12> C          2.38838        1.09367       -2.59711
| 13> H          3.76342        0.67472       -0.99989
| 14> H          2.09479        0.46122       -0.54576
| 15> H          1.94047       -1.71653       -1.44116
| 16> H          3.55857       -1.66343       -0.76637
| 17> H          3.08894        0.91965       -3.38694
| 18> H          2.37301        2.13633       -2.35728
| 19> H          1.41303        0.78551       -2.91115
| 20> *
| 21>
| 22> %MaxCore 64000
| 23>
| 24> %pal nprocs 8
| 25> end
| 26>
| 27> %scf
| 28>   MaxIter 150
| 29> end
| 30>
| 31>
| 32>                          ****END OF INPUT****

CARTESIAN COORDINATES (ANGSTROEM)
---------------------------------
  C      2.916320   -1.242590   -1.543130
  C      3.466590   -1.590970   -2.889080
  C      4.652270   -1.143160   -3.259690
  N      2.752260   -2.292040   -3.728030
  H      1.778360   -2.489600   -3.512740
  H      2.948610   -2.208540   -4.716810
  H      5.146720   -0.512510   -2.633850
  H      4.783030   -1.007200   -4.253500
  C      2.804080    0.290700   -1.359240
  C      2.388380    1.093670   -2.597110
  H      3.763420    0.674720   -0.999890
  H      2.094790    0.461220   -0.545760
  H      1.940470   -1.716530   -1.441160
  H      3.558570   -1.663430   -0.766370
  H      3.088940    0.919650   -3.386940
  H      2.373010    2.136330   -2.357280
  H      1.413030    0.785510   -2.911150

 Total Charge           Charge          ....    0
 Multiplicity           Mult            ....    1
 Number of Electrons    NEL             ....   48
 Basis Dimension        Dim             ....  208

ORBITAL ENERGIES
----------------

  NO   OCC          E(Eh)            E(eV)
   0   2.0000     -14.410288      -392.1239
   1   2.0000     -10.281460      -279.7727
   2   2.0000     -10.260113      -279.1919
   3   2.0000     -10.256773      -279.1010
   4   2.0000     -10.237394      -278.5737
   5   2.0000     -10.188020      -277.2301
   6   2.0000      -1.014394       -27.6031
   7   2.0000      -0.872538       -23.7430
   8   2.0000      -0.804132       -21.8816
   9   2.0000      -0.764387       -20.8000
  10   2.0000      -0.681384       -18.5414
  11   2.0000      -0.632892       -17.2219
  12   2.0000      -0.591081       -16.0841
  13   2.0000      -0.554972       -15.1016
  14   2.0000      -0.527100       -14.3431
  15   2.0000      -0.506438       -13.7809
  16   2.0000      -0.470585       -12.8053
  17   2.0000      -0.458049       -12.4642
  18   2.0000      -0.434960       -11.8359
  19   2.0000      -0.431334       -11.7372
  20   2.0000      -0.402909       -10.9637
  21   2.0000      -0.391794       -10.6613
  22   2.0000      -0.390004       -10.6126
  23   2.0000      -0.249939        -6.8012
  24   0.0000       0.046887         1.2759
  25   0.0000       0.062075         1.6892
  26   0.0000       0.075723         2.0605
  27   0.0000       0.085417         2.3243
  28   0.0000       0.095494         2.5985

MULLIKEN ATOMIC CHARGES
-----------------------
   0 C :    0.659750
   1 C :   -0.471584
   2 C :    0.661533
   3 N :    0.248880
   4 H :   -0.091264
   5 H :   -0.130607
   6 H :   -0.194354
   7 H :   -0.429299
   8 C :   -0.266400
   9 C :    1.023776
  10 H :   -0.074760
  11 H :   -0.279258
  12 H :   -0.085004
  13 H :   -0.112380
  14 H :   -0.152040
  15 H :   -0.212172
  16 H :   -0.094817
Sum of atomic charges:   -0.0000000

LOEWDIN ATOMIC CHARGES
----------------------
   0 C :    0.017310
   1 C :   -0.272071
   2 C :    0.161817
   3 N :    0.179204
   4 H :    0.000926
   5 H :    0.008542
   6 H :   -0.076693
   7 H :   -0.083549
   8 C :   -0.056842
   9 C :    0.128045
  10 H :    0.015698
  11 H :    0.012944
  12 H :    0.009518
  13 H :    0.028763
  14 H :   -0.034976
  15 H :   -0.019767
  16 H :   -0.018871

  Mayer bond orders larger than 0.100000
B(  0-C ,  1-C ) :   1.2030 B(  0-C ,  8-C ) :   1.1692 B(  0-C , 11-H ) :   0.1952
B(  0-C , 12-H ) :   0.5811 B(  0-C , 13-H ) :   0.7243 B(  1-C ,  2-C ) :   2.1210
B(  1-C ,  3-N ) :   1.0703 B(  1-C ,  6-H ) :   0.2154 B(  1-C ,  7-H ) :   0.2984
B(  1-C , 12-H ) :   0.2925 B(  1-C , 13-H ) :   0.1930 B(  2-C ,  3-N ) :   0.2326
B(  2-C ,  6-H ) :   0.6197 B(  2-C ,  7-H ) :   0.6361 B(  3-N ,  4-H ) :   1.0347
B(  3-N ,  5-H ) :   1.0548 B(  4-H ,  5-H ) :  -0.1281 B(  8-C ,  9-C ) :   1.2666
B(  8-C , 10-H ) :   0.8716 B(  8-C , 11-H ) :   0.8997 B(  8-C , 12-H ) :   0.1734
B(  8-C , 13-H ) :   0.1244 B(  8-C , 14-H ) :   0.2842 B(  8-C , 15-H ) :   0.2637
B(  8-C , 16-H ) :   0.2288 B(  9-C , 14-H ) :   0.7630 B(  9-C , 15-H ) :   0.6779
B(  9-C , 16-H ) :   0.7162 B( 14-H , 16-H ) :   0.1063

FINAL SINGLE POINT ENERGY      -251.546832301153

DIPOLE MOMENT
-------------
                                X             Y             Z
Electronic contribution:      0.58631      -3.81290      -0.93605
Nuclear contribution   :     -1.45921       3.88617       0.81775
                        -----------------------------------------
Total Dipole Moment    :     -0.87291       0.07326      -0.11831
                        -----------------------------------------
Magnitude (a.u.)       :      0.88393
Magnitude (Debye)      :      2.24677

Rotational constants in cm-1:     0.176264     0.082132     0.079980
Rotational constants in MHz :  5284.261828  2462.256672  2397.741351

                             ****ORCA TERMINATED NORMALLY****
TOTAL RUN TIME: 0 days 0 hours 0 minutes 22 seconds 398 msec
