                         Program Version 5.0.0 -  RELEASE  -
|  1> !CAM-B3LYP RIJCOSX def2-SVPD def2/J TightSCF
|  2> *xyz 0 1
|  3> C          0.70466        1.44313       -4.50363
|  4> C          1.72854        1.42432       -5.63944
|  5> H          2.64672        1.95379       -5.38105
|  6> H          1.29992        1.93061       -6.50361
|  7> S          2.25263       -0.18811       -6.27184
|  8> O          3.56261       -0.44446       -5.63155
|  9> F          2.34494       -0.03374       -7.69650
| 10> C          1.05255        0.69566       -3.21491
| 11> H         -0.23248        1.03293       -4.88445
| 12> H          0.51170        2.49579       -4.26797
| 13> O          1.26606       -1.15918       -5.80536
| 14> H          1.24200       -0.33323       -3.43942
| 15> H          0.23391        0.76629       -2.52954
| 16> H          1.92506        1.13113       -2.77446
| 17> *
| 18>
| 19> %MaxCore 64000
| 20>
| 21> %pal nprocs 8
| 22> end
| 23>
| 24> %scf
| 25>   MaxIter 150
| 26> end
| 27>
| 28>
| 29>                          ****END OF INPUT****

CARTESIAN COORDINATES (ANGSTROEM)
---------------------------------
  C      0.704660    1.443130   -4.503630
  C      1.728540    1.424320   -5.639440
  H      2.646720    1.953790   -5.381050
  H      1.299920    1.930610   -6.503610
  S      2.252630   -0.188110   -6.271840
  O      3.562610   -0.444460   -5.631550
  F      2.344940   -0.033740   -7.696500
  C      1.052550    0.695660   -3.214910
  H     -0.232480    1.032930   -4.884450
  H      0.511700    2.495790   -4.267970
  O      1.266060   -1.159180   -5.805360
  H      1.242000   -0.333230   -3.439420
  H      0.233910    0.766290   -2.529540
  H      1.925060    1.131130   -2.774460

 Total Charge           Charge          ....    0
 Multiplicity           Mult            ....    1
 Number of Electrons    NEL             ....   66
 Basis Dimension        Dim             ....  212

ORBITAL ENERGIES
----------------

  NO   OCC          E(Eh)            E(eV)
   0   2.0000     -89.222510     -2427.8679
   1   2.0000     -24.899083      -677.5385
   2   2.0000     -19.225969      -523.1652
   3   2.0000     -19.217368      -522.9312
   4   2.0000     -10.324454      -280.9427
   5   2.0000     -10.289780      -279.9992
   6   2.0000     -10.251760      -278.9646
   7   2.0000      -8.276465      -225.2141
   8   2.0000      -6.250570      -170.0866
   9   2.0000      -6.244009      -169.9081
  10   2.0000      -6.242689      -169.8722
  11   2.0000      -1.469580       -39.9893
  12   2.0000      -1.188183       -32.3321
  13   2.0000      -1.081695       -29.4344
  14   2.0000      -0.911750       -24.8100
  15   2.0000      -0.838989       -22.8301
  16   2.0000      -0.790511       -21.5109
  17   2.0000      -0.716745       -19.5036
  18   2.0000      -0.673034       -18.3142
  19   2.0000      -0.661912       -18.0116
  20   2.0000      -0.628975       -17.1153
  21   2.0000      -0.567231       -15.4351
  22   2.0000      -0.557975       -15.1833
  23   2.0000      -0.531177       -14.4541
  24   2.0000      -0.518240       -14.1020
  25   2.0000      -0.494752       -13.4629
  26   2.0000      -0.459922       -12.5151
  27   2.0000      -0.445394       -12.1198
  28   2.0000      -0.439497       -11.9593
  29   2.0000      -0.423812       -11.5325
  30   2.0000      -0.398242       -10.8367
  31   2.0000      -0.387801       -10.5526
  32   2.0000      -0.372479       -10.1357
  33   0.0000       0.024909         0.6778
  34   0.0000       0.047331         1.2880
  35   0.0000       0.059870         1.6292
  36   0.0000       0.063129         1.7178
  37   0.0000       0.079327         2.1586

MULLIKEN ATOMIC CHARGES
-----------------------
   0 C :   -0.127513
   1 C :    0.153586
   2 H :   -0.042306
   3 H :   -0.030016
   4 S :    1.487445
   5 O :   -0.668695
   6 F :   -0.420856
   7 C :    1.006879
   8 H :   -0.063940
   9 H :   -0.192277
  10 O :   -0.692140
  11 H :   -0.227492
  12 H :   -0.093675
  13 H :   -0.089001
Sum of atomic charges:   -0.0000000

LOEWDIN ATOMIC CHARGES
----------------------
   0 C :   -0.068735
   1 C :   -0.044768
   2 H :    0.025917
   3 H :    0.012532
   4 S :    1.131276
   5 O :   -0.487570
   6 F :   -0.255043
   7 C :    0.145167
   8 H :    0.028313
   9 H :    0.031917
  10 O :   -0.473423
  11 H :   -0.025123
  12 H :   -0.010940
  13 H :   -0.009521

  Mayer bond orders larger than 0.100000
B(  0-C ,  1-C ) :   1.2956 B(  0-C ,  2-H ) :   0.1321 B(  0-C ,  3-H ) :   0.1683
B(  0-C ,  7-C ) :   1.2717 B(  0-C ,  8-H ) :   0.8658 B(  0-C ,  9-H ) :   0.8314
B(  0-C , 11-H ) :   0.2260 B(  0-C , 12-H ) :   0.2415 B(  0-C , 13-H ) :   0.2342
B(  1-C ,  2-H ) :   0.9114 B(  1-C ,  3-H ) :   0.8244 B(  1-C ,  4-S ) :   0.9288
B(  1-C ,  8-H ) :   0.1493 B(  1-C ,  9-H ) :   0.1660 B(  4-S ,  5-O ) :   1.4713
B(  4-S ,  6-F ) :   0.6991 B(  4-S , 10-O ) :   1.4635 B(  7-C , 11-H ) :   0.7734
B(  7-C , 12-H ) :   0.6838 B(  7-C , 13-H ) :   0.7222

FINAL SINGLE POINT ENERGY      -766.412121260021

DIPOLE MOMENT
-------------
                                X             Y             Z
Electronic contribution:      5.24037      -5.95080     -11.78652
Nuclear contribution   :     -5.90419       7.56246      11.43606
                        -----------------------------------------
Total Dipole Moment    :     -0.66381       1.61166      -0.35046
                        -----------------------------------------
Magnitude (a.u.)       :      1.77790
Magnitude (Debye)      :      4.51906

Rotational constants in cm-1:     0.133686     0.052402     0.049175
Rotational constants in MHz :  4007.807944  1570.986792  1474.216272

                             ****ORCA TERMINATED NORMALLY****
TOTAL RUN TIME: 0 days 0 hours 0 minutes 19 seconds 975 msec
