                         Program Version 5.0.0 -  RELEASE  -
|  1> !CAM-B3LYP RIJCOSX def2-SVPD def2/J TightSCF
|  2> *xyz 0 1
|  3> C          2.91632       -1.24259       -1.54313
|  4> C          3.46659       -1.59097       -2.88908
|  5> N          4.65227       -1.14316       -3.25969
|  6> C          2.75226       -2.29204       -3.72803
|  7> H          1.77836       -2.48960       -3.51274
|  8> H          2.94861       -2.20854       -4.71681
|  9> H          5.14672       -0.51251       -2.63385
| 10> H          4.78303       -1.00720       -4.25350
| 11> C          2.80408        0.29070       -1.35924
| 12> C          2.38838        1.09367       -2.59711
| 13> H          3.76342        0.67472       -0.99989
| 14> H          2.09479        0.46122       -0.54576
| 15> H          1.94047       -1.71653       -1.44116
| 16> H          3.55857       -1.66343       -0.76637
| 17> H          3.08894        0.91965       -3.38694
| 18> H          2.37301        2.13633       -2.35728
| 19> H          1.41303        0.78551       -2.91115
| 20> *
| 21>
| 22> %MaxCore 64000
| 23>
| 24> %pal nprocs 8
| 25> end
| 26>
| 27> %scf
| 28>   MaxIter 150
| 29> end
| 30>
| 31>
| 32>                          ****END OF INPUT****

CARTESIAN COORDINATES (ANGSTROEM)
---------------------------------
  C      2.916320   -1.242590   -1.543130
  C      3.466590   -1.590970   -2.889080
  N      4.652270   -1.143160   -3.259690
  C      2.752260   -2.292040   -3.728030
  H      1.778360   -2.489600   -3.512740
  H      2.948610   -2.208540   -4.716810
  H      5.146720   -0.512510   -2.633850
  H      4.783030   -1.007200   -4.253500
  C      2.804080    0.290700   -1.359240
  C      2.388380    1.093670   -2.597110
  H      3.763420    0.674720   -0.999890
  H      2.094790    0.461220   -0.545760
  H      1.940470   -1.716530   -1.441160
  H      3.558570   -1.663430   -0.766370
  H      3.088940    0.919650   -3.386940
  H      2.373010    2.136330   -2.357280
  H      1.413030    0.785510   -2.911150

 Total Charge           Charge          ....    0
 Multiplicity           Mult            ....    1
 Number of Electrons    NEL             ....   48
 Basis Dimension        Dim             ....  208

ORBITAL ENERGIES
----------------

  NO   OCC          E(Eh)            E(eV)
   0   2.0000     -14.406193      -392.0124
   1   2.0000     -10.279843      -279.7287
   2   2.0000     -10.260896      -279.2132
   3   2.0000     -10.258038      -279.1354
   4   2.0000     -10.242011      -278.6993
   5   2.0000     -10.192498      -277.3520
   6   2.0000      -1.009705       -27.4755
   7   2.0000      -0.870221       -23.6799
   8   2.0000      -0.814462       -22.1626
   9   2.0000      -0.762430       -20.7468
  10   2.0000      -0.675380       -18.3780
  11   2.0000      -0.634981       -17.2787
  12   2.0000      -0.597705       -16.2644
  13   2.0000      -0.540119       -14.6974
  14   2.0000      -0.530313       -14.4305
  15   2.0000      -0.523084       -14.2338
  16   2.0000      -0.464858       -12.6494
  17   2.0000      -0.459677       -12.5084
  18   2.0000      -0.443777       -12.0758
  19   2.0000      -0.431755       -11.7487
  20   2.0000      -0.400784       -10.9059
  21   2.0000      -0.396468       -10.7884
  22   2.0000      -0.383849       -10.4451
  23   2.0000      -0.257930        -7.0186
  24   0.0000       0.043422         1.1816
  25   0.0000       0.062964         1.7133
  26   0.0000       0.081722         2.2238
  27   0.0000       0.082434         2.2431
  28   0.0000       0.095686         2.6038

MULLIKEN ATOMIC CHARGES
-----------------------
   0 C :    0.500976
   1 C :   -0.473116
   2 N :    0.309154
   3 C :    0.462882
   4 H :   -0.114137
   5 H :   -0.480267
   6 H :   -0.061407
   7 H :   -0.080607
   8 C :   -0.238664
   9 C :    1.026656
  10 H :   -0.081724
  11 H :   -0.267561
  12 H :    0.091926
  13 H :   -0.129210
  14 H :   -0.191489
  15 H :   -0.134710
  16 H :   -0.138701
Sum of atomic charges:   -0.0000000

LOEWDIN ATOMIC CHARGES
----------------------
   0 C :    0.014888
   1 C :   -0.281123
   2 N :    0.179038
   3 C :    0.174424
   4 H :   -0.078914
   5 H :   -0.082298
   6 H :    0.003197
   7 H :    0.007918
   8 C :   -0.060464
   9 C :    0.126908
  10 H :    0.008632
  11 H :    0.014752
  12 H :    0.021079
  13 H :    0.022820
  14 H :   -0.037250
  15 H :   -0.019538
  16 H :   -0.014069

  Mayer bond orders larger than 0.100000
B(  0-C ,  1-C ) :   1.3525 B(  0-C ,  8-C ) :   1.1538 B(  0-C , 10-H ) :   0.1337
B(  0-C , 11-H ) :   0.1803 B(  0-C , 12-H ) :   0.7631 B(  0-C , 13-H ) :   0.6642
B(  1-C ,  2-N ) :   1.0642 B(  1-C ,  3-C ) :   2.0580 B(  1-C ,  4-H ) :   0.1078
B(  1-C ,  5-H ) :   0.3673 B(  1-C ,  8-C ) :   0.1288 B(  1-C , 12-H ) :   0.1285
B(  1-C , 13-H ) :   0.2821 B(  2-N ,  3-C ) :   0.3306 B(  2-N ,  6-H ) :   0.9570
B(  2-N ,  7-H ) :   0.9611 B(  3-C ,  4-H ) :   0.8247 B(  3-C ,  5-H ) :   0.5785
B(  4-H ,  5-H ) :   0.1070 B(  6-H ,  7-H ) :  -0.1165 B(  8-C ,  9-C ) :   1.2768
B(  8-C , 10-H ) :   0.8545 B(  8-C , 11-H ) :   0.9195 B(  8-C , 12-H ) :   0.1737
B(  8-C , 14-H ) :   0.2596 B(  8-C , 15-H ) :   0.2509 B(  8-C , 16-H ) :   0.2171
B(  9-C , 14-H ) :   0.7697 B(  9-C , 15-H ) :   0.6587 B(  9-C , 16-H ) :   0.7308
B( 14-H , 16-H ) :   0.1261

FINAL SINGLE POINT ENERGY      -251.551070962923

DIPOLE MOMENT
-------------
                                X             Y             Z
Electronic contribution:      2.18664      -2.82999      -0.54177
Nuclear contribution   :     -1.90863       3.61442       0.70697
                        -----------------------------------------
Total Dipole Moment    :      0.27802       0.78443       0.16520
                        -----------------------------------------
Magnitude (a.u.)       :      0.84848
Magnitude (Debye)      :      2.15666

Rotational constants in cm-1:     0.173428     0.083686     0.080523
Rotational constants in MHz :  5199.232598  2508.829970  2414.016775

                             ****ORCA TERMINATED NORMALLY****
TOTAL RUN TIME: 0 days 0 hours 0 minutes 20 seconds 969 msec
