                         Program Version 5.0.0 -  RELEASE  -
|  1> !CAM-B3LYP RIJCOSX def2-SVPD def2/J TightSCF
|  2> *xyz 0 1
|  3> C          0.70466        1.44313       -4.50363
|  4> C          1.72854        1.42432       -5.63944
|  5> H          2.64672        1.95379       -5.38105
|  6> H          1.29992        1.93061       -6.50361
|  7> S          2.25263       -0.18811       -6.27184
|  8> O          3.56261       -0.44446       -5.63155
|  9> O          2.34494       -0.03374       -7.69650
| 10> C          1.05255        0.69566       -3.21491
| 11> H         -0.23248        1.03293       -4.88445
| 12> H          0.51170        2.49579       -4.26797
| 13> F          1.26606       -1.15918       -5.80536
| 14> H          1.24200       -0.33323       -3.43942
| 15> H          0.23391        0.76629       -2.52954
| 16> H          1.92506        1.13113       -2.77446
| 17> *
| 18>
| 19> %MaxCore 64000
| 20>
| 21> %pal nprocs 8
| 22> end
| 23>
| 24> %scf
| 25>   MaxIter 150
| 26> end
| 27>
| 28>
| 29>                          ****END OF INPUT****

CARTESIAN COORDINATES (ANGSTROEM)
---------------------------------
  C      0.704660    1.443130   -4.503630
  C      1.728540    1.424320   -5.639440
  H      2.646720    1.953790   -5.381050
  H      1.299920    1.930610   -6.503610
  S      2.252630   -0.188110   -6.271840
  O      3.562610   -0.444460   -5.631550
  O      2.344940   -0.033740   -7.696500
  C      1.052550    0.695660   -3.214910
  H     -0.232480    1.032930   -4.884450
  H      0.511700    2.495790   -4.267970
  F      1.266060   -1.159180   -5.805360
  H      1.242000   -0.333230   -3.439420
  H      0.233910    0.766290   -2.529540
  H      1.925060    1.131130   -2.774460

 Total Charge           Charge          ....    0
 Multiplicity           Mult            ....    1
 Number of Electrons    NEL             ....   66
 Basis Dimension        Dim             ....  212

ORBITAL ENERGIES
----------------

  NO   OCC          E(Eh)            E(eV)
   0   2.0000     -89.220580     -2427.8154
   1   2.0000     -24.886864      -677.2060
   2   2.0000     -19.232397      -523.3401
   3   2.0000     -19.215910      -522.8915
   4   2.0000     -10.323091      -280.9056
   5   2.0000     -10.296869      -280.1920
   6   2.0000     -10.266676      -279.3704
   7   2.0000      -8.274450      -225.1592
   8   2.0000      -6.248612      -170.0334
   9   2.0000      -6.242061      -169.8551
  10   2.0000      -6.240697      -169.8180
  11   2.0000      -1.448079       -39.4042
  12   2.0000      -1.197054       -32.5735
  13   2.0000      -1.089179       -29.6381
  14   2.0000      -0.917203       -24.9584
  15   2.0000      -0.835130       -22.7250
  16   2.0000      -0.788463       -21.4552
  17   2.0000      -0.719779       -19.5862
  18   2.0000      -0.666868       -18.1464
  19   2.0000      -0.657972       -17.9043
  20   2.0000      -0.618197       -16.8220
  21   2.0000      -0.569927       -15.5085
  22   2.0000      -0.553467       -15.0606
  23   2.0000      -0.541864       -14.7449
  24   2.0000      -0.521691       -14.1959
  25   2.0000      -0.506910       -13.7937
  26   2.0000      -0.466823       -12.7029
  27   2.0000      -0.456982       -12.4351
  28   2.0000      -0.449696       -12.2369
  29   2.0000      -0.434591       -11.8258
  30   2.0000      -0.401809       -10.9338
  31   2.0000      -0.388561       -10.5733
  32   2.0000      -0.377715       -10.2782
  33   0.0000       0.022341         0.6079
  34   0.0000       0.053764         1.4630
  35   0.0000       0.058573         1.5938
  36   0.0000       0.060062         1.6344
  37   0.0000       0.077136         2.0990

MULLIKEN ATOMIC CHARGES
-----------------------
   0 C :   -0.109813
   1 C :    0.178726
   2 H :   -0.045742
   3 H :   -0.030950
   4 S :    1.424433
   5 O :   -0.672045
   6 O :   -0.649932
   7 C :    1.016597
   8 H :   -0.092552
   9 H :   -0.182113
  10 F :   -0.418940
  11 H :   -0.243244
  12 H :   -0.087854
  13 H :   -0.086570
Sum of atomic charges:   -0.0000000

LOEWDIN ATOMIC CHARGES
----------------------
   0 C :   -0.080440
   1 C :   -0.034015
   2 H :    0.033827
   3 H :    0.019646
   4 S :    1.122305
   5 O :   -0.489162
   6 O :   -0.461209
   7 C :    0.141212
   8 H :    0.024835
   9 H :    0.031717
  10 F :   -0.265129
  11 H :   -0.027671
  12 H :   -0.009946
  13 H :   -0.005969

  Mayer bond orders larger than 0.100000
B(  0-C ,  1-C ) :   1.2517 B(  0-C ,  2-H ) :   0.1367 B(  0-C ,  3-H ) :   0.1556
B(  0-C ,  7-C ) :   1.2723 B(  0-C ,  8-H ) :   0.8749 B(  0-C ,  9-H ) :   0.8295
B(  0-C , 11-H ) :   0.2242 B(  0-C , 12-H ) :   0.2411 B(  0-C , 13-H ) :   0.2370
B(  1-C ,  2-H ) :   0.8951 B(  1-C ,  3-H ) :   0.8705 B(  1-C ,  4-S ) :   0.9558
B(  1-C ,  8-H ) :   0.1423 B(  1-C ,  9-H ) :   0.1658 B(  4-S ,  5-O ) :   1.4828
B(  4-S ,  6-O ) :   1.5678 B(  4-S , 10-F ) :   0.6545 B(  7-C , 11-H ) :   0.7610
B(  7-C , 12-H ) :   0.6842 B(  7-C , 13-H ) :   0.7253

FINAL SINGLE POINT ENERGY      -766.421830485648

DIPOLE MOMENT
-------------
                                X             Y             Z
Electronic contribution:      3.36466      -7.83000      -8.45646
Nuclear contribution   :     -4.74391       8.77281       9.40225
                        -----------------------------------------
Total Dipole Moment    :     -1.37926       0.94281       0.94579
                        -----------------------------------------
Magnitude (a.u.)       :      1.91983
Magnitude (Debye)      :      4.87983

Rotational constants in cm-1:     0.129476     0.053470     0.050698
Rotational constants in MHz :  3881.594668  1602.990831  1519.898630

                             ****ORCA TERMINATED NORMALLY****
TOTAL RUN TIME: 0 days 0 hours 0 minutes 22 seconds 87 msec
