                         Program Version 5.0.0 -  RELEASE  -
|  1> !CAM-B3LYP RIJCOSX def2-SVPD def2/J TightSCF xyzfile
|  2>
|  3> *xyzfile 0 1 D1.xyz
|  4>
|  5> %MaxCore 64000
|  6>
|  7> %pal nprocs 4
|  8> end
|  9>
| 10> %scf
| 11>   MaxIter 150
| 12> end
| 13>
| 14>
| 15>                          ****END OF INPUT****

CARTESIAN COORDINATES (ANGSTROEM)
---------------------------------
  C      2.916324   -1.242589   -1.543125
  C      0.704661    1.443129   -4.503630
  C      1.728539    1.424320   -5.639443
  H      2.646718    1.953794   -5.381054
  H      1.299916    1.930613   -6.503614
  S      2.252625   -0.188115   -6.271840
  C      3.466585   -1.590971   -2.889082
  C      4.652275   -1.143164   -3.259692
  N      2.752264   -2.292043   -3.728029
  H      1.778364   -2.489604   -3.512738
  H      2.948612   -2.208544   -4.716813
  H      5.146723   -0.512508   -2.633852
  H      4.783030   -1.007203   -4.253498
  F      3.562607   -0.444464   -5.631552
  O      2.344944   -0.033742   -7.696501
  C      2.804084    0.290698   -1.359243
  C      1.052550    0.695659   -3.214915
  H     -0.232483    1.032925   -4.884449
  H      0.511700    2.495794   -4.267966
  C      2.388380    1.093669   -2.597108
  H      3.763425    0.674718   -0.999889
  H      2.094788    0.461222   -0.545756
  O      1.266058   -1.159177   -5.805365
  H      3.167316    1.013242   -3.359430
  H      2.357690    2.149375   -2.310997
  H      1.039284   -0.368429   -3.449329
  H      0.250787    0.865605   -2.488283
  H      1.940472   -1.716529   -1.441161
  H      3.558569   -1.663433   -0.766371

 Total Charge           Charge          ....    0
 Multiplicity           Mult            ....    1
 Number of Electrons    NEL             ....  112
 Basis Dimension        Dim             ....  404

ORBITAL ENERGIES
----------------

  NO   OCC          E(Eh)            E(eV)
   0   2.0000     -89.230467     -2428.0844
   1   2.0000     -24.886115      -677.1856
   2   2.0000     -19.240354      -523.5566
   3   2.0000     -19.235961      -523.4371
   4   2.0000     -14.401020      -391.8717
   5   2.0000     -10.327257      -281.0190
   6   2.0000     -10.290786      -280.0265
   7   2.0000     -10.280122      -279.7363
   8   2.0000     -10.267314      -279.3878
   9   2.0000     -10.264302      -279.3059
  10   2.0000     -10.262564      -279.2586
  11   2.0000     -10.262418      -279.2546
  12   2.0000     -10.185348      -277.1574
  13   2.0000      -8.283142      -225.3958
  14   2.0000      -6.257285      -170.2694
  15   2.0000      -6.250972      -170.0976
  16   2.0000      -6.249485      -170.0571
  17   2.0000      -1.443282       -39.2737
  18   2.0000      -1.210943       -32.9514
  19   2.0000      -1.112539       -30.2737
  20   2.0000      -1.010701       -27.5026
  21   2.0000      -0.923657       -25.1340
  22   2.0000      -0.884373       -24.0650
  23   2.0000      -0.844056       -22.9679
  24   2.0000      -0.813563       -22.1382
  25   2.0000      -0.778630       -21.1876
  26   2.0000      -0.766546       -20.8588
  27   2.0000      -0.713882       -19.4257
  28   2.0000      -0.675804       -18.3896
  29   2.0000      -0.661213       -17.9925
  30   2.0000      -0.650694       -17.7063
  31   2.0000      -0.640201       -17.4208
  32   2.0000      -0.623282       -16.9604
  33   2.0000      -0.589246       -16.0342
  34   2.0000      -0.576468       -15.6865
  35   2.0000      -0.568289       -15.4639
  36   2.0000      -0.551709       -15.0128
  37   2.0000      -0.549151       -14.9432
  38   2.0000      -0.536671       -14.6036
  39   2.0000      -0.517990       -14.0952
  40   2.0000      -0.506499       -13.7826
  41   2.0000      -0.495362       -13.4795
  42   2.0000      -0.474390       -12.9088
  43   2.0000      -0.464585       -12.6420
  44   2.0000      -0.456452       -12.4207
  45   2.0000      -0.451571       -12.2879
  46   2.0000      -0.444549       -12.0968
  47   2.0000      -0.427871       -11.6430
  48   2.0000      -0.421556       -11.4711
  49   2.0000      -0.413167       -11.2428
  50   2.0000      -0.407091       -11.0775
  51   2.0000      -0.397413       -10.8142
  52   2.0000      -0.391653       -10.6574
  53   2.0000      -0.388845       -10.5810
  54   2.0000      -0.383369       -10.4320
  55   2.0000      -0.246744        -6.7142
  56   0.0000       0.028991         0.7889
  57   0.0000       0.044572         1.2129
  58   0.0000       0.048247         1.3129
  59   0.0000       0.051338         1.3970
  60   0.0000       0.064313         1.7501

MULLIKEN ATOMIC CHARGES
-----------------------
   0 C :    0.762016
   1 C :    0.659934
   2 C :    0.283366
   3 H :    0.067888
   4 H :   -0.301396
   5 S :    1.513480
   6 C :   -0.623309
   7 C :    0.836530
   8 N :    0.499673
   9 H :   -0.025907
  10 H :   -0.228328
  11 H :   -0.046508
  12 H :   -0.741311
  13 F :   -0.590522
  14 O :   -0.622160
  15 C :    0.503000
  16 C :    0.465010
  17 H :   -0.051321
  18 H :   -0.119677
  19 C :    0.133509
  20 H :   -0.083879
  21 H :   -0.210178
  22 O :   -0.791364
  23 H :   -0.141154
  24 H :   -0.248672
  25 H :   -0.482274
  26 H :   -0.146785
  27 H :    0.024729
  28 H :   -0.294390
Sum of atomic charges:   -0.0000000

LOEWDIN ATOMIC CHARGES
----------------------
   0 C :    0.028712
   1 C :   -0.023112
   2 C :   -0.026142
   3 H :    0.018715
   4 H :    0.024736
   5 S :    1.143933
   6 C :   -0.248782
   7 C :    0.171015
   8 N :    0.194304
   9 H :    0.008221
  10 H :   -0.040544
  11 H :   -0.073094
  12 H :   -0.119223
  13 F :   -0.284851
  14 O :   -0.447151
  15 C :   -0.007361
  16 C :   -0.016464
  17 H :    0.032805
  18 H :    0.035912
  19 C :   -0.024810
  20 H :    0.020210
  21 H :    0.018377
  22 O :   -0.465981
  23 H :   -0.007128
  24 H :    0.027338
  25 H :   -0.015473
  26 H :    0.034351
  27 H :    0.012524
  28 H :    0.028961

  Mayer bond orders larger than 0.100000
B(  0-C ,  6-C ) :   1.2948 B(  0-C ,  8-N ) :   0.1017 B(  0-C , 15-C ) :   1.0975
B(  0-C , 19-C ) :   0.1101 B(  0-C , 20-H ) :   0.1137 B(  0-C , 21-H ) :   0.2060
B(  0-C , 27-H ) :   0.5266 B(  0-C , 28-H ) :   0.6350 B(  1-C ,  2-C ) :   1.1920
B(  1-C ,  3-H ) :   0.1086 B(  1-C ,  4-H ) :   0.2191 B(  1-C , 16-C ) :   1.2208
B(  1-C , 17-H ) :   0.6115 B(  1-C , 18-H ) :   0.6832 B(  2-C ,  3-H ) :   0.8480
B(  2-C ,  4-H ) :   0.8390 B(  2-C ,  5-S ) :   0.9465 B(  2-C , 17-H ) :   0.1290
B(  2-C , 18-H ) :   0.1792 B(  5-S , 13-F ) :   0.6349 B(  5-S , 14-O ) :   1.5858
B(  5-S , 22-O ) :   1.4698 B(  6-C ,  7-C ) :   2.1863 B(  6-C ,  8-N ) :   1.0137
B(  6-C , 11-H ) :   0.1352 B(  6-C , 12-H ) :   0.3844 B(  6-C , 15-C ) :   0.1124
B(  6-C , 27-H ) :   0.3336 B(  6-C , 28-H ) :   0.2666 B(  7-C ,  8-N ) :   0.3479
B(  7-C , 11-H ) :   0.5415 B(  7-C , 12-H ) :   0.2327 B(  8-N ,  9-H ) :   0.8863
B(  8-N , 10-H ) :   0.9402 B(  8-N , 11-H ) :   0.1827 B(  9-H , 10-H ) :  -0.1411
B( 10-H , 12-H ) :   0.1062 B( 12-H , 13-F ) :   0.2964 B( 15-C , 19-C ) :   1.1815
B( 15-C , 20-H ) :   0.6398 B( 15-C , 21-H ) :   0.7675 B( 15-C , 23-H ) :   0.2082
B( 15-C , 27-H ) :   0.1578 B( 16-C , 17-H ) :   0.3150 B( 16-C , 19-C ) :   1.1878
B( 16-C , 23-H ) :   0.1591 B( 16-C , 24-H ) :   0.1800 B( 16-C , 25-H ) :   0.7709
B( 16-C , 26-H ) :   0.6378 B( 17-H , 18-H ) :  -0.1259 B( 19-C , 20-H ) :   0.3113
B( 19-C , 21-H ) :   0.2029 B( 19-C , 23-H ) :   0.8005 B( 19-C , 24-H ) :   0.7904
B( 19-C , 25-H ) :   0.1715 B( 19-C , 26-H ) :   0.2402 B( 20-H , 21-H ) :  -0.1602

FINAL SINGLE POINT ENERGY     -1016.777968356157

DIPOLE MOMENT
-------------
                                X             Y             Z
Electronic contribution:      2.12543      -4.86971     -18.52193
Nuclear contribution   :     -2.89481       6.29550      19.36835
                        -----------------------------------------
Total Dipole Moment    :     -0.76938       1.42579       0.84642
                        -----------------------------------------
Magnitude (a.u.)       :      1.82791
Magnitude (Debye)      :      4.64617

Rotational constants in cm-1:     0.036515     0.018832     0.015081
Rotational constants in MHz :  1094.679513   564.567051   452.109105

                             ****ORCA TERMINATED NORMALLY****
TOTAL RUN TIME: 0 days 0 hours 3 minutes 54 seconds 387 msec
