                         Program Version 5.0.0 -  RELEASE  -
|  1> !CAM-B3LYP RIJCOSX def2-SVPD def2/J TightSCF xyzfile
|  2>
|  3> *xyzfile 0 1 D3.xyz
|  4>
|  5> %MaxCore 64000
|  6>
|  7> %pal nprocs 4
|  8> end
|  9>
| 10> %scf
| 11>   MaxIter 150
| 12> end
| 13>
| 14>
| 15>                          ****END OF INPUT****

CARTESIAN COORDINATES (ANGSTROEM)
---------------------------------
  C      2.916324   -1.242589   -1.543125
  C      0.704661    1.443129   -4.503630
  C      1.728539    1.424320   -5.639443
  H      2.646718    1.953794   -5.381054
  H      1.299916    1.930613   -6.503614
  S      2.252625   -0.188115   -6.271840
  C      3.466585   -1.590971   -2.889082
  C      4.652275   -1.143164   -3.259692
  N      2.752264   -2.292043   -3.728029
  H      1.778364   -2.489604   -3.512738
  H      2.948612   -2.208544   -4.716813
  H      5.146723   -0.512508   -2.633852
  H      4.783030   -1.007203   -4.253498
  O      3.562607   -0.444464   -5.631552
  F      2.344944   -0.033742   -7.696501
  C      2.804084    0.290698   -1.359243
  C      1.052550    0.695659   -3.214915
  H     -0.232483    1.032925   -4.884449
  H      0.511700    2.495794   -4.267966
  C      2.388380    1.093669   -2.597108
  H      3.763425    0.674718   -0.999889
  H      2.094788    0.461222   -0.545756
  O      1.266058   -1.159177   -5.805365
  H      3.167316    1.013242   -3.359430
  H      2.357690    2.149375   -2.310997
  H      1.039284   -0.368429   -3.449329
  H      0.250787    0.865605   -2.488283
  H      1.940472   -1.716529   -1.441161
  H      3.558569   -1.663433   -0.766371

 Total Charge           Charge          ....    0
 Multiplicity           Mult            ....    1
 Number of Electrons    NEL             ....  112
 Basis Dimension        Dim             ....  404

ORBITAL ENERGIES
----------------

  NO   OCC          E(Eh)            E(eV)
   0   2.0000     -89.236098     -2428.2377
   1   2.0000     -24.909296      -677.8164
   2   2.0000     -19.240290      -523.5549
   3   2.0000     -19.231010      -523.3024
   4   2.0000     -14.376700      -391.2099
   5   2.0000     -10.331101      -281.1235
   6   2.0000     -10.292187      -280.0646
   7   2.0000     -10.260882      -279.2128
   8   2.0000     -10.256435      -279.0918
   9   2.0000     -10.251638      -278.9612
  10   2.0000     -10.250344      -278.9260
  11   2.0000     -10.246737      -278.8279
  12   2.0000     -10.159048      -276.4417
  13   2.0000      -8.289087      -225.5575
  14   2.0000      -6.263228      -170.4311
  15   2.0000      -6.256856      -170.2577
  16   2.0000      -6.255238      -170.2137
  17   2.0000      -1.479325       -40.2545
  18   2.0000      -1.204214       -32.7683
  19   2.0000      -1.097961       -29.8770
  20   2.0000      -0.986849       -26.8535
  21   2.0000      -0.923208       -25.1218
  22   2.0000      -0.875944       -23.8356
  23   2.0000      -0.843984       -22.9660
  24   2.0000      -0.807875       -21.9834
  25   2.0000      -0.776248       -21.1228
  26   2.0000      -0.750648       -20.4262
  27   2.0000      -0.713233       -19.4081
  28   2.0000      -0.684270       -18.6199
  29   2.0000      -0.677024       -18.4228
  30   2.0000      -0.648920       -17.6580
  31   2.0000      -0.639031       -17.3889
  32   2.0000      -0.608810       -16.5666
  33   2.0000      -0.580292       -15.7906
  34   2.0000      -0.571128       -15.5412
  35   2.0000      -0.568510       -15.4699
  36   2.0000      -0.552074       -15.0227
  37   2.0000      -0.542611       -14.7652
  38   2.0000      -0.522051       -14.2057
  39   2.0000      -0.509102       -13.8534
  40   2.0000      -0.498405       -13.5623
  41   2.0000      -0.484546       -13.1852
  42   2.0000      -0.473255       -12.8779
  43   2.0000      -0.454511       -12.3679
  44   2.0000      -0.448630       -12.2078
  45   2.0000      -0.432157       -11.7596
  46   2.0000      -0.426535       -11.6066
  47   2.0000      -0.418658       -11.3923
  48   2.0000      -0.411921       -11.2089
  49   2.0000      -0.402855       -10.9622
  50   2.0000      -0.394841       -10.7442
  51   2.0000      -0.391146       -10.6436
  52   2.0000      -0.381160       -10.3719
  53   2.0000      -0.372795       -10.1443
  54   2.0000      -0.365690        -9.9509
  55   2.0000      -0.222753        -6.0614
  56   0.0000       0.019030         0.5178
  57   0.0000       0.040603         1.1049
  58   0.0000       0.049340         1.3426
  59   0.0000       0.057009         1.5513
  60   0.0000       0.064549         1.7565

MULLIKEN ATOMIC CHARGES
-----------------------
   0 C :    0.756754
   1 C :    0.625847
   2 C :    0.268629
   3 H :    0.055357
   4 H :   -0.256091
   5 S :    1.591923
   6 C :   -0.630583
   7 C :    0.820889
   8 N :    0.483256
   9 H :   -0.027144
  10 H :   -0.230942
  11 H :   -0.095241
  12 H :   -0.686983
  13 O :   -0.777272
  14 F :   -0.461230
  15 C :    0.508466
  16 C :    0.446255
  17 H :   -0.044372
  18 H :   -0.120332
  19 C :    0.139535
  20 H :   -0.079042
  21 H :   -0.213998
  22 O :   -0.767632
  23 H :   -0.133277
  24 H :   -0.245503
  25 H :   -0.474738
  26 H :   -0.171477
  27 H :    0.015640
  28 H :   -0.296696
Sum of atomic charges:   -0.0000000

LOEWDIN ATOMIC CHARGES
----------------------
   0 C :    0.025370
   1 C :   -0.019134
   2 C :   -0.030287
   3 H :    0.023568
   4 H :    0.013284
   5 S :    1.179026
   6 C :   -0.250085
   7 C :    0.172254
   8 N :    0.193773
   9 H :    0.001761
  10 H :   -0.047810
  11 H :   -0.076603
  12 H :   -0.133921
  13 O :   -0.475631
  14 F :   -0.245407
  15 C :   -0.009314
  16 C :   -0.013171
  17 H :    0.030692
  18 H :    0.037257
  19 C :   -0.021782
  20 H :    0.019383
  21 H :    0.015312
  22 O :   -0.467243
  23 H :   -0.002657
  24 H :    0.024835
  25 H :   -0.012731
  26 H :    0.033465
  27 H :    0.009635
  28 H :    0.026162

  Mayer bond orders larger than 0.100000
B(  0-C ,  6-C ) :   1.2814 B(  0-C , 15-C ) :   1.0951 B(  0-C , 19-C ) :   0.1069
B(  0-C , 20-H ) :   0.1110 B(  0-C , 21-H ) :   0.2155 B(  0-C , 27-H ) :   0.5356
B(  0-C , 28-H ) :   0.6351 B(  1-C ,  2-C ) :   1.2232 B(  1-C ,  4-H ) :   0.2490
B(  1-C , 16-C ) :   1.2169 B(  1-C , 17-H ) :   0.6182 B(  1-C , 18-H ) :   0.6761
B(  2-C ,  3-H ) :   0.8736 B(  2-C ,  4-H ) :   0.7782 B(  2-C ,  5-S ) :   0.9754
B(  2-C , 17-H ) :   0.1196 B(  2-C , 18-H ) :   0.1853 B(  5-S , 13-O ) :   1.3743
B(  5-S , 14-F ) :   0.6069 B(  5-S , 22-O ) :   1.4234 B(  6-C ,  7-C ) :   2.1855
B(  6-C ,  8-N ) :   1.0051 B(  6-C , 11-H ) :   0.1343 B(  6-C , 12-H ) :   0.4049
B(  6-C , 15-C ) :   0.1046 B(  6-C , 27-H ) :   0.3303 B(  6-C , 28-H ) :   0.2711
B(  7-C ,  8-N ) :   0.3538 B(  7-C , 11-H ) :   0.5092 B(  7-C , 12-H ) :   0.2891
B(  8-N ,  9-H ) :   0.8898 B(  8-N , 10-H ) :   0.9261 B(  8-N , 11-H ) :   0.1870
B(  9-H , 10-H ) :  -0.1449 B( 10-H , 12-H ) :   0.1163 B( 10-H , 13-O ) :   0.1071
B( 12-H , 13-O ) :   0.2551 B( 13-O , 22-O ) :   0.1362 B( 15-C , 19-C ) :   1.1821
B( 15-C , 20-H ) :   0.6380 B( 15-C , 21-H ) :   0.7657 B( 15-C , 23-H ) :   0.1992
B( 15-C , 27-H ) :   0.1540 B( 16-C , 17-H ) :   0.3174 B( 16-C , 19-C ) :   1.2014
B( 16-C , 23-H ) :   0.1622 B( 16-C , 24-H ) :   0.1909 B( 16-C , 25-H ) :   0.7756
B( 16-C , 26-H ) :   0.6392 B( 17-H , 18-H ) :  -0.1198 B( 19-C , 20-H ) :   0.3088
B( 19-C , 21-H ) :   0.1994 B( 19-C , 23-H ) :   0.8136 B( 19-C , 24-H ) :   0.7610
B( 19-C , 25-H ) :   0.1754 B( 19-C , 26-H ) :   0.2344 B( 20-H , 21-H ) :  -0.1618

FINAL SINGLE POINT ENERGY     -1016.759868028703

DIPOLE MOMENT
-------------
                                X             Y             Z
Electronic contribution:      0.00829      -4.06795     -22.50460
Nuclear contribution   :     -1.50273       5.82595      21.72909
                        -----------------------------------------
Total Dipole Moment    :     -1.49444       1.75799      -0.77552
                        -----------------------------------------
Magnitude (a.u.)       :      2.43420
Magnitude (Debye)      :      6.18725

Rotational constants in cm-1:     0.036883     0.018294     0.014745
Rotational constants in MHz :  1105.724679   548.429785   442.050481

                             ****ORCA TERMINATED NORMALLY****
TOTAL RUN TIME: 0 days 0 hours 4 minutes 3 seconds 777 msec
