                         Program Version 5.0.0 -  RELEASE  -
|  1> !TPSS D3BJ RIJCOSX def2-SVP def2/J TightSCF
|  2> *xyz -1 1
|  3> C          3.80351        1.37472       -3.26081
|  4> C          3.93993        0.32036       -4.36773
|  5> H          4.10504       -0.65508       -3.90773
|  6> H          3.02280        0.28052       -4.95712
|  7> C          5.10585        0.66802       -5.30546
|  8> O          4.80913        1.15019       -6.41436
|  9> O          6.26737        0.56500       -4.81948
| 10> H          3.64113        2.33595       -3.70189
| 11> H          4.69995        1.39701       -2.67703
| 12> H          2.97435        1.12625       -2.63180
| 13> *
| 14>
| 15> %MaxCore 64000
| 16>
| 17> %pal nprocs 4
| 18> end
| 19>
| 20> %scf
| 21>   MaxIter 150
| 22> end
| 23>
| 24>
| 25>                          ****END OF INPUT****

CARTESIAN COORDINATES (ANGSTROEM)
---------------------------------
  C      3.803510    1.374720   -3.260810
  C      3.939930    0.320360   -4.367730
  H      4.105040   -0.655080   -3.907730
  H      3.022800    0.280520   -4.957120
  C      5.105850    0.668020   -5.305460
  O      4.809130    1.150190   -6.414360
  O      6.267370    0.565000   -4.819480
  H      3.641130    2.335950   -3.701890
  H      4.699950    1.397010   -2.677030
  H      2.974350    1.126250   -2.631800

 Total Charge           Charge          ....   -1
 Multiplicity           Mult            ....    1
 Number of Electrons    NEL             ....   40
 Basis Dimension        Dim             ....   95

ORBITAL ENERGIES
----------------

  NO   OCC          E(Eh)            E(eV)
   0   2.0000     -18.594062      -505.9702
   1   2.0000     -18.590838      -505.8824
   2   2.0000      -9.839629      -267.7499
   3   2.0000      -9.829336      -267.4698
   4   2.0000      -9.804190      -266.7856
   5   2.0000      -0.702042       -19.1035
   6   2.0000      -0.612801       -16.6752
   7   2.0000      -0.525447       -14.2981
   8   2.0000      -0.398259       -10.8372
   9   2.0000      -0.252008        -6.8575
  10   2.0000      -0.234776        -6.3886
  11   2.0000      -0.190101        -5.1729
  12   2.0000      -0.166308        -4.5255
  13   2.0000      -0.151155        -4.1131
  14   2.0000      -0.134238        -3.6528
  15   2.0000      -0.100812        -2.7432
  16   2.0000      -0.093969        -2.5570
  17   2.0000       0.026477         0.7205
  18   2.0000       0.038712         1.0534
  19   2.0000       0.054354         1.4790
  20   0.0000       0.207878         5.6566
  21   0.0000       0.252451         6.8695
  22   0.0000       0.260377         7.0852
  23   0.0000       0.270024         7.3477
  24   0.0000       0.279091         7.5944

MULLIKEN ATOMIC CHARGES
-----------------------
   0 C :    0.020796
   1 C :    0.016795
   2 H :   -0.054614
   3 H :   -0.062907
   4 C :    0.023852
   5 O :   -0.417057
   6 O :   -0.446394
   7 H :   -0.016098
   8 H :   -0.014646
   9 H :   -0.049728
Sum of atomic charges:   -1.0000000

LOEWDIN ATOMIC CHARGES
----------------------
   0 C :   -0.048853
   1 C :   -0.086372
   2 H :   -0.009067
   3 H :   -0.013117
   4 C :   -0.072292
   5 O :   -0.369965
   6 O :   -0.396743
   7 H :    0.005107
   8 H :    0.003929
   9 H :   -0.012627

  Mayer bond orders larger than 0.100000
B(  0-C ,  1-C ) :   1.1039 B(  0-C ,  7-H ) :   0.9673 B(  0-C ,  8-H ) :   0.9611
B(  0-C ,  9-H ) :   0.9620 B(  1-C ,  2-H ) :   0.9251 B(  1-C ,  3-H ) :   0.9267
B(  1-C ,  4-C ) :   0.9094 B(  4-C ,  5-O ) :   1.8525 B(  4-C ,  6-O ) :   1.8042
B(  5-O ,  6-O ) :   0.1371

Dispersion correction           -0.008096576
FINAL SINGLE POINT ENERGY      -267.660142271997

DIPOLE MOMENT
-------------
                                X             Y             Z
Electronic contribution:      3.97243      -0.41740      -4.70009
Nuclear contribution   :     -5.15232       0.33441       5.87398
                        -----------------------------------------
Total Dipole Moment    :     -1.17989      -0.08299       1.17388
                        -----------------------------------------
Magnitude (a.u.)       :      1.66644
Magnitude (Debye)      :      4.23576

Rotational constants in cm-1:     0.295355     0.137164     0.110193
Rotational constants in MHz :  8854.523706  4112.077980  3303.490503

                             ****ORCA TERMINATED NORMALLY****
TOTAL RUN TIME: 0 days 0 hours 0 minutes 5 seconds 26 msec
