                         Program Version 5.0.0 -  RELEASE  -
|  1> !TPSS D3BJ RIJCOSX def2-SVP def2/J TightSCF
|  2> *xyz 1 1
|  3> C          3.90595        2.81985       -3.75292
|  4> N          5.29562        3.13151       -4.10533
|  5> C          3.80351        1.37472       -3.26081
|  6> C          5.70862        3.46889       -5.32419
|  7> N          6.90470        3.03895       -5.71708
|  8> N          4.98188        4.29357       -6.09746
|  9> H          5.00055        4.10131       -7.08776
| 10> H          4.08469        4.59690       -5.73965
| 11> H          5.96336        2.52611       -3.64239
| 12> H          7.04716        2.06686       -5.47360
| 13> H          7.19815        3.30799       -6.64523
| 14> H          3.28202        2.94919       -4.64026
| 15> H          3.56525        3.51457       -2.98252
| 16> H          4.14157        0.71142       -4.02935
| 17> H          2.78528        1.15146       -3.01944
| 18> H          4.41205        1.25066       -2.38949
| 19> *
| 20>
| 21> %MaxCore 64000
| 22>
| 23> %pal nprocs 4
| 24> end
| 25>
| 26> %scf
| 27>   MaxIter 150
| 28> end
| 29>
| 30>
| 31>                          ****END OF INPUT****

CARTESIAN COORDINATES (ANGSTROEM)
---------------------------------
  C      3.905950    2.819850   -3.752920
  N      5.295620    3.131510   -4.105330
  C      3.803510    1.374720   -3.260810
  C      5.708620    3.468890   -5.324190
  N      6.904700    3.038950   -5.717080
  N      4.981880    4.293570   -6.097460
  H      5.000550    4.101310   -7.087760
  H      4.084690    4.596900   -5.739650
  H      5.963360    2.526110   -3.642390
  H      7.047160    2.066860   -5.473600
  H      7.198150    3.307990   -6.645230
  H      3.282020    2.949190   -4.640260
  H      3.565250    3.514570   -2.982520
  H      4.141570    0.711420   -4.029350
  H      2.785280    1.151460   -3.019440
  H      4.412050    1.250660   -2.389490

 Total Charge           Charge          ....    1
 Multiplicity           Mult            ....    1
 Number of Electrons    NEL             ....   48
 Basis Dimension        Dim             ....  134

ORBITAL ENERGIES
----------------

  NO   OCC          E(Eh)            E(eV)
   0   2.0000     -14.342234      -390.2720
   1   2.0000     -14.340875      -390.2351
   2   2.0000     -14.338572      -390.1724
   3   2.0000     -10.321720      -280.8683
   4   2.0000     -10.210419      -277.8396
   5   2.0000     -10.147583      -276.1298
   6   2.0000      -1.143623       -31.1196
   7   2.0000      -1.037375       -28.2284
   8   2.0000      -1.029634       -28.0178
   9   2.0000      -0.872094       -23.7309
  10   2.0000      -0.779280       -21.2053
  11   2.0000      -0.755607       -20.5611
  12   2.0000      -0.727681       -19.8012
  13   2.0000      -0.697146       -18.9703
  14   2.0000      -0.655876       -17.8473
  15   2.0000      -0.643832       -17.5196
  16   2.0000      -0.606764       -16.5109
  17   2.0000      -0.586387       -15.9564
  18   2.0000      -0.552507       -15.0345
  19   2.0000      -0.519799       -14.1445
  20   2.0000      -0.499108       -13.5814
  21   2.0000      -0.485377       -13.2078
  22   2.0000      -0.447358       -12.1732
  23   2.0000      -0.421606       -11.4725
  24   0.0000      -0.212413        -5.7800
  25   0.0000      -0.150570        -4.0972
  26   0.0000      -0.117357        -3.1935
  27   0.0000      -0.103552        -2.8178
  28   0.0000      -0.087440        -2.3794

MULLIKEN ATOMIC CHARGES
-----------------------
   0 C :    0.046539
   1 N :   -0.117506
   2 C :   -0.031760
   3 C :    0.021415
   4 N :   -0.017012
   5 N :   -0.027995
   6 H :    0.172175
   7 H :    0.170832
   8 H :    0.154486
   9 H :    0.172313
  10 H :    0.165533
  11 H :    0.043414
  12 H :    0.081805
  13 H :    0.034513
  14 H :    0.073881
  15 H :    0.057368
Sum of atomic charges:    1.0000000

LOEWDIN ATOMIC CHARGES
----------------------
   0 C :    0.050291
   1 N :    0.041100
   2 C :   -0.031816
   3 C :    0.113932
   4 N :    0.061230
   5 N :    0.061515
   6 H :    0.106854
   7 H :    0.106324
   8 H :    0.099131
   9 H :    0.106863
  10 H :    0.107428
  11 H :    0.025360
  12 H :    0.041831
  13 H :    0.025366
  14 H :    0.050517
  15 H :    0.034075

  Mayer bond orders larger than 0.100000
B(  0-C ,  1-N ) :   0.9262 B(  0-C ,  2-C ) :   1.1048 B(  0-C , 11-H ) :   0.9461
B(  0-C , 12-H ) :   0.9424 B(  1-N ,  3-C ) :   1.3868 B(  1-N ,  8-H ) :   0.9093
B(  2-C , 13-H ) :   0.9710 B(  2-C , 14-H ) :   0.9580 B(  2-C , 15-H ) :   0.9667
B(  3-C ,  4-N ) :   1.3663 B(  3-C ,  5-N ) :   1.3742 B(  4-N ,  9-H ) :   0.9283
B(  4-N , 10-H ) :   0.9279 B(  5-N ,  6-H ) :   0.9276 B(  5-N ,  7-H ) :   0.9220

Dispersion correction           -0.015036237
FINAL SINGLE POINT ENERGY      -284.237006579099

DIPOLE MOMENT
-------------
                                X             Y             Z
Electronic contribution:      3.55168       3.41336      -2.70459
Nuclear contribution   :     -3.31456      -3.64300       1.57303
                        -----------------------------------------
Total Dipole Moment    :      0.23711      -0.22964      -1.13156
                        -----------------------------------------
Magnitude (a.u.)       :      1.17872
Magnitude (Debye)      :      2.99606

Rotational constants in cm-1:     0.229487     0.071000     0.059428
Rotational constants in MHz :  6879.840828  2128.520047  1781.605314

                             ****ORCA TERMINATED NORMALLY****
TOTAL RUN TIME: 0 days 0 hours 0 minutes 7 seconds 599 msec
