                         Program Version 5.0.0 -  RELEASE  -
|  1> !TPSS D3BJ RIJCOSX def2-SVP def2/J TightSCF
|  2> *xyz 0 1
|  3> C          3.80351        1.37472       -3.26081
|  4> C          3.93993        0.32036       -4.36773
|  5> H          4.10504       -0.65508       -3.90773
|  6> H          3.02280        0.28052       -4.95712
|  7> C          5.10585        0.66802       -5.30546
|  8> F          4.80913        1.15019       -6.41436
|  9> O          6.26737        0.56500       -4.81948
| 10> H          3.64113        2.33595       -3.70189
| 11> H          4.69995        1.39701       -2.67703
| 12> H          2.97435        1.12625       -2.63180
| 13> *
| 14>
| 15> %MaxCore 64000
| 16>
| 17> %pal nprocs 4
| 18> end
| 19>
| 20> %scf
| 21>   MaxIter 150
| 22> end
| 23>
| 24>
| 25>                          ****END OF INPUT****

CARTESIAN COORDINATES (ANGSTROEM)
---------------------------------
  C      3.803510    1.374720   -3.260810
  C      3.939930    0.320360   -4.367730
  H      4.105040   -0.655080   -3.907730
  H      3.022800    0.280520   -4.957120
  C      5.105850    0.668020   -5.305460
  F      4.809130    1.150190   -6.414360
  O      6.267370    0.565000   -4.819480
  H      3.641130    2.335950   -3.701890
  H      4.699950    1.397010   -2.677030
  H      2.974350    1.126250   -2.631800

 Total Charge           Charge          ....    0
 Multiplicity           Mult            ....    1
 Number of Electrons    NEL             ....   40
 Basis Dimension        Dim             ....   95

ORBITAL ENERGIES
----------------

  NO   OCC          E(Eh)            E(eV)
   0   2.0000     -24.482954      -666.2151
   1   2.0000     -18.888308      -513.9770
   2   2.0000     -10.157255      -276.3930
   3   2.0000     -10.025475      -272.8071
   4   2.0000     -10.007818      -272.3266
   5   2.0000      -1.220866       -33.2215
   6   2.0000      -0.937838       -25.5199
   7   2.0000      -0.731736       -19.9116
   8   2.0000      -0.622215       -16.9313
   9   2.0000      -0.576475       -15.6867
  10   2.0000      -0.490389       -13.3442
  11   2.0000      -0.475113       -12.9285
  12   2.0000      -0.446427       -12.1479
  13   2.0000      -0.416873       -11.3437
  14   2.0000      -0.383709       -10.4413
  15   2.0000      -0.353823        -9.6280
  16   2.0000      -0.335373        -9.1260
  17   2.0000      -0.327225        -8.9043
  18   2.0000      -0.298725        -8.1287
  19   2.0000      -0.234130        -6.3710
  20   0.0000      -0.052628        -1.4321
  21   0.0000       0.050505         1.3743
  22   0.0000       0.094579         2.5736
  23   0.0000       0.095431         2.5968
  24   0.0000       0.116191         3.1617

MULLIKEN ATOMIC CHARGES
-----------------------
   0 C :    0.001396
   1 C :   -0.065391
   2 H :    0.054047
   3 H :    0.020408
   4 C :    0.220651
   5 F :   -0.051857
   6 O :   -0.268110
   7 H :    0.021150
   8 H :    0.040486
   9 H :    0.027220
Sum of atomic charges:   -0.0000000

LOEWDIN ATOMIC CHARGES
----------------------
   0 C :   -0.024920
   1 C :   -0.062600
   2 H :    0.042619
   3 H :    0.021129
   4 C :    0.080019
   5 F :    0.066787
   6 O :   -0.195270
   7 H :    0.020870
   8 H :    0.026900
   9 H :    0.024467

  Mayer bond orders larger than 0.100000
B(  0-C ,  1-C ) :   1.0892 B(  0-C ,  7-H ) :   0.9735 B(  0-C ,  8-H ) :   0.9706
B(  0-C ,  9-H ) :   0.9679 B(  1-C ,  2-H ) :   0.9364 B(  1-C ,  3-H ) :   0.9342
B(  1-C ,  4-C ) :   0.9951 B(  4-C ,  5-F ) :   1.2130 B(  4-C ,  6-O ) :   2.0354

Dispersion correction           -0.007667177
FINAL SINGLE POINT ENERGY      -292.214051830948

DIPOLE MOMENT
-------------
                                X             Y             Z
Electronic contribution:      4.12267       0.01254      -7.48930
Nuclear contribution   :     -5.17129      -0.01923       7.59895
                        -----------------------------------------
Total Dipole Moment    :     -1.04863      -0.00669       0.10964
                        -----------------------------------------
Magnitude (a.u.)       :      1.05436
Magnitude (Debye)      :      2.67998

Rotational constants in cm-1:     0.282073     0.131822     0.105134
Rotational constants in MHz :  8456.328792  3951.925810  3151.840112

                             ****ORCA TERMINATED NORMALLY****
TOTAL RUN TIME: 0 days 0 hours 0 minutes 4 seconds 962 msec
