                         Program Version 5.0.0 -  RELEASE  -
|  1> !TPSS D3BJ RIJCOSX def2-SVP def2/J TightSCF
|  2> *xyz 0 1
|  3> C          3.90595        2.81985       -3.75292
|  4> C          5.29562        3.13151       -4.10533
|  5> C          3.80351        1.37472       -3.26081
|  6> C          5.70862        3.46889       -5.32419
|  7> N          6.90470        3.03895       -5.71708
|  8> N          4.98188        4.29357       -6.09746
|  9> H          5.00055        4.10131       -7.08776
| 10> H          4.08469        4.59690       -5.73965
| 11> H          5.96336        2.52611       -3.64239
| 12> H          7.04716        2.06686       -5.47360
| 13> H          7.19815        3.30799       -6.64523
| 14> H          3.28202        2.94919       -4.64026
| 15> H          3.56525        3.51457       -2.98252
| 16> H          4.14157        0.71142       -4.02935
| 17> H          2.78528        1.15146       -3.01944
| 18> H          4.41205        1.25066       -2.38949
| 19> *
| 20>
| 21> %MaxCore 64000
| 22>
| 23> %pal nprocs 4
| 24> end
| 25>
| 26> %scf
| 27>   MaxIter 150
| 28> end
| 29>
| 30>
| 31>                          ****END OF INPUT****

CARTESIAN COORDINATES (ANGSTROEM)
---------------------------------
  C      3.905950    2.819850   -3.752920
  C      5.295620    3.131510   -4.105330
  C      3.803510    1.374720   -3.260810
  C      5.708620    3.468890   -5.324190
  N      6.904700    3.038950   -5.717080
  N      4.981880    4.293570   -6.097460
  H      5.000550    4.101310   -7.087760
  H      4.084690    4.596900   -5.739650
  H      5.963360    2.526110   -3.642390
  H      7.047160    2.066860   -5.473600
  H      7.198150    3.307990   -6.645230
  H      3.282020    2.949190   -4.640260
  H      3.565250    3.514570   -2.982520
  H      4.141570    0.711420   -4.029350
  H      2.785280    1.151460   -3.019440
  H      4.412050    1.250660   -2.389490

 Total Charge           Charge          ....    0
 Multiplicity           Mult            ....    1
 Number of Electrons    NEL             ....   48
 Basis Dimension        Dim             ....  134

ORBITAL ENERGIES
----------------

  NO   OCC          E(Eh)            E(eV)
   0   2.0000     -14.113689      -384.0530
   1   2.0000     -14.110333      -383.9617
   2   2.0000     -10.027088      -272.8509
   3   2.0000      -9.973574      -271.3947
   4   2.0000      -9.970620      -271.3144
   5   2.0000      -9.915840      -269.8237
   6   2.0000      -0.883359       -24.0374
   7   2.0000      -0.800678       -21.7876
   8   2.0000      -0.705471       -19.1969
   9   2.0000      -0.628123       -17.0921
  10   2.0000      -0.553160       -15.0522
  11   2.0000      -0.519749       -14.1431
  12   2.0000      -0.482599       -13.1322
  13   2.0000      -0.457957       -12.4616
  14   2.0000      -0.427163       -11.6237
  15   2.0000      -0.397825       -10.8254
  16   2.0000      -0.373631       -10.1670
  17   2.0000      -0.341515        -9.2931
  18   2.0000      -0.322391        -8.7727
  19   2.0000      -0.306555        -8.3418
  20   2.0000      -0.285275        -7.7627
  21   2.0000      -0.279545        -7.6068
  22   2.0000      -0.223510        -6.0820
  23   2.0000      -0.129919        -3.5353
  24   0.0000       0.027085         0.7370
  25   0.0000       0.052332         1.4240
  26   0.0000       0.072684         1.9778
  27   0.0000       0.074588         2.0296
  28   0.0000       0.094584         2.5738

MULLIKEN ATOMIC CHARGES
-----------------------
   0 C :    0.022953
   1 C :   -0.089088
   2 C :    0.010195
   3 C :   -0.130671
   4 N :   -0.068140
   5 N :   -0.064232
   6 H :    0.093045
   7 H :    0.116863
   8 H :   -0.087186
   9 H :    0.129663
  10 H :    0.090776
  11 H :   -0.030795
  12 H :   -0.001378
  13 H :   -0.002821
  14 H :   -0.002053
  15 H :    0.012871
Sum of atomic charges:   -0.0000000

LOEWDIN ATOMIC CHARGES
----------------------
   0 C :   -0.034348
   1 C :   -0.200641
   2 C :   -0.038669
   3 C :   -0.006897
   4 N :   -0.007761
   5 N :   -0.012956
   6 H :    0.054183
   7 H :    0.075705
   8 H :   -0.012607
   9 H :    0.078098
  10 H :    0.058498
  11 H :   -0.000693
  12 H :    0.009666
  13 H :    0.010421
  14 H :    0.011776
  15 H :    0.016225

  Mayer bond orders larger than 0.100000
B(  0-C ,  1-C ) :   1.0708 B(  0-C ,  2-C ) :   1.0943 B(  0-C , 11-H ) :   0.9373
B(  0-C , 12-H ) :   0.9239 B(  1-C ,  3-C ) :   1.6886 B(  1-C ,  8-H ) :   0.9215
B(  2-C , 13-H ) :   0.9704 B(  2-C , 14-H ) :   0.9613 B(  2-C , 15-H ) :   0.9721
B(  3-C ,  4-N ) :   1.1958 B(  3-C ,  5-N ) :   1.2391 B(  4-N ,  9-H ) :   0.9462
B(  4-N , 10-H ) :   0.9514 B(  5-N ,  6-H ) :   0.9388 B(  5-N ,  7-H ) :   0.9396

Dispersion correction           -0.015654278
FINAL SINGLE POINT ENERGY      -267.760372401834

DIPOLE MOMENT
-------------
                                X             Y             Z
Electronic contribution:      3.26093       3.31242      -2.94458
Nuclear contribution   :     -3.27358      -3.61654       1.70633
                        -----------------------------------------
Total Dipole Moment    :     -0.01265      -0.30412      -1.23826
                        -----------------------------------------
Magnitude (a.u.)       :      1.27512
Magnitude (Debye)      :      3.24110

Rotational constants in cm-1:     0.231961     0.071249     0.059473
Rotational constants in MHz :  6954.024434  2135.976855  1782.962814

                             ****ORCA TERMINATED NORMALLY****
TOTAL RUN TIME: 0 days 0 hours 0 minutes 15 seconds 819 msec
