                         Program Version 5.0.0 -  RELEASE  -
|  1> !TPSS D3BJ RIJCOSX def2-SVP def2/J TightSCF
|  2> *xyz 0 1
|  3> C          3.80351        1.37472       -3.26081
|  4> C          3.93993        0.32036       -4.36773
|  5> H          4.10504       -0.65508       -3.90773
|  6> H          3.02280        0.28052       -4.95712
|  7> C          5.10585        0.66802       -5.30546
|  8> O          4.80913        1.15019       -6.41436
|  9> F          6.26737        0.56500       -4.81948
| 10> H          3.64113        2.33595       -3.70189
| 11> H          4.69995        1.39701       -2.67703
| 12> H          2.97435        1.12625       -2.63180
| 13> *
| 14>
| 15> %MaxCore 64000
| 16>
| 17> %pal nprocs 4
| 18> end
| 19>
| 20> %scf
| 21>   MaxIter 150
| 22> end
| 23>
| 24>
| 25>                          ****END OF INPUT****

CARTESIAN COORDINATES (ANGSTROEM)
---------------------------------
  C      3.803510    1.374720   -3.260810
  C      3.939930    0.320360   -4.367730
  H      4.105040   -0.655080   -3.907730
  H      3.022800    0.280520   -4.957120
  C      5.105850    0.668020   -5.305460
  O      4.809130    1.150190   -6.414360
  F      6.267370    0.565000   -4.819480
  H      3.641130    2.335950   -3.701890
  H      4.699950    1.397010   -2.677030
  H      2.974350    1.126250   -2.631800

 Total Charge           Charge          ....    0
 Multiplicity           Mult            ....    1
 Number of Electrons    NEL             ....   40
 Basis Dimension        Dim             ....   95

ORBITAL ENERGIES
----------------

  NO   OCC          E(Eh)            E(eV)
   0   2.0000     -24.476548      -666.0407
   1   2.0000     -18.890903      -514.0476
   2   2.0000     -10.155588      -276.3476
   3   2.0000     -10.024911      -272.7917
   4   2.0000     -10.010406      -272.3970
   5   2.0000      -1.207585       -32.8601
   6   2.0000      -0.948306       -25.8047
   7   2.0000      -0.733695       -19.9649
   8   2.0000      -0.618068       -16.8185
   9   2.0000      -0.573812       -15.6142
  10   2.0000      -0.486008       -13.2249
  11   2.0000      -0.470571       -12.8049
  12   2.0000      -0.443593       -12.0708
  13   2.0000      -0.414949       -11.2913
  14   2.0000      -0.385868       -10.5000
  15   2.0000      -0.355470        -9.6728
  16   2.0000      -0.338643        -9.2150
  17   2.0000      -0.329809        -8.9746
  18   2.0000      -0.307116        -8.3571
  19   2.0000      -0.235432        -6.4064
  20   0.0000      -0.048636        -1.3235
  21   0.0000       0.047947         1.3047
  22   0.0000       0.092537         2.5181
  23   0.0000       0.097569         2.6550
  24   0.0000       0.121150         3.2966

MULLIKEN ATOMIC CHARGES
-----------------------
   0 C :   -0.012364
   1 C :   -0.060309
   2 H :    0.033057
   3 H :    0.047383
   4 C :    0.223061
   5 O :   -0.244017
   6 F :   -0.077960
   7 H :    0.034161
   8 H :    0.025940
   9 H :    0.031049
Sum of atomic charges:   -0.0000000

LOEWDIN ATOMIC CHARGES
----------------------
   0 C :   -0.030026
   1 C :   -0.060246
   2 H :    0.029126
   3 H :    0.038385
   4 C :    0.082703
   5 O :   -0.173722
   6 F :    0.042517
   7 H :    0.024647
   8 H :    0.020500
   9 H :    0.026116

  Mayer bond orders larger than 0.100000
B(  0-C ,  1-C ) :   1.0805 B(  0-C ,  7-H ) :   0.9730 B(  0-C ,  8-H ) :   0.9728
B(  0-C ,  9-H ) :   0.9678 B(  1-C ,  2-H ) :   0.9287 B(  1-C ,  3-H ) :   0.9471
B(  1-C ,  4-C ) :   1.0014 B(  4-C ,  5-O ) :   2.0710 B(  4-C ,  6-F ) :   1.1798

Dispersion correction           -0.007641660
FINAL SINGLE POINT ENERGY      -292.219194229241

DIPOLE MOMENT
-------------
                                X             Y             Z
Electronic contribution:      6.49255      -0.94200      -4.87570
Nuclear contribution   :     -6.76123       0.61881       5.86003
                        -----------------------------------------
Total Dipole Moment    :     -0.26868      -0.32320       0.98433
                        -----------------------------------------
Magnitude (a.u.)       :      1.07031
Magnitude (Debye)      :      2.72050

Rotational constants in cm-1:     0.275298     0.134631     0.105723
Rotational constants in MHz :  8253.224169  4036.137572  3169.487264

                             ****ORCA TERMINATED NORMALLY****
TOTAL RUN TIME: 0 days 0 hours 0 minutes 10 seconds 130 msec
