                         Program Version 5.0.0 -  RELEASE  -
|  1> !TPSS D3BJ RIJCOSX def2-SVP def2/J TightSCF
|  2> *xyz 0 1
|  3> C          3.90595        2.81985       -3.75292
|  4> N          5.29562        3.13151       -4.10533
|  5> C          3.80351        1.37472       -3.26081
|  6> C          5.70862        3.46889       -5.32419
|  7> C          6.90470        3.03895       -5.71708
|  8> N          4.98188        4.29357       -6.09746
|  9> H          5.00055        4.10131       -7.08776
| 10> H          4.08469        4.59690       -5.73965
| 11> H          5.96336        2.52611       -3.64239
| 12> H          7.04716        2.06686       -5.47360
| 13> H          7.19815        3.30799       -6.64523
| 14> H          3.28202        2.94919       -4.64026
| 15> H          3.56525        3.51457       -2.98252
| 16> H          4.14157        0.71142       -4.02935
| 17> H          2.78528        1.15146       -3.01944
| 18> H          4.41205        1.25066       -2.38949
| 19> *
| 20>
| 21> %MaxCore 64000
| 22>
| 23> %pal nprocs 4
| 24> end
| 25>
| 26> %scf
| 27>   MaxIter 150
| 28> end
| 29>
| 30>
| 31>                          ****END OF INPUT****

CARTESIAN COORDINATES (ANGSTROEM)
---------------------------------
  C      3.905950    2.819850   -3.752920
  N      5.295620    3.131510   -4.105330
  C      3.803510    1.374720   -3.260810
  C      5.708620    3.468890   -5.324190
  C      6.904700    3.038950   -5.717080
  N      4.981880    4.293570   -6.097460
  H      5.000550    4.101310   -7.087760
  H      4.084690    4.596900   -5.739650
  H      5.963360    2.526110   -3.642390
  H      7.047160    2.066860   -5.473600
  H      7.198150    3.307990   -6.645230
  H      3.282020    2.949190   -4.640260
  H      3.565250    3.514570   -2.982520
  H      4.141570    0.711420   -4.029350
  H      2.785280    1.151460   -3.019440
  H      4.412050    1.250660   -2.389490

 Total Charge           Charge          ....    0
 Multiplicity           Mult            ....    1
 Number of Electrons    NEL             ....   48
 Basis Dimension        Dim             ....  134

ORBITAL ENERGIES
----------------

  NO   OCC          E(Eh)            E(eV)
   0   2.0000     -14.113520      -384.0484
   1   2.0000     -14.109198      -383.9308
   2   2.0000     -10.037635      -273.1379
   3   2.0000     -10.030634      -272.9474
   4   2.0000     -10.001698      -272.1600
   5   2.0000      -9.906563      -269.5713
   6   2.0000      -0.888584       -24.1796
   7   2.0000      -0.812126       -22.0991
   8   2.0000      -0.707130       -19.2420
   9   2.0000      -0.639100       -17.3908
  10   2.0000      -0.572582       -15.5808
  11   2.0000      -0.539744       -14.6872
  12   2.0000      -0.481014       -13.0891
  13   2.0000      -0.445676       -12.1275
  14   2.0000      -0.437000       -11.8914
  15   2.0000      -0.407176       -11.0798
  16   2.0000      -0.377870       -10.2824
  17   2.0000      -0.355954        -9.6860
  18   2.0000      -0.337123        -9.1736
  19   2.0000      -0.333245        -9.0680
  20   2.0000      -0.328452        -8.9376
  21   2.0000      -0.291748        -7.9389
  22   2.0000      -0.213640        -5.8134
  23   2.0000      -0.133047        -3.6204
  24   0.0000       0.032147         0.8748
  25   0.0000       0.046410         1.2629
  26   0.0000       0.062052         1.6885
  27   0.0000       0.074769         2.0346
  28   0.0000       0.092602         2.5198

MULLIKEN ATOMIC CHARGES
-----------------------
   0 C :    0.083941
   1 N :   -0.148879
   2 C :   -0.024638
   3 C :   -0.075294
   4 C :   -0.079983
   5 N :   -0.085033
   6 H :    0.127440
   7 H :    0.098132
   8 H :    0.112435
   9 H :   -0.036745
  10 H :   -0.060801
  11 H :    0.000940
  12 H :    0.019565
  13 H :    0.026428
  14 H :    0.018248
  15 H :    0.024244
Sum of atomic charges:   -0.0000000

LOEWDIN ATOMIC CHARGES
----------------------
   0 C :    0.035316
   1 N :   -0.022258
   2 C :   -0.047463
   3 C :    0.014003
   4 C :   -0.247892
   5 N :   -0.007296
   6 H :    0.077563
   7 H :    0.058551
   8 H :    0.077923
   9 H :   -0.009932
  10 H :   -0.014020
  11 H :    0.008734
  12 H :    0.011888
  13 H :    0.021724
  14 H :    0.023339
  15 H :    0.019822

  Mayer bond orders larger than 0.100000
B(  0-C ,  1-N ) :   0.9910 B(  0-C ,  2-C ) :   1.1087 B(  0-C , 11-H ) :   0.9404
B(  0-C , 12-H ) :   0.9477 B(  1-N ,  3-C ) :   1.2249 B(  1-N ,  8-H ) :   0.9276
B(  2-C , 13-H ) :   0.9725 B(  2-C , 14-H ) :   0.9610 B(  2-C , 15-H ) :   0.9692
B(  3-C ,  4-C ) :   1.6983 B(  3-C ,  5-N ) :   1.2034 B(  4-C ,  9-H ) :   0.9442
B(  4-C , 10-H ) :   0.9440 B(  5-N ,  6-H ) :   0.9482 B(  5-N ,  7-H ) :   0.9487

Dispersion correction           -0.015520045
FINAL SINGLE POINT ENERGY      -267.752392061875

DIPOLE MOMENT
-------------
                                X             Y             Z
Electronic contribution:      1.53237       3.29361      -1.29128
Nuclear contribution   :     -2.93222      -3.63618       1.36440
                        -----------------------------------------
Total Dipole Moment    :     -1.39985      -0.34257       0.07312
                        -----------------------------------------
Magnitude (a.u.)       :      1.44301
Magnitude (Debye)      :      3.66784

Rotational constants in cm-1:     0.237993     0.072843     0.061284
Rotational constants in MHz :  7134.860770  2183.763760  1837.240960

                             ****ORCA TERMINATED NORMALLY****
TOTAL RUN TIME: 0 days 0 hours 0 minutes 13 seconds 924 msec
