                         Program Version 5.0.0 -  RELEASE  -
|  1> !TPSS D3BJ RIJCOSX def2-SVP def2/J TightSCF
|  2> *xyz 0 1
|  3> C          3.90595        2.81985       -3.75292
|  4> N          5.29562        3.13151       -4.10533
|  5> C          3.80351        1.37472       -3.26081
|  6> C          5.70862        3.46889       -5.32419
|  7> N          6.90470        3.03895       -5.71708
|  8> C          4.98188        4.29357       -6.09746
|  9> H          5.00055        4.10131       -7.08776
| 10> H          4.08469        4.59690       -5.73965
| 11> H          5.96336        2.52611       -3.64239
| 12> H          7.04716        2.06686       -5.47360
| 13> H          7.19815        3.30799       -6.64523
| 14> H          3.28202        2.94919       -4.64026
| 15> H          3.56525        3.51457       -2.98252
| 16> H          4.14157        0.71142       -4.02935
| 17> H          2.78528        1.15146       -3.01944
| 18> H          4.41205        1.25066       -2.38949
| 19> *
| 20>
| 21> %MaxCore 64000
| 22>
| 23> %pal nprocs 4
| 24> end
| 25>
| 26> %scf
| 27>   MaxIter 150
| 28> end
| 29>
| 30>
| 31>                          ****END OF INPUT****

CARTESIAN COORDINATES (ANGSTROEM)
---------------------------------
  C      3.905950    2.819850   -3.752920
  N      5.295620    3.131510   -4.105330
  C      3.803510    1.374720   -3.260810
  C      5.708620    3.468890   -5.324190
  N      6.904700    3.038950   -5.717080
  C      4.981880    4.293570   -6.097460
  H      5.000550    4.101310   -7.087760
  H      4.084690    4.596900   -5.739650
  H      5.963360    2.526110   -3.642390
  H      7.047160    2.066860   -5.473600
  H      7.198150    3.307990   -6.645230
  H      3.282020    2.949190   -4.640260
  H      3.565250    3.514570   -2.982520
  H      4.141570    0.711420   -4.029350
  H      2.785280    1.151460   -3.019440
  H      4.412050    1.250660   -2.389490

 Total Charge           Charge          ....    0
 Multiplicity           Mult            ....    1
 Number of Electrons    NEL             ....   48
 Basis Dimension        Dim             ....  134

ORBITAL ENERGIES
----------------

  NO   OCC          E(Eh)            E(eV)
   0   2.0000     -14.112268      -384.0143
   1   2.0000     -14.111562      -383.9951
   2   2.0000     -10.031532      -272.9719
   3   2.0000     -10.030159      -272.9345
   4   2.0000      -9.999508      -272.1004
   5   2.0000      -9.912137      -269.7230
   6   2.0000      -0.893402       -24.3107
   7   2.0000      -0.813912       -22.1477
   8   2.0000      -0.697320       -18.9751
   9   2.0000      -0.639042       -17.3892
  10   2.0000      -0.585776       -15.9398
  11   2.0000      -0.511973       -13.9315
  12   2.0000      -0.483306       -13.1514
  13   2.0000      -0.466077       -12.6826
  14   2.0000      -0.424799       -11.5594
  15   2.0000      -0.412232       -11.2174
  16   2.0000      -0.360752        -9.8165
  17   2.0000      -0.357787        -9.7359
  18   2.0000      -0.345782        -9.4092
  19   2.0000      -0.331377        -9.0172
  20   2.0000      -0.322270        -8.7694
  21   2.0000      -0.293669        -7.9911
  22   2.0000      -0.211300        -5.7498
  23   2.0000      -0.137025        -3.7286
  24   0.0000       0.030100         0.8191
  25   0.0000       0.049719         1.3529
  26   0.0000       0.063934         1.7397
  27   0.0000       0.078117         2.1257
  28   0.0000       0.092302         2.5117

MULLIKEN ATOMIC CHARGES
-----------------------
   0 C :    0.110364
   1 N :   -0.163893
   2 C :   -0.029851
   3 C :   -0.075390
   4 N :   -0.065712
   5 C :   -0.086319
   6 H :   -0.040897
   7 H :   -0.042703
   8 H :    0.088103
   9 H :    0.093087
  10 H :    0.114137
  11 H :    0.024005
  12 H :    0.020039
  13 H :    0.015691
  14 H :    0.020465
  15 H :    0.018873
Sum of atomic charges:    0.0000000

LOEWDIN ATOMIC CHARGES
----------------------
   0 C :    0.050176
   1 N :   -0.019555
   2 C :   -0.050385
   3 C :    0.005797
   4 N :   -0.010318
   5 C :   -0.236306
   6 H :   -0.010887
   7 H :   -0.011661
   8 H :    0.056253
   9 H :    0.054101
  10 H :    0.078539
  11 H :    0.021095
  12 H :    0.014629
  13 H :    0.016939
  14 H :    0.024903
  15 H :    0.016678

  Mayer bond orders larger than 0.100000
B(  0-C ,  1-N ) :   0.9922 B(  0-C ,  2-C ) :   1.1077 B(  0-C , 11-H ) :   0.9357
B(  0-C , 12-H ) :   0.9504 B(  1-N ,  3-C ) :   1.1921 B(  1-N ,  8-H ) :   0.9331
B(  2-C , 13-H ) :   0.9718 B(  2-C , 14-H ) :   0.9606 B(  2-C , 15-H ) :   0.9684
B(  3-C ,  4-N ) :   1.2255 B(  3-C ,  5-C ) :   1.6981 B(  4-N ,  9-H ) :   0.9417
B(  4-N , 10-H ) :   0.9438 B(  5-C ,  6-H ) :   0.9407 B(  5-C ,  7-H ) :   0.9388

Dispersion correction           -0.015559525
FINAL SINGLE POINT ENERGY      -267.756615284843

DIPOLE MOMENT
-------------
                                X             Y             Z
Electronic contribution:      3.48786       2.07459      -0.98910
Nuclear contribution   :     -3.34013      -3.37002       1.28371
                        -----------------------------------------
Total Dipole Moment    :      0.14772      -1.29543       0.29461
                        -----------------------------------------
Magnitude (a.u.)       :      1.33669
Magnitude (Debye)      :      3.39761

Rotational constants in cm-1:     0.239537     0.072280     0.060961
Rotational constants in MHz :  7181.153552  2166.902802  1827.551447

                             ****ORCA TERMINATED NORMALLY****
TOTAL RUN TIME: 0 days 0 hours 0 minutes 15 seconds 35 msec
