                         Program Version 5.0.0 -  RELEASE  -
|  1> !TPSS D3BJ RIJCOSX def2-TZVP def2/J TightSCF xyzfile
|  2>
|  3> *xyzfile 0 1 D2.xyz
|  4>
|  5> %MaxCore 64000
|  6>
|  7> %pal nprocs 18
|  8> end
|  9>
| 10> %scf
| 11>   MaxIter 150
| 12> end
| 13>
| 14>
| 15>                          ****END OF INPUT****

CARTESIAN COORDINATES (ANGSTROEM)
---------------------------------
  C      3.905947    2.819855   -3.752920
  N      5.295615    3.131515   -4.105334
  C      3.803511    1.374716   -3.260807
  C      3.939934    0.320362   -4.367729
  H      4.105043   -0.655085   -3.907733
  H      3.022801    0.280517   -4.957117
  C      5.105846    0.668022   -5.305463
  C      5.708619    3.468885   -5.324190
  C      6.904696    3.038954   -5.717084
  N      4.981884    4.293570   -6.097457
  H      5.000546    4.101311   -7.087761
  H      4.084693    4.596899   -5.739652
  H      5.963358    2.526112   -3.642391
  H      7.047164    2.066861   -5.473604
  H      7.198145    3.307994   -6.645225
  H      3.282025    2.949187   -4.640259
  H      3.565254    3.514574   -2.982523
  H      4.574833    1.215157   -2.500443
  H      2.843514    1.260845   -2.751465
  F      4.809132    1.150187   -6.414361
  O      6.267366    0.564999   -4.819481

 Total Charge           Charge          ....    0
 Multiplicity           Mult            ....    1
 Number of Electrons    NEL             ....   78
 Basis Dimension        Dim             ....  376

ORBITAL ENERGIES
----------------

  NO   OCC          E(Eh)            E(eV)
   0   2.0000     -24.483700      -666.2353
   1   2.0000     -18.886641      -513.9316
   2   2.0000     -14.102588      -383.7509
   3   2.0000     -14.099663      -383.6713
   4   2.0000     -10.156929      -276.3841
   5   2.0000     -10.032729      -273.0044
   6   2.0000     -10.023107      -272.7426
   7   2.0000     -10.015110      -272.5250
   8   2.0000     -10.013981      -272.4943
   9   2.0000      -9.879622      -268.8382
  10   2.0000      -1.249141       -33.9908
  11   2.0000      -0.966649       -26.3039
  12   2.0000      -0.903463       -24.5845
  13   2.0000      -0.828182       -22.5360
  14   2.0000      -0.760591       -20.6967
  15   2.0000      -0.687543       -18.7090
  16   2.0000      -0.643954       -17.5229
  17   2.0000      -0.607702       -16.5364
  18   2.0000      -0.571621       -15.5546
  19   2.0000      -0.545726       -14.8500
  20   2.0000      -0.505181       -13.7467
  21   2.0000      -0.494795       -13.4641
  22   2.0000      -0.482206       -13.1215
  23   2.0000      -0.462875       -12.5955
  24   2.0000      -0.452060       -12.3012
  25   2.0000      -0.438024       -11.9192
  26   2.0000      -0.425873       -11.5886
  27   2.0000      -0.399687       -10.8760
  28   2.0000      -0.377465       -10.2713
  29   2.0000      -0.364267        -9.9122
  30   2.0000      -0.349975        -9.5233
  31   2.0000      -0.348152        -9.4737
  32   2.0000      -0.332003        -9.0343
  33   2.0000      -0.326623        -8.8879
  34   2.0000      -0.304401        -8.2832
  35   2.0000      -0.296381        -8.0649
  36   2.0000      -0.238950        -6.5022
  37   2.0000      -0.220418        -5.9979
  38   2.0000      -0.135613        -3.6902
  39   0.0000      -0.069113        -1.8807
  40   0.0000       0.008395         0.2285
  41   0.0000       0.025762         0.7010
  42   0.0000       0.036565         0.9950
  43   0.0000       0.045273         1.2319

MULLIKEN ATOMIC CHARGES
-----------------------
   0 C :   -0.092132
   1 N :   -0.286592
   2 C :   -0.243485
   3 C :   -0.144559
   4 H :    0.125007
   5 H :    0.094706
   6 C :    0.326258
   7 C :    0.205629
   8 C :   -0.457761
   9 N :   -0.472888
  10 H :    0.247139
  11 H :    0.214036
  12 H :    0.238552
  13 H :    0.147083
  14 H :    0.063396
  15 H :    0.082895
  16 H :    0.116489
  17 H :    0.125555
  18 H :    0.103326
  19 F :   -0.059220
  20 O :   -0.333433
Sum of atomic charges:    0.0000000

LOEWDIN ATOMIC CHARGES
----------------------
   0 C :   -0.282285
   1 N :    0.130114
   2 C :   -0.255534
   3 C :   -0.225675
   4 H :    0.153028
   5 H :    0.138116
   6 C :   -0.523706
   7 C :   -0.504416
   8 C :   -0.330835
   9 N :   -0.007999
  10 H :    0.172063
  11 H :    0.154726
  12 H :    0.199907
  13 H :    0.102637
  14 H :    0.092481
  15 H :    0.127283
  16 H :    0.126098
  17 H :    0.143072
  18 H :    0.139141
  19 F :    0.372809
  20 O :    0.078975

  Mayer bond orders larger than 0.100000
B(  0-C ,  1-N ) :   0.9776 B(  0-C ,  2-C ) :   1.0144 B(  0-C , 15-H ) :   0.9543
B(  0-C , 16-H ) :   0.9497 B(  1-N ,  7-C ) :   1.1833 B(  1-N , 12-H ) :   0.9078
B(  2-C ,  3-C ) :   1.0114 B(  2-C , 17-H ) :   0.9541 B(  2-C , 18-H ) :   0.9349
B(  3-C ,  4-H ) :   0.9285 B(  3-C ,  5-H ) :   0.9305 B(  3-C ,  6-C ) :   1.0221
B(  6-C , 19-F ) :   1.1899 B(  6-C , 20-O ) :   1.9777 B(  7-C ,  8-C ) :   1.6837
B(  7-C ,  9-N ) :   1.0716 B(  8-C , 13-H ) :   0.9377 B(  8-C , 14-H ) :   1.0002
B(  9-N , 10-H ) :   0.9152 B(  9-N , 11-H ) :   0.9248

Dispersion correction           -0.028313333
FINAL SINGLE POINT ENERGY      -520.050729622435

DIPOLE MOMENT
-------------
                                X             Y             Z
Electronic contribution:      2.13628      -3.71285      -5.20418
Nuclear contribution   :     -4.40347       3.21582       5.36161
                        -----------------------------------------
Total Dipole Moment    :     -2.26719      -0.49703       0.15743
                        -----------------------------------------
Magnitude (a.u.)       :      2.32637
Magnitude (Debye)      :      5.91316

Rotational constants in cm-1:     0.061226     0.043199     0.033926
Rotational constants in MHz :  1835.503528  1295.087558  1017.061512

                             ****ORCA TERMINATED NORMALLY****
TOTAL RUN TIME: 0 days 0 hours 0 minutes 15 seconds 302 msec
