                         Program Version 5.0.0 -  RELEASE  -
|  1> !TPSS D3BJ RIJCOSX def2-TZVP def2/J TightSCF xyzfile
|  2>
|  3> *xyzfile 0 1 D3.xyz
|  4>
|  5> %MaxCore 64000
|  6>
|  7> %pal nprocs 18
|  8> end
|  9>
| 10> %scf
| 11>   MaxIter 150
| 12> end
| 13>
| 14>
| 15>                          ****END OF INPUT****

CARTESIAN COORDINATES (ANGSTROEM)
---------------------------------
  C      3.905947    2.819855   -3.752920
  N      5.295615    3.131515   -4.105334
  C      3.803511    1.374716   -3.260807
  C      3.939934    0.320362   -4.367729
  H      4.105043   -0.655085   -3.907733
  H      3.022801    0.280517   -4.957117
  C      5.105846    0.668022   -5.305463
  C      5.708619    3.468885   -5.324190
  N      6.904696    3.038954   -5.717084
  C      4.981884    4.293570   -6.097457
  H      5.000546    4.101311   -7.087761
  H      4.084693    4.596899   -5.739652
  H      5.963358    2.526112   -3.642391
  H      7.047164    2.066861   -5.473604
  H      7.198145    3.307994   -6.645225
  H      3.282025    2.949187   -4.640259
  H      3.565254    3.514574   -2.982523
  H      4.574833    1.215157   -2.500443
  H      2.843514    1.260845   -2.751465
  F      4.809132    1.150187   -6.414361
  O      6.267366    0.564999   -4.819481

 Total Charge           Charge          ....    0
 Multiplicity           Mult            ....    1
 Number of Electrons    NEL             ....   78
 Basis Dimension        Dim             ....  376

ORBITAL ENERGIES
----------------

  NO   OCC          E(Eh)            E(eV)
   0   2.0000     -24.494482      -666.5287
   1   2.0000     -18.904237      -514.4104
   2   2.0000     -14.105006      -383.8167
   3   2.0000     -14.081232      -383.1698
   4   2.0000     -10.172059      -276.7958
   5   2.0000     -10.029940      -272.9285
   6   2.0000     -10.028864      -272.8993
   7   2.0000     -10.016609      -272.5658
   8   2.0000     -10.016220      -272.5552
   9   2.0000      -9.896120      -269.2871
  10   2.0000      -1.259620       -34.2760
  11   2.0000      -0.984765       -26.7968
  12   2.0000      -0.904590       -24.6151
  13   2.0000      -0.825524       -22.4637
  14   2.0000      -0.760423       -20.6921
  15   2.0000      -0.683021       -18.5860
  16   2.0000      -0.647923       -17.6309
  17   2.0000      -0.621257       -16.9053
  18   2.0000      -0.582188       -15.8421
  19   2.0000      -0.521581       -14.1929
  20   2.0000      -0.515344       -14.0232
  21   2.0000      -0.502914       -13.6850
  22   2.0000      -0.486671       -13.2430
  23   2.0000      -0.469213       -12.7679
  24   2.0000      -0.457632       -12.4528
  25   2.0000      -0.440365       -11.9830
  26   2.0000      -0.429458       -11.6861
  27   2.0000      -0.395281       -10.7561
  28   2.0000      -0.382257       -10.4017
  29   2.0000      -0.366883        -9.9834
  30   2.0000      -0.351378        -9.5615
  31   2.0000      -0.348014        -9.4699
  32   2.0000      -0.338149        -9.2015
  33   2.0000      -0.332153        -9.0383
  34   2.0000      -0.320487        -8.7209
  35   2.0000      -0.294177        -8.0049
  36   2.0000      -0.267602        -7.2818
  37   2.0000      -0.214372        -5.8334
  38   2.0000      -0.141835        -3.8595
  39   0.0000      -0.082344        -2.2407
  40   0.0000       0.014122         0.3843
  41   0.0000       0.032790         0.8922
  42   0.0000       0.045974         1.2510
  43   0.0000       0.048300         1.3143

MULLIKEN ATOMIC CHARGES
-----------------------
   0 C :   -0.071263
   1 N :   -0.272055
   2 C :   -0.245180
   3 C :   -0.139203
   4 H :    0.125797
   5 H :    0.102309
   6 C :    0.321159
   7 C :    0.161439
   8 N :   -0.413390
   9 C :   -0.462693
  10 H :    0.091865
  11 H :    0.075407
  12 H :    0.208822
  13 H :    0.234239
  14 H :    0.230949
  15 H :    0.109645
  16 H :    0.116066
  17 H :    0.123840
  18 H :    0.107933
  19 F :   -0.041881
  20 O :   -0.363807
Sum of atomic charges:   -0.0000000

LOEWDIN ATOMIC CHARGES
----------------------
   0 C :   -0.266416
   1 N :    0.136289
   2 C :   -0.254589
   3 C :   -0.221751
   4 H :    0.153575
   5 H :    0.141493
   6 C :   -0.520232
   7 C :   -0.509747
   8 N :   -0.001388
   9 C :   -0.339293
  10 H :    0.094456
  11 H :    0.093184
  12 H :    0.181969
  13 H :    0.151078
  14 H :    0.171523
  15 H :    0.138241
  16 H :    0.129029
  17 H :    0.141901
  18 H :    0.141144
  19 F :    0.383589
  20 O :    0.055946

  Mayer bond orders larger than 0.100000
B(  0-C ,  1-N ) :   0.9750 B(  0-C ,  2-C ) :   1.0116 B(  0-C , 15-H ) :   0.9501
B(  0-C , 16-H ) :   0.9541 B(  1-N ,  7-C ) :   1.1436 B(  1-N , 12-H ) :   0.9131
B(  2-C ,  3-C ) :   1.0082 B(  2-C , 17-H ) :   0.9548 B(  2-C , 18-H ) :   0.9361
B(  3-C ,  4-H ) :   0.9260 B(  3-C ,  5-H ) :   0.9314 B(  3-C ,  6-C ) :   1.0214
B(  6-C , 19-F ) :   1.2168 B(  6-C , 20-O ) :   1.9217 B(  7-C ,  8-N ) :   1.2143
B(  7-C ,  9-C ) :   1.6769 B(  8-N , 13-H ) :   0.8699 B(  8-N , 14-H ) :   0.9182
B(  9-C , 10-H ) :   0.9694 B(  9-C , 11-H ) :   0.9938

Dispersion correction           -0.028305189
FINAL SINGLE POINT ENERGY      -520.069360337597

DIPOLE MOMENT
-------------
                                X             Y             Z
Electronic contribution:      3.64355      -4.80273      -4.89167
Nuclear contribution   :     -4.64021       3.37029       5.31478
                        -----------------------------------------
Total Dipole Moment    :     -0.99666      -1.43245       0.42311
                        -----------------------------------------
Magnitude (a.u.)       :      1.79562
Magnitude (Debye)      :      4.56410

Rotational constants in cm-1:     0.061077     0.043622     0.034103
Rotational constants in MHz :  1831.041375  1307.759852  1022.388536

                             ****ORCA TERMINATED NORMALLY****
TOTAL RUN TIME: 0 days 0 hours 0 minutes 16 seconds 125 msec
