                         Program Version 5.0.0 -  RELEASE  -
|  1> !TPSS D3BJ RIJCOSX def2-TZVP def2/J TightSCF xyzfile
|  2>
|  3> *xyzfile 0 1 D4.xyz
|  4>
|  5> %MaxCore 64000
|  6>
|  7> %pal nprocs 18
|  8> end
|  9>
| 10> %scf
| 11>   MaxIter 150
| 12> end
| 13>
| 14>
| 15>                          ****END OF INPUT****

CARTESIAN COORDINATES (ANGSTROEM)
---------------------------------
  C      3.905947    2.819855   -3.752920
  C      5.295615    3.131515   -4.105334
  C      3.803511    1.374716   -3.260807
  C      3.939934    0.320362   -4.367729
  H      4.105043   -0.655085   -3.907733
  H      3.022801    0.280517   -4.957117
  C      5.105846    0.668022   -5.305463
  C      5.708619    3.468885   -5.324190
  N      6.904696    3.038954   -5.717084
  N      4.981884    4.293570   -6.097457
  H      5.000546    4.101311   -7.087761
  H      4.084693    4.596899   -5.739652
  H      5.963358    2.526112   -3.642391
  H      7.047164    2.066861   -5.473604
  H      7.198145    3.307994   -6.645225
  H      3.282025    2.949187   -4.640259
  H      3.565254    3.514574   -2.982523
  H      4.574833    1.215157   -2.500443
  H      2.843514    1.260845   -2.751465
  O      4.809132    1.150187   -6.414361
  F      6.267366    0.564999   -4.819481

 Total Charge           Charge          ....    0
 Multiplicity           Mult            ....    1
 Number of Electrons    NEL             ....   78
 Basis Dimension        Dim             ....  376

ORBITAL ENERGIES
----------------

  NO   OCC          E(Eh)            E(eV)
   0   2.0000     -24.479057      -666.1090
   1   2.0000     -18.880818      -513.7732
   2   2.0000     -14.103014      -383.7625
   3   2.0000     -14.092476      -383.4758
   4   2.0000     -10.146258      -276.0937
   5   2.0000     -10.021667      -272.7034
   6   2.0000     -10.007426      -272.3159
   7   2.0000      -9.990682      -271.8603
   8   2.0000      -9.971681      -271.3432
   9   2.0000      -9.912539      -269.7339
  10   2.0000      -1.240468       -33.7549
  11   2.0000      -0.965902       -26.2835
  12   2.0000      -0.896837       -24.4042
  13   2.0000      -0.814098       -22.1527
  14   2.0000      -0.756206       -20.5774
  15   2.0000      -0.692703       -18.8494
  16   2.0000      -0.637085       -17.3360
  17   2.0000      -0.599885       -16.3237
  18   2.0000      -0.558196       -15.1893
  19   2.0000      -0.536782       -14.6066
  20   2.0000      -0.499324       -13.5873
  21   2.0000      -0.487806       -13.2739
  22   2.0000      -0.480461       -13.0740
  23   2.0000      -0.462863       -12.5951
  24   2.0000      -0.447128       -12.1670
  25   2.0000      -0.425374       -11.5750
  26   2.0000      -0.418043       -11.3755
  27   2.0000      -0.398211       -10.8359
  28   2.0000      -0.384181       -10.4541
  29   2.0000      -0.348539        -9.4842
  30   2.0000      -0.342471        -9.3191
  31   2.0000      -0.331568        -9.0224
  32   2.0000      -0.323142        -8.7931
  33   2.0000      -0.305379        -8.3098
  34   2.0000      -0.297447        -8.0940
  35   2.0000      -0.289340        -7.8733
  36   2.0000      -0.244414        -6.6508
  37   2.0000      -0.225025        -6.1232
  38   2.0000      -0.145008        -3.9459
  39   0.0000      -0.054593        -1.4855
  40   0.0000       0.016450         0.4476
  41   0.0000       0.032986         0.8976
  42   0.0000       0.036720         0.9992
  43   0.0000       0.051838         1.4106

MULLIKEN ATOMIC CHARGES
-----------------------
   0 C :   -0.100533
   1 C :   -0.310514
   2 C :   -0.227319
   3 C :   -0.153380
   4 H :    0.105105
   5 H :    0.105716
   6 C :    0.317861
   7 C :    0.182935
   8 N :   -0.396974
   9 N :   -0.459341
  10 H :    0.221390
  11 H :    0.239671
  12 H :    0.093422
  13 H :    0.236503
  14 H :    0.212342
  15 H :    0.055700
  16 H :    0.090261
  17 H :    0.111302
  18 H :    0.092553
  19 O :   -0.305533
  20 F :   -0.111168
Sum of atomic charges:    0.0000000

LOEWDIN ATOMIC CHARGES
----------------------
   0 C :   -0.279089
   1 C :   -0.268659
   2 C :   -0.248324
   3 C :   -0.222500
   4 H :    0.141102
   5 H :    0.149372
   6 C :   -0.534672
   7 C :   -0.480738
   8 N :    0.009148
   9 N :    0.004004
  10 H :    0.158813
  11 H :    0.172469
  12 H :    0.123236
  13 H :    0.164187
  14 H :    0.160172
  15 H :    0.132856
  16 H :    0.132006
  17 H :    0.138769
  18 H :    0.133692
  19 O :    0.091057
  20 F :    0.323099

  Mayer bond orders larger than 0.100000
B(  0-C ,  1-C ) :   1.0218 B(  0-C ,  2-C ) :   1.0031 B(  0-C , 15-H ) :   0.9364
B(  0-C , 16-H ) :   0.9291 B(  1-C ,  7-C ) :   1.6157 B(  1-C , 12-H ) :   1.0331
B(  2-C ,  3-C ) :   1.0154 B(  2-C , 17-H ) :   0.9589 B(  2-C , 18-H ) :   0.9347
B(  3-C ,  4-H ) :   0.9213 B(  3-C ,  5-H ) :   0.9410 B(  3-C ,  6-C ) :   1.0504
B(  6-C , 19-O ) :   2.0334 B(  6-C , 20-F ) :   1.0875 B(  7-C ,  8-N ) :   1.1795
B(  7-C ,  9-N ) :   1.1719 B(  8-N , 13-H ) :   0.8961 B(  8-N , 14-H ) :   0.9223
B(  9-N , 10-H ) :   0.9097 B(  9-N , 11-H ) :   0.9167

Dispersion correction           -0.028515390
FINAL SINGLE POINT ENERGY      -520.078376334123

DIPOLE MOMENT
-------------
                                X             Y             Z
Electronic contribution:      5.91072      -4.39404      -3.97735
Nuclear contribution   :     -6.25608       3.89116       3.75052
                        -----------------------------------------
Total Dipole Moment    :     -0.34535      -0.50288      -0.22682
                        -----------------------------------------
Magnitude (a.u.)       :      0.65085
Magnitude (Debye)      :      1.65434

Rotational constants in cm-1:     0.061229     0.042568     0.033282
Rotational constants in MHz :  1835.590871  1276.154029   997.769927

                             ****ORCA TERMINATED NORMALLY****
TOTAL RUN TIME: 0 days 0 hours 0 minutes 14 seconds 427 msec
