                         Program Version 5.0.0 -  RELEASE  -
|  1> !TPSS D3BJ RIJCOSX def2-TZVP def2/J TightSCF xyzfile
|  2>
|  3> *xyzfile 0 1 D6.xyz
|  4>
|  5> %MaxCore 64000
|  6>
|  7> %pal nprocs 18
|  8> end
|  9>
| 10> %scf
| 11>   MaxIter 150
| 12> end
| 13>
| 14>
| 15>                          ****END OF INPUT****

CARTESIAN COORDINATES (ANGSTROEM)
---------------------------------
  C      3.905947    2.819855   -3.752920
  N      5.295615    3.131515   -4.105334
  C      3.803511    1.374716   -3.260807
  C      3.939934    0.320362   -4.367729
  H      4.105043   -0.655085   -3.907733
  H      3.022801    0.280517   -4.957117
  C      5.105846    0.668022   -5.305463
  C      5.708619    3.468885   -5.324190
  N      6.904696    3.038954   -5.717084
  C      4.981884    4.293570   -6.097457
  H      5.000546    4.101311   -7.087761
  H      4.084693    4.596899   -5.739652
  H      5.963358    2.526112   -3.642391
  H      7.047164    2.066861   -5.473604
  H      7.198145    3.307994   -6.645225
  H      3.282025    2.949187   -4.640259
  H      3.565254    3.514574   -2.982523
  H      4.574833    1.215157   -2.500443
  H      2.843514    1.260845   -2.751465
  O      4.809132    1.150187   -6.414361
  F      6.267366    0.564999   -4.819481

 Total Charge           Charge          ....    0
 Multiplicity           Mult            ....    1
 Number of Electrons    NEL             ....   78
 Basis Dimension        Dim             ....  376

ORBITAL ENERGIES
----------------

  NO   OCC          E(Eh)            E(eV)
   0   2.0000     -24.492629      -666.4783
   1   2.0000     -18.894270      -514.1392
   2   2.0000     -14.111200      -383.9853
   3   2.0000     -14.089652      -383.3989
   4   2.0000     -10.155447      -276.3438
   5   2.0000     -10.028976      -272.9023
   6   2.0000     -10.023335      -272.7488
   7   2.0000     -10.018228      -272.6098
   8   2.0000     -10.015561      -272.5373
   9   2.0000      -9.897483      -269.3242
  10   2.0000      -1.254568       -34.1385
  11   2.0000      -0.976855       -26.5816
  12   2.0000      -0.909471       -24.7480
  13   2.0000      -0.829790       -22.5797
  14   2.0000      -0.758422       -20.6377
  15   2.0000      -0.681509       -18.5448
  16   2.0000      -0.648832       -17.6556
  17   2.0000      -0.620740       -16.8912
  18   2.0000      -0.582946       -15.8628
  19   2.0000      -0.525868       -14.3096
  20   2.0000      -0.517592       -14.0844
  21   2.0000      -0.508031       -13.8242
  22   2.0000      -0.475277       -12.9329
  23   2.0000      -0.461922       -12.5695
  24   2.0000      -0.455280       -12.3888
  25   2.0000      -0.439661       -11.9638
  26   2.0000      -0.433807       -11.8045
  27   2.0000      -0.390831       -10.6351
  28   2.0000      -0.378992       -10.3129
  29   2.0000      -0.363506        -9.8915
  30   2.0000      -0.351715        -9.5707
  31   2.0000      -0.346084        -9.4174
  32   2.0000      -0.341229        -9.2853
  33   2.0000      -0.328692        -8.9442
  34   2.0000      -0.323327        -8.7982
  35   2.0000      -0.292598        -7.9620
  36   2.0000      -0.252532        -6.8718
  37   2.0000      -0.219009        -5.9595
  38   2.0000      -0.144068        -3.9203
  39   0.0000      -0.065851        -1.7919
  40   0.0000       0.010454         0.2845
  41   0.0000       0.032003         0.8709
  42   0.0000       0.042461         1.1554
  43   0.0000       0.050233         1.3669

MULLIKEN ATOMIC CHARGES
-----------------------
   0 C :   -0.051839
   1 N :   -0.268886
   2 C :   -0.268461
   3 C :   -0.133825
   4 H :    0.112792
   5 H :    0.116786
   6 C :    0.264621
   7 C :    0.195250
   8 N :   -0.409243
   9 C :   -0.449956
  10 H :    0.106241
  11 H :    0.074330
  12 H :    0.188360
  13 H :    0.209357
  14 H :    0.238827
  15 H :    0.119201
  16 H :    0.115113
  17 H :    0.117738
  18 H :    0.107554
  19 O :   -0.265117
  20 F :   -0.118844
Sum of atomic charges:    0.0000000

LOEWDIN ATOMIC CHARGES
----------------------
   0 C :   -0.262744
   1 N :    0.136950
   2 C :   -0.261515
   3 C :   -0.224338
   4 H :    0.143090
   5 H :    0.152753
   6 C :   -0.547324
   7 C :   -0.503201
   8 N :    0.000684
   9 C :   -0.314770
  10 H :    0.099231
  11 H :    0.094276
  12 H :    0.174293
  13 H :    0.149096
  14 H :    0.175391
  15 H :    0.143795
  16 H :    0.128662
  17 H :    0.136774
  18 H :    0.140817
  19 O :    0.123218
  20 F :    0.314862

  Mayer bond orders larger than 0.100000
B(  0-C ,  1-N ) :   0.9607 B(  0-C ,  2-C ) :   1.0066 B(  0-C , 15-H ) :   0.9483
B(  0-C , 16-H ) :   0.9531 B(  1-N ,  6-C ) :   0.1032 B(  1-N ,  7-C ) :   1.1452
B(  1-N , 12-H ) :   0.9181 B(  2-C ,  3-C ) :   1.0016 B(  2-C , 17-H ) :   0.9597
B(  2-C , 18-H ) :   0.9350 B(  3-C ,  4-H ) :   0.9248 B(  3-C ,  5-H ) :   0.9426
B(  3-C ,  6-C ) :   1.0298 B(  6-C , 19-O ) :   2.0598 B(  6-C , 20-F ) :   1.0768
B(  7-C ,  8-N ) :   1.1945 B(  7-C ,  9-C ) :   1.6675 B(  8-N , 13-H ) :   0.9077
B(  8-N , 14-H ) :   0.9183 B(  9-C , 10-H ) :   0.9660 B(  9-C , 11-H ) :   0.9910

Dispersion correction           -0.028366971
FINAL SINGLE POINT ENERGY      -520.066359874122

DIPOLE MOMENT
-------------
                                X             Y             Z
Electronic contribution:      6.02578      -5.54591      -2.38036
Nuclear contribution   :     -6.29470       4.03423       3.50525
                        -----------------------------------------
Total Dipole Moment    :     -0.26892      -1.51168       1.12489
                        -----------------------------------------
Magnitude (a.u.)       :      1.90338
Magnitude (Debye)      :      4.83802

Rotational constants in cm-1:     0.061094     0.043661     0.033867
Rotational constants in MHz :  1831.559881  1308.929520  1015.295167

                             ****ORCA TERMINATED NORMALLY****
TOTAL RUN TIME: 0 days 0 hours 0 minutes 18 seconds 306 msec
