                         Program Version 5.0.0 -  RELEASE  -
|  1> !BLYP D3BJ RIJCOSX def2-TZVPD def2/J TightSCF
|  2> *xyz -1 1
|  3> C         -1.91658       -2.48508       -3.64367
|  4> C         -1.36353       -1.98134       -2.29361
|  5> O         -0.35039       -2.74969       -1.79601
|  6> H         -2.22622       -1.90839       -1.60204
|  7> H         -1.05135       -0.91567       -2.44333
|  8> H         -1.11522       -2.57167       -4.34739
|  9> H         -2.64227       -1.79099       -4.01314
| 10> H         -2.37564       -3.44180       -3.50640
| 11> *
| 12>
| 13> %MaxCore 64000
| 14> %pal nprocs 4
| 15> end
| 16>
| 17> %scf
| 18>   MaxIter 150
| 19> end
| 20>
| 21>
| 22>                          ****END OF INPUT****

CARTESIAN COORDINATES (ANGSTROEM)
---------------------------------
  C     -1.916580   -2.485080   -3.643670
  C     -1.363530   -1.981340   -2.293610
  O     -0.350390   -2.749690   -1.796010
  H     -2.226220   -1.908390   -1.602040
  H     -1.051350   -0.915670   -2.443330
  H     -1.115220   -2.571670   -4.347390
  H     -2.642270   -1.790990   -4.013140
  H     -2.375640   -3.441800   -3.506400

 Total Charge           Charge          ....   -1
 Multiplicity           Mult            ....    1
 Number of Electrons    NEL             ....   26
 Basis Dimension        Dim             ....  159

ORBITAL ENERGIES
----------------

  NO   OCC          E(Eh)            E(eV)
   0   2.0000     -18.458463      -502.2803
   1   2.0000      -9.724061      -264.6051
   2   2.0000      -9.698067      -263.8978
   3   2.0000      -0.602868       -16.4049
   4   2.0000      -0.454257       -12.3609
   5   2.0000      -0.312598        -8.5062
   6   2.0000      -0.200837        -5.4651
   7   2.0000      -0.180704        -4.9172
   8   2.0000      -0.130316        -3.5461
   9   2.0000      -0.114413        -3.1133
  10   2.0000      -0.075854        -2.0641
  11   2.0000       0.061079         1.6621
  12   2.0000       0.065562         1.7840
  13   0.0000       0.140648         3.8272
  14   0.0000       0.163884         4.4595
  15   0.0000       0.188569         5.1312
  16   0.0000       0.193634         5.2690
  17   0.0000       0.213976         5.8226

MULLIKEN ATOMIC CHARGES
-----------------------
   0 C :   -1.200435
   1 C :   -0.258210
   2 O :   -0.913892
   3 H :    0.210627
   4 H :    0.211017
   5 H :    0.277379
   6 H :    0.401381
   7 H :    0.272134
Sum of atomic charges:   -1.0000000

LOEWDIN ATOMIC CHARGES
----------------------
   0 C :   -0.173635
   1 C :   -0.625450
   2 O :   -0.373207
   3 H :    0.044898
   4 H :    0.047968
   5 H :    0.032278
   6 H :    0.016441
   7 H :    0.030708

  Mayer bond orders larger than 0.100000
B(  0-C ,  1-C ) :   0.7235 B(  0-C ,  2-O ) :   0.6095 B(  0-C ,  5-H ) :   0.9835
B(  0-C ,  6-H ) :   0.9092 B(  0-C ,  7-H ) :   0.9822 B(  1-C ,  2-O ) :   0.8198
B(  1-C ,  3-H ) :   1.0528 B(  1-C ,  4-H ) :   1.0497 B(  2-O ,  6-H ) :  -0.1176
B(  3-H ,  4-H ) :   0.1168

Dispersion correction           -0.007732012
FINAL SINGLE POINT ENERGY      -154.441834945473

DIPOLE MOMENT
-------------
                                X             Y             Z
Electronic contribution:      2.23404      -0.93785       2.02364
Nuclear contribution   :     -3.14382       1.30299      -2.83231
                        -----------------------------------------
Total Dipole Moment    :     -0.90978       0.36514      -0.80866
                        -----------------------------------------
Magnitude (a.u.)       :      1.27081
Magnitude (Debye)      :      3.23015

Rotational constants in cm-1:     1.288206     0.322942     0.285188
Rotational constants in MHz : 38619.437223  9681.562038  8549.712012

                             ****ORCA TERMINATED NORMALLY****
TOTAL RUN TIME: 0 days 0 hours 0 minutes 9 seconds 735 msec
