                         Program Version 5.0.0 -  RELEASE  -
|  1> !BLYP D3BJ RIJCOSX def2-TZVPD def2/J TightSCF
|  2> *xyz 1 1
|  3> C          1.64703       -2.34528       -5.02041
|  4> C          2.20996       -2.81239       -3.66571
|  5> C          2.48901       -1.66851       -2.73754
|  6> N          3.59631       -0.94761       -2.95225
|  7> N          1.66394       -1.41369       -1.77781
|  8> H          0.81164       -1.96318       -1.70275
|  9> H          1.84550       -0.63508       -1.15875
| 10> H          4.20535       -1.17600       -3.73383
| 11> H          3.81723       -0.12585       -2.40604
| 12> H          3.14311       -3.36280       -3.81152
| 13> H          1.48768       -3.45893       -3.16521
| 14> H          1.46566       -3.19589       -5.64368
| 15> H          2.35406       -1.69850       -5.49654
| 16> H          0.73014       -1.81680       -4.86253
| 17> *
| 18>
| 19> %MaxCore 64000
| 20> %pal nprocs 4
| 21> end
| 22>
| 23> %scf
| 24>   MaxIter 150
| 25> end
| 26>
| 27>
| 28>                          ****END OF INPUT****

CARTESIAN COORDINATES (ANGSTROEM)
---------------------------------
  C      1.647030   -2.345280   -5.020410
  C      2.209960   -2.812390   -3.665710
  C      2.489010   -1.668510   -2.737540
  N      3.596310   -0.947610   -2.952250
  N      1.663940   -1.413690   -1.777810
  H      0.811640   -1.963180   -1.702750
  H      1.845500   -0.635080   -1.158750
  H      4.205350   -1.176000   -3.733830
  H      3.817230   -0.125850   -2.406040
  H      3.143110   -3.362800   -3.811520
  H      1.487680   -3.458930   -3.165210
  H      1.465660   -3.195890   -5.643680
  H      2.354060   -1.698500   -5.496540
  H      0.730140   -1.816800   -4.862530

 Total Charge           Charge          ....    1
 Multiplicity           Mult            ....    1
 Number of Electrons    NEL             ....   40
 Basis Dimension        Dim             ....  266

ORBITAL ENERGIES
----------------

  NO   OCC          E(Eh)            E(eV)
   0   2.0000     -14.255088      -387.9007
   1   2.0000     -14.246659      -387.6713
   2   2.0000     -10.217685      -278.0373
   3   2.0000     -10.102355      -274.8991
   4   2.0000     -10.059040      -273.7204
   5   2.0000      -1.113930       -30.3116
   6   2.0000      -1.025764       -27.9125
   7   2.0000      -0.889605       -24.2074
   8   2.0000      -0.793002       -21.5787
   9   2.0000      -0.753466       -20.5029
  10   2.0000      -0.717985       -19.5374
  11   2.0000      -0.692819       -18.8526
  12   2.0000      -0.652789       -17.7633
  13   2.0000      -0.595293       -16.1988
  14   2.0000      -0.571441       -15.5497
  15   2.0000      -0.562600       -15.3091
  16   2.0000      -0.498905       -13.5759
  17   2.0000      -0.490389       -13.3442
  18   2.0000      -0.485414       -13.2088
  19   2.0000      -0.450131       -12.2487
  20   0.0000      -0.239456        -6.5159
  21   0.0000      -0.192672        -5.2429
  22   0.0000      -0.150104        -4.0845
  23   0.0000      -0.145928        -3.9709
  24   0.0000      -0.117958        -3.2098

MULLIKEN ATOMIC CHARGES
-----------------------
   0 C :   -1.153384
   1 C :   -0.409469
   2 C :    0.688486
   3 N :   -0.283531
   4 N :   -0.212242
   5 H :    0.210350
   6 H :    0.185906
   7 H :    0.207078
   8 H :    0.174545
   9 H :    0.284309
  10 H :    0.268276
  11 H :    0.334069
  12 H :    0.344050
  13 H :    0.361556
Sum of atomic charges:    1.0000000

LOEWDIN ATOMIC CHARGES
----------------------
   0 C :   -0.043365
   1 C :   -0.142423
   2 C :   -0.372479
   3 N :    0.235742
   4 N :    0.249859
   5 H :    0.154208
   6 H :    0.148588
   7 H :    0.144229
   8 H :    0.137875
   9 H :    0.131270
  10 H :    0.121410
  11 H :    0.083524
  12 H :    0.072123
  13 H :    0.079438

  Mayer bond orders larger than 0.100000
B(  0-C ,  1-C ) :   0.5973 B(  0-C , 11-H ) :   0.9608 B(  0-C , 12-H ) :   0.9205
B(  0-C , 13-H ) :   0.9390 B(  1-C ,  2-C ) :   0.7606 B(  1-C ,  9-H ) :   0.9492
B(  1-C , 10-H ) :   0.9739 B(  2-C ,  3-N ) :   1.1267 B(  2-C ,  4-N ) :   1.2332
B(  3-N ,  4-N ) :   0.1237 B(  3-N ,  7-H ) :   0.9582 B(  3-N ,  8-H ) :   1.0216
B(  4-N ,  5-H ) :   0.9516 B(  4-N ,  6-H ) :   1.0092

Dispersion correction           -0.020565860
FINAL SINGLE POINT ENERGY      -229.033800286370

DIPOLE MOMENT
-------------
                                X             Y             Z
Electronic contribution:      1.19561       1.65048       3.60901
Nuclear contribution   :     -0.98617      -1.03178      -2.77619
                        -----------------------------------------
Total Dipole Moment    :      0.20945       0.61871       0.83282
                        -----------------------------------------
Magnitude (a.u.)       :      1.05842
Magnitude (Debye)      :      2.69030

Rotational constants in cm-1:     0.257311     0.127495     0.099037
Rotational constants in MHz :  7713.982239  3822.189706  2969.039713

                             ****ORCA TERMINATED NORMALLY****
TOTAL RUN TIME: 0 days 0 hours 0 minutes 14 seconds 576 msec
