                         Program Version 5.0.0 -  RELEASE  -
|  1> !BLYP D3BJ RIJCOSX def2-TZVPD def2/J TightSCF xyzfile
|  2>
|  3> *xyzfile 0 1 B.xyz
|  4>
|  5> %MaxCore 64000
|  6>
|  7> %pal nprocs 4
|  8> end
|  9>
| 10> %scf
| 11>   MaxIter 150
| 12> end
| 13>
| 14>
| 15>                          ****END OF INPUT****

CARTESIAN COORDINATES (ANGSTROEM)
---------------------------------
  C      1.647032   -2.345276   -5.020411
  C      0.217628   -1.814022   -4.924389
  C      2.209964   -2.812388   -3.665708
  C     -0.811356   -2.908780   -4.607625
  C     -1.916579   -2.485081   -3.643665
  H     -2.554525   -1.712428   -4.091993
  C     -1.363531   -1.981337   -2.293608
  H     -2.553448   -3.355667   -3.458815
  O     -0.350395   -2.749689   -1.796006
  H      2.308385   -1.588704   -5.457128
  H      1.674286   -3.203478   -5.697392
  C      2.489007   -1.668510   -2.737538
  N      3.596314   -0.947608   -2.952247
  N      1.663936   -1.413685   -1.777806
  H      0.811642   -1.963178   -1.702755
  H      1.845503   -0.635078   -1.158749
  H      4.205351   -1.176003   -3.733825
  H      3.817230   -0.125845   -2.406041
  H     -1.244829   -3.280884   -5.541040
  H     -0.306331   -3.757746   -4.142734
  H     -0.036244   -1.318555   -5.865303
  H      0.175004   -1.035382   -4.158095
  H      3.143106   -3.362803   -3.811524
  H      1.487683   -3.458935   -3.165211
  H     -2.226220   -1.908386   -1.602039
  H     -1.051353   -0.915671   -2.443331

 Total Charge           Charge          ....    0
 Multiplicity           Mult            ....    1
 Number of Electrons    NEL             ....   80
 Basis Dimension        Dim             ....  517

ORBITAL ENERGIES
----------------

  NO   OCC          E(Eh)            E(eV)
   0   2.0000     -18.636791      -507.1329
   1   2.0000     -14.081022      -383.1641
   2   2.0000     -14.036635      -381.9562
   3   2.0000     -10.035114      -273.0693
   4   2.0000      -9.928976      -270.1812
   5   2.0000      -9.916887      -269.8522
   6   2.0000      -9.887990      -269.0659
   7   2.0000      -9.880318      -268.8571
   8   2.0000      -9.869018      -268.5496
   9   2.0000      -9.852641      -268.1040
  10   2.0000      -0.930886       -25.3307
  11   2.0000      -0.845101       -22.9964
  12   2.0000      -0.792360       -21.5612
  13   2.0000      -0.735466       -20.0130
  14   2.0000      -0.677308       -18.4305
  15   2.0000      -0.631852       -17.1936
  16   2.0000      -0.585835       -15.9414
  17   2.0000      -0.564041       -15.3483
  18   2.0000      -0.540249       -14.7009
  19   2.0000      -0.526827       -14.3357
  20   2.0000      -0.502215       -13.6660
  21   2.0000      -0.466594       -12.6967
  22   2.0000      -0.442771       -12.0484
  23   2.0000      -0.430951       -11.7268
  24   2.0000      -0.411591       -11.2000
  25   2.0000      -0.389356       -10.5949
  26   2.0000      -0.377787       -10.2801
  27   2.0000      -0.353764        -9.6264
  28   2.0000      -0.342488        -9.3196
  29   2.0000      -0.339893        -9.2490
  30   2.0000      -0.310958        -8.4616
  31   2.0000      -0.302349        -8.2273
  32   2.0000      -0.293383        -7.9834
  33   2.0000      -0.274924        -7.4811
  34   2.0000      -0.268986        -7.3195
  35   2.0000      -0.256205        -6.9717
  36   2.0000      -0.248297        -6.7565
  37   2.0000      -0.242000        -6.5851
  38   2.0000      -0.128758        -3.5037
  39   2.0000      -0.119860        -3.2616
  40   0.0000      -0.064505        -1.7553
  41   0.0000      -0.050951        -1.3864
  42   0.0000      -0.015143        -0.4121
  43   0.0000       0.004199         0.1143
  44   0.0000       0.011183         0.3043

MULLIKEN ATOMIC CHARGES
-----------------------
   0 C :   -0.492228
   1 C :   -0.490556
   2 C :   -0.535470
   3 C :   -0.276590
   4 C :   -0.646482
   5 H :    0.236743
   6 C :   -0.405181
   7 H :    0.284061
   8 O :   -0.940597
   9 H :    0.237806
  10 H :    0.254147
  11 C :    0.377444
  12 N :   -0.318917
  13 N :   -0.248612
  14 H :    0.430224
  15 H :    0.096915
  16 H :    0.175690
  17 H :    0.144919
  18 H :    0.298774
  19 H :    0.134941
  20 H :    0.316385
  21 H :    0.210966
  22 H :    0.304523
  23 H :    0.371868
  24 H :    0.261671
  25 H :    0.217557
Sum of atomic charges:    0.0000000

LOEWDIN ATOMIC CHARGES
----------------------
   0 C :   -0.184643
   1 C :   -0.196623
   2 C :   -0.108898
   3 C :   -0.211604
   4 C :   -0.196798
   5 H :    0.099572
   6 C :   -0.434218
   7 H :    0.098972
   8 O :   -0.256762
   9 H :    0.099075
  10 H :    0.112330
  11 C :   -0.376781
  12 N :    0.186158
  13 N :    0.242527
  14 H :   -0.031319
  15 H :    0.132116
  16 H :    0.119040
  17 H :    0.115596
  18 H :    0.102750
  19 H :    0.093044
  20 H :    0.106919
  21 H :    0.090964
  22 H :    0.119410
  23 H :    0.107683
  24 H :    0.089937
  25 H :    0.081555

  Mayer bond orders larger than 0.100000
B(  0-C ,  1-C ) :   0.9192 B(  0-C ,  2-C ) :   0.7540 B(  0-C ,  3-C ) :   0.2027
B(  0-C ,  9-H ) :   0.8717 B(  0-C , 10-H ) :   0.9641 B(  0-C , 11-C ) :   0.1493
B(  1-C ,  3-C ) :   0.5660 B(  1-C ,  4-C ) :   0.1787 B(  1-C , 20-H ) :   0.9239
B(  1-C , 21-H ) :   0.9907 B(  2-C , 11-C ) :   0.8624 B(  2-C , 22-H ) :   0.9337
B(  2-C , 23-H ) :   0.9059 B(  3-C ,  4-C ) :   0.8903 B(  3-C ,  8-O ) :  -0.1372
B(  3-C , 18-H ) :   0.9258 B(  3-C , 19-H ) :   0.9771 B(  4-C ,  5-H ) :   1.0043
B(  4-C ,  6-C ) :   0.8094 B(  4-C ,  7-H ) :   0.9289 B(  4-C ,  8-O ) :   0.1147
B(  6-C ,  8-O ) :   0.8865 B(  6-C , 24-H ) :   0.9571 B(  6-C , 25-H ) :   1.0111
B(  8-O , 13-N ) :  -0.1051 B(  8-O , 14-H ) :   0.3136 B(  8-O , 19-H ) :   0.1208
B( 11-C , 12-N ) :   0.9816 B( 11-C , 13-N ) :   1.3794 B( 12-N , 13-N ) :   0.1293
B( 12-N , 16-H ) :   1.0072 B( 12-N , 17-H ) :   1.0243 B( 13-N , 14-H ) :   0.5057
B( 13-N , 15-H ) :   1.0418

Dispersion correction           -0.053602923
FINAL SINGLE POINT ENERGY      -461.085735584082

DIPOLE MOMENT
-------------
                                X             Y             Z
Electronic contribution:      5.52512       0.81095       4.35351
Nuclear contribution   :     -2.25948       0.71378      -5.15247
                        -----------------------------------------
Total Dipole Moment    :      3.26564       1.52473      -0.79896
                        -----------------------------------------
Magnitude (a.u.)       :      3.69155
Magnitude (Debye)      :      9.38317

Rotational constants in cm-1:     0.063973     0.031829     0.024059
Rotational constants in MHz :  1917.874550   954.201145   721.285252

                             ****ORCA TERMINATED NORMALLY****
TOTAL RUN TIME: 0 days 0 hours 0 minutes 53 seconds 450 msec
