                         Program Version 5.0.0 -  RELEASE  -
|  1> !BLYP D3BJ RIJCOSX def2-TZVPD def2/J TightSCF
|  2> *xyz 0 1
|  3> C         -1.91658       -2.48508       -3.64367
|  4> C         -1.36353       -1.98134       -2.29361
|  5> F         -0.35039       -2.74969       -1.79601
|  6> H         -2.22622       -1.90839       -1.60204
|  7> H         -1.05135       -0.91567       -2.44333
|  8> H         -1.11522       -2.57167       -4.34739
|  9> H         -2.64227       -1.79099       -4.01314
| 10> H         -2.37564       -3.44180       -3.50640
| 11> *
| 12>
| 13> %MaxCore 64000
| 14> %pal nprocs 4
| 15> end
| 16>
| 17> %scf
| 18>   MaxIter 150
| 19> end
| 20>
| 21>
| 22>                          ****END OF INPUT****

CARTESIAN COORDINATES (ANGSTROEM)
---------------------------------
  C     -1.916580   -2.485080   -3.643670
  C     -1.363530   -1.981340   -2.293610
  F     -0.350390   -2.749690   -1.796010
  H     -2.226220   -1.908390   -1.602040
  H     -1.051350   -0.915670   -2.443330
  H     -1.115220   -2.571670   -4.347390
  H     -2.642270   -1.790990   -4.013140
  H     -2.375640   -3.441800   -3.506400

 Total Charge           Charge          ....    0
 Multiplicity           Mult            ....    1
 Number of Electrons    NEL             ....   26
 Basis Dimension        Dim             ....  159

ORBITAL ENERGIES
----------------

  NO   OCC          E(Eh)            E(eV)
   0   2.0000     -24.275513      -660.5703
   1   2.0000      -9.982468      -271.6368
   2   2.0000      -9.899886      -269.3896
   3   2.0000      -1.095243       -29.8031
   4   2.0000      -0.686119       -18.6703
   5   2.0000      -0.564422       -15.3587
   6   2.0000      -0.453196       -12.3321
   7   2.0000      -0.435724       -11.8567
   8   2.0000      -0.400681       -10.9031
   9   2.0000      -0.354210        -9.6385
  10   2.0000      -0.352826        -9.6009
  11   2.0000      -0.285956        -7.7813
  12   2.0000      -0.280937        -7.6447
  13   0.0000      -0.006922        -0.1884
  14   0.0000       0.020584         0.5601
  15   0.0000       0.033783         0.9193
  16   0.0000       0.039417         1.0726
  17   0.0000       0.064145         1.7455

MULLIKEN ATOMIC CHARGES
-----------------------
   0 C :   -0.943302
   1 C :   -0.086155
   2 F :   -0.298053
   3 H :    0.222876
   4 H :    0.217996
   5 H :    0.286425
   6 H :    0.320764
   7 H :    0.279449
Sum of atomic charges:    0.0000000

LOEWDIN ATOMIC CHARGES
----------------------
   0 C :   -0.075317
   1 C :   -0.302242
   2 F :   -0.022362
   3 H :    0.105829
   4 H :    0.110822
   5 H :    0.060634
   6 H :    0.062980
   7 H :    0.059656

  Mayer bond orders larger than 0.100000
B(  0-C ,  1-C ) :   0.7341 B(  0-C ,  5-H ) :   0.9545 B(  0-C ,  6-H ) :   0.9270
B(  0-C ,  7-H ) :   0.9569 B(  1-C ,  2-F ) :   0.8294 B(  1-C ,  3-H ) :   0.9654
B(  1-C ,  4-H ) :   0.9660

Dispersion correction           -0.007125088
FINAL SINGLE POINT ENERGY      -179.083058475102

DIPOLE MOMENT
-------------
                                X             Y             Z
Electronic contribution:      3.64334      -1.37671       3.43919
Nuclear contribution   :     -4.15401       1.70894      -3.75000
                        -----------------------------------------
Total Dipole Moment    :     -0.51067       0.33223      -0.31081
                        -----------------------------------------
Magnitude (a.u.)       :      0.68393
Magnitude (Debye)      :      1.73842

Rotational constants in cm-1:     1.266842     0.300492     0.266603
Rotational constants in MHz : 37978.968232  9008.526876  7992.551454

                             ****ORCA TERMINATED NORMALLY****
TOTAL RUN TIME: 0 days 0 hours 0 minutes 8 seconds 56 msec
