                         Program Version 5.0.0 -  RELEASE  -
|  1> !BLYP D3BJ RIJCOSX def2-TZVPD def2/J TightSCF
|  2> *xyz 0 1
|  3> C          1.64703       -2.34528       -5.02041
|  4> C          2.20996       -2.81239       -3.66571
|  5> C          2.48901       -1.66851       -2.73754
|  6> C          3.59631       -0.94761       -2.95225
|  7> N          1.66394       -1.41369       -1.77781
|  8> H          0.81164       -1.96318       -1.70275
|  9> H          1.84550       -0.63508       -1.15875
| 10> H          4.20535       -1.17600       -3.73383
| 11> H          3.81723       -0.12585       -2.40604
| 12> H          3.14311       -3.36280       -3.81152
| 13> H          1.48768       -3.45893       -3.16521
| 14> H          1.46566       -3.19589       -5.64368
| 15> H          2.35406       -1.69850       -5.49654
| 16> H          0.73014       -1.81680       -4.86253
| 17> *
| 18>
| 19> %MaxCore 64000
| 20> %pal nprocs 4
| 21> end
| 22>
| 23> %scf
| 24>   MaxIter 150
| 25> end
| 26>
| 27>
| 28>                          ****END OF INPUT****

CARTESIAN COORDINATES (ANGSTROEM)
---------------------------------
  C      1.647030   -2.345280   -5.020410
  C      2.209960   -2.812390   -3.665710
  C      2.489010   -1.668510   -2.737540
  C      3.596310   -0.947610   -2.952250
  N      1.663940   -1.413690   -1.777810
  H      0.811640   -1.963180   -1.702750
  H      1.845500   -0.635080   -1.158750
  H      4.205350   -1.176000   -3.733830
  H      3.817230   -0.125850   -2.406040
  H      3.143110   -3.362800   -3.811520
  H      1.487680   -3.458930   -3.165210
  H      1.465660   -3.195890   -5.643680
  H      2.354060   -1.698500   -5.496540
  H      0.730140   -1.816800   -4.862530

 Total Charge           Charge          ....    0
 Multiplicity           Mult            ....    1
 Number of Electrons    NEL             ....   40
 Basis Dimension        Dim             ....  266

ORBITAL ENERGIES
----------------

  NO   OCC          E(Eh)            E(eV)
   0   2.0000     -14.012615      -381.3026
   1   2.0000      -9.919727      -269.9295
   2   2.0000      -9.903595      -269.4905
   3   2.0000      -9.887520      -269.0531
   4   2.0000      -9.834219      -267.6027
   5   2.0000      -0.852414       -23.1954
   6   2.0000      -0.699615       -19.0375
   7   2.0000      -0.633174       -17.2295
   8   2.0000      -0.570407       -15.5216
   9   2.0000      -0.508843       -13.8463
  10   2.0000      -0.477563       -12.9952
  11   2.0000      -0.424956       -11.5636
  12   2.0000      -0.390381       -10.6228
  13   2.0000      -0.361624        -9.8403
  14   2.0000      -0.344884        -9.3848
  15   2.0000      -0.333239        -9.0679
  16   2.0000      -0.306725        -8.3464
  17   2.0000      -0.290311        -7.8998
  18   2.0000      -0.288456        -7.8493
  19   2.0000      -0.149794        -4.0761
  20   0.0000      -0.017092        -0.4651
  21   0.0000       0.007570         0.2060
  22   0.0000       0.018068         0.4916
  23   0.0000       0.022876         0.6225
  24   0.0000       0.033793         0.9196

MULLIKEN ATOMIC CHARGES
-----------------------
   0 C :   -1.141163
   1 C :   -0.427758
   2 C :    0.845653
   3 C :   -1.322821
   4 N :   -0.279404
   5 H :    0.148979
   6 H :    0.134417
   7 H :    0.296777
   8 H :    0.309187
   9 H :    0.233122
  10 H :    0.248718
  11 H :    0.303485
  12 H :    0.332803
  13 H :    0.318004
Sum of atomic charges:    0.0000000

LOEWDIN ATOMIC CHARGES
----------------------
   0 C :   -0.082261
   1 C :   -0.194886
   2 C :   -0.507981
   3 C :    0.022469
   4 N :    0.121911
   5 H :    0.108132
   6 H :    0.113698
   7 H :    0.017176
   8 H :    0.008819
   9 H :    0.110381
  10 H :    0.098264
  11 H :    0.057618
  12 H :    0.062119
  13 H :    0.064541

  Mayer bond orders larger than 0.100000
B(  0-C ,  1-C ) :   0.5669 B(  0-C , 11-H ) :   0.9527 B(  0-C , 12-H ) :   0.9565
B(  0-C , 13-H ) :   0.9521 B(  1-C ,  2-C ) :   0.6411 B(  1-C ,  9-H ) :   0.9648
B(  1-C , 10-H ) :   1.0341 B(  2-C ,  3-C ) :   1.0745 B(  2-C ,  4-N ) :   1.0167
B(  3-C ,  4-N ) :   0.1192 B(  3-C ,  7-H ) :   0.9572 B(  3-C ,  8-H ) :   1.0195
B(  4-N ,  5-H ) :   1.0214 B(  4-N ,  6-H ) :   1.0305

Dispersion correction           -0.021488757
FINAL SINGLE POINT ENERGY      -212.550718058583

DIPOLE MOMENT
-------------
                                X             Y             Z
Electronic contribution:     -0.03660       0.66365       3.02908
Nuclear contribution   :     -0.69146      -0.83112      -2.71336
                        -----------------------------------------
Total Dipole Moment    :     -0.72806      -0.16747       0.31572
                        -----------------------------------------
Magnitude (a.u.)       :      0.81105
Magnitude (Debye)      :      2.06153

Rotational constants in cm-1:     0.270661     0.129240     0.102040
Rotational constants in MHz :  8114.202941  3874.518141  3059.074383

                             ****ORCA TERMINATED NORMALLY****
TOTAL RUN TIME: 0 days 0 hours 0 minutes 15 seconds 987 msec
