                         Program Version 5.0.0 -  RELEASE  -
|  1> !BLYP D3BJ RIJCOSX def2-TZVPD def2/J TightSCF
|  2> *xyz 0 1
|  3> C          1.64703       -2.34528       -5.02041
|  4> C          2.20996       -2.81239       -3.66571
|  5> C          2.48901       -1.66851       -2.73754
|  6> N          3.59631       -0.94761       -2.95225
|  7> C          1.66394       -1.41369       -1.77781
|  8> H          0.81164       -1.96318       -1.70275
|  9> H          1.84550       -0.63508       -1.15875
| 10> H          4.20535       -1.17600       -3.73383
| 11> H          3.81723       -0.12585       -2.40604
| 12> H          3.14311       -3.36280       -3.81152
| 13> H          1.48768       -3.45893       -3.16521
| 14> H          1.46566       -3.19589       -5.64368
| 15> H          2.35406       -1.69850       -5.49654
| 16> H          0.73014       -1.81680       -4.86253
| 17> *
| 18>
| 19> %MaxCore 64000
| 20> %pal nprocs 4
| 21> end
| 22>
| 23> %scf
| 24>   MaxIter 150
| 25> end
| 26>
| 27>
| 28>                          ****END OF INPUT****

CARTESIAN COORDINATES (ANGSTROEM)
---------------------------------
  C      1.647030   -2.345280   -5.020410
  C      2.209960   -2.812390   -3.665710
  C      2.489010   -1.668510   -2.737540
  N      3.596310   -0.947610   -2.952250
  C      1.663940   -1.413690   -1.777810
  H      0.811640   -1.963180   -1.702750
  H      1.845500   -0.635080   -1.158750
  H      4.205350   -1.176000   -3.733830
  H      3.817230   -0.125850   -2.406040
  H      3.143110   -3.362800   -3.811520
  H      1.487680   -3.458930   -3.165210
  H      1.465660   -3.195890   -5.643680
  H      2.354060   -1.698500   -5.496540
  H      0.730140   -1.816800   -4.862530

 Total Charge           Charge          ....    0
 Multiplicity           Mult            ....    1
 Number of Electrons    NEL             ....   40
 Basis Dimension        Dim             ....  266

ORBITAL ENERGIES
----------------

  NO   OCC          E(Eh)            E(eV)
   0   2.0000     -14.006129      -381.1261
   1   2.0000      -9.917229      -269.8615
   2   2.0000      -9.901975      -269.4464
   3   2.0000      -9.888658      -269.0841
   4   2.0000      -9.836622      -267.6681
   5   2.0000      -0.834587       -22.7103
   6   2.0000      -0.700041       -19.0491
   7   2.0000      -0.646094       -17.5811
   8   2.0000      -0.565894       -15.3988
   9   2.0000      -0.505309       -13.7502
  10   2.0000      -0.466234       -12.6869
  11   2.0000      -0.425050       -11.5662
  12   2.0000      -0.384082       -10.4514
  13   2.0000      -0.371764       -10.1162
  14   2.0000      -0.348493        -9.4830
  15   2.0000      -0.335335        -9.1249
  16   2.0000      -0.306744        -8.3469
  17   2.0000      -0.289276        -7.8716
  18   2.0000      -0.279938        -7.6175
  19   2.0000      -0.159776        -4.3477
  20   0.0000      -0.015993        -0.4352
  21   0.0000       0.009505         0.2587
  22   0.0000       0.019597         0.5333
  23   0.0000       0.024073         0.6551
  24   0.0000       0.034521         0.9394

MULLIKEN ATOMIC CHARGES
-----------------------
   0 C :   -1.125642
   1 C :   -0.445083
   2 C :    0.796160
   3 N :   -0.338387
   4 C :   -1.175315
   5 H :    0.283955
   6 H :    0.306433
   7 H :    0.137590
   8 H :    0.122234
   9 H :    0.277503
  10 H :    0.207034
  11 H :    0.306770
  12 H :    0.314266
  13 H :    0.332484
Sum of atomic charges:   -0.0000000

LOEWDIN ATOMIC CHARGES
----------------------
   0 C :   -0.083381
   1 C :   -0.195772
   2 C :   -0.499207
   3 N :    0.114770
   4 C :    0.022130
   5 H :    0.026824
   6 H :    0.022852
   7 H :    0.098606
   8 H :    0.101314
   9 H :    0.106204
  10 H :    0.104124
  11 H :    0.057960
  12 H :    0.056347
  13 H :    0.067229

  Mayer bond orders larger than 0.100000
B(  0-C ,  1-C ) :   0.5831 B(  0-C , 11-H ) :   0.9582 B(  0-C , 12-H ) :   0.9444
B(  0-C , 13-H ) :   0.9758 B(  1-C ,  2-C ) :   0.6654 B(  1-C ,  9-H ) :   0.9657
B(  1-C , 10-H ) :   1.0050 B(  2-C ,  3-N ) :   0.8780 B(  2-C ,  4-C ) :   1.1935
B(  2-C ,  6-H ) :  -0.1104 B(  3-N ,  4-C ) :   0.1149 B(  3-N ,  7-H ) :   1.0337
B(  3-N ,  8-H ) :   1.0419 B(  4-C ,  5-H ) :   0.9681 B(  4-C ,  6-H ) :   1.0260

Dispersion correction           -0.021458471
FINAL SINGLE POINT ENERGY      -212.554473968867

DIPOLE MOMENT
-------------
                                X             Y             Z
Electronic contribution:      1.64474       1.07586       2.00878
Nuclear contribution   :     -1.13902      -0.93906      -2.44135
                        -----------------------------------------
Total Dipole Moment    :      0.50572       0.13680      -0.43257
                        -----------------------------------------
Magnitude (a.u.)       :      0.67940
Magnitude (Debye)      :      1.72690

Rotational constants in cm-1:     0.267243     0.130607     0.102304
Rotational constants in MHz :  8011.748167  3915.504600  3066.999841

                             ****ORCA TERMINATED NORMALLY****
TOTAL RUN TIME: 0 days 0 hours 0 minutes 17 seconds 109 msec
