                         Program Version 5.0.0 -  RELEASE  -
|  1> !BLYP D3BJ RIJCOSX def2-TZVPD def2/J TightSCF xyzfile
|  2>
|  3> *xyzfile 0 1 D1.xyz
|  4>
|  5> %MaxCore 64000
|  6>
|  7> %pal nprocs 4
|  8> end
|  9>
| 10> %scf
| 11>   MaxIter 150
| 12> end
| 13>
| 14>
| 15>                          ****END OF INPUT****

CARTESIAN COORDINATES (ANGSTROEM)
---------------------------------
  C      1.647032   -2.345276   -5.020411
  C      0.217628   -1.814022   -4.924389
  C      2.209964   -2.812388   -3.665708
  C     -0.811356   -2.908780   -4.607625
  C     -1.916579   -2.485081   -3.643665
  H     -2.554525   -1.712428   -4.091993
  C     -1.363531   -1.981337   -2.293608
  H     -2.553448   -3.355667   -3.458815
  F     -0.350395   -2.749689   -1.796006
  H      2.308385   -1.588704   -5.457128
  H      1.674286   -3.203478   -5.697392
  C      2.489007   -1.668510   -2.737538
  C      3.596314   -0.947608   -2.952247
  N      1.663936   -1.413685   -1.777806
  H      0.811642   -1.963178   -1.702755
  H      1.845503   -0.635078   -1.158749
  H      4.205351   -1.176003   -3.733825
  H      3.817230   -0.125845   -2.406041
  H     -1.244829   -3.280884   -5.541040
  H     -0.306331   -3.757746   -4.142734
  H     -0.036244   -1.318555   -5.865303
  H      0.175004   -1.035382   -4.158095
  H      3.143106   -3.362803   -3.811524
  H      1.487683   -3.458935   -3.165211
  H     -2.226220   -1.908386   -1.602039
  H     -1.051353   -0.915671   -2.443331

 Total Charge           Charge          ....    0
 Multiplicity           Mult            ....    1
 Number of Electrons    NEL             ....   80
 Basis Dimension        Dim             ....  517

ORBITAL ENERGIES
----------------

  NO   OCC          E(Eh)            E(eV)
   0   2.0000     -24.320347      -661.7903
   1   2.0000     -13.976731      -380.3262
   2   2.0000     -10.000934      -272.1393
   3   2.0000      -9.921622      -269.9810
   4   2.0000      -9.905708      -269.5480
   5   2.0000      -9.903835      -269.4971
   6   2.0000      -9.897469      -269.3238
   7   2.0000      -9.894108      -269.2324
   8   2.0000      -9.890389      -269.1312
   9   2.0000      -9.819048      -267.1899
  10   2.0000      -1.149728       -31.2857
  11   2.0000      -0.830379       -22.5958
  12   2.0000      -0.739707       -20.1285
  13   2.0000      -0.700881       -19.0719
  14   2.0000      -0.659856       -17.9556
  15   2.0000      -0.618689       -16.8354
  16   2.0000      -0.595728       -16.2106
  17   2.0000      -0.546782       -14.8787
  18   2.0000      -0.526614       -14.3299
  19   2.0000      -0.512325       -13.9411
  20   2.0000      -0.475297       -12.9335
  21   2.0000      -0.472431       -12.8555
  22   2.0000      -0.452734       -12.3195
  23   2.0000      -0.431794       -11.7497
  24   2.0000      -0.411816       -11.2061
  25   2.0000      -0.403665       -10.9843
  26   2.0000      -0.385280       -10.4840
  27   2.0000      -0.369784       -10.0623
  28   2.0000      -0.366442        -9.9714
  29   2.0000      -0.339409        -9.2358
  30   2.0000      -0.323483        -8.8024
  31   2.0000      -0.316833        -8.6215
  32   2.0000      -0.312469        -8.5027
  33   2.0000      -0.307775        -8.3750
  34   2.0000      -0.294298        -8.0083
  35   2.0000      -0.287281        -7.8173
  36   2.0000      -0.278278        -7.5723
  37   2.0000      -0.266171        -7.2429
  38   2.0000      -0.265764        -7.2318
  39   2.0000      -0.133165        -3.6236
  40   0.0000      -0.016172        -0.4401
  41   0.0000      -0.003962        -0.1078
  42   0.0000       0.003043         0.0828
  43   0.0000       0.008721         0.2373
  44   0.0000       0.019767         0.5379

MULLIKEN ATOMIC CHARGES
-----------------------
   0 C :   -0.519364
   1 C :   -0.572145
   2 C :   -0.580025
   3 C :   -0.376288
   4 C :   -0.584698
   5 H :    0.231472
   6 C :   -0.328693
   7 H :    0.284743
   8 F :   -0.421216
   9 H :    0.336271
  10 H :    0.223385
  11 C :    0.636009
  12 C :   -1.391889
  13 N :   -0.413307
  14 H :    0.526490
  15 H :    0.044385
  16 H :    0.311538
  17 H :    0.333767
  18 H :    0.301262
  19 H :    0.192533
  20 H :    0.313122
  21 H :    0.259182
  22 H :    0.295329
  23 H :    0.302989
  24 H :    0.303513
  25 H :    0.291632
Sum of atomic charges:    0.0000000

LOEWDIN ATOMIC CHARGES
----------------------
   0 C :   -0.185026
   1 C :   -0.194959
   2 C :   -0.140977
   3 C :   -0.204042
   4 C :   -0.170355
   5 H :    0.117411
   6 C :   -0.218734
   7 H :    0.105225
   8 F :   -0.004878
   9 H :    0.107984
  10 H :    0.106210
  11 C :   -0.486825
  12 C :    0.018363
  13 N :    0.139903
  14 H :    0.014096
  15 H :    0.117723
  16 H :    0.013053
  17 H :    0.006083
  18 H :    0.111216
  19 H :    0.096866
  20 H :    0.108116
  21 H :    0.094159
  22 H :    0.116466
  23 H :    0.092950
  24 H :    0.120511
  25 H :    0.119460

  Mayer bond orders larger than 0.100000
B(  0-C ,  1-C ) :   0.9067 B(  0-C ,  2-C ) :   0.7835 B(  0-C ,  3-C ) :   0.1840
B(  0-C ,  9-H ) :   0.8543 B(  0-C , 10-H ) :   0.9707 B(  0-C , 11-C ) :   0.1306
B(  1-C ,  3-C ) :   0.5279 B(  1-C ,  4-C ) :   0.1472 B(  1-C , 20-H ) :   0.9076
B(  1-C , 21-H ) :   1.0045 B(  2-C , 11-C ) :   0.6743 B(  2-C , 22-H ) :   0.9492
B(  2-C , 23-H ) :   0.9446 B(  3-C ,  4-C ) :   0.8482 B(  3-C , 18-H ) :   0.9247
B(  3-C , 19-H ) :   1.0170 B(  4-C ,  5-H ) :   0.9797 B(  4-C ,  6-C ) :   0.8269
B(  4-C ,  7-H ) :   0.9502 B(  4-C ,  8-F ) :   0.1466 B(  6-C ,  8-F ) :   0.7168
B(  6-C , 24-H ) :   0.8918 B(  6-C , 25-H ) :   0.9683 B( 11-C , 12-C ) :   1.0130
B( 11-C , 13-N ) :   1.0156 B( 12-C , 13-N ) :   0.1680 B( 12-C , 16-H ) :   1.0157
B( 12-C , 17-H ) :   0.9858 B( 13-N , 14-H ) :   0.6115 B( 13-N , 15-H ) :   1.0945

Dispersion correction           -0.053127837
FINAL SINGLE POINT ENERGY      -469.034862972676

DIPOLE MOMENT
-------------
                                X             Y             Z
Electronic contribution:     -1.27126      -1.76036       6.94564
Nuclear contribution   :     -0.37390       1.73388      -6.94752
                        -----------------------------------------
Total Dipole Moment    :     -1.64516      -0.02647      -0.00188
                        -----------------------------------------
Magnitude (a.u.)       :      1.64538
Magnitude (Debye)      :      4.18222

Rotational constants in cm-1:     0.062220     0.032742     0.024374
Rotational constants in MHz :  1865.297979   981.573941   730.711364

                             ****ORCA TERMINATED NORMALLY****
TOTAL RUN TIME: 0 days 0 hours 0 minutes 59 seconds 539 msec
