                         Program Version 5.0.0 -  RELEASE  -
|  1> !BLYP D3BJ RIJCOSX def2-TZVPD def2/J TightSCF xyzfile
|  2>
|  3> *xyzfile 0 1 D2.xyz
|  4>
|  5> %MaxCore 64000
|  6>
|  7> %pal nprocs 4
|  8> end
|  9>
| 10> %scf
| 11>   MaxIter 150
| 12> end
| 13>
| 14>
| 15>                          ****END OF INPUT****

CARTESIAN COORDINATES (ANGSTROEM)
---------------------------------
  C      1.647032   -2.345276   -5.020411
  C      0.217628   -1.814022   -4.924389
  C      2.209964   -2.812388   -3.665708
  C     -0.811356   -2.908780   -4.607625
  C     -1.916579   -2.485081   -3.643665
  H     -2.554525   -1.712428   -4.091993
  C     -1.363531   -1.981337   -2.293608
  H     -2.553448   -3.355667   -3.458815
  F     -0.350395   -2.749689   -1.796006
  H      2.308385   -1.588704   -5.457128
  H      1.674286   -3.203478   -5.697392
  C      2.489007   -1.668510   -2.737538
  N      3.596314   -0.947608   -2.952247
  C      1.663936   -1.413685   -1.777806
  H      0.811642   -1.963178   -1.702755
  H      1.845503   -0.635078   -1.158749
  H      4.205351   -1.176003   -3.733825
  H      3.817230   -0.125845   -2.406041
  H     -1.244829   -3.280884   -5.541040
  H     -0.306331   -3.757746   -4.142734
  H     -0.036244   -1.318555   -5.865303
  H      0.175004   -1.035382   -4.158095
  H      3.143106   -3.362803   -3.811524
  H      1.487683   -3.458935   -3.165211
  H     -2.226220   -1.908386   -1.602039
  H     -1.051353   -0.915671   -2.443331

 Total Charge           Charge          ....    0
 Multiplicity           Mult            ....    1
 Number of Electrons    NEL             ....   80
 Basis Dimension        Dim             ....  517

ORBITAL ENERGIES
----------------

  NO   OCC          E(Eh)            E(eV)
   0   2.0000     -24.287457      -660.8953
   1   2.0000     -13.993051      -380.7703
   2   2.0000      -9.981896      -271.6212
   3   2.0000      -9.909538      -269.6522
   4   2.0000      -9.901090      -269.4224
   5   2.0000      -9.898002      -269.3383
   6   2.0000      -9.895137      -269.2604
   7   2.0000      -9.891344      -269.1571
   8   2.0000      -9.890100      -269.1233
   9   2.0000      -9.804757      -266.8010
  10   2.0000      -1.118989       -30.4492
  11   2.0000      -0.821452       -22.3528
  12   2.0000      -0.730389       -19.8749
  13   2.0000      -0.698015       -18.9939
  14   2.0000      -0.651242       -17.7212
  15   2.0000      -0.626670       -17.0526
  16   2.0000      -0.586526       -15.9602
  17   2.0000      -0.538146       -14.6437
  18   2.0000      -0.507306       -13.8045
  19   2.0000      -0.504658       -13.7324
  20   2.0000      -0.468338       -12.7441
  21   2.0000      -0.453898       -12.3512
  22   2.0000      -0.441486       -12.0134
  23   2.0000      -0.430633       -11.7181
  24   2.0000      -0.407404       -11.0860
  25   2.0000      -0.390939       -10.6380
  26   2.0000      -0.387982       -10.5575
  27   2.0000      -0.379443       -10.3252
  28   2.0000      -0.349905        -9.5214
  29   2.0000      -0.334769        -9.1095
  30   2.0000      -0.321541        -8.7496
  31   2.0000      -0.311939        -8.4883
  32   2.0000      -0.303293        -8.2530
  33   2.0000      -0.291324        -7.9273
  34   2.0000      -0.280838        -7.6420
  35   2.0000      -0.278250        -7.5716
  36   2.0000      -0.269353        -7.3295
  37   2.0000      -0.262450        -7.1416
  38   2.0000      -0.248527        -6.7628
  39   2.0000      -0.144695        -3.9374
  40   0.0000      -0.010130        -0.2757
  41   0.0000      -0.003597        -0.0979
  42   0.0000       0.003360         0.0914
  43   0.0000       0.014158         0.3853
  44   0.0000       0.024993         0.6801

MULLIKEN ATOMIC CHARGES
-----------------------
   0 C :   -0.447312
   1 C :   -0.458529
   2 C :   -0.636011
   3 C :   -0.428231
   4 C :   -0.570141
   5 H :    0.237851
   6 C :   -0.345026
   7 H :    0.274860
   8 F :   -0.359627
   9 H :    0.277313
  10 H :    0.215981
  11 C :    0.699201
  12 N :   -0.357541
  13 C :   -1.735364
  14 H :    0.925574
  15 H :    0.210237
  16 H :    0.133969
  17 H :    0.113972
  18 H :    0.297083
  19 H :    0.198408
  20 H :    0.308587
  21 H :    0.278963
  22 H :    0.352630
  23 H :    0.211372
  24 H :    0.309163
  25 H :    0.292617
Sum of atomic charges:   -0.0000000

LOEWDIN ATOMIC CHARGES
----------------------
   0 C :   -0.188738
   1 C :   -0.195631
   2 C :   -0.140046
   3 C :   -0.203308
   4 C :   -0.171779
   5 H :    0.115129
   6 C :   -0.223258
   7 H :    0.103752
   8 F :   -0.024543
   9 H :    0.102549
  10 H :    0.105525
  11 C :   -0.469883
  12 N :    0.112850
  13 C :    0.035770
  14 H :   -0.040309
  15 H :    0.033630
  16 H :    0.094639
  17 H :    0.098681
  18 H :    0.109346
  19 H :    0.097509
  20 H :    0.106761
  21 H :    0.093810
  22 H :    0.112113
  23 H :    0.098084
  24 H :    0.118583
  25 H :    0.118763

  Mayer bond orders larger than 0.100000
B(  0-C ,  1-C ) :   0.9288 B(  0-C ,  2-C ) :   0.8095 B(  0-C ,  3-C ) :   0.2055
B(  0-C ,  9-H ) :   0.8516 B(  0-C , 10-H ) :   0.9793 B(  1-C ,  3-C ) :   0.5338
B(  1-C ,  4-C ) :   0.1342 B(  1-C , 20-H ) :   0.9247 B(  1-C , 21-H ) :   0.9872
B(  2-C , 11-C ) :   0.6839 B(  2-C , 12-N ) :   0.1442 B(  2-C , 13-C ) :   0.1013
B(  2-C , 22-H ) :   0.9249 B(  2-C , 23-H ) :   1.0136 B(  3-C ,  4-C ) :   0.8621
B(  3-C , 18-H ) :   0.9304 B(  3-C , 19-H ) :   1.0098 B(  4-C ,  5-H ) :   0.9671
B(  4-C ,  6-C ) :   0.8412 B(  4-C ,  7-H ) :   0.9523 B(  4-C ,  8-F ) :   0.1303
B(  6-C ,  8-F ) :   0.7763 B(  6-C , 13-C ) :   0.1974 B(  6-C , 24-H ) :   0.8614
B(  6-C , 25-H ) :   0.9644 B(  8-F , 13-C ) :   0.1562 B(  8-F , 14-H ) :  -0.2948
B( 11-C , 12-N ) :   0.8012 B( 11-C , 13-C ) :   1.0878 B( 11-C , 15-H ) :  -0.1385
B( 12-N , 16-H ) :   1.0552 B( 12-N , 17-H ) :   1.0458 B( 13-C , 14-H ) :   0.3209
B( 13-C , 15-H ) :   1.2527

Dispersion correction           -0.053442103
FINAL SINGLE POINT ENERGY      -469.018104669880

DIPOLE MOMENT
-------------
                                X             Y             Z
Electronic contribution:      0.44507      -1.33528       6.10119
Nuclear contribution   :     -0.73748       1.64619      -6.72655
                        -----------------------------------------
Total Dipole Moment    :     -0.29241       0.31091      -0.62536
                        -----------------------------------------
Magnitude (a.u.)       :      0.75713
Magnitude (Debye)      :      1.92448

Rotational constants in cm-1:     0.063169     0.031711     0.023958
Rotational constants in MHz :  1893.751676   950.657187   718.229932

                             ****ORCA TERMINATED NORMALLY****
TOTAL RUN TIME: 0 days 0 hours 0 minutes 49 seconds 867 msec
