                         Program Version 5.0.0 -  RELEASE  -
|  1> !M062X D3Zero RIJCOSX def2-TZVPD def2/J TightSCF
|  2> *xyz -1 1
|  3> C          4.90646       -3.10282       -5.95484
|  4> C          3.51177       -2.80621       -6.49228
|  5> H          2.73604       -3.37345       -5.97374
|  6> H          3.44490       -3.04083       -7.55528
|  7> S          3.00462       -1.09621       -6.38926
|  8> O          4.12886       -0.32965       -6.95372
|  9> O          1.78128       -1.00078       -7.13640
| 10> O          2.85155       -0.78368       -4.95679
| 11> H          5.62703       -2.52424       -6.49422
| 12> H          5.12164       -4.14387       -6.07654
| 13> H          4.95004       -2.84862       -4.91639
| 14> *
| 15>
| 16> %MaxCore 64000
| 17>
| 18> %pal nprocs 4
| 19> end
| 20>
| 21> %scf
| 22>   MaxIter 150
| 23> end
| 24>
| 25>
| 26>                          ****END OF INPUT****

CARTESIAN COORDINATES (ANGSTROEM)
---------------------------------
  C      4.906460   -3.102820   -5.954840
  C      3.511770   -2.806210   -6.492280
  H      2.736040   -3.373450   -5.973740
  H      3.444900   -3.040830   -7.555280
  S      3.004620   -1.096210   -6.389260
  O      4.128860   -0.329650   -6.953720
  O      1.781280   -1.000780   -7.136400
  O      2.851550   -0.783680   -4.956790
  H      5.627030   -2.524240   -6.494220
  H      5.121640   -4.143870   -6.076540
  H      4.950040   -2.848620   -4.916390

 Total Charge           Charge          ....   -1
 Multiplicity           Mult            ....    1
 Number of Electrons    NEL             ....   58
 Basis Dimension        Dim             ....  285

ORBITAL ENERGIES
----------------

  NO   OCC          E(Eh)            E(eV)
   0   2.0000     -89.889102     -2446.0068
   1   2.0000     -19.409159      -528.1501
   2   2.0000     -19.397856      -527.8425
   3   2.0000     -19.397507      -527.8330
   4   2.0000     -10.398602      -282.9603
   5   2.0000     -10.390163      -282.7307
   6   2.0000      -8.213935      -223.5125
   7   2.0000      -6.136527      -166.9834
   8   2.0000      -6.135524      -166.9561
   9   2.0000      -6.135333      -166.9509
  10   2.0000      -1.044960       -28.4348
  11   2.0000      -0.910168       -24.7669
  12   2.0000      -0.889579       -24.2067
  13   2.0000      -0.732763       -19.9395
  14   2.0000      -0.599356       -16.3093
  15   2.0000      -0.467144       -12.7116
  16   2.0000      -0.392921       -10.6919
  17   2.0000      -0.391615       -10.6564
  18   2.0000      -0.352303        -9.5866
  19   2.0000      -0.340907        -9.2765
  20   2.0000      -0.327724        -8.9178
  21   2.0000      -0.295667        -8.0455
  22   2.0000      -0.279491        -7.6053
  23   2.0000      -0.227238        -6.1835
  24   2.0000      -0.226223        -6.1558
  25   2.0000      -0.187662        -5.1065
  26   2.0000      -0.175535        -4.7766
  27   2.0000      -0.172132        -4.6840
  28   2.0000      -0.137490        -3.7413
  29   0.0000       0.127738         3.4759
  30   0.0000       0.143353         3.9008
  31   0.0000       0.145815         3.9678
  32   0.0000       0.156691         4.2638
  33   0.0000       0.174637         4.7521

MULLIKEN ATOMIC CHARGES
-----------------------
   0 C :   -1.178964
   1 C :   -0.452044
   2 H :    0.328705
   3 H :    0.331262
   4 S :    1.362009
   5 O :   -0.784687
   6 O :   -0.746869
   7 O :   -0.781525
   8 H :    0.294911
   9 H :    0.330362
  10 H :    0.296840
Sum of atomic charges:   -1.0000000

LOEWDIN ATOMIC CHARGES
----------------------
   0 C :   -0.146483
   1 C :   -0.336631
   2 H :    0.087766
   3 H :    0.085298
   4 S :    0.367580
   5 O :   -0.417587
   6 O :   -0.394159
   7 O :   -0.420360
   8 H :    0.059831
   9 H :    0.050690
  10 H :    0.064055

  Mayer bond orders larger than 0.100000
B(  0-C ,  1-C ) :   0.5474 B(  0-C ,  8-H ) :   1.0088 B(  0-C ,  9-H ) :   0.9330
B(  0-C , 10-H ) :   0.9880 B(  1-C ,  2-H ) :   0.9381 B(  1-C ,  3-H ) :   0.9348
B(  1-C ,  4-S ) :   0.8600 B(  1-C ,  6-O ) :   0.1314 B(  1-C ,  7-O ) :   0.1175
B(  4-S ,  5-O ) :   1.4120 B(  4-S ,  6-O ) :   1.4328 B(  4-S ,  7-O ) :   1.4078

Dispersion correction           -0.000145821
FINAL SINGLE POINT ENERGY      -703.162186805859

DIPOLE MOMENT
-------------
                                X             Y             Z
Electronic contribution:     -4.34277       6.34981      -0.66235
Nuclear contribution   :      5.05690      -8.21735       0.57889
                        -----------------------------------------
Total Dipole Moment    :      0.71413      -1.86754      -0.08345
                        -----------------------------------------
Magnitude (a.u.)       :      2.00117
Magnitude (Debye)      :      5.08656

Rotational constants in cm-1:     0.162547     0.083494     0.081672
Rotational constants in MHz :  4873.033504  2503.090885  2448.458543

                             ****ORCA TERMINATED NORMALLY****
TOTAL RUN TIME: 0 days 0 hours 0 minutes 35 seconds 697 msec
