                         Program Version 5.0.0 -  RELEASE  -
|  1> !M062X D3Zero RIJCOSX def2-TZVPD def2/J TightSCF
|  2> *xyz 1 1
|  3> C          4.49059        1.15590       -2.46929
|  4> N          4.30539        1.22276       -3.90832
|  5> C          4.63192        2.24637       -4.67096
|  6> N          4.54169        2.14399       -5.98714
|  7> N          5.08409        3.39358       -4.11855
|  8> H          4.92067        3.57050       -3.13587
|  9> H          5.25465        4.19739       -4.70696
| 10> H          3.82453        0.44911       -4.35093
| 11> H          4.34337        1.24932       -6.41665
| 12> H          4.67671        2.95662       -6.57411
| 13> C          5.94213        0.93950       -2.03689
| 14> H          3.86431        0.32853       -2.13661
| 15> H          4.07623        2.04999       -1.98901
| 16> H          6.32982        0.06401       -2.51451
| 17> H          5.98308        0.81426       -0.97504
| 18> H          6.52865        1.78889       -2.31873
| 19> *
| 20>
| 21> %MaxCore 64000
| 22>
| 23> %pal nprocs 4
| 24> end
| 25>
| 26> %scf
| 27>   MaxIter 150
| 28> end
| 29>
| 30>
| 31>                          ****END OF INPUT****

CARTESIAN COORDINATES (ANGSTROEM)
---------------------------------
  C      4.490590    1.155900   -2.469290
  N      4.305390    1.222760   -3.908320
  C      4.631920    2.246370   -4.670960
  N      4.541690    2.143990   -5.987140
  N      5.084090    3.393580   -4.118550
  H      4.920670    3.570500   -3.135870
  H      5.254650    4.197390   -4.706960
  H      3.824530    0.449110   -4.350930
  H      4.343370    1.249320   -6.416650
  H      4.676710    2.956620   -6.574110
  C      5.942130    0.939500   -2.036890
  H      3.864310    0.328530   -2.136610
  H      4.076230    2.049990   -1.989010
  H      6.329820    0.064010   -2.514510
  H      5.983080    0.814260   -0.975040
  H      6.528650    1.788890   -2.318730

 Total Charge           Charge          ....    1
 Multiplicity           Mult            ....    1
 Number of Electrons    NEL             ....   48
 Basis Dimension        Dim             ....  312

ORBITAL ENERGIES
----------------

  NO   OCC          E(Eh)            E(eV)
   0   2.0000     -14.972675      -407.4272
   1   2.0000     -14.971500      -407.3952
   2   2.0000     -14.969375      -407.3374
   3   2.0000     -10.877611      -295.9948
   4   2.0000     -10.743853      -292.3551
   5   2.0000     -10.668244      -290.2977
   6   2.0000      -1.330194       -36.1964
   7   2.0000      -1.212465       -32.9929
   8   2.0000      -1.195731       -32.5375
   9   2.0000      -1.026223       -27.9250
  10   2.0000      -0.932257       -25.3680
  11   2.0000      -0.884116       -24.0580
  12   2.0000      -0.863743       -23.5036
  13   2.0000      -0.819607       -22.3026
  14   2.0000      -0.763900       -20.7868
  15   2.0000      -0.758395       -20.6370
  16   2.0000      -0.731882       -19.9155
  17   2.0000      -0.697988       -18.9932
  18   2.0000      -0.672561       -18.3013
  19   2.0000      -0.623752       -16.9732
  20   2.0000      -0.595772       -16.2118
  21   2.0000      -0.574845       -15.6423
  22   2.0000      -0.541816       -14.7436
  23   2.0000      -0.511323       -13.9138
  24   0.0000      -0.143235        -3.8976
  25   0.0000      -0.132094        -3.5945
  26   0.0000      -0.112472        -3.0605
  27   0.0000      -0.106641        -2.9019
  28   0.0000      -0.080193        -2.1822

MULLIKEN ATOMIC CHARGES
-----------------------
   0 C :   -0.610852
   1 N :   -0.361342
   2 C :    1.124560
   3 N :   -0.588422
   4 N :   -0.564359
   5 H :    0.271901
   6 H :    0.269186
   7 H :    0.270055
   8 H :    0.243617
   9 H :    0.248123
  10 C :   -1.047500
  11 H :    0.352238
  12 H :    0.364350
  13 H :    0.336269
  14 H :    0.345212
  15 H :    0.346964
Sum of atomic charges:    1.0000000

LOEWDIN ATOMIC CHARGES
----------------------
   0 C :   -0.209038
   1 N :    0.077368
   2 C :   -0.432421
   3 N :    0.202987
   4 N :    0.209972
   5 H :    0.125683
   6 H :    0.138587
   7 H :    0.172717
   8 H :    0.144391
   9 H :    0.142607
  10 C :   -0.058542
  11 H :    0.131776
  12 H :    0.123063
  13 H :    0.080920
  14 H :    0.083348
  15 H :    0.066583

  Mayer bond orders larger than 0.100000
B(  0-C ,  1-N ) :   0.7729 B(  0-C , 10-C ) :   0.5724 B(  0-C , 11-H ) :   0.9071
B(  0-C , 12-H ) :   0.8899 B(  1-N ,  2-C ) :   1.1406 B(  1-N ,  3-N ) :   0.1111
B(  1-N ,  7-H ) :   0.9924 B(  2-C ,  3-N ) :   0.9219 B(  2-C ,  4-N ) :   1.0047
B(  3-N ,  8-H ) :   0.9810 B(  3-N ,  9-H ) :   0.9925 B(  4-N ,  5-H ) :   0.9159
B(  4-N ,  6-H ) :   0.9724 B( 10-C , 13-H ) :   0.9919 B( 10-C , 14-H ) :   0.9661
B( 10-C , 15-H ) :   0.9138

Dispersion correction           -0.000313641
FINAL SINGLE POINT ENERGY      -284.373457412957

DIPOLE MOMENT
-------------
                                X             Y             Z
Electronic contribution:     -1.79989       1.57351      -4.44192
Nuclear contribution   :      1.34333      -1.11039       3.43667
                        -----------------------------------------
Total Dipole Moment    :     -0.45656       0.46312      -1.00525
                        -----------------------------------------
Magnitude (a.u.)       :      1.19727
Magnitude (Debye)      :      3.04322

Rotational constants in cm-1:     0.227161     0.075356     0.065003
Rotational constants in MHz :  6810.114531  2259.122204  1948.738523

                             ****ORCA TERMINATED NORMALLY****
TOTAL RUN TIME: 0 days 0 hours 0 minutes 50 seconds 515 msec
