                         Program Version 5.0.0 -  RELEASE  -
|  1> !M062X D3Zero RIJCOSX def2-TZVPD def2/J TightSCF xyzfile
|  2>
|  3> *xyzfile 0 1 B.xyz
|  4>
|  5> %MaxCore 64000
|  6>
|  7> %pal nprocs 4
|  8> end
|  9>
| 10> %scf
| 11>   MaxIter 150
| 12> end
| 13>
| 14>
| 15>                          ****END OF INPUT****

CARTESIAN COORDINATES (ANGSTROEM)
---------------------------------
  C      4.490588    1.155899   -2.469290
  N      4.305394    1.222762   -3.908317
  C      4.906458   -3.102816   -5.954844
  C      3.511771   -2.806215   -6.492283
  H      2.736044   -3.373445   -5.973736
  H      3.444904   -3.040831   -7.555281
  S      3.004618   -1.096206   -6.389259
  C      4.631918    2.246365   -4.670958
  N      4.541686    2.143990   -5.987139
  N      5.084086    3.393584   -4.118545
  H      4.920675    3.570501   -3.135870
  H      5.254652    4.197390   -4.706956
  H      3.824530    0.449113   -4.350926
  H      4.343373    1.249318   -6.416646
  H      4.676712    2.956624   -6.574113
  O      4.128856   -0.329647   -6.953717
  O      1.781285   -1.000779   -7.136399
  C      5.942129    0.939500   -2.036893
  H      3.864305    0.328532   -2.136611
  H      4.076233    2.049994   -1.989010
  C      6.462677   -3.117775   -3.944671
  C      5.024977   -3.025679   -4.437625
  H      4.423321   -3.818693   -3.977648
  H      4.579350   -2.087131   -4.108727
  H      5.201533   -4.100207   -6.296905
  H      5.605922   -2.397822   -6.413368
  C      6.559957   -0.356290   -2.559086
  H      5.967976    0.952567   -0.942444
  H      6.547184    1.788331   -2.368849
  C      6.006283   -1.615917   -1.899301
  H      7.642360   -0.318000   -2.402059
  H      6.414855   -0.403433   -3.642587
  C      6.608718   -2.917014   -2.435655
  H      6.190324   -1.561115   -0.820948
  H      4.919250   -1.651245   -2.016586
  H      7.066975   -2.374258   -4.475514
  H      6.887808   -4.089747   -4.215332
  H      6.135197   -3.755573   -1.915159
  H      7.671142   -2.955503   -2.172291
  O      2.851546   -0.783683   -4.956789

 Total Charge           Charge          ....    0
 Multiplicity           Mult            ....    1
 Number of Electrons    NEL             ....  144
 Basis Dimension        Dim             ....  854

ORBITAL ENERGIES
----------------

  NO   OCC          E(Eh)            E(eV)
   0   2.0000     -90.046200     -2450.2817
   1   2.0000     -19.567689      -532.4639
   2   2.0000     -19.566853      -532.4411
   3   2.0000     -19.552907      -532.0616
   4   2.0000     -14.824440      -403.3935
   5   2.0000     -14.794029      -402.5660
   6   2.0000     -14.790644      -402.4739
   7   2.0000     -10.713836      -291.5383
   8   2.0000     -10.602907      -288.5198
   9   2.0000     -10.555520      -287.2303
  10   2.0000     -10.538803      -286.7754
  11   2.0000     -10.531682      -286.5816
  12   2.0000     -10.527055      -286.4557
  13   2.0000     -10.526587      -286.4430
  14   2.0000     -10.519593      -286.2527
  15   2.0000     -10.518417      -286.2207
  16   2.0000     -10.510814      -286.0138
  17   2.0000      -8.371714      -227.8059
  18   2.0000      -6.294080      -171.2706
  19   2.0000      -6.293654      -171.2590
  20   2.0000      -6.292747      -171.2344
  21   2.0000      -1.207476       -32.8571
  22   2.0000      -1.166999       -31.7556
  23   2.0000      -1.067587       -29.0505
  24   2.0000      -1.067263       -29.0417
  25   2.0000      -1.048744       -28.5378
  26   2.0000      -1.034475       -28.1495
  27   2.0000      -0.924761       -25.1640
  28   2.0000      -0.898145       -24.4398
  29   2.0000      -0.869475       -23.6596
  30   2.0000      -0.829444       -22.5703
  31   2.0000      -0.791334       -21.5333
  32   2.0000      -0.763928       -20.7875
  33   2.0000      -0.733468       -19.9587
  34   2.0000      -0.708666       -19.2838
  35   2.0000      -0.697725       -18.9861
  36   2.0000      -0.677143       -18.4260
  37   2.0000      -0.655296       -17.8315
  38   2.0000      -0.631432       -17.1821
  39   2.0000      -0.626248       -17.0411
  40   2.0000      -0.612630       -16.6705
  41   2.0000      -0.590218       -16.0607
  42   2.0000      -0.578218       -15.7341
  43   2.0000      -0.555812       -15.1244
  44   2.0000      -0.551612       -15.0101
  45   2.0000      -0.539090       -14.6694
  46   2.0000      -0.535576       -14.5738
  47   2.0000      -0.523914       -14.2564
  48   2.0000      -0.508451       -13.8357
  49   2.0000      -0.504994       -13.7416
  50   2.0000      -0.499486       -13.5917
  51   2.0000      -0.482762       -13.1366
  52   2.0000      -0.478553       -13.0221
  53   2.0000      -0.466932       -12.7059
  54   2.0000      -0.454957       -12.3800
  55   2.0000      -0.445942       -12.1347
  56   2.0000      -0.427798       -11.6410
  57   2.0000      -0.421110       -11.4590
  58   2.0000      -0.411432       -11.1956
  59   2.0000      -0.396889       -10.7999
  60   2.0000      -0.392064       -10.6686
  61   2.0000      -0.389683       -10.6038
  62   2.0000      -0.388168       -10.5626
  63   2.0000      -0.380287       -10.3481
  64   2.0000      -0.372473       -10.1355
  65   2.0000      -0.367895       -10.0109
  66   2.0000      -0.362892        -9.8748
  67   2.0000      -0.348489        -9.4829
  68   2.0000      -0.344330        -9.3697
  69   2.0000      -0.335460        -9.1283
  70   2.0000      -0.319753        -8.7009
  71   2.0000      -0.303496        -8.2585
  72   0.0000      -0.020227        -0.5504
  73   0.0000       0.003223         0.0877
  74   0.0000       0.013464         0.3664
  75   0.0000       0.021198         0.5768
  76   0.0000       0.028401         0.7728

MULLIKEN ATOMIC CHARGES
-----------------------
   0 C :   -1.110539
   1 N :   -0.068887
   2 C :   -0.724213
   3 C :   -0.985443
   4 H :    0.379526
   5 H :    0.408483
   6 S :    1.647742
   7 C :    1.086820
   8 N :   -0.492160
   9 N :   -0.614924
  10 H :    0.262779
  11 H :    0.266748
  12 H :    0.265263
  13 H :    0.343283
  14 H :    0.239354
  15 O :   -1.065442
  16 O :   -0.817736
  17 C :   -0.697929
  18 H :    0.381460
  19 H :    0.364998
  20 C :   -0.593711
  21 C :   -0.070343
  22 H :    0.306180
  23 H :    0.057638
  24 H :    0.353299
  25 H :    0.300002
  26 C :   -0.333035
  27 H :    0.402113
  28 H :    0.396185
  29 C :   -0.511965
  30 H :    0.377265
  31 H :    0.189365
  32 C :   -1.148067
  33 H :    0.393589
  34 H :    0.275953
  35 H :    0.324465
  36 H :    0.415604
  37 H :    0.370949
  38 H :    0.384329
  39 O :   -0.958994
Sum of atomic charges:    0.0000000

LOEWDIN ATOMIC CHARGES
----------------------
   0 C :   -0.166140
   1 N :    0.099192
   2 C :   -0.233593
   3 C :   -0.247625
   4 H :    0.108837
   5 H :    0.103032
   6 S :    0.469636
   7 C :   -0.432509
   8 N :    0.206943
   9 N :    0.177731
  10 H :    0.110446
  11 H :    0.122233
  12 H :    0.073713
  13 H :    0.049698
  14 H :    0.131692
  15 O :   -0.382365
  16 O :   -0.331825
  17 C :   -0.191568
  18 H :    0.128584
  19 H :    0.117498
  20 C :   -0.223394
  21 C :   -0.225140
  22 H :    0.131459
  23 H :    0.082368
  24 H :    0.116826
  25 H :    0.111763
  26 C :   -0.211570
  27 H :    0.118307
  28 H :    0.104096
  29 C :   -0.221876
  30 H :    0.121707
  31 H :    0.109132
  32 C :   -0.214769
  33 H :    0.116368
  34 H :    0.105100
  35 H :    0.110378
  36 H :    0.115851
  37 H :    0.112766
  38 H :    0.111091
  39 O :   -0.384075

  Mayer bond orders larger than 0.100000
B(  0-C ,  1-N ) :   0.8847 B(  0-C ,  7-C ) :  -0.1838 B(  0-C ,  9-N ) :   0.1469
B(  0-C , 12-H ) :  -0.2051 B(  0-C , 17-C ) :   0.6284 B(  0-C , 18-H ) :   0.8126
B(  0-C , 19-H ) :   0.8861 B(  0-C , 27-H ) :  -0.1236 B(  1-N ,  7-C ) :   1.1666
B(  1-N , 12-H ) :   0.7791 B(  1-N , 39-O ) :  -0.2594 B(  2-C ,  3-C ) :   0.6618
B(  2-C , 20-C ) :   0.3694 B(  2-C , 21-C ) :   0.2381 B(  2-C , 22-H ) :  -0.1062
B(  2-C , 24-H ) :   0.9310 B(  2-C , 25-H ) :   0.9955 B(  3-C ,  4-H ) :   0.9215
B(  3-C ,  5-H ) :   0.9475 B(  3-C ,  6-S ) :   0.8822 B(  3-C , 15-O ) :   0.1041
B(  3-C , 16-O ) :   0.1752 B(  3-C , 21-C ) :   0.1720 B(  6-S , 15-O ) :   0.9890
B(  6-S , 16-O ) :   1.2034 B(  6-S , 39-O ) :   1.3418 B(  7-C ,  8-N ) :   1.0130
B(  7-C ,  9-N ) :   0.9376 B(  7-C , 12-H ) :  -0.1831 B(  8-N , 13-H ) :   0.8232
B(  8-N , 14-H ) :   1.0025 B(  8-N , 15-O ) :  -0.1475 B(  9-N , 10-H ) :   0.9502
B(  9-N , 11-H ) :   0.9684 B( 17-C , 19-H ) :  -0.1133 B( 17-C , 26-C ) :   0.6984
B( 17-C , 27-H ) :   0.9705 B( 17-C , 28-H ) :   0.8666 B( 17-C , 29-C ) :   0.2204
B( 20-C , 21-C ) :   0.2948 B( 20-C , 26-C ) :   0.1432 B( 20-C , 29-C ) :  -0.1257
B( 20-C , 32-C ) :   0.5831 B( 20-C , 35-H ) :   1.0196 B( 20-C , 36-H ) :   0.8546
B( 21-C , 22-H ) :   0.9208 B( 21-C , 23-H ) :   1.1625 B( 21-C , 29-C ) :   0.1631
B( 21-C , 32-C ) :   0.1682 B( 21-C , 35-H ) :  -0.1249 B( 21-C , 39-O ) :   0.1545
B( 22-H , 23-H ) :   0.1268 B( 23-H , 39-O ) :  -0.2278 B( 26-C , 29-C ) :   0.1874
B( 26-C , 30-H ) :   0.8836 B( 26-C , 31-H ) :   1.0682 B( 26-C , 32-C ) :   0.1624
B( 26-C , 34-H ) :  -0.1826 B( 29-C , 32-C ) :   0.6455 B( 29-C , 33-H ) :   0.8572
B( 29-C , 34-H ) :   1.1020 B( 32-C , 37-H ) :   0.9726 B( 32-C , 38-H ) :   0.9711

Dispersion correction           -0.003090165
FINAL SINGLE POINT ENERGY     -1183.054321346476

DIPOLE MOMENT
-------------
                                X             Y             Z
Electronic contribution:    -14.48752       8.30932     -15.29208
Nuclear contribution   :     16.79156      -5.47215      17.54258
                        -----------------------------------------
Total Dipole Moment    :      2.30404       2.83717       2.25050
                        -----------------------------------------
Magnitude (a.u.)       :      4.29219
Magnitude (Debye)      :     10.90987

Rotational constants in cm-1:     0.014207     0.012373     0.007472
Rotational constants in MHz :   425.900436   370.942493   224.006604

                             ****ORCA TERMINATED NORMALLY****
TOTAL RUN TIME: 0 days 0 hours 11 minutes 14 seconds 98 msec
