                         Program Version 5.0.0 -  RELEASE  -
|  1> !M062X D3Zero RIJCOSX def2-TZVPD def2/J TightSCF
|  2> *xyz 0 1
|  3> C          4.90646       -3.10282       -5.95484
|  4> C          3.51177       -2.80621       -6.49228
|  5> H          2.73604       -3.37345       -5.97374
|  6> H          3.44490       -3.04083       -7.55528
|  7> S          3.00462       -1.09621       -6.38926
|  8> F          4.12886       -0.32965       -6.95372
|  9> O          1.78128       -1.00078       -7.13640
| 10> O          2.85155       -0.78368       -4.95679
| 11> H          5.62703       -2.52424       -6.49422
| 12> H          5.12164       -4.14387       -6.07654
| 13> H          4.95004       -2.84862       -4.91639
| 14> *
| 15>
| 16> %MaxCore 64000
| 17>
| 18> %pal nprocs 4
| 19> end
| 20>
| 21> %scf
| 22>   MaxIter 150
| 23> end
| 24>
| 25>
| 26>                          ****END OF INPUT****

CARTESIAN COORDINATES (ANGSTROEM)
---------------------------------
  C      4.906460   -3.102820   -5.954840
  C      3.511770   -2.806210   -6.492280
  H      2.736040   -3.373450   -5.973740
  H      3.444900   -3.040830   -7.555280
  S      3.004620   -1.096210   -6.389260
  F      4.128860   -0.329650   -6.953720
  O      1.781280   -1.000780   -7.136400
  O      2.851550   -0.783680   -4.956790
  H      5.627030   -2.524240   -6.494220
  H      5.121640   -4.143870   -6.076540
  H      4.950040   -2.848620   -4.916390

 Total Charge           Charge          ....    0
 Multiplicity           Mult            ....    1
 Number of Electrons    NEL             ....   58
 Basis Dimension        Dim             ....  285

ORBITAL ENERGIES
----------------

  NO   OCC          E(Eh)            E(eV)
   0   2.0000     -90.151623     -2453.1504
   1   2.0000     -25.354570      -689.9329
   2   2.0000     -19.643560      -534.5284
   3   2.0000     -19.631906      -534.2113
   4   2.0000     -10.601390      -288.4785
   5   2.0000     -10.559753      -287.3455
   6   2.0000      -8.476894      -230.6680
   7   2.0000      -6.401858      -174.2034
   8   2.0000      -6.396681      -174.0625
   9   2.0000      -6.396199      -174.0494
  10   2.0000      -1.506541       -40.9951
  11   2.0000      -1.233690       -33.5704
  12   2.0000      -1.132655       -30.8211
  13   2.0000      -0.929849       -25.3025
  14   2.0000      -0.825836       -22.4722
  15   2.0000      -0.769422       -20.9370
  16   2.0000      -0.681521       -18.5451
  17   2.0000      -0.672079       -18.2882
  18   2.0000      -0.634939       -17.2776
  19   2.0000      -0.572173       -15.5696
  20   2.0000      -0.558061       -15.1856
  21   2.0000      -0.533305       -14.5120
  22   2.0000      -0.511480       -13.9181
  23   2.0000      -0.482193       -13.1211
  24   2.0000      -0.469675       -12.7805
  25   2.0000      -0.454386       -12.3645
  26   2.0000      -0.411788       -11.2053
  27   2.0000      -0.397951       -10.8288
  28   2.0000      -0.388709       -10.5773
  29   0.0000      -0.000859        -0.0234
  30   0.0000       0.020802         0.5661
  31   0.0000       0.023670         0.6441
  32   0.0000       0.029487         0.8024
  33   0.0000       0.054880         1.4934

MULLIKEN ATOMIC CHARGES
-----------------------
   0 C :   -1.176154
   1 C :   -0.472080
   2 H :    0.372873
   3 H :    0.384842
   4 S :    1.344594
   5 F :   -0.169523
   6 O :   -0.636945
   7 O :   -0.668641
   8 H :    0.347736
   9 H :    0.337643
  10 H :    0.335655
Sum of atomic charges:   -0.0000000

LOEWDIN ATOMIC CHARGES
----------------------
   0 C :   -0.110736
   1 C :   -0.282237
   2 H :    0.115679
   3 H :    0.103609
   4 S :    0.617522
   5 F :   -0.081863
   6 O :   -0.280285
   7 O :   -0.305008
   8 H :    0.070959
   9 H :    0.075294
  10 H :    0.077067

  Mayer bond orders larger than 0.100000
B(  0-C ,  1-C ) :   0.5418 B(  0-C ,  8-H ) :   0.9283 B(  0-C ,  9-H ) :   0.9493
B(  0-C , 10-H ) :   0.9755 B(  1-C ,  2-H ) :   0.8906 B(  1-C ,  3-H ) :   0.8892
B(  1-C ,  4-S ) :   0.8665 B(  4-S ,  5-F ) :   0.8955 B(  4-S ,  6-O ) :   1.6246
B(  4-S ,  7-O ) :   1.5966

Dispersion correction           -0.000152421
FINAL SINGLE POINT ENERGY      -727.685954093126

DIPOLE MOMENT
-------------
                                X             Y             Z
Electronic contribution:     -2.95302       8.15430      -1.75512
Nuclear contribution   :      4.18919      -9.36357       1.23251
                        -----------------------------------------
Total Dipole Moment    :      1.23617      -1.20927      -0.52261
                        -----------------------------------------
Magnitude (a.u.)       :      1.80653
Magnitude (Debye)      :      4.59184

Rotational constants in cm-1:     0.153152     0.082513     0.079874
Rotational constants in MHz :  4591.373714  2473.673397  2394.575279

                             ****ORCA TERMINATED NORMALLY****
TOTAL RUN TIME: 0 days 0 hours 0 minutes 40 seconds 351 msec
