                         Program Version 5.0.0 -  RELEASE  -
|  1> !M062X D3Zero RIJCOSX def2-TZVPD def2/J TightSCF
|  2> *xyz 0 1
|  3> C          4.49059        1.15590       -2.46929
|  4> C          4.30539        1.22276       -3.90832
|  5> C          4.63192        2.24637       -4.67096
|  6> N          4.54169        2.14399       -5.98714
|  7> N          5.08409        3.39358       -4.11855
|  8> H          4.92067        3.57050       -3.13587
|  9> H          5.25465        4.19739       -4.70696
| 10> H          3.82453        0.44911       -4.35093
| 11> H          4.34337        1.24932       -6.41665
| 12> H          4.67671        2.95662       -6.57411
| 13> C          5.94213        0.93950       -2.03689
| 14> H          3.86431        0.32853       -2.13661
| 15> H          4.07623        2.04999       -1.98901
| 16> H          6.32982        0.06401       -2.51451
| 17> H          5.98308        0.81426       -0.97504
| 18> H          6.52865        1.78889       -2.31873
| 19> *
| 20>
| 21> %MaxCore 64000
| 22>
| 23> %pal nprocs 4
| 24> end
| 25>
| 26> %scf
| 27>   MaxIter 150
| 28> end
| 29>
| 30>
| 31>                          ****END OF INPUT****

CARTESIAN COORDINATES (ANGSTROEM)
---------------------------------
  C      4.490590    1.155900   -2.469290
  C      4.305390    1.222760   -3.908320
  C      4.631920    2.246370   -4.670960
  N      4.541690    2.143990   -5.987140
  N      5.084090    3.393580   -4.118550
  H      4.920670    3.570500   -3.135870
  H      5.254650    4.197390   -4.706960
  H      3.824530    0.449110   -4.350930
  H      4.343370    1.249320   -6.416650
  H      4.676710    2.956620   -6.574110
  C      5.942130    0.939500   -2.036890
  H      3.864310    0.328530   -2.136610
  H      4.076230    2.049990   -1.989010
  H      6.329820    0.064010   -2.514510
  H      5.983080    0.814260   -0.975040
  H      6.528650    1.788890   -2.318730

 Total Charge           Charge          ....    0
 Multiplicity           Mult            ....    1
 Number of Electrons    NEL             ....   48
 Basis Dimension        Dim             ....  312

ORBITAL ENERGIES
----------------

  NO   OCC          E(Eh)            E(eV)
   0   2.0000     -14.748797      -401.3352
   1   2.0000     -14.746396      -401.2698
   2   2.0000     -10.581269      -287.9310
   3   2.0000     -10.507778      -285.9312
   4   2.0000     -10.495438      -285.5954
   5   2.0000     -10.457017      -284.5499
   6   2.0000      -1.071462       -29.1560
   7   2.0000      -0.974454       -26.5162
   8   2.0000      -0.871175       -23.7059
   9   2.0000      -0.787274       -21.4228
  10   2.0000      -0.703492       -19.1430
  11   2.0000      -0.655984       -17.8502
  12   2.0000      -0.615870       -16.7587
  13   2.0000      -0.583062       -15.8659
  14   2.0000      -0.543330       -14.7848
  15   2.0000      -0.505440       -13.7537
  16   2.0000      -0.490687       -13.3523
  17   2.0000      -0.456770       -12.4293
  18   2.0000      -0.455252       -12.3880
  19   2.0000      -0.411768       -11.2048
  20   2.0000      -0.389278       -10.5928
  21   2.0000      -0.377786       -10.2801
  22   2.0000      -0.331663        -9.0250
  23   2.0000      -0.213145        -5.8000
  24   0.0000       0.011507         0.3131
  25   0.0000       0.035550         0.9674
  26   0.0000       0.040434         1.1003
  27   0.0000       0.051251         1.3946
  28   0.0000       0.065881         1.7927

MULLIKEN ATOMIC CHARGES
-----------------------
   0 C :   -0.709753
   1 C :   -0.400862
   2 C :    0.817620
   3 N :   -0.650987
   4 N :   -0.610245
   5 H :    0.236584
   6 H :    0.231680
   7 H :    0.184553
   8 H :    0.215628
   9 H :    0.206090
  10 C :   -1.097029
  11 H :    0.304091
  12 H :    0.336566
  13 H :    0.315076
  14 H :    0.298834
  15 H :    0.322154
Sum of atomic charges:    0.0000000

LOEWDIN ATOMIC CHARGES
----------------------
   0 C :   -0.293310
   1 C :   -0.147952
   2 C :   -0.544491
   3 N :    0.099546
   4 N :    0.121610
   5 H :    0.099519
   6 H :    0.100180
   7 H :    0.066714
   8 H :    0.115312
   9 H :    0.102124
  10 C :   -0.108354
  11 H :    0.105141
  12 H :    0.099865
  13 H :    0.068062
  14 H :    0.058250
  15 H :    0.057786

  Mayer bond orders larger than 0.100000
B(  0-C ,  1-C ) :   0.5838 B(  0-C ,  2-C ) :   0.2352 B(  0-C , 10-C ) :   0.5188
B(  0-C , 11-H ) :   1.0260 B(  0-C , 12-H ) :   0.8778 B(  1-C ,  2-C ) :   1.2124
B(  1-C ,  3-N ) :   0.1356 B(  1-C ,  7-H ) :   1.1505 B(  1-C , 11-H ) :  -0.1025
B(  2-C ,  3-N ) :   0.7693 B(  2-C ,  4-N ) :   0.8668 B(  2-C ,  7-H ) :  -0.2012
B(  3-N ,  8-H ) :   1.0080 B(  3-N ,  9-H ) :   1.0267 B(  4-N ,  5-H ) :   0.9578
B(  4-N ,  6-H ) :   0.9985 B( 10-C , 13-H ) :   1.0021 B( 10-C , 14-H ) :   0.9872
B( 10-C , 15-H ) :   0.9625

Dispersion correction           -0.000311773
FINAL SINGLE POINT ENERGY      -267.892946191444

DIPOLE MOMENT
-------------
                                X             Y             Z
Electronic contribution:     -1.26749       1.94571      -4.09021
Nuclear contribution   :      1.23062      -1.24683       3.43056
                        -----------------------------------------
Total Dipole Moment    :     -0.03687       0.69888      -0.65965
                        -----------------------------------------
Magnitude (a.u.)       :      0.96173
Magnitude (Debye)      :      2.44453

Rotational constants in cm-1:     0.231477     0.075416     0.065327
Rotational constants in MHz :  6939.497385  2260.912204  1958.442932

                             ****ORCA TERMINATED NORMALLY****
TOTAL RUN TIME: 0 days 0 hours 0 minutes 52 seconds 520 msec
