                         Program Version 5.0.0 -  RELEASE  -
|  1> !M062X D3Zero RIJCOSX def2-TZVPD def2/J TightSCF
|  2> *xyz 0 1
|  3> C          4.90646       -3.10282       -5.95484
|  4> C          3.51177       -2.80621       -6.49228
|  5> H          2.73604       -3.37345       -5.97374
|  6> H          3.44490       -3.04083       -7.55528
|  7> S          3.00462       -1.09621       -6.38926
|  8> O          4.12886       -0.32965       -6.95372
|  9> F          1.78128       -1.00078       -7.13640
| 10> O          2.85155       -0.78368       -4.95679
| 11> H          5.62703       -2.52424       -6.49422
| 12> H          5.12164       -4.14387       -6.07654
| 13> H          4.95004       -2.84862       -4.91639
| 14> *
| 15>
| 16> %MaxCore 64000
| 17>
| 18> %pal nprocs 4
| 19> end
| 20>
| 21> %scf
| 22>   MaxIter 150
| 23> end
| 24>
| 25>
| 26>                          ****END OF INPUT****

CARTESIAN COORDINATES (ANGSTROEM)
---------------------------------
  C      4.906460   -3.102820   -5.954840
  C      3.511770   -2.806210   -6.492280
  H      2.736040   -3.373450   -5.973740
  H      3.444900   -3.040830   -7.555280
  S      3.004620   -1.096210   -6.389260
  O      4.128860   -0.329650   -6.953720
  F      1.781280   -1.000780   -7.136400
  O      2.851550   -0.783680   -4.956790
  H      5.627030   -2.524240   -6.494220
  H      5.121640   -4.143870   -6.076540
  H      4.950040   -2.848620   -4.916390

 Total Charge           Charge          ....    0
 Multiplicity           Mult            ....    1
 Number of Electrons    NEL             ....   58
 Basis Dimension        Dim             ....  285

ORBITAL ENERGIES
----------------

  NO   OCC          E(Eh)            E(eV)
   0   2.0000     -90.153551     -2453.2028
   1   2.0000     -25.373234      -690.4408
   2   2.0000     -19.632157      -534.2182
   3   2.0000     -19.632081      -534.2161
   4   2.0000     -10.602068      -288.4969
   5   2.0000     -10.555195      -287.2215
   6   2.0000      -8.478854      -230.7213
   7   2.0000      -6.403642      -174.2520
   8   2.0000      -6.398628      -174.1155
   9   2.0000      -6.398204      -174.1040
  10   2.0000      -1.537914       -41.8488
  11   2.0000      -1.219301       -33.1789
  12   2.0000      -1.119042       -30.4507
  13   2.0000      -0.926899       -25.2222
  14   2.0000      -0.842121       -22.9153
  15   2.0000      -0.771519       -20.9941
  16   2.0000      -0.695364       -18.9218
  17   2.0000      -0.687929       -18.7195
  18   2.0000      -0.643673       -17.5152
  19   2.0000      -0.572089       -15.5673
  20   2.0000      -0.560164       -15.2428
  21   2.0000      -0.517959       -14.0944
  22   2.0000      -0.501813       -13.6550
  23   2.0000      -0.477752       -13.0003
  24   2.0000      -0.457594       -12.4518
  25   2.0000      -0.454914       -12.3788
  26   2.0000      -0.402308       -10.9474
  27   2.0000      -0.394578       -10.7370
  28   2.0000      -0.377575       -10.2743
  29   0.0000      -0.000892        -0.0243
  30   0.0000       0.017507         0.4764
  31   0.0000       0.024972         0.6795
  32   0.0000       0.029870         0.8128
  33   0.0000       0.055833         1.5193

MULLIKEN ATOMIC CHARGES
-----------------------
   0 C :   -1.185321
   1 C :   -0.502784
   2 H :    0.395665
   3 H :    0.402555
   4 S :    1.319424
   5 O :   -0.665099
   6 F :   -0.114861
   7 O :   -0.660800
   8 H :    0.338014
   9 H :    0.337022
  10 H :    0.336185
Sum of atomic charges:   -0.0000000

LOEWDIN ATOMIC CHARGES
----------------------
   0 C :   -0.099553
   1 C :   -0.292456
   2 H :    0.104947
   3 H :    0.101600
   4 S :    0.619623
   5 O :   -0.305758
   6 F :   -0.054401
   7 O :   -0.305968
   8 H :    0.075512
   9 H :    0.076611
  10 H :    0.079845

  Mayer bond orders larger than 0.100000
B(  0-C ,  1-C ) :   0.6342 B(  0-C ,  8-H ) :   0.9590 B(  0-C ,  9-H ) :   0.9321
B(  0-C , 10-H ) :   0.9444 B(  1-C ,  2-H ) :   0.8646 B(  1-C ,  3-H ) :   0.8469
B(  1-C ,  4-S ) :   0.8609 B(  4-S ,  5-O ) :   1.5992 B(  4-S ,  6-F ) :   0.9323
B(  4-S ,  7-O ) :   1.5893

Dispersion correction           -0.000140856
FINAL SINGLE POINT ENERGY      -727.670903393991

DIPOLE MOMENT
-------------
                                X             Y             Z
Electronic contribution:     -6.95250       7.02781      -2.06261
Nuclear contribution   :      6.63544      -8.66423       1.42287
                        -----------------------------------------
Total Dipole Moment    :     -0.31705      -1.63642      -0.63974
                        -----------------------------------------
Magnitude (a.u.)       :      1.78540
Magnitude (Debye)      :      4.53812

Rotational constants in cm-1:     0.158118     0.080978     0.078216
Rotational constants in MHz :  4740.271775  2427.649826  2344.849020

                             ****ORCA TERMINATED NORMALLY****
TOTAL RUN TIME: 0 days 0 hours 0 minutes 40 seconds 387 msec
