                         Program Version 5.0.0 -  RELEASE  -
|  1> !M062X D3Zero RIJCOSX def2-TZVPD def2/J TightSCF
|  2> *xyz 0 1
|  3> C          4.49059        1.15590       -2.46929
|  4> N          4.30539        1.22276       -3.90832
|  5> C          4.63192        2.24637       -4.67096
|  6> C          4.54169        2.14399       -5.98714
|  7> N          5.08409        3.39358       -4.11855
|  8> H          4.92067        3.57050       -3.13587
|  9> H          5.25465        4.19739       -4.70696
| 10> H          3.82453        0.44911       -4.35093
| 11> H          4.34337        1.24932       -6.41665
| 12> H          4.67671        2.95662       -6.57411
| 13> C          5.94213        0.93950       -2.03689
| 14> H          3.86431        0.32853       -2.13661
| 15> H          4.07623        2.04999       -1.98901
| 16> H          6.32982        0.06401       -2.51451
| 17> H          5.98308        0.81426       -0.97504
| 18> H          6.52865        1.78889       -2.31873
| 19> *
| 20>
| 21> %MaxCore 64000
| 22>
| 23> %pal nprocs 4
| 24> end
| 25>
| 26> %scf
| 27>   MaxIter 150
| 28> end
| 29>
| 30>
| 31>                          ****END OF INPUT****

CARTESIAN COORDINATES (ANGSTROEM)
---------------------------------
  C      4.490590    1.155900   -2.469290
  N      4.305390    1.222760   -3.908320
  C      4.631920    2.246370   -4.670960
  C      4.541690    2.143990   -5.987140
  N      5.084090    3.393580   -4.118550
  H      4.920670    3.570500   -3.135870
  H      5.254650    4.197390   -4.706960
  H      3.824530    0.449110   -4.350930
  H      4.343370    1.249320   -6.416650
  H      4.676710    2.956620   -6.574110
  C      5.942130    0.939500   -2.036890
  H      3.864310    0.328530   -2.136610
  H      4.076230    2.049990   -1.989010
  H      6.329820    0.064010   -2.514510
  H      5.983080    0.814260   -0.975040
  H      6.528650    1.788890   -2.318730

 Total Charge           Charge          ....    0
 Multiplicity           Mult            ....    1
 Number of Electrons    NEL             ....   48
 Basis Dimension        Dim             ....  312

ORBITAL ENERGIES
----------------

  NO   OCC          E(Eh)            E(eV)
   0   2.0000     -14.747429      -401.2979
   1   2.0000     -14.746427      -401.2707
   2   2.0000     -10.582896      -287.9752
   3   2.0000     -10.576249      -287.7944
   4   2.0000     -10.521009      -286.2912
   5   2.0000     -10.446054      -284.2516
   6   2.0000      -1.079743       -29.3813
   7   2.0000      -0.986424       -26.8420
   8   2.0000      -0.867745       -23.6125
   9   2.0000      -0.795436       -21.6449
  10   2.0000      -0.716685       -19.5020
  11   2.0000      -0.677397       -18.4329
  12   2.0000      -0.610151       -16.6031
  13   2.0000      -0.570285       -15.5183
  14   2.0000      -0.549138       -14.9428
  15   2.0000      -0.517511       -14.0822
  16   2.0000      -0.492769       -13.4089
  17   2.0000      -0.470055       -12.7909
  18   2.0000      -0.447452       -12.1758
  19   2.0000      -0.437338       -11.9006
  20   2.0000      -0.424758       -11.5582
  21   2.0000      -0.416226       -11.3261
  22   2.0000      -0.319033        -8.6813
  23   2.0000      -0.215318        -5.8591
  24   0.0000       0.010986         0.2990
  25   0.0000       0.035424         0.9639
  26   0.0000       0.036872         1.0033
  27   0.0000       0.041813         1.1378
  28   0.0000       0.068334         1.8595

MULLIKEN ATOMIC CHARGES
-----------------------
   0 C :   -0.623125
   1 N :   -0.361787
   2 C :    1.018443
   3 C :   -1.126686
   4 N :   -0.627694
   5 H :    0.240839
   6 H :    0.241181
   7 H :    0.258513
   8 H :    0.209067
   9 H :    0.172608
  10 C :   -1.063862
  11 H :    0.354551
  12 H :    0.338825
  13 H :    0.301065
  14 H :    0.336564
  15 H :    0.331497
Sum of atomic charges:   -0.0000000

LOEWDIN ATOMIC CHARGES
----------------------
   0 C :   -0.248624
   1 N :    0.004622
   2 C :   -0.565531
   3 C :    0.000539
   4 N :    0.114085
   5 H :    0.090660
   6 H :    0.111075
   7 H :    0.149897
   8 H :    0.009314
   9 H :    0.006143
  10 C :   -0.086810
  11 H :    0.114202
  12 H :    0.106450
  13 H :    0.070305
  14 H :    0.063842
  15 H :    0.059830

  Mayer bond orders larger than 0.100000
B(  0-C ,  1-N ) :   0.7611 B(  0-C ,  2-C ) :  -0.1093 B(  0-C ,  4-N ) :   0.1114
B(  0-C , 10-C ) :   0.5675 B(  0-C , 11-H ) :   0.9246 B(  0-C , 12-H ) :   0.9164
B(  1-N ,  2-C ) :   0.9662 B(  1-N ,  7-H ) :   0.9813 B(  2-C ,  3-C ) :   1.0579
B(  2-C ,  4-N ) :   0.7861 B(  2-C ,  9-H ) :  -0.1785 B(  3-C ,  8-H ) :   1.0486
B(  3-C ,  9-H ) :   1.1978 B(  4-N ,  5-H ) :   0.9677 B(  4-N ,  6-H ) :   0.9806
B( 10-C , 13-H ) :   1.0214 B( 10-C , 14-H ) :   0.9695 B( 10-C , 15-H ) :   0.9465

Dispersion correction           -0.000307823
FINAL SINGLE POINT ENERGY      -267.885513914541

DIPOLE MOMENT
-------------
                                X             Y             Z
Electronic contribution:     -1.41388       1.07024      -1.94675
Nuclear contribution   :      1.28075      -1.05140       2.98955
                        -----------------------------------------
Total Dipole Moment    :     -0.13314       0.01884       1.04280
                        -----------------------------------------
Magnitude (a.u.)       :      1.05144
Magnitude (Debye)      :      2.67254

Rotational constants in cm-1:     0.229858     0.078444     0.067377
Rotational constants in MHz :  6890.979812  2351.691803  2019.910665

                             ****ORCA TERMINATED NORMALLY****
TOTAL RUN TIME: 0 days 0 hours 0 minutes 53 seconds 787 msec
