                         Program Version 5.0.0 -  RELEASE  -
|  1> !M062X D3Zero RIJCOSX def2-TZVPD def2/J TightSCF
|  2> *xyz 0 1
|  3> C          4.90646       -3.10282       -5.95484
|  4> C          3.51177       -2.80621       -6.49228
|  5> H          2.73604       -3.37345       -5.97374
|  6> H          3.44490       -3.04083       -7.55528
|  7> S          3.00462       -1.09621       -6.38926
|  8> O          4.12886       -0.32965       -6.95372
|  9> O          1.78128       -1.00078       -7.13640
| 10> F          2.85155       -0.78368       -4.95679
| 11> H          5.62703       -2.52424       -6.49422
| 12> H          5.12164       -4.14387       -6.07654
| 13> H          4.95004       -2.84862       -4.91639
| 14> *
| 15>
| 16> %MaxCore 64000
| 17>
| 18> %pal nprocs 4
| 19> end
| 20>
| 21> %scf
| 22>   MaxIter 150
| 23> end
| 24>
| 25>
| 26>                          ****END OF INPUT****

CARTESIAN COORDINATES (ANGSTROEM)
---------------------------------
  C      4.906460   -3.102820   -5.954840
  C      3.511770   -2.806210   -6.492280
  H      2.736040   -3.373450   -5.973740
  H      3.444900   -3.040830   -7.555280
  S      3.004620   -1.096210   -6.389260
  O      4.128860   -0.329650   -6.953720
  O      1.781280   -1.000780   -7.136400
  F      2.851550   -0.783680   -4.956790
  H      5.627030   -2.524240   -6.494220
  H      5.121640   -4.143870   -6.076540
  H      4.950040   -2.848620   -4.916390

 Total Charge           Charge          ....    0
 Multiplicity           Mult            ....    1
 Number of Electrons    NEL             ....   58
 Basis Dimension        Dim             ....  285

ORBITAL ENERGIES
----------------

  NO   OCC          E(Eh)            E(eV)
   0   2.0000     -90.151693     -2453.1523
   1   2.0000     -25.354298      -689.9255
   2   2.0000     -19.643768      -534.5341
   3   2.0000     -19.632263      -534.2210
   4   2.0000     -10.601220      -288.4739
   5   2.0000     -10.556681      -287.2619
   6   2.0000      -8.476960      -230.6698
   7   2.0000      -6.401859      -174.2034
   8   2.0000      -6.396865      -174.0675
   9   2.0000      -6.396218      -174.0499
  10   2.0000      -1.505618       -40.9699
  11   2.0000      -1.233869       -33.5753
  12   2.0000      -1.134329       -30.8667
  13   2.0000      -0.927444       -25.2370
  14   2.0000      -0.825253       -22.4563
  15   2.0000      -0.768299       -20.9065
  16   2.0000      -0.678815       -18.4715
  17   2.0000      -0.671152       -18.2630
  18   2.0000      -0.636537       -17.3210
  19   2.0000      -0.571000       -15.5377
  20   2.0000      -0.559591       -15.2273
  21   2.0000      -0.535856       -14.5814
  22   2.0000      -0.506473       -13.7818
  23   2.0000      -0.479307       -13.0426
  24   2.0000      -0.469872       -12.7859
  25   2.0000      -0.451153       -12.2765
  26   2.0000      -0.412618       -11.2279
  27   2.0000      -0.398124       -10.8335
  28   2.0000      -0.390170       -10.6171
  29   0.0000      -0.000854        -0.0232
  30   0.0000       0.021180         0.5763
  31   0.0000       0.023429         0.6375
  32   0.0000       0.029449         0.8014
  33   0.0000       0.053727         1.4620

MULLIKEN ATOMIC CHARGES
-----------------------
   0 C :   -1.161801
   1 C :   -0.490096
   2 H :    0.394800
   3 H :    0.377470
   4 S :    1.343727
   5 O :   -0.670557
   6 O :   -0.640051
   7 F :   -0.165114
   8 H :    0.333981
   9 H :    0.340573
  10 H :    0.337069
Sum of atomic charges:   -0.0000000

LOEWDIN ATOMIC CHARGES
----------------------
   0 C :   -0.110808
   1 C :   -0.283443
   2 H :    0.105064
   3 H :    0.112840
   4 S :    0.619533
   5 O :   -0.303797
   6 O :   -0.280579
   7 F :   -0.081783
   8 H :    0.073807
   9 H :    0.074919
  10 H :    0.074248

  Mayer bond orders larger than 0.100000
B(  0-C ,  1-C ) :   0.5584 B(  0-C ,  8-H ) :   0.9934 B(  0-C ,  9-H ) :   0.9448
B(  0-C , 10-H ) :   0.9232 B(  1-C ,  2-H ) :   0.8707 B(  1-C ,  3-H ) :   0.8850
B(  1-C ,  4-S ) :   0.8701 B(  1-C ,  6-O ) :   0.1051 B(  4-S ,  5-O ) :   1.6008
B(  4-S ,  6-O ) :   1.6214 B(  4-S ,  7-F ) :   0.8860

Dispersion correction           -0.000151613
FINAL SINGLE POINT ENERGY      -727.686343080273

DIPOLE MOMENT
-------------
                                X             Y             Z
Electronic contribution:     -5.13792       7.39090       1.66051
Nuclear contribution   :      5.52019      -8.89046      -0.84835
                        -----------------------------------------
Total Dipole Moment    :      0.38226      -1.49955       0.81216
                        -----------------------------------------
Magnitude (a.u.)       :      1.74768
Magnitude (Debye)      :      4.44225

Rotational constants in cm-1:     0.153332     0.082132     0.079755
Rotational constants in MHz :  4596.775407  2462.251277  2391.008596

                             ****ORCA TERMINATED NORMALLY****
TOTAL RUN TIME: 0 days 0 hours 0 minutes 40 seconds 629 msec
