                         Program Version 5.0.0 -  RELEASE  -
|  1> !M062X D3Zero RIJCOSX def2-TZVPD def2/J TightSCF
|  2> *xyz 0 1
|  3> C          4.49059        1.15590       -2.46929
|  4> N          4.30539        1.22276       -3.90832
|  5> C          4.63192        2.24637       -4.67096
|  6> N          4.54169        2.14399       -5.98714
|  7> C          5.08409        3.39358       -4.11855
|  8> H          4.92067        3.57050       -3.13587
|  9> H          5.25465        4.19739       -4.70696
| 10> H          3.82453        0.44911       -4.35093
| 11> H          4.34337        1.24932       -6.41665
| 12> H          4.67671        2.95662       -6.57411
| 13> C          5.94213        0.93950       -2.03689
| 14> H          3.86431        0.32853       -2.13661
| 15> H          4.07623        2.04999       -1.98901
| 16> H          6.32982        0.06401       -2.51451
| 17> H          5.98308        0.81426       -0.97504
| 18> H          6.52865        1.78889       -2.31873
| 19> *
| 20>
| 21> %MaxCore 64000
| 22>
| 23> %pal nprocs 4
| 24> end
| 25>
| 26> %scf
| 27>   MaxIter 150
| 28> end
| 29>
| 30>
| 31>                          ****END OF INPUT****

CARTESIAN COORDINATES (ANGSTROEM)
---------------------------------
  C      4.490590    1.155900   -2.469290
  N      4.305390    1.222760   -3.908320
  C      4.631920    2.246370   -4.670960
  N      4.541690    2.143990   -5.987140
  C      5.084090    3.393580   -4.118550
  H      4.920670    3.570500   -3.135870
  H      5.254650    4.197390   -4.706960
  H      3.824530    0.449110   -4.350930
  H      4.343370    1.249320   -6.416650
  H      4.676710    2.956620   -6.574110
  C      5.942130    0.939500   -2.036890
  H      3.864310    0.328530   -2.136610
  H      4.076230    2.049990   -1.989010
  H      6.329820    0.064010   -2.514510
  H      5.983080    0.814260   -0.975040
  H      6.528650    1.788890   -2.318730

 Total Charge           Charge          ....    0
 Multiplicity           Mult            ....    1
 Number of Electrons    NEL             ....   48
 Basis Dimension        Dim             ....  312

ORBITAL ENERGIES
----------------

  NO   OCC          E(Eh)            E(eV)
   0   2.0000     -14.751656      -401.4130
   1   2.0000     -14.748744      -401.3337
   2   2.0000     -10.586174      -288.0644
   3   2.0000     -10.568571      -287.5854
   4   2.0000     -10.511270      -286.0262
   5   2.0000     -10.447563      -284.2926
   6   2.0000      -1.084055       -29.4986
   7   2.0000      -0.993766       -27.0417
   8   2.0000      -0.848095       -23.0778
   9   2.0000      -0.800908       -21.7938
  10   2.0000      -0.726360       -19.7653
  11   2.0000      -0.642011       -17.4700
  12   2.0000      -0.626820       -17.0567
  13   2.0000      -0.596183       -16.2230
  14   2.0000      -0.540349       -14.7036
  15   2.0000      -0.507147       -13.8002
  16   2.0000      -0.482271       -13.1233
  17   2.0000      -0.463085       -12.6012
  18   2.0000      -0.446320       -12.1450
  19   2.0000      -0.430491       -11.7142
  20   2.0000      -0.426382       -11.6025
  21   2.0000      -0.407310       -11.0835
  22   2.0000      -0.313771        -8.5382
  23   2.0000      -0.216721        -5.8973
  24   0.0000       0.012100         0.3292
  25   0.0000       0.031150         0.8476
  26   0.0000       0.039332         1.0703
  27   0.0000       0.047516         1.2930
  28   0.0000       0.069416         1.8889

MULLIKEN ATOMIC CHARGES
-----------------------
   0 C :   -0.561093
   1 N :   -0.393661
   2 C :    1.057665
   3 N :   -0.608123
   4 C :   -1.158641
   5 H :    0.199653
   6 H :    0.212209
   7 H :    0.259802
   8 H :    0.217944
   9 H :    0.225661
  10 C :   -1.101745
  11 H :    0.347630
  12 H :    0.319395
  13 H :    0.308035
  14 H :    0.326271
  15 H :    0.348999
Sum of atomic charges:   -0.0000000

LOEWDIN ATOMIC CHARGES
----------------------
   0 C :   -0.244805
   1 N :   -0.000390
   2 C :   -0.567706
   3 N :    0.105720
   4 C :    0.009475
   5 H :    0.000161
   6 H :    0.004544
   7 H :    0.141762
   8 H :    0.105150
   9 H :    0.114926
  10 C :   -0.085559
  11 H :    0.112961
  12 H :    0.111990
  13 H :    0.068037
  14 H :    0.064752
  15 H :    0.058983

  Mayer bond orders larger than 0.100000
B(  0-C ,  1-N ) :   0.7533 B(  0-C ,  4-C ) :   0.1671 B(  0-C , 10-C ) :   0.5912
B(  0-C , 11-H ) :   0.8907 B(  0-C , 12-H ) :   0.9408 B(  1-N ,  2-C ) :   0.9622
B(  1-N ,  7-H ) :   0.9903 B(  2-C ,  3-N ) :   0.7870 B(  2-C ,  4-C ) :   1.0954
B(  2-C ,  6-H ) :  -0.1563 B(  3-N ,  8-H ) :   1.0112 B(  3-N ,  9-H ) :   0.9961
B(  4-C ,  5-H ) :   1.0263 B(  4-C ,  6-H ) :   1.1505 B( 10-C , 13-H ) :   0.9982
B( 10-C , 14-H ) :   0.9638 B( 10-C , 15-H ) :   0.9619

Dispersion correction           -0.000308861
FINAL SINGLE POINT ENERGY      -267.885337182290

DIPOLE MOMENT
-------------
                                X             Y             Z
Electronic contribution:     -1.87718      -0.11151      -3.79544
Nuclear contribution   :      1.39581      -0.78630       3.38596
                        -----------------------------------------
Total Dipole Moment    :     -0.48137      -0.89781      -0.40948
                        -----------------------------------------
Magnitude (a.u.)       :      1.09793
Magnitude (Debye)      :      2.79072

Rotational constants in cm-1:     0.239249     0.075811     0.066261
Rotational constants in MHz :  7172.504830  2272.756282  1986.457543

                             ****ORCA TERMINATED NORMALLY****
TOTAL RUN TIME: 0 days 0 hours 0 minutes 52 seconds 66 msec
