                         Program Version 5.0.0 -  RELEASE  -
|  1> !M062X D3Zero RIJCOSX def2-TZVPD def2/J TightSCF xyzfile
|  2>
|  3> *xyzfile 0 1 D1.xyz
|  4>
|  5> %MaxCore 64000
|  6>
|  7> %pal nprocs 4
|  8> end
|  9>
| 10> %scf
| 11>   MaxIter 150
| 12> end
| 13>
| 14>
| 15>                          ****END OF INPUT****

CARTESIAN COORDINATES (ANGSTROEM)
---------------------------------
  C      4.490588    1.155899   -2.469290
  C      4.305394    1.222762   -3.908317
  C      4.906458   -3.102816   -5.954844
  C      3.511771   -2.806215   -6.492283
  H      2.736044   -3.373445   -5.973736
  H      3.444904   -3.040831   -7.555281
  S      3.004618   -1.096206   -6.389259
  C      4.631918    2.246365   -4.670958
  N      4.541686    2.143990   -5.987139
  N      5.084086    3.393584   -4.118545
  H      4.920675    3.570501   -3.135870
  H      5.254652    4.197390   -4.706956
  H      3.824530    0.449113   -4.350926
  H      4.343373    1.249318   -6.416646
  H      4.676712    2.956624   -6.574113
  F      4.128856   -0.329647   -6.953717
  O      1.781285   -1.000779   -7.136399
  C      5.942129    0.939500   -2.036893
  H      3.864305    0.328532   -2.136611
  H      4.076233    2.049994   -1.989010
  C      6.462677   -3.117775   -3.944671
  C      5.024977   -3.025679   -4.437625
  H      4.423321   -3.818693   -3.977648
  H      4.579350   -2.087131   -4.108727
  H      5.201533   -4.100207   -6.296905
  H      5.605922   -2.397822   -6.413368
  C      6.559957   -0.356290   -2.559086
  H      5.967976    0.952567   -0.942444
  H      6.547184    1.788331   -2.368849
  C      6.006283   -1.615917   -1.899301
  H      7.642360   -0.318000   -2.402059
  H      6.414855   -0.403433   -3.642587
  C      6.608718   -2.917014   -2.435655
  H      6.190324   -1.561115   -0.820948
  H      4.919250   -1.651245   -2.016586
  H      7.066975   -2.374258   -4.475514
  H      6.887808   -4.089747   -4.215332
  H      6.135197   -3.755573   -1.915159
  H      7.671142   -2.955503   -2.172291
  O      2.851546   -0.783683   -4.956789

 Total Charge           Charge          ....    0
 Multiplicity           Mult            ....    1
 Number of Electrons    NEL             ....  144
 Basis Dimension        Dim             ....  854

ORBITAL ENERGIES
----------------

  NO   OCC          E(Eh)            E(eV)
   0   2.0000     -90.160354     -2453.3880
   1   2.0000     -25.373549      -690.4494
   2   2.0000     -19.651373      -534.7410
   3   2.0000     -19.638110      -534.3802
   4   2.0000     -14.737500      -401.0278
   5   2.0000     -14.733305      -400.9136
   6   2.0000     -10.602437      -288.5070
   7   2.0000     -10.566782      -287.5367
   8   2.0000     -10.565938      -287.5138
   9   2.0000     -10.535044      -286.6731
  10   2.0000     -10.529968      -286.5350
  11   2.0000     -10.523466      -286.3581
  12   2.0000     -10.514356      -286.1102
  13   2.0000     -10.507622      -285.9269
  14   2.0000     -10.502953      -285.7999
  15   2.0000     -10.496339      -285.6199
  16   2.0000     -10.431847      -283.8650
  17   2.0000      -8.486060      -230.9174
  18   2.0000      -6.411139      -174.4560
  19   2.0000      -6.405608      -174.3055
  20   2.0000      -6.405288      -174.2967
  21   2.0000      -1.528691       -41.5978
  22   2.0000      -1.243773       -33.8448
  23   2.0000      -1.144464       -31.1425
  24   2.0000      -1.060080       -28.8462
  25   2.0000      -0.964871       -26.2555
  26   2.0000      -0.945589       -25.7308
  27   2.0000      -0.906864       -24.6770
  28   2.0000      -0.877996       -23.8915
  29   2.0000      -0.852321       -23.1928
  30   2.0000      -0.825777       -22.4705
  31   2.0000      -0.797194       -21.6928
  32   2.0000      -0.763265       -20.7695
  33   2.0000      -0.731424       -19.9031
  34   2.0000      -0.706930       -19.2366
  35   2.0000      -0.701724       -19.0949
  36   2.0000      -0.695099       -18.9146
  37   2.0000      -0.667781       -18.1712
  38   2.0000      -0.648687       -17.6517
  39   2.0000      -0.641990       -17.4694
  40   2.0000      -0.622661       -16.9435
  41   2.0000      -0.603455       -16.4209
  42   2.0000      -0.577748       -15.7213
  43   2.0000      -0.569882       -15.5073
  44   2.0000      -0.560509       -15.2522
  45   2.0000      -0.548526       -14.9262
  46   2.0000      -0.536975       -14.6118
  47   2.0000      -0.526608       -14.3297
  48   2.0000      -0.522888       -14.2285
  49   2.0000      -0.517966       -14.0946
  50   2.0000      -0.495575       -13.4853
  51   2.0000      -0.489597       -13.3226
  52   2.0000      -0.486339       -13.2339
  53   2.0000      -0.478947       -13.0328
  54   2.0000      -0.461500       -12.5580
  55   2.0000      -0.452155       -12.3038
  56   2.0000      -0.448564       -12.2060
  57   2.0000      -0.435750       -11.8574
  58   2.0000      -0.434904       -11.8343
  59   2.0000      -0.419446       -11.4137
  60   2.0000      -0.418099       -11.3771
  61   2.0000      -0.409345       -11.1389
  62   2.0000      -0.401886       -10.9359
  63   2.0000      -0.385009       -10.4766
  64   2.0000      -0.383519       -10.4361
  65   2.0000      -0.381498       -10.3811
  66   2.0000      -0.368803       -10.0357
  67   2.0000      -0.358239        -9.7482
  68   2.0000      -0.352223        -9.5845
  69   2.0000      -0.340214        -9.2577
  70   2.0000      -0.320565        -8.7230
  71   2.0000      -0.199406        -5.4261
  72   0.0000      -0.004935        -0.1343
  73   0.0000       0.010594         0.2883
  74   0.0000       0.017699         0.4816
  75   0.0000       0.020398         0.5551
  76   0.0000       0.032027         0.8715

MULLIKEN ATOMIC CHARGES
-----------------------
   0 C :   -1.206573
   1 C :    0.829293
   2 C :   -0.793679
   3 C :   -0.926715
   4 H :    0.406655
   5 H :    0.414197
   6 S :    1.482477
   7 C :    1.115181
   8 N :   -0.617756
   9 N :   -0.637168
  10 H :    0.250897
  11 H :    0.231267
  12 H :   -1.065870
  13 H :    0.304288
  14 H :    0.200637
  15 F :   -0.263728
  16 O :   -0.724927
  17 C :   -0.987765
  18 H :    0.329708
  19 H :    0.448299
  20 C :   -0.610334
  21 C :    0.007459
  22 H :    0.309584
  23 H :    0.063717
  24 H :    0.370357
  25 H :    0.320105
  26 C :   -0.398805
  27 H :    0.376074
  28 H :    0.419845
  29 C :   -0.457431
  30 H :    0.394296
  31 H :    0.162789
  32 C :   -1.176332
  33 H :    0.404825
  34 H :    0.229100
  35 H :    0.367353
  36 H :    0.405890
  37 H :    0.364858
  38 H :    0.389127
  39 O :   -0.731198
Sum of atomic charges:    0.0000000

LOEWDIN ATOMIC CHARGES
----------------------
   0 C :   -0.223770
   1 C :   -0.136663
   2 C :   -0.225724
   3 C :   -0.218729
   4 H :    0.124787
   5 H :    0.108437
   6 S :    0.660642
   7 C :   -0.519273
   8 N :    0.114638
   9 N :    0.122064
  10 H :    0.098365
  11 H :    0.097695
  12 H :    0.003298
  13 H :    0.060416
  14 H :    0.106621
  15 F :   -0.095052
  16 O :   -0.259991
  17 C :   -0.210009
  18 H :    0.109376
  19 H :    0.106097
  20 C :   -0.221597
  21 C :   -0.220638
  22 H :    0.134021
  23 H :    0.088138
  24 H :    0.124427
  25 H :    0.116604
  26 C :   -0.217305
  27 H :    0.108658
  28 H :    0.104935
  29 C :   -0.221227
  30 H :    0.117218
  31 H :    0.103047
  32 C :   -0.215404
  33 H :    0.116637
  34 H :    0.104490
  35 H :    0.111460
  36 H :    0.115062
  37 H :    0.110966
  38 H :    0.111943
  39 O :   -0.294665

  Mayer bond orders larger than 0.100000
B(  0-C ,  1-C ) :   0.2294 B(  0-C ,  7-C ) :   0.1054 B(  0-C , 17-C ) :   0.6910
B(  0-C , 18-H ) :   1.0335 B(  0-C , 19-H ) :   0.8476 B(  1-C ,  7-C ) :   0.9175
B(  1-C , 12-H ) :   1.0067 B(  1-C , 18-H ) :  -0.1774 B(  1-C , 19-H ) :  -0.1906
B(  1-C , 31-H ) :  -0.1385 B(  2-C ,  3-C ) :   0.6240 B(  2-C , 20-C ) :   0.3611
B(  2-C , 21-C ) :   0.1384 B(  2-C , 22-H ) :  -0.1066 B(  2-C , 24-H ) :   0.9182
B(  2-C , 25-H ) :   1.0103 B(  3-C ,  4-H ) :   0.8788 B(  3-C ,  5-H ) :   0.9448
B(  3-C ,  6-S ) :   0.8957 B(  3-C , 16-O ) :   0.1300 B(  6-S , 15-F ) :   0.7778
B(  6-S , 16-O ) :   1.3824 B(  6-S , 39-O ) :   1.5696 B(  7-C ,  8-N ) :   0.7035
B(  7-C ,  9-N ) :   0.8500 B(  8-N , 12-H ) :   0.2610 B(  8-N , 13-H ) :   0.8847
B(  8-N , 14-H ) :   1.0250 B(  9-N , 10-H ) :   0.9827 B(  9-N , 11-H ) :   0.9781
B(  9-N , 17-C ) :   0.1484 B( 12-H , 39-O ) :  -0.1932 B( 17-C , 26-C ) :   0.7645
B( 17-C , 27-H ) :   0.9963 B( 17-C , 28-H ) :   0.8903 B( 17-C , 29-C ) :   0.2205
B( 20-C , 21-C ) :   0.3243 B( 20-C , 26-C ) :   0.1594 B( 20-C , 29-C ) :  -0.1448
B( 20-C , 32-C ) :   0.6186 B( 20-C , 35-H ) :   0.9787 B( 20-C , 36-H ) :   0.8570
B( 21-C , 22-H ) :   0.9341 B( 21-C , 23-H ) :   1.1168 B( 21-C , 25-H ) :  -0.1121
B( 21-C , 29-C ) :   0.1605 B( 21-C , 32-C ) :   0.1863 B( 21-C , 35-H ) :  -0.1045
B( 21-C , 39-O ) :   0.1645 B( 22-H , 23-H ) :   0.1282 B( 23-H , 39-O ) :  -0.1937
B( 26-C , 29-C ) :   0.1934 B( 26-C , 30-H ) :   0.8631 B( 26-C , 31-H ) :   1.1877
B( 26-C , 32-C ) :   0.1512 B( 26-C , 34-H ) :  -0.1920 B( 29-C , 31-H ) :  -0.1419
B( 29-C , 32-C ) :   0.6009 B( 29-C , 33-H ) :   0.8457 B( 29-C , 34-H ) :   1.1317
B( 32-C , 37-H ) :   0.9779 B( 32-C , 38-H ) :   0.9637

Dispersion correction           -0.003047097
FINAL SINGLE POINT ENERGY     -1190.900010579990

DIPOLE MOMENT
-------------
                                X             Y             Z
Electronic contribution:    -16.29577       4.81149     -21.38130
Nuclear contribution   :     17.24138      -5.45913      20.34076
                        -----------------------------------------
Total Dipole Moment    :      0.94561      -0.64764      -1.04054
                        -----------------------------------------
Magnitude (a.u.)       :      1.54801
Magnitude (Debye)      :      3.93474

Rotational constants in cm-1:     0.014201     0.012275     0.007453
Rotational constants in MHz :   425.728191   368.008875   223.435232

                             ****ORCA TERMINATED NORMALLY****
TOTAL RUN TIME: 0 days 0 hours 11 minutes 16 seconds 70 msec
