                         Program Version 5.0.0 -  RELEASE  -
|  1> !M062X D3Zero RIJCOSX def2-TZVPD def2/J TightSCF xyzfile
|  2>
|  3> *xyzfile 0 1 D2.xyz
|  4>
|  5> %MaxCore 64000
|  6>
|  7> %pal nprocs 4
|  8> end
|  9>
| 10> %scf
| 11>   MaxIter 150
| 12> end
| 13>
| 14>
| 15>                          ****END OF INPUT****

CARTESIAN COORDINATES (ANGSTROEM)
---------------------------------
  C      4.490588    1.155899   -2.469290
  N      4.305394    1.222762   -3.908317
  C      4.906458   -3.102816   -5.954844
  C      3.511771   -2.806215   -6.492283
  H      2.736044   -3.373445   -5.973736
  H      3.444904   -3.040831   -7.555281
  S      3.004618   -1.096206   -6.389259
  C      4.631918    2.246365   -4.670958
  C      4.541686    2.143990   -5.987139
  N      5.084086    3.393584   -4.118545
  H      4.920675    3.570501   -3.135870
  H      5.254652    4.197390   -4.706956
  H      3.824530    0.449113   -4.350926
  H      4.343373    1.249318   -6.416646
  H      4.676712    2.956624   -6.574113
  F      4.128856   -0.329647   -6.953717
  O      1.781285   -1.000779   -7.136399
  C      5.942129    0.939500   -2.036893
  H      3.864305    0.328532   -2.136611
  H      4.076233    2.049994   -1.989010
  C      6.462677   -3.117775   -3.944671
  C      5.024977   -3.025679   -4.437625
  H      4.423321   -3.818693   -3.977648
  H      4.579350   -2.087131   -4.108727
  H      5.201533   -4.100207   -6.296905
  H      5.605922   -2.397822   -6.413368
  C      6.559957   -0.356290   -2.559086
  H      5.967976    0.952567   -0.942444
  H      6.547184    1.788331   -2.368849
  C      6.006283   -1.615917   -1.899301
  H      7.642360   -0.318000   -2.402059
  H      6.414855   -0.403433   -3.642587
  C      6.608718   -2.917014   -2.435655
  H      6.190324   -1.561115   -0.820948
  H      4.919250   -1.651245   -2.016586
  H      7.066975   -2.374258   -4.475514
  H      6.887808   -4.089747   -4.215332
  H      6.135197   -3.755573   -1.915159
  H      7.671142   -2.955503   -2.172291
  O      2.851546   -0.783683   -4.956789

 Total Charge           Charge          ....    0
 Multiplicity           Mult            ....    1
 Number of Electrons    NEL             ....  144
 Basis Dimension        Dim             ....  854

ORBITAL ENERGIES
----------------

  NO   OCC          E(Eh)            E(eV)
   0   2.0000     -90.163348     -2453.4694
   1   2.0000     -25.359296      -690.0615
   2   2.0000     -19.651277      -534.7384
   3   2.0000     -19.648869      -534.6729
   4   2.0000     -14.735266      -400.9670
   5   2.0000     -14.719745      -400.5446
   6   2.0000     -10.604069      -288.5514
   7   2.0000     -10.570505      -287.6381
   8   2.0000     -10.568982      -287.5966
   9   2.0000     -10.560150      -287.3563
  10   2.0000     -10.542047      -286.8637
  11   2.0000     -10.537013      -286.7267
  12   2.0000     -10.532764      -286.6111
  13   2.0000     -10.527725      -286.4740
  14   2.0000     -10.524151      -286.3767
  15   2.0000     -10.523778      -286.3665
  16   2.0000     -10.431418      -283.8533
  17   2.0000      -8.488653      -230.9880
  18   2.0000      -6.413526      -174.5209
  19   2.0000      -6.408464      -174.3832
  20   2.0000      -6.408051      -174.3719
  21   2.0000      -1.515615       -41.2420
  22   2.0000      -1.246356       -33.9151
  23   2.0000      -1.150851       -31.3162
  24   2.0000      -1.063369       -28.9357
  25   2.0000      -0.972485       -26.4627
  26   2.0000      -0.949183       -25.8286
  27   2.0000      -0.914182       -24.8761
  28   2.0000      -0.883616       -24.0444
  29   2.0000      -0.847585       -23.0640
  30   2.0000      -0.825630       -22.4665
  31   2.0000      -0.797116       -21.6906
  32   2.0000      -0.771039       -20.9810
  33   2.0000      -0.737932       -20.0801
  34   2.0000      -0.711004       -19.3474
  35   2.0000      -0.693855       -18.8807
  36   2.0000      -0.684005       -18.6127
  37   2.0000      -0.680361       -18.5136
  38   2.0000      -0.664280       -18.0760
  39   2.0000      -0.642688       -17.4884
  40   2.0000      -0.635386       -17.2897
  41   2.0000      -0.594560       -16.1788
  42   2.0000      -0.578938       -15.7537
  43   2.0000      -0.566762       -15.4224
  44   2.0000      -0.558285       -15.1917
  45   2.0000      -0.554199       -15.0805
  46   2.0000      -0.540391       -14.7048
  47   2.0000      -0.538413       -14.6510
  48   2.0000      -0.532517       -14.4905
  49   2.0000      -0.513313       -13.9680
  50   2.0000      -0.505838       -13.7645
  51   2.0000      -0.501623       -13.6499
  52   2.0000      -0.491859       -13.3842
  53   2.0000      -0.473672       -12.8893
  54   2.0000      -0.462312       -12.5801
  55   2.0000      -0.460860       -12.5406
  56   2.0000      -0.447682       -12.1820
  57   2.0000      -0.441836       -12.0230
  58   2.0000      -0.434783       -11.8310
  59   2.0000      -0.428658       -11.6644
  60   2.0000      -0.426193       -11.5973
  61   2.0000      -0.419362       -11.4114
  62   2.0000      -0.407529       -11.0894
  63   2.0000      -0.406823       -11.0702
  64   2.0000      -0.398762       -10.8509
  65   2.0000      -0.395091       -10.7510
  66   2.0000      -0.388436       -10.5699
  67   2.0000      -0.374593       -10.1932
  68   2.0000      -0.372692       -10.1415
  69   2.0000      -0.366852        -9.9825
  70   2.0000      -0.302684        -8.2365
  71   2.0000      -0.203412        -5.5351
  72   0.0000      -0.002744        -0.0747
  73   0.0000       0.012555         0.3416
  74   0.0000       0.017239         0.4691
  75   0.0000       0.020065         0.5460
  76   0.0000       0.031144         0.8475

MULLIKEN ATOMIC CHARGES
-----------------------
   0 C :   -1.052608
   1 N :   -0.121456
   2 C :   -0.788082
   3 C :   -0.953464
   4 H :    0.404791
   5 H :    0.429939
   6 S :    1.440945
   7 C :    1.396765
   8 C :   -1.083634
   9 N :   -0.649810
  10 H :    0.240450
  11 H :    0.264579
  12 H :    0.167474
  13 H :   -0.110103
  14 H :    0.136634
  15 F :   -0.181813
  16 O :   -0.721376
  17 C :   -0.759247
  18 H :    0.336158
  19 H :    0.355746
  20 C :   -0.635519
  21 C :   -0.026214
  22 H :    0.315870
  23 H :    0.076224
  24 H :    0.372739
  25 H :    0.322600
  26 C :   -0.318401
  27 H :    0.419214
  28 H :    0.417390
  29 C :   -0.493135
  30 H :    0.369393
  31 H :    0.190925
  32 C :   -1.145563
  33 H :    0.400039
  34 H :    0.241979
  35 H :    0.362028
  36 H :    0.411099
  37 H :    0.369210
  38 H :    0.390325
  39 O :   -0.792091
Sum of atomic charges:    0.0000000

LOEWDIN ATOMIC CHARGES
----------------------
   0 C :   -0.189305
   1 N :    0.025691
   2 C :   -0.224397
   3 C :   -0.218128
   4 H :    0.124038
   5 H :    0.110129
   6 S :    0.665129
   7 C :   -0.538930
   8 C :    0.014002
   9 N :    0.117212
  10 H :    0.090318
  11 H :    0.109466
  12 H :    0.062147
  13 H :   -0.029276
  14 H :    0.012635
  15 F :   -0.101010
  16 O :   -0.255257
  17 C :   -0.195258
  18 H :    0.117512
  19 H :    0.111484
  20 C :   -0.220299
  21 C :   -0.222095
  22 H :    0.134197
  23 H :    0.085042
  24 H :    0.125047
  25 H :    0.118339
  26 C :   -0.214180
  27 H :    0.112948
  28 H :    0.105793
  29 C :   -0.223001
  30 H :    0.119593
  31 H :    0.106269
  32 C :   -0.213676
  33 H :    0.117229
  34 H :    0.102911
  35 H :    0.112428
  36 H :    0.116427
  37 H :    0.112065
  38 H :    0.113108
  39 O :   -0.296347

  Mayer bond orders larger than 0.100000
B(  0-C ,  1-N ) :   0.8630 B(  0-C ,  7-C ) :  -0.2138 B(  0-C ,  9-N ) :   0.1797
B(  0-C , 12-H ) :  -0.1647 B(  0-C , 17-C ) :   0.6549 B(  0-C , 18-H ) :   0.8785
B(  0-C , 19-H ) :   0.8813 B(  0-C , 27-H ) :  -0.1204 B(  1-N ,  7-C ) :   0.9090
B(  1-N , 12-H ) :   0.8538 B(  1-N , 39-O ) :  -0.1797 B(  2-C ,  3-C ) :   0.6294
B(  2-C , 20-C ) :   0.3659 B(  2-C , 21-C ) :   0.1277 B(  2-C , 22-H ) :  -0.1024
B(  2-C , 24-H ) :   0.9114 B(  2-C , 25-H ) :   1.0199 B(  3-C ,  4-H ) :   0.8829
B(  3-C ,  5-H ) :   0.9319 B(  3-C ,  6-S ) :   0.8959 B(  3-C , 16-O ) :   0.1243
B(  3-C , 21-C ) :   0.1184 B(  6-S , 15-F ) :   0.8357 B(  6-S , 16-O ) :   1.4061
B(  6-S , 39-O ) :   1.5566 B(  7-C ,  8-C ) :   0.8174 B(  7-C ,  9-N ) :   0.7053
B(  7-C , 12-H ) :  -0.2452 B(  7-C , 13-H ) :  -0.1843 B(  7-C , 14-H ) :  -0.2371
B(  8-C ,  9-N ) :   0.1136 B(  8-C , 13-H ) :   1.2200 B(  8-C , 14-H ) :   1.2231
B(  9-N , 10-H ) :   0.9944 B(  9-N , 11-H ) :   0.9675 B( 13-H , 15-F ) :  -0.1314
B( 17-C , 19-H ) :  -0.1004 B( 17-C , 26-C ) :   0.7154 B( 17-C , 27-H ) :   0.9621
B( 17-C , 28-H ) :   0.8653 B( 17-C , 29-C ) :   0.2374 B( 20-C , 21-C ) :   0.3180
B( 20-C , 26-C ) :   0.1525 B( 20-C , 29-C ) :  -0.1278 B( 20-C , 32-C ) :   0.6198
B( 20-C , 35-H ) :   0.9905 B( 20-C , 36-H ) :   0.8524 B( 21-C , 22-H ) :   0.9289
B( 21-C , 23-H ) :   1.1428 B( 21-C , 25-H ) :  -0.1135 B( 21-C , 29-C ) :   0.1484
B( 21-C , 32-C ) :   0.1853 B( 21-C , 35-H ) :  -0.1077 B( 21-C , 39-O ) :   0.1629
B( 22-H , 23-H ) :   0.1265 B( 23-H , 39-O ) :  -0.2347 B( 26-C , 29-C ) :   0.1525
B( 26-C , 30-H ) :   0.8891 B( 26-C , 31-H ) :   1.0893 B( 26-C , 32-C ) :   0.1544
B( 26-C , 34-H ) :  -0.1841 B( 29-C , 31-H ) :  -0.1060 B( 29-C , 32-C ) :   0.6187
B( 29-C , 33-H ) :   0.8501 B( 29-C , 34-H ) :   1.1256 B( 32-C , 37-H ) :   0.9707
B( 32-C , 38-H ) :   0.9636

Dispersion correction           -0.003058117
FINAL SINGLE POINT ENERGY     -1190.905462329785

DIPOLE MOMENT
-------------
                                X             Y             Z
Electronic contribution:    -16.34659       3.93065     -19.59638
Nuclear contribution   :     17.27667      -5.32157      20.03034
                        -----------------------------------------
Total Dipole Moment    :      0.93007      -1.39092       0.43395
                        -----------------------------------------
Magnitude (a.u.)       :      1.72859
Magnitude (Debye)      :      4.39372

Rotational constants in cm-1:     0.014355     0.012269     0.007481
Rotational constants in MHz :   430.360270   367.823451   224.273399

                             ****ORCA TERMINATED NORMALLY****
TOTAL RUN TIME: 0 days 0 hours 13 minutes 42 seconds 45 msec
