                         Program Version 5.0.0 -  RELEASE  -
|  1> !M062X D3Zero RIJCOSX def2-TZVPD def2/J TightSCF xyzfile
|  2>
|  3> *xyzfile 0 1 D3.xyz
|  4>
|  5> %MaxCore 64000
|  6>
|  7> %pal nprocs 4
|  8> end
|  9>
| 10> %scf
| 11>   MaxIter 150
| 12> end
| 13>
| 14>
| 15>                          ****END OF INPUT****

CARTESIAN COORDINATES (ANGSTROEM)
---------------------------------
  C      4.490588    1.155899   -2.469290
  N      4.305394    1.222762   -3.908317
  C      4.906458   -3.102816   -5.954844
  C      3.511771   -2.806215   -6.492283
  H      2.736044   -3.373445   -5.973736
  H      3.444904   -3.040831   -7.555281
  S      3.004618   -1.096206   -6.389259
  C      4.631918    2.246365   -4.670958
  N      4.541686    2.143990   -5.987139
  C      5.084086    3.393584   -4.118545
  H      4.920675    3.570501   -3.135870
  H      5.254652    4.197390   -4.706956
  H      3.824530    0.449113   -4.350926
  H      4.343373    1.249318   -6.416646
  H      4.676712    2.956624   -6.574113
  F      4.128856   -0.329647   -6.953717
  O      1.781285   -1.000779   -7.136399
  C      5.942129    0.939500   -2.036893
  H      3.864305    0.328532   -2.136611
  H      4.076233    2.049994   -1.989010
  C      6.462677   -3.117775   -3.944671
  C      5.024977   -3.025679   -4.437625
  H      4.423321   -3.818693   -3.977648
  H      4.579350   -2.087131   -4.108727
  H      5.201533   -4.100207   -6.296905
  H      5.605922   -2.397822   -6.413368
  C      6.559957   -0.356290   -2.559086
  H      5.967976    0.952567   -0.942444
  H      6.547184    1.788331   -2.368849
  C      6.006283   -1.615917   -1.899301
  H      7.642360   -0.318000   -2.402059
  H      6.414855   -0.403433   -3.642587
  C      6.608718   -2.917014   -2.435655
  H      6.190324   -1.561115   -0.820948
  H      4.919250   -1.651245   -2.016586
  H      7.066975   -2.374258   -4.475514
  H      6.887808   -4.089747   -4.215332
  H      6.135197   -3.755573   -1.915159
  H      7.671142   -2.955503   -2.172291
  O      2.851546   -0.783683   -4.956789

 Total Charge           Charge          ....    0
 Multiplicity           Mult            ....    1
 Number of Electrons    NEL             ....  144
 Basis Dimension        Dim             ....  854

ORBITAL ENERGIES
----------------

  NO   OCC          E(Eh)            E(eV)
   0   2.0000     -90.178614     -2453.8848
   1   2.0000     -25.387593      -690.8315
   2   2.0000     -19.666969      -535.1654
   3   2.0000     -19.663090      -535.0599
   4   2.0000     -14.733771      -400.9263
   5   2.0000     -14.721830      -400.6014
   6   2.0000     -10.615819      -288.8711
   7   2.0000     -10.577373      -287.8249
   8   2.0000     -10.570198      -287.6297
   9   2.0000     -10.552179      -287.1394
  10   2.0000     -10.547261      -287.0056
  11   2.0000     -10.539909      -286.8055
  12   2.0000     -10.533053      -286.6190
  13   2.0000     -10.525674      -286.4182
  14   2.0000     -10.519793      -286.2581
  15   2.0000     -10.514405      -286.1115
  16   2.0000     -10.433358      -283.9061
  17   2.0000      -8.504300      -231.4138
  18   2.0000      -6.429352      -174.9516
  19   2.0000      -6.423871      -174.8024
  20   2.0000      -6.423533      -174.7932
  21   2.0000      -1.542992       -41.9869
  22   2.0000      -1.262118       -34.3440
  23   2.0000      -1.165487       -31.7145
  24   2.0000      -1.066492       -29.0207
  25   2.0000      -0.978648       -26.6304
  26   2.0000      -0.958722       -26.0882
  27   2.0000      -0.916569       -24.9411
  28   2.0000      -0.881802       -23.9951
  29   2.0000      -0.856046       -23.2942
  30   2.0000      -0.824669       -22.4404
  31   2.0000      -0.794057       -21.6074
  32   2.0000      -0.782413       -21.2906
  33   2.0000      -0.747161       -20.3313
  34   2.0000      -0.722429       -19.6583
  35   2.0000      -0.712150       -19.3786
  36   2.0000      -0.709333       -19.3019
  37   2.0000      -0.678725       -18.4691
  38   2.0000      -0.667300       -18.1582
  39   2.0000      -0.643107       -17.4998
  40   2.0000      -0.620300       -16.8792
  41   2.0000      -0.604891       -16.4599
  42   2.0000      -0.596038       -16.2190
  43   2.0000      -0.580150       -15.7867
  44   2.0000      -0.570543       -15.5253
  45   2.0000      -0.560520       -15.2525
  46   2.0000      -0.550063       -14.9680
  47   2.0000      -0.540607       -14.7107
  48   2.0000      -0.526422       -14.3247
  49   2.0000      -0.516356       -14.0508
  50   2.0000      -0.507214       -13.8020
  51   2.0000      -0.501633       -13.6501
  52   2.0000      -0.493969       -13.4416
  53   2.0000      -0.478705       -13.0262
  54   2.0000      -0.462619       -12.5885
  55   2.0000      -0.456923       -12.4335
  56   2.0000      -0.453898       -12.3512
  57   2.0000      -0.447890       -12.1877
  58   2.0000      -0.437329       -11.9003
  59   2.0000      -0.434355       -11.8194
  60   2.0000      -0.428204       -11.6520
  61   2.0000      -0.419876       -11.4254
  62   2.0000      -0.415891       -11.3170
  63   2.0000      -0.408505       -11.1160
  64   2.0000      -0.403131       -10.9698
  65   2.0000      -0.397024       -10.8036
  66   2.0000      -0.390645       -10.6300
  67   2.0000      -0.372753       -10.1431
  68   2.0000      -0.371830       -10.1180
  69   2.0000      -0.362007        -9.8507
  70   2.0000      -0.296201        -8.0600
  71   2.0000      -0.201974        -5.4960
  72   0.0000      -0.012033        -0.3274
  73   0.0000       0.005590         0.1521
  74   0.0000       0.013010         0.3540
  75   0.0000       0.018580         0.5056
  76   0.0000       0.027800         0.7565

MULLIKEN ATOMIC CHARGES
-----------------------
   0 C :   -0.995215
   1 N :   -0.210492
   2 C :   -0.780398
   3 C :   -0.929380
   4 H :    0.416472
   5 H :    0.423858
   6 S :    1.419901
   7 C :    1.133153
   8 N :   -0.572043
   9 C :   -1.251309
  10 H :    0.214377
  11 H :    0.266305
  12 H :    0.252706
  13 H :    0.319253
  14 H :    0.208174
  15 F :   -0.281269
  16 O :   -0.710893
  17 C :   -0.832473
  18 H :    0.320763
  19 H :    0.361417
  20 C :   -0.622404
  21 C :   -0.045600
  22 H :    0.318538
  23 H :    0.089581
  24 H :    0.372293
  25 H :    0.321286
  26 C :   -0.264016
  27 H :    0.399067
  28 H :    0.403968
  29 C :   -0.480508
  30 H :    0.372320
  31 H :    0.141980
  32 C :   -1.158423
  33 H :    0.402886
  34 H :    0.226380
  35 H :    0.363600
  36 H :    0.409552
  37 H :    0.365575
  38 H :    0.390698
  39 O :   -0.779680
Sum of atomic charges:    0.0000000

LOEWDIN ATOMIC CHARGES
----------------------
   0 C :   -0.185222
   1 N :    0.022068
   2 C :   -0.224385
   3 C :   -0.215970
   4 H :    0.126038
   5 H :    0.110774
   6 S :    0.665862
   7 C :   -0.550038
   8 N :    0.122220
   9 C :    0.009700
  10 H :   -0.001526
  11 H :    0.001576
  12 H :    0.057620
  13 H :    0.053943
  14 H :    0.119312
  15 F :   -0.095333
  16 O :   -0.251252
  17 C :   -0.190585
  18 H :    0.116359
  19 H :    0.116800
  20 C :   -0.220397
  21 C :   -0.221969
  22 H :    0.134762
  23 H :    0.085071
  24 H :    0.126141
  25 H :    0.117469
  26 C :   -0.215583
  27 H :    0.114638
  28 H :    0.104932
  29 C :   -0.223434
  30 H :    0.119493
  31 H :    0.103377
  32 C :   -0.213775
  33 H :    0.117673
  34 H :    0.102326
  35 H :    0.112047
  36 H :    0.116402
  37 H :    0.111858
  38 H :    0.113409
  39 O :   -0.292404

  Mayer bond orders larger than 0.100000
B(  0-C ,  1-N ) :   0.8725 B(  0-C ,  7-C ) :  -0.1734 B(  0-C ,  9-C ) :   0.2048
B(  0-C , 12-H ) :  -0.2406 B(  0-C , 17-C ) :   0.7574 B(  0-C , 18-H ) :   0.8610
B(  0-C , 19-H ) :   0.8754 B(  0-C , 27-H ) :  -0.1022 B(  1-N ,  7-C ) :   0.8972
B(  1-N , 12-H ) :   0.7889 B(  1-N , 17-C ) :   0.1473 B(  1-N , 39-O ) :  -0.1695
B(  2-C ,  3-C ) :   0.6300 B(  2-C , 20-C ) :   0.3607 B(  2-C , 21-C ) :   0.1169
B(  2-C , 22-H ) :  -0.1043 B(  2-C , 24-H ) :   0.9137 B(  2-C , 25-H ) :   1.0165
B(  3-C ,  4-H ) :   0.8708 B(  3-C ,  5-H ) :   0.9346 B(  3-C ,  6-S ) :   0.8852
B(  3-C , 16-O ) :   0.1235 B(  3-C , 21-C ) :   0.1168 B(  6-S , 15-F ) :   0.7882
B(  6-S , 16-O ) :   1.4186 B(  6-S , 39-O ) :   1.5908 B(  7-C ,  8-N ) :   0.7717
B(  7-C ,  9-C ) :   0.9870 B(  7-C , 11-H ) :  -0.1736 B(  7-C , 12-H ) :  -0.2447
B(  8-N , 13-H ) :   0.8379 B(  8-N , 14-H ) :   1.0294 B(  9-C , 10-H ) :   1.0547
B(  9-C , 11-H ) :   1.1230 B( 17-C , 26-C ) :   0.7120 B( 17-C , 27-H ) :   0.9482
B( 17-C , 28-H ) :   0.9235 B( 17-C , 29-C ) :   0.2246 B( 20-C , 21-C ) :   0.3236
B( 20-C , 26-C ) :   0.1516 B( 20-C , 29-C ) :  -0.1282 B( 20-C , 32-C ) :   0.6196
B( 20-C , 35-H ) :   0.9861 B( 20-C , 36-H ) :   0.8550 B( 21-C , 22-H ) :   0.9324
B( 21-C , 23-H ) :   1.1396 B( 21-C , 25-H ) :  -0.1174 B( 21-C , 29-C ) :   0.1463
B( 21-C , 32-C ) :   0.1843 B( 21-C , 35-H ) :  -0.1098 B( 21-C , 39-O ) :   0.1616
B( 22-H , 23-H ) :   0.1286 B( 23-H , 39-O ) :  -0.2347 B( 26-C , 29-C ) :   0.1648
B( 26-C , 30-H ) :   0.8862 B( 26-C , 31-H ) :   1.1033 B( 26-C , 32-C ) :   0.1514
B( 26-C , 34-H ) :  -0.1843 B( 29-C , 31-H ) :  -0.1078 B( 29-C , 32-C ) :   0.6043
B( 29-C , 33-H ) :   0.8503 B( 29-C , 34-H ) :   1.1328 B( 32-C , 37-H ) :   0.9775
B( 32-C , 38-H ) :   0.9631

Dispersion correction           -0.003074355
FINAL SINGLE POINT ENERGY     -1190.907421287377

DIPOLE MOMENT
-------------
                                X             Y             Z
Electronic contribution:    -16.83636       2.69104     -21.27321
Nuclear contribution   :     17.35766      -5.13497      20.30937
                        -----------------------------------------
Total Dipole Moment    :      0.52131      -2.44393      -0.96384
                        -----------------------------------------
Magnitude (a.u.)       :      2.67835
Magnitude (Debye)      :      6.80782

Rotational constants in cm-1:     0.014431     0.012329     0.007535
Rotational constants in MHz :   432.628327   369.619539   225.898827

                             ****ORCA TERMINATED NORMALLY****
TOTAL RUN TIME: 0 days 0 hours 12 minutes 17 seconds 748 msec
