                         Program Version 5.0.0 -  RELEASE  -
|  1> !M062X D3Zero RIJCOSX def2-TZVPD def2/J TightSCF xyzfile
|  2>
|  3> *xyzfile 0 1 D4.xyz
|  4>
|  5> %MaxCore 64000
|  6>
|  7> %pal nprocs 4
|  8> end
|  9>
| 10> %scf
| 11>   MaxIter 150
| 12> end
| 13>
| 14>
| 15>                          ****END OF INPUT****

CARTESIAN COORDINATES (ANGSTROEM)
---------------------------------
  C      4.490588    1.155899   -2.469290
  C      4.305394    1.222762   -3.908317
  C      4.906458   -3.102816   -5.954844
  C      3.511771   -2.806215   -6.492283
  H      2.736044   -3.373445   -5.973736
  H      3.444904   -3.040831   -7.555281
  S      3.004618   -1.096206   -6.389259
  C      4.631918    2.246365   -4.670958
  N      4.541686    2.143990   -5.987139
  N      5.084086    3.393584   -4.118545
  H      4.920675    3.570501   -3.135870
  H      5.254652    4.197390   -4.706956
  H      3.824530    0.449113   -4.350926
  H      4.343373    1.249318   -6.416646
  H      4.676712    2.956624   -6.574113
  O      4.128856   -0.329647   -6.953717
  F      1.781285   -1.000779   -7.136399
  C      5.942129    0.939500   -2.036893
  H      3.864305    0.328532   -2.136611
  H      4.076233    2.049994   -1.989010
  C      6.462677   -3.117775   -3.944671
  C      5.024977   -3.025679   -4.437625
  H      4.423321   -3.818693   -3.977648
  H      4.579350   -2.087131   -4.108727
  H      5.201533   -4.100207   -6.296905
  H      5.605922   -2.397822   -6.413368
  C      6.559957   -0.356290   -2.559086
  H      5.967976    0.952567   -0.942444
  H      6.547184    1.788331   -2.368849
  C      6.006283   -1.615917   -1.899301
  H      7.642360   -0.318000   -2.402059
  H      6.414855   -0.403433   -3.642587
  C      6.608718   -2.917014   -2.435655
  H      6.190324   -1.561115   -0.820948
  H      4.919250   -1.651245   -2.016586
  H      7.066975   -2.374258   -4.475514
  H      6.887808   -4.089747   -4.215332
  H      6.135197   -3.755573   -1.915159
  H      7.671142   -2.955503   -2.172291
  O      2.851546   -0.783683   -4.956789

 Total Charge           Charge          ....    0
 Multiplicity           Mult            ....    1
 Number of Electrons    NEL             ....  144
 Basis Dimension        Dim             ....  854

ORBITAL ENERGIES
----------------

  NO   OCC          E(Eh)            E(eV)
   0   2.0000     -90.169006     -2453.6234
   1   2.0000     -25.384369      -690.7438
   2   2.0000     -19.653028      -534.7861
   3   2.0000     -19.643364      -534.5231
   4   2.0000     -14.725148      -400.6916
   5   2.0000     -14.705513      -400.1574
   6   2.0000     -10.606480      -288.6170
   7   2.0000     -10.563846      -287.4569
   8   2.0000     -10.551937      -287.1328
   9   2.0000     -10.531582      -286.5789
  10   2.0000     -10.525432      -286.4116
  11   2.0000     -10.519023      -286.2372
  12   2.0000     -10.508970      -285.9636
  13   2.0000     -10.500039      -285.7206
  14   2.0000     -10.494906      -285.5809
  15   2.0000     -10.487574      -285.3814
  16   2.0000     -10.418760      -283.5089
  17   2.0000      -8.494508      -231.1473
  18   2.0000      -6.419235      -174.6763
  19   2.0000      -6.414214      -174.5396
  20   2.0000      -6.413970      -174.5330
  21   2.0000      -1.549296       -42.1585
  22   2.0000      -1.240503       -33.7558
  23   2.0000      -1.141063       -31.0499
  24   2.0000      -1.042028       -28.3550
  25   2.0000      -0.947198       -25.7746
  26   2.0000      -0.942538       -25.6477
  27   2.0000      -0.903586       -24.5878
  28   2.0000      -0.874282       -23.7904
  29   2.0000      -0.854121       -23.2418
  30   2.0000      -0.822448       -22.3800
  31   2.0000      -0.792680       -21.5699
  32   2.0000      -0.756658       -20.5897
  33   2.0000      -0.726855       -19.7787
  34   2.0000      -0.708533       -19.2802
  35   2.0000      -0.703264       -19.1368
  36   2.0000      -0.684298       -18.6207
  37   2.0000      -0.670017       -18.2321
  38   2.0000      -0.653617       -17.7858
  39   2.0000      -0.631374       -17.1806
  40   2.0000      -0.614774       -16.7289
  41   2.0000      -0.594968       -16.1899
  42   2.0000      -0.581445       -15.8219
  43   2.0000      -0.573219       -15.5981
  44   2.0000      -0.551813       -15.0156
  45   2.0000      -0.543064       -14.7775
  46   2.0000      -0.538193       -14.6450
  47   2.0000      -0.521754       -14.1976
  48   2.0000      -0.516264       -14.0483
  49   2.0000      -0.501438       -13.6448
  50   2.0000      -0.493540       -13.4299
  51   2.0000      -0.481436       -13.1005
  52   2.0000      -0.479842       -13.0572
  53   2.0000      -0.476669       -12.9708
  54   2.0000      -0.449892       -12.2422
  55   2.0000      -0.446401       -12.1472
  56   2.0000      -0.440975       -11.9995
  57   2.0000      -0.431350       -11.7376
  58   2.0000      -0.423327       -11.5193
  59   2.0000      -0.419218       -11.4075
  60   2.0000      -0.406584       -11.0637
  61   2.0000      -0.400881       -10.9085
  62   2.0000      -0.399312       -10.8658
  63   2.0000      -0.386574       -10.5192
  64   2.0000      -0.379088       -10.3155
  65   2.0000      -0.375945       -10.2300
  66   2.0000      -0.362932        -9.8759
  67   2.0000      -0.352086        -9.5807
  68   2.0000      -0.344688        -9.3794
  69   2.0000      -0.332699        -9.0532
  70   2.0000      -0.302676        -8.2362
  71   2.0000      -0.184829        -5.0294
  72   0.0000      -0.008415        -0.2290
  73   0.0000       0.013348         0.3632
  74   0.0000       0.014659         0.3989
  75   0.0000       0.023027         0.6266
  76   0.0000       0.032744         0.8910

MULLIKEN ATOMIC CHARGES
-----------------------
   0 C :   -1.183585
   1 C :    0.854956
   2 C :   -0.799489
   3 C :   -1.022406
   4 H :    0.444947
   5 H :    0.483315
   6 S :    1.508338
   7 C :    1.027324
   8 N :   -0.600783
   9 N :   -0.631066
  10 H :    0.248882
  11 H :    0.233416
  12 H :   -1.046328
  13 H :    0.354828
  14 H :    0.201205
  15 O :   -0.878497
  16 F :   -0.142499
  17 C :   -0.997855
  18 H :    0.326477
  19 H :    0.441421
  20 C :   -0.635019
  21 C :   -0.010247
  22 H :    0.308189
  23 H :    0.035986
  24 H :    0.368879
  25 H :    0.342514
  26 C :   -0.408480
  27 H :    0.375986
  28 H :    0.420670
  29 C :   -0.458326
  30 H :    0.392281
  31 H :    0.179582
  32 C :   -1.166126
  33 H :    0.404850
  34 H :    0.228649
  35 H :    0.378293
  36 H :    0.411416
  37 H :    0.362121
  38 H :    0.389288
  39 O :   -0.743106
Sum of atomic charges:   -0.0000000

LOEWDIN ATOMIC CHARGES
----------------------
   0 C :   -0.228640
   1 C :   -0.137061
   2 C :   -0.215459
   3 C :   -0.226855
   4 H :    0.115180
   5 H :    0.106824
   6 S :    0.688445
   7 C :   -0.521165
   8 N :    0.111560
   9 N :    0.118740
  10 H :    0.095721
  11 H :    0.095954
  12 H :    0.005577
  13 H :    0.034870
  14 H :    0.101885
  15 O :   -0.293258
  16 F :   -0.037018
  17 C :   -0.211162
  18 H :    0.107327
  19 H :    0.103899
  20 C :   -0.219931
  21 C :   -0.217689
  22 H :    0.132356
  23 H :    0.089986
  24 H :    0.126457
  25 H :    0.120636
  26 C :   -0.216647
  27 H :    0.107336
  28 H :    0.104893
  29 C :   -0.222183
  30 H :    0.116748
  31 H :    0.105409
  32 C :   -0.216085
  33 H :    0.115958
  34 H :    0.103758
  35 H :    0.113423
  36 H :    0.114692
  37 H :    0.110076
  38 H :    0.111726
  39 O :   -0.296283

  Mayer bond orders larger than 0.100000
B(  0-C ,  1-C ) :   0.2415 B(  0-C , 17-C ) :   0.6999 B(  0-C , 18-H ) :   1.0326
B(  0-C , 19-H ) :   0.8649 B(  1-C ,  7-C ) :   1.0493 B(  1-C , 12-H ) :   0.9197
B(  1-C , 18-H ) :  -0.1920 B(  1-C , 19-H ) :  -0.1919 B(  1-C , 31-H ) :  -0.1240
B(  2-C ,  3-C ) :   0.7275 B(  2-C , 20-C ) :   0.3772 B(  2-C , 21-C ) :   0.2277
B(  2-C , 22-H ) :  -0.1111 B(  2-C , 24-H ) :   0.9206 B(  2-C , 25-H ) :   0.9635
B(  3-C ,  4-H ) :   0.8517 B(  3-C ,  5-H ) :   0.8279 B(  3-C ,  6-S ) :   0.8615
B(  3-C , 15-O ) :   0.1088 B(  3-C , 16-F ) :   0.1083 B(  3-C , 21-C ) :   0.1359
B(  3-C , 39-O ) :   0.1096 B(  6-S , 15-O ) :   1.3460 B(  6-S , 16-F ) :   0.7739
B(  6-S , 39-O ) :   1.5990 B(  7-C ,  8-N ) :   0.7169 B(  7-C ,  9-N ) :   0.8740
B(  8-N , 12-H ) :   0.2244 B(  8-N , 13-H ) :   0.8708 B(  8-N , 14-H ) :   1.0186
B(  9-N , 10-H ) :   0.9834 B(  9-N , 11-H ) :   0.9739 B(  9-N , 17-C ) :   0.1482
B( 12-H , 15-O ) :   0.1822 B( 12-H , 39-O ) :  -0.2219 B( 13-H , 15-O ) :  -0.1128
B( 17-C , 26-C ) :   0.7633 B( 17-C , 27-H ) :   0.9981 B( 17-C , 28-H ) :   0.8892
B( 17-C , 29-C ) :   0.2260 B( 20-C , 21-C ) :   0.3282 B( 20-C , 26-C ) :   0.1639
B( 20-C , 29-C ) :  -0.1440 B( 20-C , 32-C ) :   0.6160 B( 20-C , 35-H ) :   0.9725
B( 20-C , 36-H ) :   0.8491 B( 21-C , 22-H ) :   0.9312 B( 21-C , 23-H ) :   1.1035
B( 21-C , 29-C ) :   0.1592 B( 21-C , 32-C ) :   0.1821 B( 21-C , 35-H ) :  -0.1036
B( 21-C , 39-O ) :   0.1514 B( 22-H , 23-H ) :   0.1221 B( 23-H , 39-O ) :  -0.1631
B( 26-C , 29-C ) :   0.1800 B( 26-C , 30-H ) :   0.8619 B( 26-C , 31-H ) :   1.1859
B( 26-C , 32-C ) :   0.1506 B( 26-C , 34-H ) :  -0.1885 B( 29-C , 31-H ) :  -0.1439
B( 29-C , 32-C ) :   0.5957 B( 29-C , 33-H ) :   0.8459 B( 29-C , 34-H ) :   1.1288
B( 32-C , 37-H ) :   0.9801 B( 32-C , 38-H ) :   0.9636

Dispersion correction           -0.003045972
FINAL SINGLE POINT ENERGY     -1190.896051160476

DIPOLE MOMENT
-------------
                                X             Y             Z
Electronic contribution:    -20.58325       3.45711     -21.95762
Nuclear contribution   :     19.99734      -4.67125      20.55522
                        -----------------------------------------
Total Dipole Moment    :     -0.58591      -1.21413      -1.40240
                        -----------------------------------------
Magnitude (a.u.)       :      1.94529
Magnitude (Debye)      :      4.94453

Rotational constants in cm-1:     0.014213     0.012058     0.007367
Rotational constants in MHz :   426.102180   361.491761   220.844824

                             ****ORCA TERMINATED NORMALLY****
TOTAL RUN TIME: 0 days 0 hours 12 minutes 3 seconds 961 msec
