                         Program Version 5.0.0 -  RELEASE  -
|  1> !M062X D3Zero RIJCOSX def2-TZVPD def2/J TightSCF xyzfile
|  2>
|  3> *xyzfile 0 1 D5.xyz
|  4>
|  5> %MaxCore 64000
|  6>
|  7> %pal nprocs 4
|  8> end
|  9>
| 10> %scf
| 11>   MaxIter 150
| 12> end
| 13>
| 14>
| 15>                          ****END OF INPUT****

CARTESIAN COORDINATES (ANGSTROEM)
---------------------------------
  C      4.490588    1.155899   -2.469290
  N      4.305394    1.222762   -3.908317
  C      4.906458   -3.102816   -5.954844
  C      3.511771   -2.806215   -6.492283
  H      2.736044   -3.373445   -5.973736
  H      3.444904   -3.040831   -7.555281
  S      3.004618   -1.096206   -6.389259
  C      4.631918    2.246365   -4.670958
  C      4.541686    2.143990   -5.987139
  N      5.084086    3.393584   -4.118545
  H      4.920675    3.570501   -3.135870
  H      5.254652    4.197390   -4.706956
  H      3.824530    0.449113   -4.350926
  H      4.343373    1.249318   -6.416646
  H      4.676712    2.956624   -6.574113
  O      4.128856   -0.329647   -6.953717
  F      1.781285   -1.000779   -7.136399
  C      5.942129    0.939500   -2.036893
  H      3.864305    0.328532   -2.136611
  H      4.076233    2.049994   -1.989010
  C      6.462677   -3.117775   -3.944671
  C      5.024977   -3.025679   -4.437625
  H      4.423321   -3.818693   -3.977648
  H      4.579350   -2.087131   -4.108727
  H      5.201533   -4.100207   -6.296905
  H      5.605922   -2.397822   -6.413368
  C      6.559957   -0.356290   -2.559086
  H      5.967976    0.952567   -0.942444
  H      6.547184    1.788331   -2.368849
  C      6.006283   -1.615917   -1.899301
  H      7.642360   -0.318000   -2.402059
  H      6.414855   -0.403433   -3.642587
  C      6.608718   -2.917014   -2.435655
  H      6.190324   -1.561115   -0.820948
  H      4.919250   -1.651245   -2.016586
  H      7.066975   -2.374258   -4.475514
  H      6.887808   -4.089747   -4.215332
  H      6.135197   -3.755573   -1.915159
  H      7.671142   -2.955503   -2.172291
  O      2.851546   -0.783683   -4.956789

 Total Charge           Charge          ....    0
 Multiplicity           Mult            ....    1
 Number of Electrons    NEL             ....  144
 Basis Dimension        Dim             ....  854

ORBITAL ENERGIES
----------------

  NO   OCC          E(Eh)            E(eV)
   0   2.0000     -90.168305     -2453.6043
   1   2.0000     -25.383072      -690.7085
   2   2.0000     -19.651581      -534.7467
   3   2.0000     -19.641455      -534.4712
   4   2.0000     -14.721590      -400.5948
   5   2.0000     -14.707446      -400.2099
   6   2.0000     -10.606823      -288.6263
   7   2.0000     -10.566239      -287.5220
   8   2.0000     -10.552427      -287.1461
   9   2.0000     -10.551636      -287.1246
  10   2.0000     -10.538144      -286.7575
  11   2.0000     -10.532247      -286.5970
  12   2.0000     -10.528198      -286.4868
  13   2.0000     -10.522331      -286.3272
  14   2.0000     -10.516562      -286.1702
  15   2.0000     -10.516019      -286.1554
  16   2.0000     -10.407139      -283.1927
  17   2.0000      -8.493738      -231.1264
  18   2.0000      -6.418469      -174.6554
  19   2.0000      -6.413402      -174.5175
  20   2.0000      -6.413256      -174.5136
  21   2.0000      -1.547735       -42.1160
  22   2.0000      -1.239260       -33.7220
  23   2.0000      -1.139690       -31.0125
  24   2.0000      -1.049724       -28.5644
  25   2.0000      -0.959872       -26.1195
  26   2.0000      -0.946502       -25.7556
  27   2.0000      -0.910238       -24.7688
  28   2.0000      -0.880884       -23.9701
  29   2.0000      -0.851533       -23.1714
  30   2.0000      -0.823948       -22.4208
  31   2.0000      -0.793990       -21.6056
  32   2.0000      -0.762050       -20.7364
  33   2.0000      -0.733826       -19.9684
  34   2.0000      -0.710616       -19.3369
  35   2.0000      -0.706465       -19.2239
  36   2.0000      -0.686274       -18.6745
  37   2.0000      -0.675777       -18.3888
  38   2.0000      -0.661472       -17.9996
  39   2.0000      -0.642338       -17.4789
  40   2.0000      -0.628503       -17.1024
  41   2.0000      -0.592530       -16.1236
  42   2.0000      -0.581479       -15.8229
  43   2.0000      -0.565797       -15.3961
  44   2.0000      -0.551587       -15.0094
  45   2.0000      -0.547893       -14.9089
  46   2.0000      -0.534949       -14.5567
  47   2.0000      -0.532803       -14.4983
  48   2.0000      -0.522196       -14.2097
  49   2.0000      -0.509075       -13.8526
  50   2.0000      -0.499773       -13.5995
  51   2.0000      -0.493178       -13.4201
  52   2.0000      -0.486826       -13.2472
  53   2.0000      -0.467627       -12.7248
  54   2.0000      -0.456778       -12.4296
  55   2.0000      -0.453001       -12.3268
  56   2.0000      -0.443761       -12.0754
  57   2.0000      -0.437356       -11.9011
  58   2.0000      -0.426483       -11.6052
  59   2.0000      -0.420769       -11.4497
  60   2.0000      -0.417677       -11.3656
  61   2.0000      -0.413214       -11.2441
  62   2.0000      -0.402488       -10.9522
  63   2.0000      -0.395564       -10.7639
  64   2.0000      -0.390788       -10.6339
  65   2.0000      -0.383758       -10.4426
  66   2.0000      -0.368959       -10.0399
  67   2.0000      -0.368567       -10.0292
  68   2.0000      -0.360673        -9.8144
  69   2.0000      -0.358562        -9.7570
  70   2.0000      -0.290419        -7.9027
  71   2.0000      -0.185241        -5.0407
  72   0.0000      -0.007773        -0.2115
  73   0.0000       0.012879         0.3505
  74   0.0000       0.015145         0.4121
  75   0.0000       0.023022         0.6265
  76   0.0000       0.030218         0.8223

MULLIKEN ATOMIC CHARGES
-----------------------
   0 C :   -1.040256
   1 N :   -0.118527
   2 C :   -0.796925
   3 C :   -1.048320
   4 H :    0.442691
   5 H :    0.493314
   6 S :    1.435938
   7 C :    1.337103
   8 C :   -0.961592
   9 N :   -0.650660
  10 H :    0.237383
  11 H :    0.266523
  12 H :    0.198818
  13 H :   -0.146654
  14 H :    0.119247
  15 O :   -0.769713
  16 F :   -0.135638
  17 C :   -0.772493
  18 H :    0.331493
  19 H :    0.355465
  20 C :   -0.661678
  21 C :   -0.038560
  22 H :    0.311782
  23 H :    0.045338
  24 H :    0.371658
  25 H :    0.348752
  26 C :   -0.335492
  27 H :    0.419661
  28 H :    0.419098
  29 C :   -0.494423
  30 H :    0.367302
  31 H :    0.211160
  32 C :   -1.137460
  33 H :    0.400564
  34 H :    0.240918
  35 H :    0.371470
  36 H :    0.416762
  37 H :    0.368411
  38 H :    0.390607
  39 O :   -0.793067
Sum of atomic charges:   -0.0000000

LOEWDIN ATOMIC CHARGES
----------------------
   0 C :   -0.192872
   1 N :    0.026617
   2 C :   -0.214612
   3 C :   -0.227905
   4 H :    0.113723
   5 H :    0.108172
   6 S :    0.687542
   7 C :   -0.542685
   8 C :    0.012322
   9 N :    0.110068
  10 H :    0.086798
  11 H :    0.107106
  12 H :    0.065147
  13 H :   -0.047905
  14 H :    0.010459
  15 O :   -0.294058
  16 F :   -0.033968
  17 C :   -0.196041
  18 H :    0.115674
  19 H :    0.109831
  20 C :   -0.218760
  21 C :   -0.219186
  22 H :    0.132515
  23 H :    0.086963
  24 H :    0.126966
  25 H :    0.121931
  26 C :   -0.213499
  27 H :    0.111723
  28 H :    0.105794
  29 C :   -0.223943
  30 H :    0.119154
  31 H :    0.108481
  32 C :   -0.214394
  33 H :    0.116545
  34 H :    0.102207
  35 H :    0.114276
  36 H :    0.116035
  37 H :    0.111192
  38 H :    0.112861
  39 O :   -0.300272

  Mayer bond orders larger than 0.100000
B(  0-C ,  1-N ) :   0.8493 B(  0-C ,  7-C ) :  -0.2170 B(  0-C ,  9-N ) :   0.1825
B(  0-C , 12-H ) :  -0.1649 B(  0-C , 17-C ) :   0.6666 B(  0-C , 18-H ) :   0.8820
B(  0-C , 19-H ) :   0.8861 B(  0-C , 27-H ) :  -0.1194 B(  1-N ,  7-C ) :   0.9162
B(  1-N , 12-H ) :   0.8413 B(  1-N , 39-O ) :  -0.1730 B(  2-C ,  3-C ) :   0.7336
B(  2-C , 20-C ) :   0.3822 B(  2-C , 21-C ) :   0.2202 B(  2-C , 22-H ) :  -0.1077
B(  2-C , 24-H ) :   0.9144 B(  2-C , 25-H ) :   0.9698 B(  3-C ,  4-H ) :   0.8510
B(  3-C ,  5-H ) :   0.8208 B(  3-C ,  6-S ) :   0.8533 B(  3-C , 15-O ) :   0.1014
B(  3-C , 21-C ) :   0.1618 B(  3-C , 39-O ) :   0.1145 B(  6-S , 15-O ) :   1.4621
B(  6-S , 16-F ) :   0.7961 B(  6-S , 39-O ) :   1.5664 B(  7-C ,  8-C ) :   0.8175
B(  7-C ,  9-N ) :   0.6956 B(  7-C , 12-H ) :  -0.2243 B(  7-C , 13-H ) :  -0.1892
B(  7-C , 14-H ) :  -0.2794 B(  8-C ,  9-N ) :   0.1135 B(  8-C , 13-H ) :   1.2454
B(  8-C , 14-H ) :   1.2830 B(  9-N , 10-H ) :   0.9977 B(  9-N , 11-H ) :   0.9676
B( 13-H , 15-O ) :  -0.2284 B( 15-O , 39-O ) :   0.1047 B( 17-C , 26-C ) :   0.7140
B( 17-C , 27-H ) :   0.9647 B( 17-C , 28-H ) :   0.8657 B( 17-C , 29-C ) :   0.2424
B( 20-C , 21-C ) :   0.3156 B( 20-C , 26-C ) :   0.1586 B( 20-C , 29-C ) :  -0.1272
B( 20-C , 32-C ) :   0.6190 B( 20-C , 35-H ) :   0.9855 B( 20-C , 36-H ) :   0.8446
B( 21-C , 22-H ) :   0.9290 B( 21-C , 23-H ) :   1.1292 B( 21-C , 29-C ) :   0.1492
B( 21-C , 32-C ) :   0.1807 B( 21-C , 35-H ) :  -0.1078 B( 21-C , 39-O ) :   0.1593
B( 22-H , 23-H ) :   0.1205 B( 23-H , 39-O ) :  -0.2054 B( 26-C , 29-C ) :   0.1395
B( 26-C , 30-H ) :   0.8893 B( 26-C , 31-H ) :   1.0804 B( 26-C , 32-C ) :   0.1556
B( 26-C , 34-H ) :  -0.1822 B( 29-C , 31-H ) :  -0.1065 B( 29-C , 32-C ) :   0.6105
B( 29-C , 33-H ) :   0.8502 B( 29-C , 34-H ) :   1.1239 B( 32-C , 37-H ) :   0.9716
B( 32-C , 38-H ) :   0.9637

Dispersion correction           -0.003056390
FINAL SINGLE POINT ENERGY     -1190.887656528590

DIPOLE MOMENT
-------------
                                X             Y             Z
Electronic contribution:    -20.60872       2.60643     -20.18963
Nuclear contribution   :     20.03262      -4.53368      20.24480
                        -----------------------------------------
Total Dipole Moment    :     -0.57610      -1.92726       0.05517
                        -----------------------------------------
Magnitude (a.u.)       :      2.01228
Magnitude (Debye)      :      5.11480

Rotational constants in cm-1:     0.014367     0.012055     0.007393
Rotational constants in MHz :   430.711297   361.391195   221.649333

                             ****ORCA TERMINATED NORMALLY****
TOTAL RUN TIME: 0 days 0 hours 12 minutes 12 seconds 622 msec
