                         Program Version 5.0.0 -  RELEASE  -
|  1> !M062X D3Zero RIJCOSX def2-TZVPD def2/J TightSCF xyzfile
|  2>
|  3> *xyzfile 0 1 D6.xyz
|  4>
|  5> %MaxCore 64000
|  6>
|  7> %pal nprocs 4
|  8> end
|  9>
| 10> %scf
| 11>   MaxIter 150
| 12> end
| 13>
| 14>
| 15>                          ****END OF INPUT****

CARTESIAN COORDINATES (ANGSTROEM)
---------------------------------
  C      4.490588    1.155899   -2.469290
  N      4.305394    1.222762   -3.908317
  C      4.906458   -3.102816   -5.954844
  C      3.511771   -2.806215   -6.492283
  H      2.736044   -3.373445   -5.973736
  H      3.444904   -3.040831   -7.555281
  S      3.004618   -1.096206   -6.389259
  C      4.631918    2.246365   -4.670958
  N      4.541686    2.143990   -5.987139
  C      5.084086    3.393584   -4.118545
  H      4.920675    3.570501   -3.135870
  H      5.254652    4.197390   -4.706956
  H      3.824530    0.449113   -4.350926
  H      4.343373    1.249318   -6.416646
  H      4.676712    2.956624   -6.574113
  O      4.128856   -0.329647   -6.953717
  F      1.781285   -1.000779   -7.136399
  C      5.942129    0.939500   -2.036893
  H      3.864305    0.328532   -2.136611
  H      4.076233    2.049994   -1.989010
  C      6.462677   -3.117775   -3.944671
  C      5.024977   -3.025679   -4.437625
  H      4.423321   -3.818693   -3.977648
  H      4.579350   -2.087131   -4.108727
  H      5.201533   -4.100207   -6.296905
  H      5.605922   -2.397822   -6.413368
  C      6.559957   -0.356290   -2.559086
  H      5.967976    0.952567   -0.942444
  H      6.547184    1.788331   -2.368849
  C      6.006283   -1.615917   -1.899301
  H      7.642360   -0.318000   -2.402059
  H      6.414855   -0.403433   -3.642587
  C      6.608718   -2.917014   -2.435655
  H      6.190324   -1.561115   -0.820948
  H      4.919250   -1.651245   -2.016586
  H      7.066975   -2.374258   -4.475514
  H      6.887808   -4.089747   -4.215332
  H      6.135197   -3.755573   -1.915159
  H      7.671142   -2.955503   -2.172291
  O      2.851546   -0.783683   -4.956789

 Total Charge           Charge          ....    0
 Multiplicity           Mult            ....    1
 Number of Electrons    NEL             ....  144
 Basis Dimension        Dim             ....  854

ORBITAL ENERGIES
----------------

  NO   OCC          E(Eh)            E(eV)
   0   2.0000     -90.187329     -2454.1220
   1   2.0000     -25.399600      -691.1583
   2   2.0000     -19.667825      -535.1887
   3   2.0000     -19.667044      -535.1675
   4   2.0000     -14.710338      -400.2887
   5   2.0000     -14.705306      -400.1517
   6   2.0000     -10.620287      -288.9927
   7   2.0000     -10.575690      -287.7792
   8   2.0000     -10.554778      -287.2101
   9   2.0000     -10.544141      -286.9207
  10   2.0000     -10.543996      -286.9167
  11   2.0000     -10.535663      -286.6900
  12   2.0000     -10.528883      -286.5055
  13   2.0000     -10.520622      -286.2807
  14   2.0000     -10.512593      -286.0622
  15   2.0000     -10.506764      -285.9036
  16   2.0000     -10.419067      -283.5172
  17   2.0000      -8.512830      -231.6459
  18   2.0000      -6.437486      -175.1729
  19   2.0000      -6.432565      -175.0390
  20   2.0000      -6.432320      -175.0323
  21   2.0000      -1.564329       -42.5675
  22   2.0000      -1.259465       -34.2718
  23   2.0000      -1.160615       -31.5819
  24   2.0000      -1.049410       -28.5559
  25   2.0000      -0.960339       -26.1322
  26   2.0000      -0.957386       -26.0518
  27   2.0000      -0.914043       -24.8724
  28   2.0000      -0.882738       -24.0205
  29   2.0000      -0.855620       -23.2826
  30   2.0000      -0.823717       -22.4145
  31   2.0000      -0.784961       -21.3599
  32   2.0000      -0.771899       -21.0044
  33   2.0000      -0.745982       -20.2992
  34   2.0000      -0.723791       -19.6954
  35   2.0000      -0.719129       -19.5685
  36   2.0000      -0.698719       -19.0131
  37   2.0000      -0.677989       -18.4490
  38   2.0000      -0.669856       -18.2277
  39   2.0000      -0.636346       -17.3159
  40   2.0000      -0.615244       -16.7416
  41   2.0000      -0.603380       -16.4188
  42   2.0000      -0.595551       -16.2058
  43   2.0000      -0.577060       -15.7026
  44   2.0000      -0.570267       -15.5178
  45   2.0000      -0.550916       -14.9912
  46   2.0000      -0.547294       -14.8926
  47   2.0000      -0.532124       -14.4798
  48   2.0000      -0.521589       -14.1932
  49   2.0000      -0.507470       -13.8090
  50   2.0000      -0.499296       -13.5865
  51   2.0000      -0.498163       -13.5557
  52   2.0000      -0.490974       -13.3601
  53   2.0000      -0.472534       -12.8583
  54   2.0000      -0.458193       -12.4681
  55   2.0000      -0.451959       -12.2984
  56   2.0000      -0.447280       -12.1711
  57   2.0000      -0.442197       -12.0328
  58   2.0000      -0.429807       -11.6957
  59   2.0000      -0.424173       -11.5423
  60   2.0000      -0.421966       -11.4823
  61   2.0000      -0.414301       -11.2737
  62   2.0000      -0.406212       -11.0536
  63   2.0000      -0.403007       -10.9664
  64   2.0000      -0.397380       -10.8133
  65   2.0000      -0.391303       -10.6479
  66   2.0000      -0.383412       -10.4332
  67   2.0000      -0.366657        -9.9772
  68   2.0000      -0.365627        -9.9492
  69   2.0000      -0.355494        -9.6735
  70   2.0000      -0.279044        -7.5932
  71   2.0000      -0.187524        -5.1028
  72   0.0000      -0.016247        -0.4421
  73   0.0000       0.005829         0.1586
  74   0.0000       0.008158         0.2220
  75   0.0000       0.019943         0.5427
  76   0.0000       0.030265         0.8235

MULLIKEN ATOMIC CHARGES
-----------------------
   0 C :   -0.992826
   1 N :   -0.221044
   2 C :   -0.786076
   3 C :   -1.032835
   4 H :    0.453262
   5 H :    0.491054
   6 S :    1.454364
   7 C :    1.072685
   8 N :   -0.557941
   9 C :   -1.247561
  10 H :    0.210748
  11 H :    0.266734
  12 H :    0.293508
  13 H :    0.364605
  14 H :    0.207580
  15 O :   -0.875041
  16 F :   -0.139193
  17 C :   -0.847899
  18 H :    0.312057
  19 H :    0.365381
  20 C :   -0.646361
  21 C :   -0.065769
  22 H :    0.318196
  23 H :    0.059770
  24 H :    0.371857
  25 H :    0.347162
  26 C :   -0.280838
  27 H :    0.397863
  28 H :    0.408354
  29 C :   -0.480017
  30 H :    0.369289
  31 H :    0.161325
  32 C :   -1.147279
  33 H :    0.402827
  34 H :    0.225163
  35 H :    0.373145
  36 H :    0.413901
  37 H :    0.363381
  38 H :    0.390634
  39 O :   -0.774164
Sum of atomic charges:   -0.0000000

LOEWDIN ATOMIC CHARGES
----------------------
   0 C :   -0.188455
   1 N :    0.024904
   2 C :   -0.213836
   3 C :   -0.223885
   4 H :    0.116420
   5 H :    0.109216
   6 S :    0.693797
   7 C :   -0.552185
   8 N :    0.118769
   9 C :    0.001923
  10 H :   -0.005951
  11 H :   -0.001415
  12 H :    0.060854
  13 H :    0.029165
  14 H :    0.115002
  15 O :   -0.291693
  16 F :   -0.030684
  17 C :   -0.191321
  18 H :    0.114468
  19 H :    0.115252
  20 C :   -0.218710
  21 C :   -0.218904
  22 H :    0.133148
  23 H :    0.087056
  24 H :    0.128317
  25 H :    0.121552
  26 C :   -0.214690
  27 H :    0.113515
  28 H :    0.104783
  29 C :   -0.224380
  30 H :    0.119143
  31 H :    0.105870
  32 C :   -0.214408
  33 H :    0.117041
  34 H :    0.101588
  35 H :    0.114018
  36 H :    0.116067
  37 H :    0.111005
  38 H :    0.113236
  39 O :   -0.295595

  Mayer bond orders larger than 0.100000
B(  0-C ,  1-N ) :   0.8618 B(  0-C ,  7-C ) :  -0.1703 B(  0-C ,  9-C ) :   0.2144
B(  0-C , 12-H ) :  -0.2333 B(  0-C , 17-C ) :   0.7713 B(  0-C , 18-H ) :   0.8691
B(  0-C , 19-H ) :   0.8762 B(  0-C , 27-H ) :  -0.1009 B(  1-N ,  7-C ) :   0.9122
B(  1-N , 12-H ) :   0.7603 B(  1-N , 17-C ) :   0.1594 B(  1-N , 39-O ) :  -0.1603
B(  2-C ,  3-C ) :   0.7356 B(  2-C , 20-C ) :   0.3751 B(  2-C , 21-C ) :   0.2064
B(  2-C , 22-H ) :  -0.1079 B(  2-C , 24-H ) :   0.9149 B(  2-C , 25-H ) :   0.9664
B(  3-C ,  4-H ) :   0.8433 B(  3-C ,  5-H ) :   0.8213 B(  3-C ,  6-S ) :   0.8540
B(  3-C , 15-O ) :   0.1142 B(  3-C , 16-F ) :   0.1032 B(  3-C , 21-C ) :   0.1619
B(  3-C , 39-O ) :   0.1138 B(  6-S , 15-O ) :   1.3650 B(  6-S , 16-F ) :   0.7964
B(  6-S , 39-O ) :   1.6101 B(  7-C ,  8-N ) :   0.8057 B(  7-C ,  9-C ) :   1.0156
B(  7-C , 11-H ) :  -0.1652 B(  7-C , 12-H ) :  -0.2123 B(  8-N , 13-H ) :   0.8231
B(  8-N , 14-H ) :   1.0287 B(  9-C , 10-H ) :   1.0567 B(  9-C , 11-H ) :   1.1202
B( 17-C , 26-C ) :   0.7127 B( 17-C , 27-H ) :   0.9509 B( 17-C , 28-H ) :   0.9239
B( 17-C , 29-C ) :   0.2286 B( 20-C , 21-C ) :   0.3304 B( 20-C , 26-C ) :   0.1564
B( 20-C , 29-C ) :  -0.1269 B( 20-C , 32-C ) :   0.6154 B( 20-C , 35-H ) :   0.9806
B( 20-C , 36-H ) :   0.8489 B( 21-C , 22-H ) :   0.9293 B( 21-C , 23-H ) :   1.1263
B( 21-C , 29-C ) :   0.1466 B( 21-C , 32-C ) :   0.1802 B( 21-C , 35-H ) :  -0.1095
B( 21-C , 39-O ) :   0.1542 B( 22-H , 23-H ) :   0.1235 B( 23-H , 39-O ) :  -0.2026
B( 26-C , 29-C ) :   0.1497 B( 26-C , 30-H ) :   0.8870 B( 26-C , 31-H ) :   1.0981
B( 26-C , 32-C ) :   0.1524 B( 26-C , 34-H ) :  -0.1828 B( 29-C , 31-H ) :  -0.1096
B( 29-C , 32-C ) :   0.5969 B( 29-C , 33-H ) :   0.8513 B( 29-C , 34-H ) :   1.1313
B( 32-C , 37-H ) :   0.9800 B( 32-C , 38-H ) :   0.9633

Dispersion correction           -0.003071792
FINAL SINGLE POINT ENERGY     -1190.902346162922

DIPOLE MOMENT
-------------
                                X             Y             Z
Electronic contribution:    -21.12188       1.29289     -21.84484
Nuclear contribution   :     20.11362      -4.34709      20.52383
                        -----------------------------------------
Total Dipole Moment    :     -1.00826      -3.05420      -1.32101
                        -----------------------------------------
Magnitude (a.u.)       :      3.47704
Magnitude (Debye)      :      8.83792

Rotational constants in cm-1:     0.014449     0.012108     0.007447
Rotational constants in MHz :   433.168496   362.988632   223.260798

                             ****ORCA TERMINATED NORMALLY****
TOTAL RUN TIME: 0 days 0 hours 13 minutes 13 seconds 907 msec
