                         Program Version 5.0.0 -  RELEASE  -
|  1> !M062X D3Zero RIJCOSX def2-TZVPD def2/J TightSCF xyzfile
|  2>
|  3> *xyzfile 0 1 D7.xyz
|  4>
|  5> %MaxCore 64000
|  6>
|  7> %pal nprocs 4
|  8> end
|  9>
| 10> %scf
| 11>   MaxIter 150
| 12> end
| 13>
| 14>
| 15>                          ****END OF INPUT****

CARTESIAN COORDINATES (ANGSTROEM)
---------------------------------
  C      4.490588    1.155899   -2.469290
  C      4.305394    1.222762   -3.908317
  C      4.906458   -3.102816   -5.954844
  C      3.511771   -2.806215   -6.492283
  H      2.736044   -3.373445   -5.973736
  H      3.444904   -3.040831   -7.555281
  S      3.004618   -1.096206   -6.389259
  C      4.631918    2.246365   -4.670958
  N      4.541686    2.143990   -5.987139
  N      5.084086    3.393584   -4.118545
  H      4.920675    3.570501   -3.135870
  H      5.254652    4.197390   -4.706956
  H      3.824530    0.449113   -4.350926
  H      4.343373    1.249318   -6.416646
  H      4.676712    2.956624   -6.574113
  O      4.128856   -0.329647   -6.953717
  O      1.781285   -1.000779   -7.136399
  C      5.942129    0.939500   -2.036893
  H      3.864305    0.328532   -2.136611
  H      4.076233    2.049994   -1.989010
  C      6.462677   -3.117775   -3.944671
  C      5.024977   -3.025679   -4.437625
  H      4.423321   -3.818693   -3.977648
  H      4.579350   -2.087131   -4.108727
  H      5.201533   -4.100207   -6.296905
  H      5.605922   -2.397822   -6.413368
  C      6.559957   -0.356290   -2.559086
  H      5.967976    0.952567   -0.942444
  H      6.547184    1.788331   -2.368849
  C      6.006283   -1.615917   -1.899301
  H      7.642360   -0.318000   -2.402059
  H      6.414855   -0.403433   -3.642587
  C      6.608718   -2.917014   -2.435655
  H      6.190324   -1.561115   -0.820948
  H      4.919250   -1.651245   -2.016586
  H      7.066975   -2.374258   -4.475514
  H      6.887808   -4.089747   -4.215332
  H      6.135197   -3.755573   -1.915159
  H      7.671142   -2.955503   -2.172291
  F      2.851546   -0.783683   -4.956789

 Total Charge           Charge          ....    0
 Multiplicity           Mult            ....    1
 Number of Electrons    NEL             ....  144
 Basis Dimension        Dim             ....  854

ORBITAL ENERGIES
----------------

  NO   OCC          E(Eh)            E(eV)
   0   2.0000     -90.163140     -2453.4638
   1   2.0000     -25.359039      -690.0545
   2   2.0000     -19.652492      -534.7715
   3   2.0000     -19.649210      -534.6822
   4   2.0000     -14.738314      -401.0499
   5   2.0000     -14.715774      -400.4366
   6   2.0000     -10.602925      -288.5203
   7   2.0000     -10.569483      -287.6102
   8   2.0000     -10.562794      -287.4282
   9   2.0000     -10.544087      -286.9192
  10   2.0000     -10.533821      -286.6398
  11   2.0000     -10.527426      -286.4658
  12   2.0000     -10.519475      -286.2495
  13   2.0000     -10.510758      -286.0123
  14   2.0000     -10.506585      -285.8987
  15   2.0000     -10.503294      -285.8092
  16   2.0000     -10.441806      -284.1360
  17   2.0000      -8.488564      -230.9856
  18   2.0000      -6.413401      -174.5175
  19   2.0000      -6.408428      -174.3822
  20   2.0000      -6.407903      -174.3679
  21   2.0000      -1.515202       -41.2307
  22   2.0000      -1.247060       -33.9342
  23   2.0000      -1.151965       -31.3466
  24   2.0000      -1.055248       -28.7147
  25   2.0000      -0.957566       -26.0567
  26   2.0000      -0.945817       -25.7370
  27   2.0000      -0.910192       -24.7676
  28   2.0000      -0.881160       -23.9776
  29   2.0000      -0.854905       -23.2632
  30   2.0000      -0.819486       -22.2994
  31   2.0000      -0.802035       -21.8245
  32   2.0000      -0.762630       -20.7522
  33   2.0000      -0.733080       -19.9481
  34   2.0000      -0.710956       -19.3461
  35   2.0000      -0.691562       -18.8184
  36   2.0000      -0.680689       -18.5225
  37   2.0000      -0.667605       -18.1665
  38   2.0000      -0.659179       -17.9372
  39   2.0000      -0.637696       -17.3526
  40   2.0000      -0.625421       -17.0186
  41   2.0000      -0.600939       -16.3524
  42   2.0000      -0.578882       -15.7522
  43   2.0000      -0.563869       -15.3437
  44   2.0000      -0.559327       -15.2201
  45   2.0000      -0.553393       -15.0586
  46   2.0000      -0.551497       -15.0070
  47   2.0000      -0.529363       -14.4047
  48   2.0000      -0.521670       -14.1954
  49   2.0000      -0.512938       -13.9578
  50   2.0000      -0.497522       -13.5383
  51   2.0000      -0.492663       -13.4060
  52   2.0000      -0.491626       -13.3778
  53   2.0000      -0.478426       -13.0186
  54   2.0000      -0.464211       -12.6318
  55   2.0000      -0.452142       -12.3034
  56   2.0000      -0.443466       -12.0673
  57   2.0000      -0.437454       -11.9037
  58   2.0000      -0.433741       -11.8027
  59   2.0000      -0.422911       -11.5080
  60   2.0000      -0.415139       -11.2965
  61   2.0000      -0.408627       -11.1193
  62   2.0000      -0.405648       -11.0382
  63   2.0000      -0.402998       -10.9661
  64   2.0000      -0.390326       -10.6213
  65   2.0000      -0.388954       -10.5840
  66   2.0000      -0.379441       -10.3251
  67   2.0000      -0.363361        -9.8876
  68   2.0000      -0.358454        -9.7540
  69   2.0000      -0.352823        -9.6008
  70   2.0000      -0.313941        -8.5428
  71   2.0000      -0.201938        -5.4950
  72   0.0000      -0.000716        -0.0195
  73   0.0000       0.013422         0.3652
  74   0.0000       0.017104         0.4654
  75   0.0000       0.020129         0.5477
  76   0.0000       0.032931         0.8961

MULLIKEN ATOMIC CHARGES
-----------------------
   0 C :   -1.237083
   1 C :    0.639467
   2 C :   -0.690769
   3 C :   -0.987666
   4 H :    0.401973
   5 H :    0.431371
   6 S :    1.598348
   7 C :    1.068910
   8 N :   -0.598252
   9 N :   -0.628262
  10 H :    0.250704
  11 H :    0.237558
  12 H :   -0.877190
  13 H :    0.347570
  14 H :    0.203858
  15 O :   -0.885680
  16 O :   -0.735344
  17 C :   -0.983158
  18 H :    0.352536
  19 H :    0.440807
  20 C :   -0.636912
  21 C :   -0.059695
  22 H :    0.323314
  23 H :    0.016383
  24 H :    0.380538
  25 H :    0.330384
  26 C :   -0.411890
  27 H :    0.379523
  28 H :    0.426607
  29 C :   -0.458768
  30 H :    0.390227
  31 H :    0.185231
  32 C :   -1.162293
  33 H :    0.402233
  34 H :    0.222881
  35 H :    0.370514
  36 H :    0.411451
  37 H :    0.363691
  38 H :    0.389943
  39 F :   -0.213057
Sum of atomic charges:   -0.0000000

LOEWDIN ATOMIC CHARGES
----------------------
   0 C :   -0.231601
   1 C :   -0.139229
   2 C :   -0.225575
   3 C :   -0.219533
   4 H :    0.115557
   5 H :    0.117757
   6 S :    0.666186
   7 C :   -0.516664
   8 N :    0.117403
   9 N :    0.125239
  10 H :    0.097998
  11 H :    0.100134
  12 H :    0.022491
  13 H :    0.036224
  14 H :    0.106649
  15 O :   -0.292775
  16 O :   -0.258931
  17 C :   -0.209841
  18 H :    0.105862
  19 H :    0.105480
  20 C :   -0.217954
  21 C :   -0.221651
  22 H :    0.132353
  23 H :    0.088633
  24 H :    0.125436
  25 H :    0.119100
  26 C :   -0.216597
  27 H :    0.108782
  28 H :    0.106104
  29 C :   -0.223263
  30 H :    0.118188
  31 H :    0.104823
  32 C :   -0.215235
  33 H :    0.116846
  34 H :    0.101155
  35 H :    0.114243
  36 H :    0.116907
  37 H :    0.110813
  38 H :    0.112799
  39 F :   -0.104315

  Mayer bond orders larger than 0.100000
B(  0-C ,  1-C ) :   0.1090 B(  0-C ,  7-C ) :   0.1150 B(  0-C , 17-C ) :   0.7048
B(  0-C , 18-H ) :   1.0040 B(  0-C , 19-H ) :   0.8781 B(  1-C ,  7-C ) :   1.0675
B(  1-C , 12-H ) :   1.0278 B(  1-C , 18-H ) :  -0.1895 B(  1-C , 19-H ) :  -0.1895
B(  1-C , 31-H ) :  -0.1139 B(  1-C , 39-F ) :   0.2127 B(  2-C ,  3-C ) :   0.5884
B(  2-C , 20-C ) :   0.3817 B(  2-C , 21-C ) :   0.2178 B(  2-C , 22-H ) :  -0.1102
B(  2-C , 24-H ) :   0.9070 B(  2-C , 25-H ) :   1.0008 B(  3-C ,  4-H ) :   0.9096
B(  3-C ,  5-H ) :   0.8924 B(  3-C ,  6-S ) :   0.9164 B(  3-C , 16-O ) :   0.1519
B(  3-C , 21-C ) :   0.1910 B(  6-S , 15-O ) :   1.2740 B(  6-S , 16-O ) :   1.2908
B(  6-S , 21-C ) :   0.1014 B(  6-S , 39-F ) :   0.9298 B(  7-C ,  8-N ) :   0.6776
B(  7-C ,  9-N ) :   0.8859 B(  7-C , 12-H ) :   0.1028 B(  7-C , 13-H ) :  -0.1324
B(  8-N , 12-H ) :   0.2497 B(  8-N , 13-H ) :   0.8795 B(  8-N , 14-H ) :   1.0139
B(  9-N , 10-H ) :   0.9811 B(  9-N , 11-H ) :   0.9723 B(  9-N , 17-C ) :   0.1437
B( 12-H , 13-H ) :   0.1237 B( 12-H , 15-O ) :   0.2292 B( 12-H , 39-F ) :  -0.3135
B( 13-H , 15-O ) :  -0.1231 B( 17-C , 26-C ) :   0.7717 B( 17-C , 27-H ) :   0.9942
B( 17-C , 28-H ) :   0.8848 B( 17-C , 29-C ) :   0.2188 B( 20-C , 21-C ) :   0.3535
B( 20-C , 26-C ) :   0.1540 B( 20-C , 29-C ) :  -0.1407 B( 20-C , 32-C ) :   0.6186
B( 20-C , 35-H ) :   0.9770 B( 20-C , 36-H ) :   0.8498 B( 21-C , 22-H ) :   0.9318
B( 21-C , 23-H ) :   1.0595 B( 21-C , 29-C ) :   0.1588 B( 21-C , 32-C ) :   0.1802
B( 21-C , 35-H ) :  -0.1046 B( 22-H , 23-H ) :   0.1102 B( 23-H , 39-F ) :  -0.1110
B( 26-C , 29-C ) :   0.1679 B( 26-C , 30-H ) :   0.8613 B( 26-C , 31-H ) :   1.1912
B( 26-C , 32-C ) :   0.1524 B( 26-C , 34-H ) :  -0.1938 B( 29-C , 31-H ) :  -0.1498
B( 29-C , 32-C ) :   0.6038 B( 29-C , 33-H ) :   0.8501 B( 29-C , 34-H ) :   1.1306
B( 32-C , 37-H ) :   0.9828 B( 32-C , 38-H ) :   0.9609

Dispersion correction           -0.003060310
FINAL SINGLE POINT ENERGY     -1190.914457857703

DIPOLE MOMENT
-------------
                                X             Y             Z
Electronic contribution:    -18.40349       4.00021     -17.96399
Nuclear contribution   :     18.74089      -4.92611      17.99644
                        -----------------------------------------
Total Dipole Moment    :      0.33741      -0.92590       0.03245
                        -----------------------------------------
Magnitude (a.u.)       :      0.98599
Magnitude (Debye)      :      2.50619

Rotational constants in cm-1:     0.014210     0.012324     0.007480
Rotational constants in MHz :   425.991442   369.455467   224.259162

                             ****ORCA TERMINATED NORMALLY****
TOTAL RUN TIME: 0 days 0 hours 11 minutes 22 seconds 319 msec
