                         Program Version 5.0.0 -  RELEASE  -
|  1> !M062X D3Zero RIJCOSX def2-TZVPD def2/J TightSCF xyzfile
|  2>
|  3> *xyzfile 0 1 D8.xyz
|  4>
|  5> %MaxCore 64000
|  6>
|  7> %pal nprocs 4
|  8> end
|  9>
| 10> %scf
| 11>   MaxIter 150
| 12> end
| 13>
| 14>
| 15>                          ****END OF INPUT****

CARTESIAN COORDINATES (ANGSTROEM)
---------------------------------
  C      4.490588    1.155899   -2.469290
  N      4.305394    1.222762   -3.908317
  C      4.906458   -3.102816   -5.954844
  C      3.511771   -2.806215   -6.492283
  H      2.736044   -3.373445   -5.973736
  H      3.444904   -3.040831   -7.555281
  S      3.004618   -1.096206   -6.389259
  C      4.631918    2.246365   -4.670958
  C      4.541686    2.143990   -5.987139
  N      5.084086    3.393584   -4.118545
  H      4.920675    3.570501   -3.135870
  H      5.254652    4.197390   -4.706956
  H      3.824530    0.449113   -4.350926
  H      4.343373    1.249318   -6.416646
  H      4.676712    2.956624   -6.574113
  O      4.128856   -0.329647   -6.953717
  O      1.781285   -1.000779   -7.136399
  C      5.942129    0.939500   -2.036893
  H      3.864305    0.328532   -2.136611
  H      4.076233    2.049994   -1.989010
  C      6.462677   -3.117775   -3.944671
  C      5.024977   -3.025679   -4.437625
  H      4.423321   -3.818693   -3.977648
  H      4.579350   -2.087131   -4.108727
  H      5.201533   -4.100207   -6.296905
  H      5.605922   -2.397822   -6.413368
  C      6.559957   -0.356290   -2.559086
  H      5.967976    0.952567   -0.942444
  H      6.547184    1.788331   -2.368849
  C      6.006283   -1.615917   -1.899301
  H      7.642360   -0.318000   -2.402059
  H      6.414855   -0.403433   -3.642587
  C      6.608718   -2.917014   -2.435655
  H      6.190324   -1.561115   -0.820948
  H      4.919250   -1.651245   -2.016586
  H      7.066975   -2.374258   -4.475514
  H      6.887808   -4.089747   -4.215332
  H      6.135197   -3.755573   -1.915159
  H      7.671142   -2.955503   -2.172291
  F      2.851546   -0.783683   -4.956789

 Total Charge           Charge          ....    0
 Multiplicity           Mult            ....    1
 Number of Electrons    NEL             ....  144
 Basis Dimension        Dim             ....  854

ORBITAL ENERGIES
----------------

  NO   OCC          E(Eh)            E(eV)
   0   2.0000     -90.158147     -2453.3279
   1   2.0000     -25.370722      -690.3724
   2   2.0000     -19.649099      -534.6792
   3   2.0000     -19.636524      -534.3370
   4   2.0000     -14.733130      -400.9089
   5   2.0000     -14.732594      -400.8943
   6   2.0000     -10.602105      -288.4979
   7   2.0000     -10.568833      -287.5926
   8   2.0000     -10.565132      -287.4919
   9   2.0000     -10.564723      -287.4807
  10   2.0000     -10.551029      -287.1081
  11   2.0000     -10.540928      -286.8332
  12   2.0000     -10.536986      -286.7260
  13   2.0000     -10.533411      -286.6287
  14   2.0000     -10.528711      -286.5008
  15   2.0000     -10.527832      -286.4769
  16   2.0000     -10.418112      -283.4912
  17   2.0000      -8.483873      -230.8579
  18   2.0000      -6.408934      -174.3960
  19   2.0000      -6.403525      -174.2488
  20   2.0000      -6.403019      -174.2350
  21   2.0000      -1.525800       -41.5191
  22   2.0000      -1.241387       -33.7798
  23   2.0000      -1.143062       -31.1043
  24   2.0000      -1.067420       -29.0460
  25   2.0000      -0.975476       -26.5440
  26   2.0000      -0.948707       -25.8156
  27   2.0000      -0.917185       -24.9579
  28   2.0000      -0.887497       -24.1500
  29   2.0000      -0.851676       -23.1753
  30   2.0000      -0.828390       -22.5416
  31   2.0000      -0.803662       -21.8687
  32   2.0000      -0.768328       -20.9073
  33   2.0000      -0.741918       -20.1886
  34   2.0000      -0.720361       -19.6020
  35   2.0000      -0.705440       -19.1960
  36   2.0000      -0.690065       -18.7776
  37   2.0000      -0.677889       -18.4463
  38   2.0000      -0.656927       -17.8759
  39   2.0000      -0.647023       -17.6064
  40   2.0000      -0.638477       -17.3738
  41   2.0000      -0.594015       -16.1640
  42   2.0000      -0.580196       -15.7879
  43   2.0000      -0.563472       -15.3328
  44   2.0000      -0.557710       -15.1761
  45   2.0000      -0.556408       -15.1406
  46   2.0000      -0.546007       -14.8576
  47   2.0000      -0.541371       -14.7315
  48   2.0000      -0.533660       -14.5216
  49   2.0000      -0.514822       -14.0090
  50   2.0000      -0.511490       -13.9184
  51   2.0000      -0.500759       -13.6263
  52   2.0000      -0.485247       -13.2042
  53   2.0000      -0.478376       -13.0173
  54   2.0000      -0.463372       -12.6090
  55   2.0000      -0.457831       -12.4582
  56   2.0000      -0.454142       -12.3578
  57   2.0000      -0.444291       -12.0898
  58   2.0000      -0.436491       -11.8775
  59   2.0000      -0.430397       -11.7117
  60   2.0000      -0.427243       -11.6259
  61   2.0000      -0.414609       -11.2821
  62   2.0000      -0.409605       -11.1459
  63   2.0000      -0.403905       -10.9908
  64   2.0000      -0.400140       -10.8884
  65   2.0000      -0.395487       -10.7617
  66   2.0000      -0.380230       -10.3466
  67   2.0000      -0.379212       -10.3189
  68   2.0000      -0.371823       -10.1178
  69   2.0000      -0.364338        -9.9141
  70   2.0000      -0.307051        -8.3553
  71   2.0000      -0.198126        -5.3913
  72   0.0000      -0.003722        -0.1013
  73   0.0000       0.009098         0.2476
  74   0.0000       0.015437         0.4201
  75   0.0000       0.019342         0.5263
  76   0.0000       0.030573         0.8319

MULLIKEN ATOMIC CHARGES
-----------------------
   0 C :   -1.060671
   1 N :   -0.182322
   2 C :   -0.659363
   3 C :   -0.998762
   4 H :    0.397982
   5 H :    0.430508
   6 S :    1.484739
   7 C :    1.357147
   8 C :   -1.061233
   9 N :   -0.652008
  10 H :    0.238393
  11 H :    0.267386
  12 H :    0.224667
  13 H :   -0.064999
  14 H :    0.124522
  15 O :   -0.766683
  16 O :   -0.728465
  17 C :   -0.778651
  18 H :    0.349910
  19 H :    0.359968
  20 C :   -0.671122
  21 C :   -0.060520
  22 H :    0.327476
  23 H :   -0.011963
  24 H :    0.381875
  25 H :    0.332315
  26 C :   -0.326076
  27 H :    0.419354
  28 H :    0.424343
  29 C :   -0.489888
  30 H :    0.366012
  31 H :    0.211146
  32 C :   -1.130545
  33 H :    0.397861
  34 H :    0.233045
  35 H :    0.363858
  36 H :    0.417466
  37 H :    0.371195
  38 H :    0.390613
  39 F :   -0.228509
Sum of atomic charges:    0.0000000

LOEWDIN ATOMIC CHARGES
----------------------
   0 C :   -0.192962
   1 N :    0.024592
   2 C :   -0.225115
   3 C :   -0.221601
   4 H :    0.113755
   5 H :    0.118535
   6 S :    0.658886
   7 C :   -0.541249
   8 C :    0.020926
   9 N :    0.111935
  10 H :    0.087800
  11 H :    0.109743
  12 H :    0.086919
  13 H :   -0.044872
  14 H :    0.016340
  15 O :   -0.294407
  16 O :   -0.257654
  17 C :   -0.194168
  18 H :    0.114366
  19 H :    0.111922
  20 C :   -0.216699
  21 C :   -0.223050
  22 H :    0.132574
  23 H :    0.085666
  24 H :    0.125822
  25 H :    0.120261
  26 C :   -0.213302
  27 H :    0.113365
  28 H :    0.107304
  29 C :   -0.225139
  30 H :    0.120744
  31 H :    0.107887
  32 C :   -0.213484
  33 H :    0.117482
  34 H :    0.099415
  35 H :    0.115114
  36 H :    0.118350
  37 H :    0.111973
  38 H :    0.113985
  39 F :   -0.101957

  Mayer bond orders larger than 0.100000
B(  0-C ,  1-N ) :   0.8384 B(  0-C ,  7-C ) :  -0.2310 B(  0-C ,  9-N ) :   0.1889
B(  0-C , 12-H ) :  -0.1485 B(  0-C , 17-C ) :   0.6882 B(  0-C , 18-H ) :   0.8612
B(  0-C , 19-H ) :   0.8865 B(  0-C , 27-H ) :  -0.1189 B(  1-N ,  7-C ) :   0.9454
B(  1-N , 12-H ) :   0.8295 B(  2-C ,  3-C ) :   0.5783 B(  2-C , 20-C ) :   0.3885
B(  2-C , 21-C ) :   0.2105 B(  2-C , 22-H ) :  -0.1053 B(  2-C , 23-H ) :  -0.1070
B(  2-C , 24-H ) :   0.9018 B(  2-C , 25-H ) :   1.0053 B(  3-C ,  4-H ) :   0.9131
B(  3-C ,  5-H ) :   0.8933 B(  3-C ,  6-S ) :   0.9234 B(  3-C , 16-O ) :   0.1340
B(  3-C , 21-C ) :   0.2190 B(  6-S , 15-O ) :   1.4178 B(  6-S , 16-O ) :   1.3424
B(  6-S , 21-C ) :   0.1067 B(  6-S , 39-F ) :   0.9231 B(  7-C ,  8-C ) :   0.6879
B(  7-C ,  9-N ) :   0.6955 B(  7-C , 12-H ) :  -0.1957 B(  7-C , 13-H ) :  -0.2317
B(  7-C , 14-H ) :  -0.2860 B(  8-C ,  9-N ) :   0.1177 B(  8-C , 13-H ) :   1.3229
B(  8-C , 14-H ) :   1.2767 B(  9-N , 10-H ) :   0.9962 B(  9-N , 11-H ) :   0.9663
B( 13-H , 15-O ) :  -0.2827 B( 17-C , 19-H ) :  -0.1014 B( 17-C , 26-C ) :   0.7306
B( 17-C , 27-H ) :   0.9632 B( 17-C , 28-H ) :   0.8630 B( 17-C , 29-C ) :   0.2333
B( 20-C , 21-C ) :   0.3399 B( 20-C , 26-C ) :   0.1512 B( 20-C , 29-C ) :  -0.1270
B( 20-C , 32-C ) :   0.6229 B( 20-C , 35-H ) :   0.9880 B( 20-C , 36-H ) :   0.8447
B( 21-C , 22-H ) :   0.9350 B( 21-C , 23-H ) :   1.0769 B( 21-C , 29-C ) :   0.1508
B( 21-C , 32-C ) :   0.1749 B( 21-C , 35-H ) :  -0.1089 B( 22-H , 23-H ) :   0.1034
B( 23-H , 39-F ) :  -0.1210 B( 26-C , 29-C ) :   0.1232 B( 26-C , 30-H ) :   0.8872
B( 26-C , 31-H ) :   1.0879 B( 26-C , 32-C ) :   0.1566 B( 26-C , 34-H ) :  -0.1881
B( 29-C , 31-H ) :  -0.1147 B( 29-C , 32-C ) :   0.6185 B( 29-C , 33-H ) :   0.8532
B( 29-C , 34-H ) :   1.1284 B( 32-C , 37-H ) :   0.9726 B( 32-C , 38-H ) :   0.9616

Dispersion correction           -0.003070670
FINAL SINGLE POINT ENERGY     -1190.891982744362

DIPOLE MOMENT
-------------
                                X             Y             Z
Electronic contribution:    -18.42687       3.14795     -16.16950
Nuclear contribution   :     18.77618      -4.78855      17.68602
                        -----------------------------------------
Total Dipole Moment    :      0.34931      -1.64059       1.51652
                        -----------------------------------------
Magnitude (a.u.)       :      2.26128
Magnitude (Debye)      :      5.74772

Rotational constants in cm-1:     0.014368     0.012319     0.007509
Rotational constants in MHz :   430.738566   369.302170   225.105103

                             ****ORCA TERMINATED NORMALLY****
TOTAL RUN TIME: 0 days 0 hours 12 minutes 41 seconds 557 msec
