                         Program Version 5.0.0 -  RELEASE  -
|  1> !M062X D3Zero RIJCOSX def2-TZVPD def2/J TightSCF xyzfile
|  2>
|  3> *xyzfile 0 1 D9.xyz
|  4>
|  5> %MaxCore 64000
|  6>
|  7> %pal nprocs 4
|  8> end
|  9>
| 10> %scf
| 11>   MaxIter 150
| 12> end
| 13>
| 14>
| 15>                          ****END OF INPUT****

CARTESIAN COORDINATES (ANGSTROEM)
---------------------------------
  C      4.490588    1.155899   -2.469290
  N      4.305394    1.222762   -3.908317
  C      4.906458   -3.102816   -5.954844
  C      3.511771   -2.806215   -6.492283
  H      2.736044   -3.373445   -5.973736
  H      3.444904   -3.040831   -7.555281
  S      3.004618   -1.096206   -6.389259
  C      4.631918    2.246365   -4.670958
  N      4.541686    2.143990   -5.987139
  C      5.084086    3.393584   -4.118545
  H      4.920675    3.570501   -3.135870
  H      5.254652    4.197390   -4.706956
  H      3.824530    0.449113   -4.350926
  H      4.343373    1.249318   -6.416646
  H      4.676712    2.956624   -6.574113
  O      4.128856   -0.329647   -6.953717
  O      1.781285   -1.000779   -7.136399
  C      5.942129    0.939500   -2.036893
  H      3.864305    0.328532   -2.136611
  H      4.076233    2.049994   -1.989010
  C      6.462677   -3.117775   -3.944671
  C      5.024977   -3.025679   -4.437625
  H      4.423321   -3.818693   -3.977648
  H      4.579350   -2.087131   -4.108727
  H      5.201533   -4.100207   -6.296905
  H      5.605922   -2.397822   -6.413368
  C      6.559957   -0.356290   -2.559086
  H      5.967976    0.952567   -0.942444
  H      6.547184    1.788331   -2.368849
  C      6.006283   -1.615917   -1.899301
  H      7.642360   -0.318000   -2.402059
  H      6.414855   -0.403433   -3.642587
  C      6.608718   -2.917014   -2.435655
  H      6.190324   -1.561115   -0.820948
  H      4.919250   -1.651245   -2.016586
  H      7.066975   -2.374258   -4.475514
  H      6.887808   -4.089747   -4.215332
  H      6.135197   -3.755573   -1.915159
  H      7.671142   -2.955503   -2.172291
  F      2.851546   -0.783683   -4.956789

 Total Charge           Charge          ....    0
 Multiplicity           Mult            ....    1
 Number of Electrons    NEL             ....  144
 Basis Dimension        Dim             ....  854

ORBITAL ENERGIES
----------------

  NO   OCC          E(Eh)            E(eV)
   0   2.0000     -90.177527     -2453.8553
   1   2.0000     -25.384947      -690.7595
   2   2.0000     -19.666170      -535.1437
   3   2.0000     -19.663097      -535.0601
   4   2.0000     -14.736916      -401.0119
   5   2.0000     -14.714174      -400.3930
   6   2.0000     -10.615238      -288.8553
   7   2.0000     -10.573961      -287.7321
   8   2.0000     -10.568914      -287.5948
   9   2.0000     -10.561642      -287.3969
  10   2.0000     -10.556793      -287.2650
  11   2.0000     -10.544231      -286.9231
  12   2.0000     -10.537660      -286.7443
  13   2.0000     -10.531771      -286.5841
  14   2.0000     -10.524185      -286.3776
  15   2.0000     -10.519770      -286.2575
  16   2.0000     -10.432215      -283.8750
  17   2.0000      -8.503248      -231.3852
  18   2.0000      -6.428248      -174.9215
  19   2.0000      -6.422929      -174.7768
  20   2.0000      -6.422427      -174.7631
  21   2.0000      -1.540233       -41.9119
  22   2.0000      -1.261368       -34.3236
  23   2.0000      -1.165630       -31.7184
  24   2.0000      -1.067460       -29.0471
  25   2.0000      -0.974737       -26.5239
  26   2.0000      -0.958430       -26.0802
  27   2.0000      -0.919885       -25.0313
  28   2.0000      -0.886188       -24.1144
  29   2.0000      -0.855031       -23.2666
  30   2.0000      -0.830143       -22.5893
  31   2.0000      -0.794485       -21.6190
  32   2.0000      -0.783010       -21.3068
  33   2.0000      -0.752286       -20.4707
  34   2.0000      -0.729046       -19.8384
  35   2.0000      -0.714812       -19.4510
  36   2.0000      -0.698316       -19.0022
  37   2.0000      -0.681377       -18.5412
  38   2.0000      -0.667579       -18.1658
  39   2.0000      -0.646806       -17.6005
  40   2.0000      -0.618064       -16.8184
  41   2.0000      -0.603456       -16.4209
  42   2.0000      -0.593163       -16.1408
  43   2.0000      -0.586026       -15.9466
  44   2.0000      -0.566674       -15.4200
  45   2.0000      -0.565835       -15.3971
  46   2.0000      -0.553898       -15.0723
  47   2.0000      -0.544094       -14.8055
  48   2.0000      -0.525298       -14.2941
  49   2.0000      -0.520433       -14.1617
  50   2.0000      -0.508052       -13.8248
  51   2.0000      -0.505182       -13.7467
  52   2.0000      -0.493829       -13.4378
  53   2.0000      -0.480290       -13.0693
  54   2.0000      -0.465656       -12.6711
  55   2.0000      -0.457458       -12.4481
  56   2.0000      -0.453222       -12.3328
  57   2.0000      -0.445183       -12.1141
  58   2.0000      -0.437890       -11.9156
  59   2.0000      -0.432864       -11.7788
  60   2.0000      -0.427148       -11.6233
  61   2.0000      -0.423191       -11.5156
  62   2.0000      -0.420122       -11.4321
  63   2.0000      -0.411648       -11.2015
  64   2.0000      -0.407863       -11.0985
  65   2.0000      -0.402829       -10.9615
  66   2.0000      -0.397262       -10.8100
  67   2.0000      -0.378282       -10.2936
  68   2.0000      -0.377639       -10.2761
  69   2.0000      -0.367661       -10.0046
  70   2.0000      -0.295270        -8.0347
  71   2.0000      -0.201146        -5.4735
  72   0.0000      -0.009802        -0.2667
  73   0.0000       0.005070         0.1380
  74   0.0000       0.012579         0.3423
  75   0.0000       0.018101         0.4926
  76   0.0000       0.029282         0.7968

MULLIKEN ATOMIC CHARGES
-----------------------
   0 C :   -1.013515
   1 N :   -0.272254
   2 C :   -0.659689
   3 C :   -0.985316
   4 H :    0.407998
   5 H :    0.433926
   6 S :    1.512828
   7 C :    1.073588
   8 N :   -0.549471
   9 C :   -1.254330
  10 H :    0.213560
  11 H :    0.269652
  12 H :    0.326371
  13 H :    0.357702
  14 H :    0.210223
  15 O :   -0.881720
  16 O :   -0.722153
  17 C :   -0.851636
  18 H :    0.325717
  19 H :    0.370862
  20 C :   -0.654913
  21 C :   -0.087887
  22 H :    0.334528
  23 H :    0.005352
  24 H :    0.381406
  25 H :    0.332222
  26 C :   -0.274938
  27 H :    0.397441
  28 H :    0.412488
  29 C :   -0.477551
  30 H :    0.368862
  31 H :    0.160799
  32 C :   -1.137926
  33 H :    0.400278
  34 H :    0.218380
  35 H :    0.365792
  36 H :    0.415049
  37 H :    0.364925
  38 H :    0.390879
  39 F :   -0.227529
Sum of atomic charges:   -0.0000000

LOEWDIN ATOMIC CHARGES
----------------------
   0 C :   -0.188426
   1 N :    0.023390
   2 C :   -0.224430
   3 C :   -0.217778
   4 H :    0.116378
   5 H :    0.119714
   6 S :    0.665752
   7 C :   -0.550468
   8 N :    0.122201
   9 C :    0.008634
  10 H :   -0.003341
  11 H :    0.003270
  12 H :    0.082133
  13 H :    0.030149
  14 H :    0.118474
  15 O :   -0.291606
  16 O :   -0.252068
  17 C :   -0.189402
  18 H :    0.113310
  19 H :    0.117284
  20 C :   -0.216698
  21 C :   -0.222874
  22 H :    0.133200
  23 H :    0.085610
  24 H :    0.127084
  25 H :    0.119883
  26 C :   -0.214365
  27 H :    0.115156
  28 H :    0.106405
  29 C :   -0.225519
  30 H :    0.120749
  31 H :    0.105372
  32 C :   -0.213481
  33 H :    0.117968
  34 H :    0.098875
  35 H :    0.114848
  36 H :    0.118375
  37 H :    0.111802
  38 H :    0.114343
  39 F :   -0.099904

  Mayer bond orders larger than 0.100000
B(  0-C ,  1-N ) :   0.8673 B(  0-C ,  7-C ) :  -0.1835 B(  0-C ,  9-C ) :   0.2176
B(  0-C , 12-H ) :  -0.2227 B(  0-C , 17-C ) :   0.7946 B(  0-C , 18-H ) :   0.8536
B(  0-C , 19-H ) :   0.8723 B(  1-N ,  7-C ) :   0.9307 B(  1-N , 12-H ) :   0.7405
B(  1-N , 17-C ) :   0.1610 B(  2-C ,  3-C ) :   0.5870 B(  2-C , 20-C ) :   0.3811
B(  2-C , 21-C ) :   0.1961 B(  2-C , 22-H ) :  -0.1060 B(  2-C , 23-H ) :  -0.1101
B(  2-C , 24-H ) :   0.9036 B(  2-C , 25-H ) :   1.0022 B(  3-C ,  4-H ) :   0.9049
B(  3-C ,  5-H ) :   0.8894 B(  3-C ,  6-S ) :   0.9088 B(  3-C , 16-O ) :   0.1389
B(  3-C , 21-C ) :   0.2152 B(  6-S , 15-O ) :   1.3311 B(  6-S , 16-O ) :   1.3503
B(  6-S , 21-C ) :   0.1062 B(  6-S , 39-F ) :   0.9502 B(  7-C ,  8-N ) :   0.7812
B(  7-C ,  9-C ) :   1.0143 B(  7-C , 11-H ) :  -0.1650 B(  7-C , 12-H ) :  -0.1904
B(  8-N , 13-H ) :   0.8371 B(  8-N , 14-H ) :   1.0205 B(  9-C , 10-H ) :   1.0573
B(  9-C , 11-H ) :   1.1140 B( 17-C , 26-C ) :   0.7303 B( 17-C , 27-H ) :   0.9480
B( 17-C , 28-H ) :   0.9246 B( 17-C , 29-C ) :   0.2193 B( 20-C , 21-C ) :   0.3536
B( 20-C , 26-C ) :   0.1497 B( 20-C , 29-C ) :  -0.1258 B( 20-C , 32-C ) :   0.6209
B( 20-C , 35-H ) :   0.9830 B( 20-C , 36-H ) :   0.8483 B( 21-C , 22-H ) :   0.9303
B( 21-C , 23-H ) :   1.0789 B( 21-C , 29-C ) :   0.1497 B( 21-C , 32-C ) :   0.1730
B( 21-C , 35-H ) :  -0.1096 B( 22-H , 23-H ) :   0.1102 B( 23-H , 39-F ) :  -0.1193
B( 26-C , 29-C ) :   0.1328 B( 26-C , 30-H ) :   0.8839 B( 26-C , 31-H ) :   1.1081
B( 26-C , 32-C ) :   0.1531 B( 26-C , 34-H ) :  -0.1880 B( 29-C , 31-H ) :  -0.1188
B( 29-C , 32-C ) :   0.6038 B( 29-C , 33-H ) :   0.8540 B( 29-C , 34-H ) :   1.1348
B( 32-C , 37-H ) :   0.9826 B( 32-C , 38-H ) :   0.9608

Dispersion correction           -0.003087225
FINAL SINGLE POINT ENERGY     -1190.908873033022

DIPOLE MOMENT
-------------
                                X             Y             Z
Electronic contribution:    -18.92639       1.85756     -17.78620
Nuclear contribution   :     18.85717      -4.60195      17.96505
                        -----------------------------------------
Total Dipole Moment    :     -0.06921      -2.74439       0.17885
                        -----------------------------------------
Magnitude (a.u.)       :      2.75108
Magnitude (Debye)      :      6.99268

Rotational constants in cm-1:     0.014436     0.012382     0.007563
Rotational constants in MHz :   432.785702   371.214592   226.743759

                             ****ORCA TERMINATED NORMALLY****
TOTAL RUN TIME: 0 days 0 hours 13 minutes 45 seconds 420 msec
