                         Program Version 5.0.0 -  RELEASE  -
|  1> !TPSS D3BJ RIJCOSX def2-TZVP def2/J TightSCF
|  2> *xyz -1 1
|  3> C         -0.77455        2.78833       -0.54394
|  4> C          0.69721        3.22791       -0.52513
|  5> O          1.48929        2.37470        0.19919
|  6> H          0.71600        4.26403       -0.13077
|  7> H          1.03615        3.33092       -1.58367
|  8> H         -1.34746        3.48478       -1.11982
|  9> H         -1.15078        2.75876        0.45729
| 10> H         -0.85058        1.81526       -0.98241
| 11> *
| 12>
| 13> %MaxCore 64000
| 14> %pal nprocs 4
| 15> end
| 16>
| 17> %scf
| 18>   MaxIter 150
| 19> end
| 20>
| 21>
| 22>                          ****END OF INPUT****

CARTESIAN COORDINATES (ANGSTROEM)
---------------------------------
  C     -0.774550    2.788330   -0.543940
  C      0.697210    3.227910   -0.525130
  O      1.489290    2.374700    0.199190
  H      0.716000    4.264030   -0.130770
  H      1.036150    3.330920   -1.583670
  H     -1.347460    3.484780   -1.119820
  H     -1.150780    2.758760    0.457290
  H     -0.850580    1.815260   -0.982410

 Total Charge           Charge          ....   -1
 Multiplicity           Mult            ....    1
 Number of Electrons    NEL             ....   26
 Basis Dimension        Dim             ....  123

ORBITAL ENERGIES
----------------

  NO   OCC          E(Eh)            E(eV)
   0   2.0000     -18.533605      -504.3250
   1   2.0000      -9.788272      -266.3524
   2   2.0000      -9.767874      -265.7974
   3   2.0000      -0.601061       -16.3557
   4   2.0000      -0.463782       -12.6202
   5   2.0000      -0.316967        -8.6251
   6   2.0000      -0.201123        -5.4728
   7   2.0000      -0.180288        -4.9059
   8   2.0000      -0.125298        -3.4095
   9   2.0000      -0.110873        -3.0170
  10   2.0000      -0.057793        -1.5726
  11   2.0000       0.082988         2.2582
  12   2.0000       0.085289         2.3208
  13   0.0000       0.209075         5.6892
  14   0.0000       0.243543         6.6272
  15   0.0000       0.267855         7.2887
  16   0.0000       0.271472         7.3871
  17   0.0000       0.304293         8.2802

MULLIKEN ATOMIC CHARGES
-----------------------
   0 C :   -0.094225
   1 C :    0.059361
   2 O :   -0.756470
   3 H :   -0.084701
   4 H :   -0.087463
   5 H :   -0.059572
   6 H :    0.012241
   7 H :    0.010828
Sum of atomic charges:   -1.0000000

LOEWDIN ATOMIC CHARGES
----------------------
   0 C :   -0.359382
   1 C :   -0.549805
   2 O :   -0.409182
   3 H :    0.046422
   4 H :    0.045378
   5 H :    0.063832
   6 H :    0.081631
   7 H :    0.081104

  Mayer bond orders larger than 0.100000
B(  0-C ,  1-C ) :   0.9001 B(  0-C ,  2-O ) :  -0.3205 B(  0-C ,  5-H ) :   0.8944
B(  0-C ,  6-H ) :   0.9547 B(  0-C ,  7-H ) :   0.9536 B(  1-C ,  2-O ) :   1.6313
B(  1-C ,  3-H ) :   0.9015 B(  1-C ,  4-H ) :   0.9011 B(  2-O ,  5-H ) :   0.1342

Dispersion correction           -0.004556434
FINAL SINGLE POINT ENERGY      -154.504904538953

DIPOLE MOMENT
-------------
                                X             Y             Z
Electronic contribution:      2.61197      -1.20069       1.33200
Nuclear contribution   :     -3.69910       1.55962      -1.78699
                        -----------------------------------------
Total Dipole Moment    :     -1.08712       0.35893      -0.45499
                        -----------------------------------------
Magnitude (a.u.)       :      1.23194
Magnitude (Debye)      :      3.13135

Rotational constants in cm-1:     1.268893     0.327436     0.287754
Rotational constants in MHz : 38040.440181  9816.269339  8626.646564

                             ****ORCA TERMINATED NORMALLY****
TOTAL RUN TIME: 0 days 0 hours 0 minutes 5 seconds 714 msec
