                         Program Version 5.0.0 -  RELEASE  -
|  1> !TPSS D3BJ RIJCOSX def2-TZVP def2/J TightSCF
|  2> *xyz 1 1
|  3> C          3.95643        0.50147       -0.37910
|  4> H          3.16840        0.02920        0.20738
|  5> N          3.80389        1.96157       -0.15675
|  6> C          3.84232        0.14849       -1.85406
|  7> H          4.92323        0.17798        0.00937
|  8> H          4.20643        2.24441        0.74536
|  9> H          2.80827        2.21132       -0.09610
| 10> H          4.28076        2.50155       -0.89104
| 11> H          4.62951        0.62800       -2.39748
| 12> H          2.89665        0.48102       -2.22825
| 13> H          3.92053       -0.91187       -1.97413
| 14> *
| 15>
| 16> %MaxCore 64000
| 17> %pal nprocs 4
| 18> end
| 19>
| 20> %scf
| 21>   MaxIter 150
| 22> end
| 23>
| 24>
| 25>                          ****END OF INPUT****

CARTESIAN COORDINATES (ANGSTROEM)
---------------------------------
  C      3.956430    0.501470   -0.379100
  H      3.168400    0.029200    0.207380
  N      3.803890    1.961570   -0.156750
  C      3.842320    0.148490   -1.854060
  H      4.923230    0.177980    0.009370
  H      4.206430    2.244410    0.745360
  H      2.808270    2.211320   -0.096100
  H      4.280760    2.501550   -0.891040
  H      4.629510    0.628000   -2.397480
  H      2.896650    0.481020   -2.228250
  H      3.920530   -0.911870   -1.974130

 Total Charge           Charge          ....    1
 Multiplicity           Mult            ....    1
 Number of Electrons    NEL             ....   26
 Basis Dimension        Dim             ....  141

ORBITAL ENERGIES
----------------

  NO   OCC          E(Eh)            E(eV)
   0   2.0000     -14.435924      -392.8215
   1   2.0000     -10.238577      -278.6059
   2   2.0000     -10.161095      -276.4974
   3   2.0000      -1.157033       -31.4845
   4   2.0000      -0.912584       -24.8327
   5   2.0000      -0.796741       -21.6804
   6   2.0000      -0.758926       -20.6514
   7   2.0000      -0.741410       -20.1748
   8   2.0000      -0.656274       -17.8581
   9   2.0000      -0.604209       -16.4414
  10   2.0000      -0.545512       -14.8441
  11   2.0000      -0.531888       -14.4734
  12   2.0000      -0.516770       -14.0620
  13   0.0000      -0.209227        -5.6934
  14   0.0000      -0.152899        -4.1606
  15   0.0000      -0.145861        -3.9691
  16   0.0000      -0.126091        -3.4311
  17   0.0000      -0.087205        -2.3730

MULLIKEN ATOMIC CHARGES
-----------------------
   0 C :   -0.188936
   1 H :    0.183447
   2 N :   -0.289411
   3 C :   -0.351936
   4 H :    0.186419
   5 H :    0.328674
   6 H :    0.328922
   7 H :    0.324383
   8 H :    0.151225
   9 H :    0.146778
  10 H :    0.180434
Sum of atomic charges:    1.0000000

LOEWDIN ATOMIC CHARGES
----------------------
   0 C :   -0.274376
   1 H :    0.150185
   2 N :    0.174965
   3 C :   -0.269459
   4 H :    0.151400
   5 H :    0.220854
   6 H :    0.222923
   7 H :    0.220506
   8 H :    0.128584
   9 H :    0.128224
  10 H :    0.146192

  Mayer bond orders larger than 0.100000
B(  0-C ,  1-H ) :   0.9440 B(  0-C ,  2-N ) :   0.8840 B(  0-C ,  3-C ) :   1.0410
B(  0-C ,  4-H ) :   0.9421 B(  2-N ,  5-H ) :   0.8766 B(  2-N ,  6-H ) :   0.8764
B(  2-N ,  7-H ) :   0.8706 B(  3-C ,  8-H ) :   0.9542 B(  3-C ,  9-H ) :   0.9557
B(  3-C , 10-H ) :   0.9499

Dispersion correction           -0.007447576
FINAL SINGLE POINT ENERGY      -135.613213539247

DIPOLE MOMENT
-------------
                                X             Y             Z
Electronic contribution:     -0.01160       1.33026       1.24507
Nuclear contribution   :     -0.06214      -0.04120      -0.39947
                        -----------------------------------------
Total Dipole Moment    :     -0.07374       1.28906       0.84559
                        -----------------------------------------
Magnitude (a.u.)       :      1.54342
Magnitude (Debye)      :      3.92306

Rotational constants in cm-1:     1.011771     0.281435     0.249812
Rotational constants in MHz : 30332.138762  8437.210602  7489.166323

                             ****ORCA TERMINATED NORMALLY****
TOTAL RUN TIME: 0 days 0 hours 0 minutes 6 seconds 335 msec
