                         Program Version 5.0.0 -  RELEASE  -
|  1> !TPSS D3BJ RIJCOSX def2-TZVP def2/J TightSCF xyzfile
|  2>
|  3> *xyzfile 0 1 B.xyz
|  4>
|  5> %MaxCore 64000
|  6>
|  7> %pal nprocs 18
|  8> end
|  9>
| 10> %scf
| 11>   MaxIter 150
| 12> end
| 13>
| 14>
| 15>                          ****END OF INPUT****

CARTESIAN COORDINATES (ANGSTROEM)
---------------------------------
  C      3.956426    0.501466   -0.379100
  H      3.168398    0.029201    0.207383
  N      3.803893    1.961572   -0.156747
  C      3.842322    0.148490   -1.854058
  H      4.923231    0.177982    0.009371
  H      4.620021    0.694502   -2.402150
  H      4.096015   -0.910930   -1.955103
  C      2.475619    0.412708   -2.485377
  H      2.174689    1.445076   -2.287971
  C      1.383931   -0.532740   -1.995203
  H      2.575613    0.318574   -3.571460
  H      1.264698   -0.412309   -0.915491
  H      1.705223   -1.566885   -2.164984
  C      0.031398   -0.317260   -2.677791
  C     -0.587292    1.060853   -2.436460
  H     -0.662815   -1.089530   -2.329985
  H      0.149465   -0.478040   -3.755648
  H      0.104376    1.828590   -2.793130
  C     -0.951213    1.334978   -0.972500
  H     -1.478832    1.161355   -3.062484
  H     -0.317007    0.741648   -0.311389
  H     -1.980916    1.012842   -0.788958
  C     -0.774550    2.788332   -0.543943
  H     -1.352609    3.459372   -1.192585
  H     -1.171014    2.902331    0.469968
  C      0.697208    3.227911   -0.525126
  O      1.489294    2.374703    0.199189
  H      0.715998    4.264030   -0.130774
  H      1.036148    3.330920   -1.583669
  H      4.206425    2.244406    0.745359
  H      2.808269    2.211323   -0.096097
  H      4.280757    2.501552   -0.891037

 Total Charge           Charge          ....    0
 Multiplicity           Mult            ....    1
 Number of Electrons    NEL             ....   90
 Basis Dimension        Dim             ....  467

ORBITAL ENERGIES
----------------

  NO   OCC          E(Eh)            E(eV)
   0   2.0000     -18.751332      -510.2497
   1   2.0000     -14.181266      -385.8919
   2   2.0000     -10.052037      -273.5298
   3   2.0000     -10.008389      -272.3421
   4   2.0000      -9.982376      -271.6343
   5   2.0000      -9.970076      -271.2995
   6   2.0000      -9.965712      -271.1808
   7   2.0000      -9.964170      -271.1388
   8   2.0000      -9.951575      -270.7961
   9   2.0000      -9.938629      -270.4438
  10   2.0000      -9.930933      -270.2344
  11   2.0000      -0.928339       -25.2614
  12   2.0000      -0.822698       -22.3867
  13   2.0000      -0.759524       -20.6677
  14   2.0000      -0.721073       -19.6214
  15   2.0000      -0.684332       -18.6216
  16   2.0000      -0.644776       -17.5452
  17   2.0000      -0.608515       -16.5585
  18   2.0000      -0.571727       -15.5575
  19   2.0000      -0.545306       -14.8385
  20   2.0000      -0.526582       -14.3290
  21   2.0000      -0.520373       -14.1601
  22   2.0000      -0.500297       -13.6138
  23   2.0000      -0.464263       -12.6332
  24   2.0000      -0.450905       -12.2697
  25   2.0000      -0.425137       -11.5686
  26   2.0000      -0.423873       -11.5342
  27   2.0000      -0.395202       -10.7540
  28   2.0000      -0.381994       -10.3946
  29   2.0000      -0.376266       -10.2387
  30   2.0000      -0.362631        -9.8677
  31   2.0000      -0.351214        -9.5570
  32   2.0000      -0.341972        -9.3055
  33   2.0000      -0.325729        -8.8635
  34   2.0000      -0.316899        -8.6233
  35   2.0000      -0.305171        -8.3041
  36   2.0000      -0.295473        -8.0402
  37   2.0000      -0.289618        -7.8809
  38   2.0000      -0.277527        -7.5519
  39   2.0000      -0.270892        -7.3713
  40   2.0000      -0.253647        -6.9021
  41   2.0000      -0.246142        -6.6979
  42   2.0000      -0.244836        -6.6623
  43   2.0000      -0.140500        -3.8232
  44   2.0000      -0.131866        -3.5883
  45   0.0000      -0.020650        -0.5619
  46   0.0000       0.020471         0.5570
  47   0.0000       0.027139         0.7385
  48   0.0000       0.042328         1.1518
  49   0.0000       0.053047         1.4435

MULLIKEN ATOMIC CHARGES
-----------------------
   0 C :   -0.152682
   1 H :    0.153798
   2 N :   -0.261917
   3 C :   -0.167408
   4 H :    0.124555
   5 H :    0.103552
   6 H :    0.097276
   7 C :   -0.201393
   8 H :    0.104675
   9 C :   -0.199751
  10 H :    0.080723
  11 H :    0.103554
  12 H :    0.071717
  13 C :   -0.086946
  14 C :   -0.218429
  15 H :    0.074332
  16 H :    0.068028
  17 H :    0.091299
  18 C :   -0.124768
  19 H :    0.073982
  20 H :    0.078240
  21 H :    0.066352
  22 C :   -0.058198
  23 H :    0.040464
  24 H :    0.052331
  25 C :    0.000318
  26 O :   -0.708812
  27 H :    0.023131
  28 H :   -0.003744
  29 H :    0.258838
  30 H :    0.268204
  31 H :    0.248675
Sum of atomic charges:    0.0000000

LOEWDIN ATOMIC CHARGES
----------------------
   0 C :   -0.273905
   1 H :    0.144614
   2 N :    0.146069
   3 C :   -0.269044
   4 H :    0.126699
   5 H :    0.132509
   6 H :    0.144195
   7 C :   -0.262480
   8 H :    0.139082
   9 C :   -0.265784
  10 H :    0.134764
  11 H :    0.134082
  12 H :    0.128882
  13 C :   -0.263658
  14 C :   -0.260864
  15 H :    0.132957
  16 H :    0.128609
  17 H :    0.128742
  18 C :   -0.268738
  19 H :    0.128039
  20 H :    0.134392
  21 H :    0.123970
  22 C :   -0.278404
  23 H :    0.121365
  24 H :    0.126519
  25 C :   -0.473521
  26 O :   -0.262610
  27 H :    0.091641
  28 H :    0.076832
  29 H :    0.189508
  30 H :    0.081534
  31 H :    0.184003

  Mayer bond orders larger than 0.100000
B(  0-C ,  1-H ) :   0.9585 B(  0-C ,  2-N ) :   0.9070 B(  0-C ,  3-C ) :   1.0384
B(  0-C ,  4-H ) :   0.9466 B(  2-N , 29-H ) :   0.9061 B(  2-N , 30-H ) :   0.6518
B(  2-N , 31-H ) :   0.9009 B(  3-C ,  5-H ) :   0.9576 B(  3-C ,  6-H ) :   0.9395
B(  3-C ,  7-C ) :   0.9976 B(  7-C ,  8-H ) :   0.9633 B(  7-C ,  9-C ) :   1.0188
B(  7-C , 10-H ) :   0.9375 B(  9-C , 11-H ) :   0.9536 B(  9-C , 12-H ) :   0.9335
B(  9-C , 13-C ) :   1.0451 B( 13-C , 14-C ) :   1.0028 B( 13-C , 15-H ) :   0.9394
B( 13-C , 16-H ) :   0.9444 B( 14-C , 17-H ) :   0.9762 B( 14-C , 18-C ) :   1.0038
B( 14-C , 19-H ) :   0.9385 B( 18-C , 20-H ) :   0.9465 B( 18-C , 21-H ) :   0.9416
B( 18-C , 22-C ) :   1.0340 B( 22-C , 23-H ) :   0.9336 B( 22-C , 24-H ) :   0.9297
B( 22-C , 25-C ) :   1.0040 B( 22-C , 26-O ) :  -0.1019 B( 25-C , 26-O ) :   1.2136
B( 25-C , 27-H ) :   0.9339 B( 25-C , 28-H ) :   0.9351 B( 26-O , 30-H ) :   0.3943

Dispersion correction           -0.041106098
FINAL SINGLE POINT ENERGY      -485.823892415692

DIPOLE MOMENT
-------------
                                X             Y             Z
Electronic contribution:      2.13071       0.89468       2.63463
Nuclear contribution   :      0.61785      -1.47632      -2.91844
                        -----------------------------------------
Total Dipole Moment    :      2.74855      -0.58164      -0.28381
                        -----------------------------------------
Magnitude (a.u.)       :      2.82372
Magnitude (Debye)      :      7.17733

Rotational constants in cm-1:     0.040993     0.027400     0.018162
Rotational constants in MHz :  1228.944366   821.418004   544.476857

                             ****ORCA TERMINATED NORMALLY****
TOTAL RUN TIME: 0 days 0 hours 0 minutes 18 seconds 419 msec
