                         Program Version 5.0.0 -  RELEASE  -
|  1> !TPSS D3BJ RIJCOSX def2-TZVP def2/J TightSCF
|  2> *xyz 0 1
|  3> C         -0.77455        2.78833       -0.54394
|  4> C          0.69721        3.22791       -0.52513
|  5> F          1.48929        2.37470        0.19919
|  6> H          0.71600        4.26403       -0.13077
|  7> H          1.03615        3.33092       -1.58367
|  8> H         -1.34746        3.48478       -1.11982
|  9> H         -1.15078        2.75876        0.45729
| 10> H         -0.85058        1.81526       -0.98241
| 11> *
| 12>
| 13> %MaxCore 64000
| 14> %pal nprocs 4
| 15> end
| 16>
| 17> %scf
| 18>   MaxIter 150
| 19> end
| 20>
| 21>
| 22>                          ****END OF INPUT****

CARTESIAN COORDINATES (ANGSTROEM)
---------------------------------
  C     -0.774550    2.788330   -0.543940
  C      0.697210    3.227910   -0.525130
  F      1.489290    2.374700    0.199190
  H      0.716000    4.264030   -0.130770
  H      1.036150    3.330920   -1.583670
  H     -1.347460    3.484780   -1.119820
  H     -1.150780    2.758760    0.457290
  H     -0.850580    1.815260   -0.982410

 Total Charge           Charge          ....    0
 Multiplicity           Mult            ....    1
 Number of Electrons    NEL             ....   26
 Basis Dimension        Dim             ....  123

ORBITAL ENERGIES
----------------

  NO   OCC          E(Eh)            E(eV)
   0   2.0000     -24.393778      -663.7885
   1   2.0000     -10.061126      -273.7772
   2   2.0000      -9.979657      -271.5603
   3   2.0000      -1.119527       -30.4639
   4   2.0000      -0.708525       -19.2800
   5   2.0000      -0.580487       -15.7959
   6   2.0000      -0.458113       -12.4659
   7   2.0000      -0.444768       -12.1028
   8   2.0000      -0.405239       -11.0271
   9   2.0000      -0.361985        -9.8501
  10   2.0000      -0.359496        -9.7824
  11   2.0000      -0.289674        -7.8824
  12   2.0000      -0.287503        -7.8233
  13   0.0000       0.032239         0.8773
  14   0.0000       0.069327         1.8865
  15   0.0000       0.076528         2.0824
  16   0.0000       0.086540         2.3549
  17   0.0000       0.101247         2.7551

MULLIKEN ATOMIC CHARGES
-----------------------
   0 C :   -0.313653
   1 C :    0.025971
   2 F :   -0.221285
   3 H :    0.086031
   4 H :    0.085728
   5 H :    0.106812
   6 H :    0.115428
   7 H :    0.114968
Sum of atomic charges:   -0.0000000

LOEWDIN ATOMIC CHARGES
----------------------
   0 C :   -0.304193
   1 C :   -0.371008
   2 F :    0.101453
   3 H :    0.113295
   4 H :    0.113993
   5 H :    0.118784
   6 H :    0.113970
   7 H :    0.113708

  Mayer bond orders larger than 0.100000
B(  0-C ,  1-C ) :   1.0260 B(  0-C ,  5-H ) :   0.9519 B(  0-C ,  6-H ) :   0.9661
B(  0-C ,  7-H ) :   0.9662 B(  1-C ,  2-F ) :   1.0204 B(  1-C ,  3-H ) :   0.9606
B(  1-C ,  4-H ) :   0.9606

Dispersion correction           -0.004202318
FINAL SINGLE POINT ENERGY      -179.157389770558

DIPOLE MOMENT
-------------
                                X             Y             Z
Electronic contribution:      4.44503      -1.68235       2.02629
Nuclear contribution   :     -4.89513       2.05627      -2.36166
                        -----------------------------------------
Total Dipole Moment    :     -0.45010       0.37392      -0.33538
                        -----------------------------------------
Magnitude (a.u.)       :      0.67445
Magnitude (Debye)      :      1.71433

Rotational constants in cm-1:     1.247826     0.304622     0.269019
Rotational constants in MHz : 37408.889506  9132.346906  8064.979146

                             ****ORCA TERMINATED NORMALLY****
TOTAL RUN TIME: 0 days 0 hours 0 minutes 4 seconds 846 msec
