                         Program Version 5.0.0 -  RELEASE  -
|  1> !TPSS D3BJ RIJCOSX def2-TZVP def2/J TightSCF
|  2> *xyz 0 1
|  3> C          3.95643        0.50147       -0.37910
|  4> H          3.16840        0.02920        0.20738
|  5> C          3.80389        1.96157       -0.15675
|  6> C          3.84232        0.14849       -1.85406
|  7> H          4.92323        0.17798        0.00937
|  8> H          4.20643        2.24441        0.74536
|  9> H          2.80827        2.21132       -0.09610
| 10> H          4.28076        2.50155       -0.89104
| 11> H          4.62951        0.62800       -2.39748
| 12> H          2.89665        0.48102       -2.22825
| 13> H          3.92053       -0.91187       -1.97413
| 14> *
| 15>
| 16> %MaxCore 64000
| 17> %pal nprocs 4
| 18> end
| 19>
| 20> %scf
| 21>   MaxIter 150
| 22> end
| 23>
| 24>
| 25>                          ****END OF INPUT****

CARTESIAN COORDINATES (ANGSTROEM)
---------------------------------
  C      3.956430    0.501470   -0.379100
  H      3.168400    0.029200    0.207380
  C      3.803890    1.961570   -0.156750
  C      3.842320    0.148490   -1.854060
  H      4.923230    0.177980    0.009370
  H      4.206430    2.244410    0.745360
  H      2.808270    2.211320   -0.096100
  H      4.280760    2.501550   -0.891040
  H      4.629510    0.628000   -2.397480
  H      2.896650    0.481020   -2.228250
  H      3.920530   -0.911870   -1.974130

 Total Charge           Charge          ....    0
 Multiplicity           Mult            ....    1
 Number of Electrons    NEL             ....   26
 Basis Dimension        Dim             ....  141

ORBITAL ENERGIES
----------------

  NO   OCC          E(Eh)            E(eV)
   0   2.0000      -9.969763      -271.2910
   1   2.0000      -9.962443      -271.0919
   2   2.0000      -9.944073      -270.5920
   3   2.0000      -0.734320       -19.9819
   4   2.0000      -0.638155       -17.3651
   5   2.0000      -0.538170       -14.6444
   6   2.0000      -0.426881       -11.6160
   7   2.0000      -0.403801       -10.9880
   8   2.0000      -0.362261        -9.8576
   9   2.0000      -0.352710        -9.5977
  10   2.0000      -0.299284        -8.1439
  11   2.0000      -0.298259        -8.1161
  12   2.0000      -0.290441        -7.9033
  13   0.0000       0.031991         0.8705
  14   0.0000       0.073135         1.9901
  15   0.0000       0.079539         2.1644
  16   0.0000       0.083117         2.2617
  17   0.0000       0.103709         2.8221

MULLIKEN ATOMIC CHARGES
-----------------------
   0 C :   -0.133333
   1 H :    0.079072
   2 C :   -0.331334
   3 C :   -0.327984
   4 H :    0.080458
   5 H :    0.110137
   6 H :    0.106720
   7 H :    0.101633
   8 H :    0.104085
   9 H :    0.102001
  10 H :    0.108546
Sum of atomic charges:    0.0000000

LOEWDIN ATOMIC CHARGES
----------------------
   0 C :   -0.316493
   1 H :    0.129553
   2 C :   -0.299212
   3 C :   -0.299762
   4 H :    0.127383
   5 H :    0.107003
   6 H :    0.107565
   7 H :    0.106782
   8 H :    0.112466
   9 H :    0.113108
  10 H :    0.111608

  Mayer bond orders larger than 0.100000
B(  0-C ,  1-H ) :   0.9600 B(  0-C ,  2-C ) :   1.0156 B(  0-C ,  3-C ) :   1.0214
B(  0-C ,  4-H ) :   0.9579 B(  2-C ,  5-H ) :   0.9739 B(  2-C ,  6-H ) :   0.9751
B(  2-C ,  7-H ) :   0.9740 B(  3-C ,  8-H ) :   0.9717 B(  3-C ,  9-H ) :   0.9724
B(  3-C , 10-H ) :   0.9714

Dispersion correction           -0.007471764
FINAL SINGLE POINT ENERGY      -119.197216415502

DIPOLE MOMENT
-------------
                                X             Y             Z
Electronic contribution:      0.08134      -0.29573       0.23252
Nuclear contribution   :     -0.08172       0.30475      -0.19303
                        -----------------------------------------
Total Dipole Moment    :     -0.00037       0.00902       0.03949
                        -----------------------------------------
Magnitude (a.u.)       :      0.04051
Magnitude (Debye)      :      0.10297

Rotational constants in cm-1:     1.020248     0.295755     0.261591
Rotational constants in MHz : 30586.266829  8866.511639  7842.297953

                             ****ORCA TERMINATED NORMALLY****
TOTAL RUN TIME: 0 days 0 hours 0 minutes 6 seconds 441 msec
