                         Program Version 5.0.0 -  RELEASE  -
|  1> !TPSS D3BJ RIJCOSX def2-TZVP def2/J TightSCF xyzfile
|  2>
|  3> *xyzfile 0 1 D.xyz
|  4>
|  5> %MaxCore 64000
|  6>
|  7> %pal nprocs 18
|  8> end
|  9>
| 10> %scf
| 11>   MaxIter 150
| 12> end
| 13>
| 14>
| 15>                          ****END OF INPUT****

CARTESIAN COORDINATES (ANGSTROEM)
---------------------------------
  C      3.956426    0.501466   -0.379100
  H      3.168398    0.029201    0.207383
  C      3.803893    1.961572   -0.156747
  C      3.842322    0.148490   -1.854058
  H      4.923231    0.177982    0.009371
  H      4.620021    0.694502   -2.402150
  H      4.096015   -0.910930   -1.955103
  C      2.475619    0.412708   -2.485377
  H      2.174689    1.445076   -2.287971
  C      1.383931   -0.532740   -1.995203
  H      2.575613    0.318574   -3.571460
  H      1.264698   -0.412309   -0.915491
  H      1.705223   -1.566885   -2.164984
  C      0.031398   -0.317260   -2.677791
  C     -0.587292    1.060853   -2.436460
  H     -0.662815   -1.089530   -2.329985
  H      0.149465   -0.478040   -3.755648
  H      0.104376    1.828590   -2.793130
  C     -0.951213    1.334978   -0.972500
  H     -1.478832    1.161355   -3.062484
  H     -0.317007    0.741648   -0.311389
  H     -1.980916    1.012842   -0.788958
  C     -0.774550    2.788332   -0.543943
  H     -1.352609    3.459372   -1.192585
  H     -1.171014    2.902331    0.469968
  C      0.697208    3.227911   -0.525126
  F      1.489294    2.374703    0.199189
  H      0.715998    4.264030   -0.130774
  H      1.036148    3.330920   -1.583669
  H      4.206425    2.244406    0.745359
  H      2.808269    2.211323   -0.096097
  H      4.280757    2.501552   -0.891037

 Total Charge           Charge          ....    0
 Multiplicity           Mult            ....    1
 Number of Electrons    NEL             ....   90
 Basis Dimension        Dim             ....  467

ORBITAL ENERGIES
----------------

  NO   OCC          E(Eh)            E(eV)
   0   2.0000     -24.416790      -664.4146
   1   2.0000     -10.070033      -274.0195
   2   2.0000      -9.995096      -271.9804
   3   2.0000      -9.982469      -271.6368
   4   2.0000      -9.979195      -271.5477
   5   2.0000      -9.976026      -271.4615
   6   2.0000      -9.970459      -271.3100
   7   2.0000      -9.968334      -271.2522
   8   2.0000      -9.962431      -271.0915
   9   2.0000      -9.951584      -270.7964
  10   2.0000      -9.900137      -269.3964
  11   2.0000      -1.154468       -31.4147
  12   2.0000      -0.761233       -20.7142
  13   2.0000      -0.742323       -20.1996
  14   2.0000      -0.711205       -19.3529
  15   2.0000      -0.681859       -18.5543
  16   2.0000      -0.637016       -17.3341
  17   2.0000      -0.612558       -16.6685
  18   2.0000      -0.573061       -15.5938
  19   2.0000      -0.551344       -15.0028
  20   2.0000      -0.517978       -14.0949
  21   2.0000      -0.503322       -13.6961
  22   2.0000      -0.482932       -13.1413
  23   2.0000      -0.463829       -12.6214
  24   2.0000      -0.445418       -12.1204
  25   2.0000      -0.425325       -11.5737
  26   2.0000      -0.413130       -11.2418
  27   2.0000      -0.406762       -11.0686
  28   2.0000      -0.388666       -10.5762
  29   2.0000      -0.382558       -10.4099
  30   2.0000      -0.370252       -10.0751
  31   2.0000      -0.353045        -9.6068
  32   2.0000      -0.345920        -9.4130
  33   2.0000      -0.336002        -9.1431
  34   2.0000      -0.327755        -8.9187
  35   2.0000      -0.316134        -8.6025
  36   2.0000      -0.311736        -8.4828
  37   2.0000      -0.304087        -8.2746
  38   2.0000      -0.288529        -7.8513
  39   2.0000      -0.284567        -7.7435
  40   2.0000      -0.277211        -7.5433
  41   2.0000      -0.276272        -7.5177
  42   2.0000      -0.263259        -7.1636
  43   2.0000      -0.262144        -7.1333
  44   2.0000      -0.236486        -6.4351
  45   0.0000       0.020928         0.5695
  46   0.0000       0.030861         0.8398
  47   0.0000       0.038880         1.0580
  48   0.0000       0.046627         1.2688
  49   0.0000       0.055678         1.5151

MULLIKEN ATOMIC CHARGES
-----------------------
   0 C :   -0.136861
   1 H :    0.068972
   2 C :   -0.409736
   3 C :   -0.111098
   4 H :    0.073720
   5 H :    0.081384
   6 H :    0.064711
   7 C :   -0.176398
   8 H :    0.076598
   9 C :   -0.222877
  10 H :    0.071768
  11 H :    0.091669
  12 H :    0.081922
  13 C :   -0.077158
  14 C :   -0.237577
  15 H :    0.077957
  16 H :    0.077278
  17 H :    0.097267
  18 C :   -0.144097
  19 H :    0.087928
  20 H :    0.095418
  21 H :    0.093506
  22 C :   -0.155673
  23 H :    0.091336
  24 H :    0.093756
  25 C :   -0.032328
  26 F :   -0.170867
  27 H :    0.106567
  28 H :    0.098102
  29 H :    0.086037
  30 H :    0.178797
  31 H :    0.079976
Sum of atomic charges:    0.0000000

LOEWDIN ATOMIC CHARGES
----------------------
   0 C :   -0.298347
   1 H :    0.128598
   2 C :   -0.315805
   3 C :   -0.264389
   4 H :    0.126927
   5 H :    0.131928
   6 H :    0.130226
   7 C :   -0.260715
   8 H :    0.129094
   9 C :   -0.263888
  10 H :    0.131740
  11 H :    0.129253
  12 H :    0.133923
  13 C :   -0.262901
  14 C :   -0.260973
  15 H :    0.133035
  16 H :    0.132736
  17 H :    0.129791
  18 C :   -0.262339
  19 H :    0.131524
  20 H :    0.136945
  21 H :    0.133420
  22 C :   -0.271643
  23 H :    0.139945
  24 H :    0.135413
  25 C :   -0.345531
  26 F :    0.186867
  27 H :    0.122965
  28 H :    0.119799
  29 H :    0.100912
  30 H :    0.061287
  31 H :    0.100207

  Mayer bond orders larger than 0.100000
B(  0-C ,  1-H ) :   0.9682 B(  0-C ,  2-C ) :   0.9876 B(  0-C ,  3-C ) :   1.0347
B(  0-C ,  4-H ) :   0.9436 B(  2-C , 29-H ) :   0.9593 B(  2-C , 30-H ) :   0.9797
B(  2-C , 31-H ) :   0.9597 B(  3-C ,  5-H ) :   0.9510 B(  3-C ,  6-H ) :   0.9418
B(  3-C ,  7-C ) :   1.0214 B(  7-C ,  8-H ) :   0.9573 B(  7-C ,  9-C ) :   1.0286
B(  7-C , 10-H ) :   0.9364 B(  9-C , 11-H ) :   0.9634 B(  9-C , 12-H ) :   0.9393
B(  9-C , 13-C ) :   1.0316 B( 13-C , 14-C ) :   1.0030 B( 13-C , 15-H ) :   0.9430
B( 13-C , 16-H ) :   0.9414 B( 14-C , 17-H ) :   0.9795 B( 14-C , 18-C ) :   0.9918
B( 14-C , 19-H ) :   0.9391 B( 18-C , 20-H ) :   0.9598 B( 18-C , 21-H ) :   0.9448
B( 18-C , 22-C ) :   1.0175 B( 22-C , 23-H ) :   0.9335 B( 22-C , 24-H ) :   0.9427
B( 22-C , 25-C ) :   1.0462 B( 25-C , 26-F ) :   0.9527 B( 25-C , 27-H ) :   0.9546
B( 25-C , 28-H ) :   0.9625

Dispersion correction           -0.040209413
FINAL SINGLE POINT ENERGY      -493.789328864940

DIPOLE MOMENT
-------------
                                X             Y             Z
Electronic contribution:     -1.93567       3.26569       4.29922
Nuclear contribution   :      1.09293      -2.80761      -4.51228
                        -----------------------------------------
Total Dipole Moment    :     -0.84274       0.45807      -0.21306
                        -----------------------------------------
Magnitude (a.u.)       :      0.98256
Magnitude (Debye)      :      2.49747

Rotational constants in cm-1:     0.040502     0.027818     0.018259
Rotational constants in MHz :  1214.218058   833.972871   547.398614

                             ****ORCA TERMINATED NORMALLY****
TOTAL RUN TIME: 0 days 0 hours 0 minutes 18 seconds 776 msec
