                         Program Version 5.0.0 -  RELEASE  -
|  1> !PBE0 D3BJ RIJCOSX def2-SVPD def2/J TightSCF
|  2> *xyz -1 1
|  3> C          1.22302        2.46987       -3.75691
|  4> O          2.35381        1.71203       -3.93448
|  5> H          1.26998        3.33359       -4.38673
|  6> H          1.15671        2.77738       -2.73420
|  7> H          0.36099        1.88932       -4.01140
|  8> *
|  9>
| 10> %MaxCore 64000
| 11>
| 12> %pal nprocs 4
| 13> end
| 14>
| 15> %scf
| 16>   MaxIter 150
| 17> end
| 18>
| 19>
| 20>                          ****END OF INPUT****

CARTESIAN COORDINATES (ANGSTROEM)
---------------------------------
  C      1.223020    2.469870   -3.756910
  O      2.353810    1.712030   -3.934480
  H      1.269980    3.333590   -4.386730
  H      1.156710    2.777380   -2.734200
  H      0.360990    1.889320   -4.011400

 Total Charge           Charge          ....   -1
 Multiplicity           Mult            ....    1
 Number of Electrons    NEL             ....   18
 Basis Dimension        Dim             ....   67

ORBITAL ENERGIES
----------------

  NO   OCC          E(Eh)            E(eV)
   0   2.0000     -18.861067      -513.2357
   1   2.0000     -10.015477      -272.5350
   2   2.0000      -0.672203       -18.2916
   3   2.0000      -0.408621       -11.1191
   4   2.0000      -0.207557        -5.6479
   5   2.0000      -0.207533        -5.6472
   6   2.0000      -0.110864        -3.0168
   7   2.0000       0.041161         1.1201
   8   2.0000       0.041177         1.1205
   9   0.0000       0.205184         5.5833
  10   0.0000       0.277393         7.5482
  11   0.0000       0.277395         7.5483
  12   0.0000       0.285489         7.7685
  13   0.0000       0.321156         8.7391

MULLIKEN ATOMIC CHARGES
-----------------------
   0 C :    0.704304
   1 O :   -1.060860
   2 H :   -0.214715
   3 H :   -0.214551
   4 H :   -0.214179
Sum of atomic charges:   -1.0000000

LOEWDIN ATOMIC CHARGES
----------------------
   0 C :   -0.114519
   1 O :   -0.653437
   2 H :   -0.077360
   3 H :   -0.077378
   4 H :   -0.077307

  Mayer bond orders larger than 0.100000
B(  0-C ,  1-O ) :   1.1229 B(  0-C ,  2-H ) :   0.9387 B(  0-C ,  3-H ) :   0.9379
B(  0-C ,  4-H ) :   0.9384

Dispersion correction           -0.001163185
FINAL SINGLE POINT ENERGY      -114.883637695823

DIPOLE MOMENT
-------------
                                X             Y             Z
Electronic contribution:      1.53878      -1.03125      -0.24142
Nuclear contribution   :     -2.37854       1.59406       0.37350
                        -----------------------------------------
Total Dipole Moment    :     -0.83976       0.56281       0.13209
                        -----------------------------------------
Magnitude (a.u.)       :      1.01951
Magnitude (Debye)      :      2.59138

Rotational constants in cm-1:     5.477743     0.935515     0.935515
Rotational constants in MHz : 164218.600605 28046.042741 28046.034116

                             ****ORCA TERMINATED NORMALLY****
TOTAL RUN TIME: 0 days 0 hours 0 minutes 3 seconds 531 msec
