                         Program Version 5.0.0 -  RELEASE  -
|  1> !PBE0 D3BJ RIJCOSX def2-SVPD def2/J TightSCF
|  2> *xyz 1 1
|  3> C          1.63556       -1.67040       -5.29211
|  4> N          2.48451       -0.50741       -5.14039
|  5> C          3.45115       -0.14953       -5.95259
|  6> N          3.92267        1.08956       -5.85071
|  7> N          3.96616       -1.00618       -6.86788
|  8> H          3.52139       -1.90647       -6.99527
|  9> H          4.44482       -0.62347       -7.67035
| 10> H          2.25200        0.24080       -4.49879
| 11> H          3.46428        1.64078       -5.13639
| 12> H          4.83447        1.31375       -6.22465
| 13> H          2.06372       -2.33262       -6.01532
| 14> H          0.66479       -1.36293       -5.62068
| 15> H          1.55078       -2.17513       -4.35245
| 16> *
| 17>
| 18> %MaxCore 64000
| 19>
| 20> %pal nprocs 4
| 21> end
| 22>
| 23> %scf
| 24>   MaxIter 150
| 25> end
| 26>
| 27>
| 28>                          ****END OF INPUT****

CARTESIAN COORDINATES (ANGSTROEM)
---------------------------------
  C      1.635560   -1.670400   -5.292110
  N      2.484510   -0.507410   -5.140390
  C      3.451150   -0.149530   -5.952590
  N      3.922670    1.089560   -5.850710
  N      3.966160   -1.006180   -6.867880
  H      3.521390   -1.906470   -6.995270
  H      4.444820   -0.623470   -7.670350
  H      2.252000    0.240800   -4.498790
  H      3.464280    1.640780   -5.136390
  H      4.834470    1.313750   -6.224650
  H      2.063720   -2.332620   -6.015320
  H      0.664790   -1.362930   -5.620680
  H      1.550780   -2.175130   -4.352450

 Total Charge           Charge          ....    1
 Multiplicity           Mult            ....    1
 Number of Electrons    NEL             ....   40
 Basis Dimension        Dim             ....  164

ORBITAL ENERGIES
----------------

  NO   OCC          E(Eh)            E(eV)
   0   2.0000     -14.634100      -398.2141
   1   2.0000     -14.624371      -397.9494
   2   2.0000     -14.621319      -397.8663
   3   2.0000     -10.571539      -287.6662
   4   2.0000     -10.443848      -284.1916
   5   2.0000      -1.245715       -33.8976
   6   2.0000      -1.130033       -30.7498
   7   2.0000      -1.115594       -30.3568
   8   2.0000      -0.932928       -25.3863
   9   2.0000      -0.847667       -23.0662
  10   2.0000      -0.805084       -21.9074
  11   2.0000      -0.779020       -21.1982
  12   2.0000      -0.712030       -19.3753
  13   2.0000      -0.708070       -19.2676
  14   2.0000      -0.678965       -18.4756
  15   2.0000      -0.665430       -18.1073
  16   2.0000      -0.610031       -16.5998
  17   2.0000      -0.601771       -16.3750
  18   2.0000      -0.495979       -13.4963
  19   2.0000      -0.475152       -12.9296
  20   0.0000      -0.170366        -4.6359
  21   0.0000      -0.152391        -4.1468
  22   0.0000      -0.120195        -3.2707
  23   0.0000      -0.104016        -2.8304
  24   0.0000      -0.077011        -2.0956

MULLIKEN ATOMIC CHARGES
-----------------------
   0 C :    1.163342
   1 N :   -0.742701
   2 C :    1.496059
   3 N :   -0.153672
   4 N :   -0.114786
   5 H :   -0.027136
   6 H :   -0.054410
   7 H :   -0.229547
   8 H :    0.050147
   9 H :   -0.055342
  10 H :   -0.234631
  11 H :   -0.044845
  12 H :   -0.052478
Sum of atomic charges:    1.0000000

LOEWDIN ATOMIC CHARGES
----------------------
   0 C :    0.276998
   1 N :    0.007604
   2 C :   -0.026182
   3 N :    0.260570
   4 N :    0.273822
   5 H :    0.006034
   6 H :    0.038623
   7 H :    0.058444
   8 H :    0.035029
   9 H :    0.046750
  10 H :   -0.013794
  11 H :    0.017811
  12 H :    0.018290

  Mayer bond orders larger than 0.100000
B(  0-C ,  1-N ) :   0.8963 B(  0-C ,  7-H ) :  -0.1724 B(  0-C , 10-H ) :   0.8544
B(  0-C , 11-H ) :   0.7899 B(  0-C , 12-H ) :   0.7580 B(  1-N ,  2-C ) :   0.9357
B(  1-N ,  3-N ) :   0.2858 B(  1-N ,  4-N ) :   0.1718 B(  1-N ,  7-H ) :   1.3744
B(  1-N , 10-H ) :   0.2222 B(  1-N , 11-H ) :   0.1667 B(  1-N , 12-H ) :   0.2025
B(  2-C ,  3-N ) :   0.8594 B(  2-C ,  4-N ) :   0.9288 B(  2-C ,  6-H ) :  -0.1305
B(  2-C ,  7-H ) :  -0.2495 B(  2-C ,  9-H ) :  -0.1121 B(  3-N ,  4-N ) :   0.1697
B(  3-N ,  8-H ) :   1.0565 B(  3-N ,  9-H ) :   1.2138 B(  4-N ,  5-H ) :   1.0337
B(  4-N ,  6-H ) :   1.2024 B(  5-H ,  6-H ) :  -0.1473 B(  8-H ,  9-H ) :  -0.1363

Dispersion correction           -0.007612610
FINAL SINGLE POINT ENERGY      -244.641722434395

DIPOLE MOMENT
-------------
                                X             Y             Z
Electronic contribution:      1.96129       1.91489      -0.26072
Nuclear contribution   :     -1.83770      -1.53167       0.12165
                        -----------------------------------------
Total Dipole Moment    :      0.12359       0.38322      -0.13906
                        -----------------------------------------
Magnitude (a.u.)       :      0.42599
Magnitude (Debye)      :      1.08279

Rotational constants in cm-1:     0.307545     0.135665     0.096412
Rotational constants in MHz :  9219.967860  4067.145400  2890.348280

                             ****ORCA TERMINATED NORMALLY****
TOTAL RUN TIME: 0 days 0 hours 0 minutes 14 seconds 51 msec
