                         Program Version 5.0.0 -  RELEASE  -
|  1> !PBE0 D3BJ RIJCOSX def2-SVPD def2/J TightSCF xyzfile
|  2>
|  3> *xyzfile 0 1 B.xyz
|  4>
|  5> %MaxCore 64000
|  6>
|  7> %pal nprocs 4
|  8> end
|  9>
| 10> %scf
| 11>   MaxIter 150
| 12> end
| 13>
| 14>
| 15>                          ****END OF INPUT****

CARTESIAN COORDINATES (ANGSTROEM)
---------------------------------
  C      1.635557   -1.670396   -5.292109
  C      0.338484   -1.500907   -4.505398
  N      2.484511   -0.507410   -5.140392
  C     -0.684873   -0.528026   -5.099889
  C     -0.290406    0.951335   -5.153423
  H      0.607991    1.070692   -5.764412
  C     -0.055168    1.619420   -3.788577
  H     -1.080912    1.483775   -5.689436
  H      0.045006    0.862302   -3.003015
  H     -0.922936    2.230329   -3.517028
  C      1.223022    2.469865   -3.756911
  H      1.114701    3.258074   -4.532999
  H      1.237732    3.011242   -2.792157
  O      2.353815    1.712032   -3.934477
  H      1.398337   -1.829239   -6.352591
  H      2.155864   -2.565398   -4.932091
  C      3.451149   -0.149530   -5.952589
  N      3.922667    1.089559   -5.850711
  N      3.966162   -1.006183   -6.867880
  H      3.521391   -1.906467   -6.995270
  H      4.444824   -0.623472   -7.670348
  H      2.251995    0.240804   -4.498792
  H      3.464277    1.640782   -5.136392
  H      4.834470    1.313745   -6.224653
  H     -0.937999   -0.869056   -6.110838
  H     -1.604638   -0.622496   -4.513132
  H      0.594887   -1.211578   -3.482312
  H     -0.126530   -2.487656   -4.434176

 Total Charge           Charge          ....    0
 Multiplicity           Mult            ....    1
 Number of Electrons    NEL             ....   88
 Basis Dimension        Dim             ....  359

ORBITAL ENERGIES
----------------

  NO   OCC          E(Eh)            E(eV)
   0   2.0000     -19.086406      -519.3675
   1   2.0000     -14.455064      -393.3423
   2   2.0000     -14.413758      -392.2183
   3   2.0000     -14.410536      -392.1306
   4   2.0000     -10.377446      -282.3847
   5   2.0000     -10.285539      -279.8837
   6   2.0000     -10.237319      -278.5716
   7   2.0000     -10.224175      -278.2139
   8   2.0000     -10.210627      -277.8453
   9   2.0000     -10.205631      -277.7093
  10   2.0000     -10.187240      -277.2089
  11   2.0000      -1.051890       -28.6234
  12   2.0000      -0.945502       -25.7284
  13   2.0000      -0.925187       -25.1756
  14   2.0000      -0.898970       -24.4622
  15   2.0000      -0.817782       -22.2530
  16   2.0000      -0.763340       -20.7715
  17   2.0000      -0.706644       -19.2288
  18   2.0000      -0.669366       -18.2144
  19   2.0000      -0.642264       -17.4769
  20   2.0000      -0.615486       -16.7482
  21   2.0000      -0.594021       -16.1641
  22   2.0000      -0.577579       -15.7167
  23   2.0000      -0.540129       -14.6977
  24   2.0000      -0.525750       -14.3064
  25   2.0000      -0.512268       -13.9395
  26   2.0000      -0.503683       -13.7059
  27   2.0000      -0.493473       -13.4281
  28   2.0000      -0.454512       -12.3679
  29   2.0000      -0.440504       -11.9867
  30   2.0000      -0.430624       -11.7179
  31   2.0000      -0.424831       -11.5602
  32   2.0000      -0.397731       -10.8228
  33   2.0000      -0.379947       -10.3389
  34   2.0000      -0.371466       -10.1081
  35   2.0000      -0.350415        -9.5353
  36   2.0000      -0.333318        -9.0700
  37   2.0000      -0.324378        -8.8268
  38   2.0000      -0.316926        -8.6240
  39   2.0000      -0.308736        -8.4011
  40   2.0000      -0.302964        -8.2441
  41   2.0000      -0.275546        -7.4980
  42   2.0000      -0.190484        -5.1833
  43   2.0000      -0.183126        -4.9831
  44   0.0000      -0.001720        -0.0468
  45   0.0000       0.012636         0.3438
  46   0.0000       0.027391         0.7454
  47   0.0000       0.043290         1.1780
  48   0.0000       0.054030         1.4702

MULLIKEN ATOMIC CHARGES
-----------------------
   0 C :    0.632591
   1 C :   -0.038597
   2 N :   -0.131326
   3 C :    0.089416
   4 C :   -0.001697
   5 H :    0.082961
   6 C :   -0.132654
   7 H :   -0.201857
   8 H :    0.040007
   9 H :   -0.145010
  10 C :    0.765766
  11 H :   -0.072045
  12 H :   -0.105759
  13 O :   -1.147039
  14 H :    0.045022
  15 H :   -0.159324
  16 C :    1.391760
  17 N :    0.108211
  18 N :   -0.150592
  19 H :   -0.034492
  20 H :   -0.096993
  21 H :   -0.503426
  22 H :   -0.080225
  23 H :   -0.218721
  24 H :    0.137527
  25 H :   -0.052894
  26 H :    0.094700
  27 H :   -0.115309
Sum of atomic charges:   -0.0000000

LOEWDIN ATOMIC CHARGES
----------------------
   0 C :    0.056115
   1 C :   -0.020364
   2 N :    0.061025
   3 C :   -0.034486
   4 C :   -0.031222
   5 H :    0.006507
   6 C :   -0.026555
   7 H :    0.016897
   8 H :    0.009650
   9 H :    0.014790
  10 C :   -0.066466
  11 H :    0.013921
  12 H :    0.008547
  13 O :   -0.441236
  14 H :    0.024516
  15 H :    0.025993
  16 C :   -0.035820
  17 N :    0.264816
  18 N :    0.238499
  19 H :   -0.007192
  20 H :    0.010925
  21 H :   -0.099498
  22 H :   -0.097794
  23 H :    0.017041
  24 H :    0.019205
  25 H :    0.024569
  26 H :    0.023819
  27 H :    0.023799

  Mayer bond orders larger than 0.100000
B(  0-C ,  1-C ) :   1.2295 B(  0-C ,  2-N ) :   0.8273 B(  0-C , 14-H ) :   0.7672
B(  0-C , 15-H ) :   0.8855 B(  0-C , 21-H ) :  -0.1840 B(  0-C , 26-H ) :   0.1117
B(  0-C , 27-H ) :   0.1801 B(  1-C ,  2-N ) :   0.1156 B(  1-C ,  3-C ) :   1.2461
B(  1-C , 24-H ) :   0.1472 B(  1-C , 25-H ) :   0.1688 B(  1-C , 26-H ) :   0.7978
B(  1-C , 27-H ) :   0.8368 B(  2-N , 14-H ) :   0.2817 B(  2-N , 15-H ) :   0.1737
B(  2-N , 16-C ) :   1.2066 B(  2-N , 17-N ) :   0.1662 B(  2-N , 18-N ) :   0.1336
B(  2-N , 21-H ) :   1.0834 B(  3-C ,  4-C ) :   1.2943 B(  3-C ,  5-H ) :   0.1322
B(  3-C ,  7-H ) :   0.1208 B(  3-C , 24-H ) :   0.6893 B(  3-C , 25-H ) :   0.8713
B(  3-C , 26-H ) :   0.1399 B(  3-C , 27-H ) :   0.1375 B(  4-C ,  5-H ) :   0.8313
B(  4-C ,  6-C ) :   1.2073 B(  4-C ,  7-H ) :   0.8573 B(  4-C ,  8-H ) :   0.1165
B(  4-C ,  9-H ) :   0.1574 B(  4-C , 24-H ) :   0.1939 B(  4-C , 25-H ) :   0.1232
B(  5-H ,  6-C ) :   0.1108 B(  6-C ,  8-H ) :   0.8716 B(  6-C ,  9-H ) :   0.9804
B(  6-C , 10-C ) :   1.0892 B(  6-C , 12-H ) :   0.1632 B(  6-C , 13-O ) :   0.1338
B( 10-C , 11-H ) :   0.8780 B( 10-C , 12-H ) :   0.8407 B( 10-C , 13-O ) :   0.9250
B( 11-H , 13-O ) :   0.2100 B( 13-O , 21-H ) :   0.2102 B( 13-O , 22-H ) :   0.2941
B( 16-C , 17-N ) :   0.8268 B( 16-C , 18-N ) :   0.7842 B( 16-C , 20-H ) :  -0.1211
B( 16-C , 21-H ) :  -0.4159 B( 16-C , 22-H ) :  -0.1181 B( 16-C , 23-H ) :  -0.1682
B( 17-N , 18-N ) :   0.1378 B( 17-N , 22-H ) :   1.0012 B( 17-N , 23-H ) :   1.3471
B( 18-N , 19-H ) :   1.0539 B( 18-N , 20-H ) :   1.2511 B( 19-H , 20-H ) :  -0.1476
B( 22-H , 23-H ) :  -0.2001

Dispersion correction           -0.025132640
FINAL SINGLE POINT ENERGY      -515.540567390390

DIPOLE MOMENT
-------------
                                X             Y             Z
Electronic contribution:      8.35524      -0.91727      -2.24281
Nuclear contribution   :     -7.46499      -1.05836       0.01518
                        -----------------------------------------
Total Dipole Moment    :      0.89024      -1.97563      -2.22763
                        -----------------------------------------
Magnitude (a.u.)       :      3.10774
Magnitude (Debye)      :      7.89923

Rotational constants in cm-1:     0.044680     0.028958     0.019773
Rotational constants in MHz :  1339.486245   868.136755   592.791310

                             ****ORCA TERMINATED NORMALLY****
TOTAL RUN TIME: 0 days 0 hours 1 minutes 50 seconds 810 msec
