                         Program Version 5.0.0 -  RELEASE  -
|  1> !PBE0 D3BJ RIJCOSX def2-SVPD def2/J TightSCF
|  2> *xyz 0 1
|  3> C          1.22302        2.46987       -3.75691
|  4> F          2.35381        1.71203       -3.93448
|  5> H          1.26998        3.33359       -4.38673
|  6> H          1.15671        2.77738       -2.73420
|  7> H          0.36099        1.88932       -4.01140
|  8> *
|  9>
| 10> %MaxCore 64000
| 11>
| 12> %pal nprocs 4
| 13> end
| 14>
| 15> %scf
| 16>   MaxIter 150
| 17> end
| 18>
| 19>
| 20>                          ****END OF INPUT****

CARTESIAN COORDINATES (ANGSTROEM)
---------------------------------
  C      1.223020    2.469870   -3.756910
  F      2.353810    1.712030   -3.934480
  H      1.269980    3.333590   -4.386730
  H      1.156710    2.777380   -2.734200
  H      0.360990    1.889320   -4.011400

 Total Charge           Charge          ....    0
 Multiplicity           Mult            ....    1
 Number of Electrons    NEL             ....   18
 Basis Dimension        Dim             ....   67

ORBITAL ENERGIES
----------------

  NO   OCC          E(Eh)            E(eV)
   0   2.0000     -24.768570      -673.9871
   1   2.0000     -10.302710      -280.3510
   2   2.0000      -1.213020       -33.0079
   3   2.0000      -0.723411       -19.6850
   4   2.0000      -0.515467       -14.0266
   5   2.0000      -0.507259       -13.8032
   6   2.0000      -0.507235       -13.8026
   7   2.0000      -0.366667        -9.9775
   8   2.0000      -0.366638        -9.9767
   9   0.0000       0.033619         0.9148
  10   0.0000       0.069056         1.8791
  11   0.0000       0.110322         3.0020
  12   0.0000       0.110323         3.0020
  13   0.0000       0.154162         4.1950

MULLIKEN ATOMIC CHARGES
-----------------------
   0 C :    0.776873
   1 F :   -0.506216
   2 H :   -0.090755
   3 H :   -0.089982
   4 H :   -0.089920
Sum of atomic charges:   -0.0000000

LOEWDIN ATOMIC CHARGES
----------------------
   0 C :    0.270805
   1 F :   -0.257616
   2 H :   -0.004423
   3 H :   -0.004406
   4 H :   -0.004360

  Mayer bond orders larger than 0.100000
B(  0-C ,  1-F ) :   0.8085 B(  0-C ,  2-H ) :   0.9572 B(  0-C ,  3-H ) :   0.9564
B(  0-C ,  4-H ) :   0.9570

Dispersion correction           -0.001017735
FINAL SINGLE POINT ENERGY      -139.497388987832

DIPOLE MOMENT
-------------
                                X             Y             Z
Electronic contribution:      2.41657      -1.61940      -0.37941
Nuclear contribution   :     -3.01708       2.02200       0.47377
                        -----------------------------------------
Total Dipole Moment    :     -0.60051       0.40260       0.09436
                        -----------------------------------------
Magnitude (a.u.)       :      0.72911
Magnitude (Debye)      :      1.85325

Rotational constants in cm-1:     5.477743     0.870792     0.870792
Rotational constants in MHz : 164218.600605 26105.683059 26105.675587

                             ****ORCA TERMINATED NORMALLY****
TOTAL RUN TIME: 0 days 0 hours 0 minutes 3 seconds 275 msec
