                         Program Version 5.0.0 -  RELEASE  -
|  1> !PBE0 D3BJ RIJCOSX def2-SVPD def2/J TightSCF
|  2> *xyz 0 1
|  3> C          1.63556       -1.67040       -5.29211
|  4> C          2.48451       -0.50741       -5.14039
|  5> C          3.45115       -0.14953       -5.95259
|  6> N          3.92267        1.08956       -5.85071
|  7> N          3.96616       -1.00618       -6.86788
|  8> H          3.52139       -1.90647       -6.99527
|  9> H          4.44482       -0.62347       -7.67035
| 10> H          2.25200        0.24080       -4.49879
| 11> H          3.46428        1.64078       -5.13639
| 12> H          4.83447        1.31375       -6.22465
| 13> H          2.06372       -2.33262       -6.01532
| 14> H          0.66479       -1.36293       -5.62068
| 15> H          1.55078       -2.17513       -4.35245
| 16> *
| 17>
| 18> %MaxCore 64000
| 19>
| 20> %pal nprocs 4
| 21> end
| 22>
| 23> %scf
| 24>   MaxIter 150
| 25> end
| 26>
| 27>
| 28>                          ****END OF INPUT****

CARTESIAN COORDINATES (ANGSTROEM)
---------------------------------
  C      1.635560   -1.670400   -5.292110
  C      2.484510   -0.507410   -5.140390
  C      3.451150   -0.149530   -5.952590
  N      3.922670    1.089560   -5.850710
  N      3.966160   -1.006180   -6.867880
  H      3.521390   -1.906470   -6.995270
  H      4.444820   -0.623470   -7.670350
  H      2.252000    0.240800   -4.498790
  H      3.464280    1.640780   -5.136390
  H      4.834470    1.313750   -6.224650
  H      2.063720   -2.332620   -6.015320
  H      0.664790   -1.362930   -5.620680
  H      1.550780   -2.175130   -4.352450

 Total Charge           Charge          ....    0
 Multiplicity           Mult            ....    1
 Number of Electrons    NEL             ....   40
 Basis Dimension        Dim             ....  164

ORBITAL ENERGIES
----------------

  NO   OCC          E(Eh)            E(eV)
   0   2.0000     -14.393496      -391.6669
   1   2.0000     -14.391008      -391.5992
   2   2.0000     -10.269395      -279.4445
   3   2.0000     -10.200807      -277.5781
   4   2.0000     -10.158030      -276.4140
   5   2.0000      -0.975014       -26.5315
   6   2.0000      -0.885244       -24.0887
   7   2.0000      -0.773112       -21.0374
   8   2.0000      -0.673842       -18.3362
   9   2.0000      -0.599292       -16.3076
  10   2.0000      -0.554349       -15.0846
  11   2.0000      -0.524645       -14.2763
  12   2.0000      -0.482135       -13.1196
  13   2.0000      -0.439657       -11.9637
  14   2.0000      -0.423051       -11.5118
  15   2.0000      -0.394973       -10.7478
  16   2.0000      -0.373673       -10.1681
  17   2.0000      -0.359251        -9.7757
  18   2.0000      -0.275538        -7.4978
  19   2.0000      -0.171635        -4.6704
  20   0.0000       0.025384         0.6907
  21   0.0000       0.050889         1.3848
  22   0.0000       0.061827         1.6824
  23   0.0000       0.081830         2.2267
  24   0.0000       0.094923         2.5830

MULLIKEN ATOMIC CHARGES
-----------------------
   0 C :    0.805979
   1 C :   -0.709182
   2 C :    0.843670
   3 N :   -0.116307
   4 N :   -0.118921
   5 H :   -0.027871
   6 H :   -0.142598
   7 H :   -0.234276
   8 H :    0.058535
   9 H :   -0.157984
  10 H :   -0.293442
  11 H :    0.015806
  12 H :    0.076591
Sum of atomic charges:    0.0000000

LOEWDIN ATOMIC CHARGES
----------------------
   0 C :    0.105153
   1 C :   -0.071117
   2 C :   -0.225924
   3 N :    0.167009
   4 N :    0.189314
   5 H :   -0.025655
   6 H :   -0.012172
   7 H :   -0.049007
   8 H :    0.001439
   9 H :   -0.006583
  10 H :   -0.042528
  11 H :   -0.014183
  12 H :   -0.015746

  Mayer bond orders larger than 0.100000
B(  0-C ,  1-C ) :   1.1234 B(  0-C ,  7-H ) :   0.1476 B(  0-C , 10-H ) :   0.8633
B(  0-C , 11-H ) :   0.8068 B(  0-C , 12-H ) :   0.6142 B(  1-C ,  2-C ) :   1.7241
B(  1-C ,  3-N ) :   0.3190 B(  1-C ,  4-N ) :   0.1580 B(  1-C ,  7-H ) :   0.9694
B(  1-C , 10-H ) :   0.3264 B(  1-C , 11-H ) :   0.1009 B(  1-C , 12-H ) :   0.2709
B(  2-C ,  3-N ) :   0.8975 B(  2-C ,  4-N ) :   0.9655 B(  2-C ,  7-H ) :   0.2423
B(  3-N ,  4-N ) :   0.1326 B(  3-N ,  8-H ) :   1.0451 B(  3-N ,  9-H ) :   1.2231
B(  4-N ,  5-H ) :   1.0209 B(  4-N ,  6-H ) :   1.1933 B(  5-H ,  6-H ) :  -0.1230
B(  8-H ,  9-H ) :  -0.1334 B( 10-H , 12-H ) :   0.2046

Dispersion correction           -0.007965517
FINAL SINGLE POINT ENERGY      -228.189264048754

DIPOLE MOMENT
-------------
                                X             Y             Z
Electronic contribution:      2.40392       1.86547      -0.77408
Nuclear contribution   :     -1.96139      -1.54412       0.26148
                        -----------------------------------------
Total Dipole Moment    :      0.44253       0.32135      -0.51260
                        -----------------------------------------
Magnitude (a.u.)       :      0.74957
Magnitude (Debye)      :      1.90526

Rotational constants in cm-1:     0.312277     0.136708     0.097371
Rotational constants in MHz :  9361.815989  4098.393303  2919.105491

                             ****ORCA TERMINATED NORMALLY****
TOTAL RUN TIME: 0 days 0 hours 0 minutes 14 seconds 11 msec
