                         Program Version 5.0.0 -  RELEASE  -
|  1> !PBE0 D3BJ RIJCOSX def2-SVPD def2/J TightSCF
|  2> *xyz 0 1
|  3> C          1.63556       -1.67040       -5.29211
|  4> N          2.48451       -0.50741       -5.14039
|  5> C          3.45115       -0.14953       -5.95259
|  6> C          3.92267        1.08956       -5.85071
|  7> N          3.96616       -1.00618       -6.86788
|  8> H          3.52139       -1.90647       -6.99527
|  9> H          4.44482       -0.62347       -7.67035
| 10> H          2.25200        0.24080       -4.49879
| 11> H          3.46428        1.64078       -5.13639
| 12> H          4.83447        1.31375       -6.22465
| 13> H          2.06372       -2.33262       -6.01532
| 14> H          0.66479       -1.36293       -5.62068
| 15> H          1.55078       -2.17513       -4.35245
| 16> *
| 17>
| 18> %MaxCore 64000
| 19>
| 20> %pal nprocs 4
| 21> end
| 22>
| 23> %scf
| 24>   MaxIter 150
| 25> end
| 26>
| 27>
| 28>                          ****END OF INPUT****

CARTESIAN COORDINATES (ANGSTROEM)
---------------------------------
  C      1.635560   -1.670400   -5.292110
  N      2.484510   -0.507410   -5.140390
  C      3.451150   -0.149530   -5.952590
  C      3.922670    1.089560   -5.850710
  N      3.966160   -1.006180   -6.867880
  H      3.521390   -1.906470   -6.995270
  H      4.444820   -0.623470   -7.670350
  H      2.252000    0.240800   -4.498790
  H      3.464280    1.640780   -5.136390
  H      4.834470    1.313750   -6.224650
  H      2.063720   -2.332620   -6.015320
  H      0.664790   -1.362930   -5.620680
  H      1.550780   -2.175130   -4.352450

 Total Charge           Charge          ....    0
 Multiplicity           Mult            ....    1
 Number of Electrons    NEL             ....   40
 Basis Dimension        Dim             ....  164

ORBITAL ENERGIES
----------------

  NO   OCC          E(Eh)            E(eV)
   0   2.0000     -14.400328      -391.8528
   1   2.0000     -14.396076      -391.7371
   2   2.0000     -10.276383      -279.6346
   3   2.0000     -10.267722      -279.3989
   4   2.0000     -10.142415      -275.9891
   5   2.0000      -0.990293       -26.9472
   6   2.0000      -0.899485       -24.4762
   7   2.0000      -0.768350       -20.9079
   8   2.0000      -0.681806       -18.5529
   9   2.0000      -0.616299       -16.7703
  10   2.0000      -0.554043       -15.0763
  11   2.0000      -0.509547       -13.8655
  12   2.0000      -0.492270       -13.3953
  13   2.0000      -0.470461       -12.8019
  14   2.0000      -0.423685       -11.5290
  15   2.0000      -0.405376       -11.0308
  16   2.0000      -0.394786       -10.7427
  17   2.0000      -0.376003       -10.2316
  18   2.0000      -0.269250        -7.3267
  19   2.0000      -0.172786        -4.7017
  20   0.0000       0.019266         0.5243
  21   0.0000       0.052163         1.4194
  22   0.0000       0.055203         1.5022
  23   0.0000       0.080059         2.1785
  24   0.0000       0.096598         2.6286

MULLIKEN ATOMIC CHARGES
-----------------------
   0 C :    1.169151
   1 N :   -0.682658
   2 C :    0.694277
   3 C :    0.360656
   4 N :   -0.058983
   5 H :   -0.150876
   6 H :   -0.063009
   7 H :   -0.252129
   8 H :   -0.156107
   9 H :   -0.377298
  10 H :   -0.275829
  11 H :   -0.098476
  12 H :   -0.108720
Sum of atomic charges:    0.0000000

LOEWDIN ATOMIC CHARGES
----------------------
   0 C :    0.223099
   1 N :   -0.057641
   2 C :   -0.232437
   3 C :    0.132387
   4 N :    0.192462
   5 H :   -0.038557
   6 H :    0.006329
   7 H :    0.032272
   8 H :   -0.103167
   9 H :   -0.096788
  10 H :   -0.032847
  11 H :   -0.013335
  12 H :   -0.011778

  Mayer bond orders larger than 0.100000
B(  0-C ,  1-N ) :   0.8825 B(  0-C ,  7-H ) :  -0.1723 B(  0-C , 10-H ) :   0.8517
B(  0-C , 11-H ) :   0.8010 B(  0-C , 12-H ) :   0.7626 B(  1-N ,  2-C ) :   0.9828
B(  1-N ,  3-C ) :   0.2743 B(  1-N ,  4-N ) :   0.1040 B(  1-N ,  7-H ) :   1.3230
B(  1-N , 10-H ) :   0.2433 B(  1-N , 11-H ) :   0.1597 B(  1-N , 12-H ) :   0.2160
B(  2-C ,  3-C ) :   1.6777 B(  2-C ,  4-N ) :   0.9143 B(  2-C ,  6-H ) :  -0.1024
B(  2-C ,  7-H ) :  -0.1911 B(  2-C ,  8-H ) :   0.2013 B(  2-C ,  9-H ) :   0.2120
B(  3-C ,  4-N ) :   0.2184 B(  3-C ,  8-H ) :   0.8272 B(  3-C ,  9-H ) :   0.7849
B(  4-N ,  5-H ) :   1.0602 B(  4-N ,  6-H ) :   1.1703 B(  5-H ,  6-H ) :  -0.1413
B(  5-H , 10-H ) :   0.1003

Dispersion correction           -0.007919240
FINAL SINGLE POINT ENERGY      -228.173987902973

DIPOLE MOMENT
-------------
                                X             Y             Z
Electronic contribution:      1.00977       0.29239      -0.21905
Nuclear contribution   :     -1.67010      -1.22066       0.11760
                        -----------------------------------------
Total Dipole Moment    :     -0.66033      -0.92827      -0.10144
                        -----------------------------------------
Magnitude (a.u.)       :      1.14368
Magnitude (Debye)      :      2.90700

Rotational constants in cm-1:     0.314526     0.141398     0.099973
Rotational constants in MHz :  9429.255015  4239.015262  2997.111162

                             ****ORCA TERMINATED NORMALLY****
TOTAL RUN TIME: 0 days 0 hours 0 minutes 14 seconds 787 msec
