                         Program Version 5.0.0 -  RELEASE  -
|  1> !PBE0 D3BJ RIJCOSX def2-SVPD def2/J TightSCF
|  2> *xyz 0 1
|  3> C          1.63556       -1.67040       -5.29211
|  4> N          2.48451       -0.50741       -5.14039
|  5> C          3.45115       -0.14953       -5.95259
|  6> N          3.92267        1.08956       -5.85071
|  7> C          3.96616       -1.00618       -6.86788
|  8> H          3.52139       -1.90647       -6.99527
|  9> H          4.44482       -0.62347       -7.67035
| 10> H          2.25200        0.24080       -4.49879
| 11> H          3.46428        1.64078       -5.13639
| 12> H          4.83447        1.31375       -6.22465
| 13> H          2.06372       -2.33262       -6.01532
| 14> H          0.66479       -1.36293       -5.62068
| 15> H          1.55078       -2.17513       -4.35245
| 16> *
| 17>
| 18> %MaxCore 64000
| 19>
| 20> %pal nprocs 4
| 21> end
| 22>
| 23> %scf
| 24>   MaxIter 150
| 25> end
| 26>
| 27>
| 28>                          ****END OF INPUT****

CARTESIAN COORDINATES (ANGSTROEM)
---------------------------------
  C      1.635560   -1.670400   -5.292110
  N      2.484510   -0.507410   -5.140390
  C      3.451150   -0.149530   -5.952590
  N      3.922670    1.089560   -5.850710
  C      3.966160   -1.006180   -6.867880
  H      3.521390   -1.906470   -6.995270
  H      4.444820   -0.623470   -7.670350
  H      2.252000    0.240800   -4.498790
  H      3.464280    1.640780   -5.136390
  H      4.834470    1.313750   -6.224650
  H      2.063720   -2.332620   -6.015320
  H      0.664790   -1.362930   -5.620680
  H      1.550780   -2.175130   -4.352450

 Total Charge           Charge          ....    0
 Multiplicity           Mult            ....    1
 Number of Electrons    NEL             ....   40
 Basis Dimension        Dim             ....  164

ORBITAL ENERGIES
----------------

  NO   OCC          E(Eh)            E(eV)
   0   2.0000     -14.405259      -391.9870
   1   2.0000     -14.399017      -391.8172
   2   2.0000     -10.278506      -279.6924
   3   2.0000     -10.259010      -279.1619
   4   2.0000     -10.142991      -276.0048
   5   2.0000      -0.998510       -27.1708
   6   2.0000      -0.904350       -24.6086
   7   2.0000      -0.736422       -20.0391
   8   2.0000      -0.716923       -19.5085
   9   2.0000      -0.582398       -15.8479
  10   2.0000      -0.561877       -15.2894
  11   2.0000      -0.545728       -14.8500
  12   2.0000      -0.475437       -12.9373
  13   2.0000      -0.465743       -12.6735
  14   2.0000      -0.430482       -11.7140
  15   2.0000      -0.398075       -10.8322
  16   2.0000      -0.385230       -10.4826
  17   2.0000      -0.374042       -10.1782
  18   2.0000      -0.266960        -7.2643
  19   2.0000      -0.173825        -4.7300
  20   0.0000       0.018873         0.5135
  21   0.0000       0.046188         1.2568
  22   0.0000       0.060542         1.6474
  23   0.0000       0.077201         2.1007
  24   0.0000       0.096795         2.6339

MULLIKEN ATOMIC CHARGES
-----------------------
   0 C :    1.191779
   1 N :   -0.629167
   2 C :    0.672289
   3 N :   -0.071856
   4 C :    0.293396
   5 H :   -0.235616
   6 H :   -0.257638
   7 H :   -0.357309
   8 H :   -0.100570
   9 H :   -0.060621
  10 H :   -0.259298
  11 H :   -0.096778
  12 H :   -0.088610
Sum of atomic charges:    0.0000000

LOEWDIN ATOMIC CHARGES
----------------------
   0 C :    0.232418
   1 N :   -0.060445
   2 C :   -0.239574
   3 N :    0.180846
   4 C :    0.150499
   5 H :   -0.130532
   6 H :   -0.104397
   7 H :    0.018457
   8 H :   -0.012334
   9 H :    0.014188
  10 H :   -0.028594
  11 H :   -0.010184
  12 H :   -0.010348

  Mayer bond orders larger than 0.100000
B(  0-C ,  1-N ) :   0.8796 B(  0-C ,  7-H ) :  -0.1572 B(  0-C , 10-H ) :   0.8440
B(  0-C , 11-H ) :   0.7721 B(  0-C , 12-H ) :   0.7322 B(  1-N ,  2-C ) :   0.9621
B(  1-N ,  3-N ) :   0.1900 B(  1-N ,  4-C ) :   0.2833 B(  1-N ,  7-H ) :   1.3719
B(  1-N , 10-H ) :   0.2135 B(  1-N , 11-H ) :   0.1831 B(  1-N , 12-H ) :   0.2186
B(  2-C ,  3-N ) :   0.8513 B(  2-C ,  4-C ) :   1.8132 B(  2-C ,  5-H ) :   0.2121
B(  2-C ,  6-H ) :   0.2055 B(  2-C ,  7-H ) :  -0.2298 B(  3-N ,  4-C ) :   0.2593
B(  3-N ,  8-H ) :   1.1097 B(  3-N ,  9-H ) :   1.1896 B(  4-C ,  5-H ) :   0.7186
B(  4-C ,  6-H ) :   0.8259 B(  5-H ,  6-H ) :   0.2434 B(  5-H , 10-H ) :   0.1342
B(  8-H ,  9-H ) :  -0.1282

Dispersion correction           -0.007952743
FINAL SINGLE POINT ENERGY      -228.173304162900

DIPOLE MOMENT
-------------
                                X             Y             Z
Electronic contribution:      1.05073       2.34250       0.85888
Nuclear contribution   :     -1.66129      -1.64514      -0.08842
                        -----------------------------------------
Total Dipole Moment    :     -0.61056       0.69735       0.77046
                        -----------------------------------------
Magnitude (a.u.)       :      1.20528
Magnitude (Debye)      :      3.06358

Rotational constants in cm-1:     0.330436     0.136339     0.098902
Rotational constants in MHz :  9906.231858  4087.333233  2964.994979

                             ****ORCA TERMINATED NORMALLY****
TOTAL RUN TIME: 0 days 0 hours 0 minutes 14 seconds 771 msec
