                         Program Version 5.0.0 -  RELEASE  -
|  1> !PBE0 D3BJ RIJCOSX def2-SVPD def2/J TightSCF xyzfile
|  2>
|  3> *xyzfile 0 1 D2.xyz
|  4>
|  5> %MaxCore 64000
|  6>
|  7> %pal nprocs 4
|  8> end
|  9>
| 10> %scf
| 11>   MaxIter 150
| 12> end
| 13>
| 14>
| 15>                          ****END OF INPUT****

CARTESIAN COORDINATES (ANGSTROEM)
---------------------------------
  C      1.635557   -1.670396   -5.292109
  C      0.338484   -1.500907   -4.505398
  N      2.484511   -0.507410   -5.140392
  C     -0.684873   -0.528026   -5.099889
  C     -0.290406    0.951335   -5.153423
  H      0.607991    1.070692   -5.764412
  C     -0.055168    1.619420   -3.788577
  H     -1.080912    1.483775   -5.689436
  H      0.045006    0.862302   -3.003015
  H     -0.922936    2.230329   -3.517028
  C      1.223022    2.469865   -3.756911
  H      1.114701    3.258074   -4.532999
  H      1.237732    3.011242   -2.792157
  F      2.353815    1.712032   -3.934477
  H      1.398337   -1.829239   -6.352591
  H      2.155864   -2.565398   -4.932091
  C      3.451149   -0.149530   -5.952589
  C      3.922667    1.089559   -5.850711
  N      3.966162   -1.006183   -6.867880
  H      3.521391   -1.906467   -6.995270
  H      4.444824   -0.623472   -7.670348
  H      2.251995    0.240804   -4.498792
  H      3.464277    1.640782   -5.136392
  H      4.834470    1.313745   -6.224653
  H     -0.937999   -0.869056   -6.110838
  H     -1.604638   -0.622496   -4.513132
  H      0.594887   -1.211578   -3.482312
  H     -0.126530   -2.487656   -4.434176

 Total Charge           Charge          ....    0
 Multiplicity           Mult            ....    1
 Number of Electrons    NEL             ....   88
 Basis Dimension        Dim             ....  359

ORBITAL ENERGIES
----------------

  NO   OCC          E(Eh)            E(eV)
   0   2.0000     -24.801968      -674.8959
   1   2.0000     -14.380845      -391.3227
   2   2.0000     -14.370145      -391.0315
   3   2.0000     -10.324615      -280.9471
   4   2.0000     -10.261906      -279.2407
   5   2.0000     -10.256721      -279.0996
   6   2.0000     -10.249055      -278.8910
   7   2.0000     -10.237763      -278.5837
   8   2.0000     -10.237390      -278.5736
   9   2.0000     -10.235498      -278.5221
  10   2.0000     -10.116380      -275.2807
  11   2.0000      -1.252657       -34.0865
  12   2.0000      -0.971813       -26.4444
  13   2.0000      -0.886088       -24.1117
  14   2.0000      -0.836977       -22.7753
  15   2.0000      -0.794559       -21.6211
  16   2.0000      -0.754621       -20.5343
  17   2.0000      -0.701247       -19.0819
  18   2.0000      -0.667777       -18.1711
  19   2.0000      -0.637534       -17.3482
  20   2.0000      -0.600343       -16.3362
  21   2.0000      -0.582991       -15.8640
  22   2.0000      -0.561679       -15.2841
  23   2.0000      -0.534910       -14.5557
  24   2.0000      -0.527594       -14.3566
  25   2.0000      -0.520648       -14.1675
  26   2.0000      -0.501156       -13.6371
  27   2.0000      -0.487631       -13.2691
  28   2.0000      -0.465248       -12.6600
  29   2.0000      -0.457688       -12.4543
  30   2.0000      -0.437658       -11.9093
  31   2.0000      -0.426000       -11.5920
  32   2.0000      -0.413712       -11.2577
  33   2.0000      -0.395322       -10.7572
  34   2.0000      -0.384231       -10.4555
  35   2.0000      -0.376324       -10.2403
  36   2.0000      -0.365404        -9.9431
  37   2.0000      -0.362284        -9.8583
  38   2.0000      -0.346009        -9.4154
  39   2.0000      -0.336753        -9.1635
  40   2.0000      -0.335173        -9.1205
  41   2.0000      -0.331277        -9.0145
  42   2.0000      -0.252418        -6.8686
  43   2.0000      -0.153771        -4.1843
  44   0.0000       0.021304         0.5797
  45   0.0000       0.031628         0.8606
  46   0.0000       0.041321         1.1244
  47   0.0000       0.045043         1.2257
  48   0.0000       0.061857         1.6832

MULLIKEN ATOMIC CHARGES
-----------------------
   0 C :    0.608008
   1 C :   -0.005090
   2 N :   -0.308650
   3 C :    0.093802
   4 C :   -0.061257
   5 H :    0.170587
   6 C :   -0.163652
   7 H :   -0.231943
   8 H :    0.026133
   9 H :   -0.102561
  10 C :    0.914464
  11 H :   -0.007964
  12 H :   -0.029127
  13 F :   -0.848762
  14 H :    0.017458
  15 H :   -0.181000
  16 C :    0.815793
  17 C :    0.508107
  18 N :   -0.171732
  19 H :   -0.061397
  20 H :   -0.073236
  21 H :   -0.313867
  22 H :   -0.111769
  23 H :   -0.521805
  24 H :    0.153960
  25 H :   -0.053400
  26 H :    0.052805
  27 H :   -0.113904
Sum of atomic charges:    0.0000000

LOEWDIN ATOMIC CHARGES
----------------------
   0 C :    0.042961
   1 C :   -0.027864
   2 N :   -0.005989
   3 C :   -0.029700
   4 C :   -0.024289
   5 H :    0.013663
   6 C :   -0.005702
   7 H :    0.021250
   8 H :    0.016935
   9 H :    0.031564
  10 C :    0.161938
  11 H :    0.050916
  12 H :    0.038807
  13 F :   -0.223504
  14 H :    0.021882
  15 H :    0.019391
  16 C :   -0.209359
  17 C :    0.157891
  18 N :    0.192056
  19 H :   -0.029600
  20 H :    0.001542
  21 H :   -0.054728
  22 H :   -0.150904
  23 H :   -0.097898
  24 H :    0.026157
  25 H :    0.023385
  26 H :    0.015913
  27 H :    0.023286

  Mayer bond orders larger than 0.100000
B(  0-C ,  1-C ) :   1.2194 B(  0-C ,  2-N ) :   0.8870 B(  0-C , 14-H ) :   0.7817
B(  0-C , 15-H ) :   0.8908 B(  0-C , 21-H ) :  -0.1674 B(  0-C , 26-H ) :   0.1199
B(  0-C , 27-H ) :   0.1814 B(  1-C ,  3-C ) :   1.2382 B(  1-C , 24-H ) :   0.1519
B(  1-C , 25-H ) :   0.1744 B(  1-C , 26-H ) :   0.8006 B(  1-C , 27-H ) :   0.8341
B(  2-N , 14-H ) :   0.3112 B(  2-N , 15-H ) :   0.2100 B(  2-N , 16-C ) :   0.9422
B(  2-N , 17-C ) :   0.3779 B(  2-N , 18-N ) :   0.1494 B(  2-N , 21-H ) :   1.0803
B(  3-C ,  4-C ) :   1.3166 B(  3-C ,  5-H ) :   0.1248 B(  3-C ,  7-H ) :   0.1257
B(  3-C , 24-H ) :   0.6871 B(  3-C , 25-H ) :   0.8738 B(  3-C , 26-H ) :   0.1390
B(  3-C , 27-H ) :   0.1318 B(  4-C ,  5-H ) :   0.8447 B(  4-C ,  6-C ) :   1.1974
B(  4-C ,  7-H ) :   0.8968 B(  4-C ,  8-H ) :   0.1167 B(  4-C ,  9-H ) :   0.1543
B(  4-C , 24-H ) :   0.1922 B(  4-C , 25-H ) :   0.1284 B(  6-C ,  8-H ) :   0.8957
B(  6-C ,  9-H ) :   0.9491 B(  6-C , 10-C ) :   1.1716 B(  6-C , 12-H ) :   0.1510
B(  6-C , 13-F ) :   0.1510 B( 10-C , 11-H ) :   0.8639 B( 10-C , 12-H ) :   0.8232
B( 10-C , 13-F ) :   0.6246 B( 11-H , 13-F ) :   0.1899 B( 13-F , 22-H ) :   0.1682
B( 16-C , 17-C ) :   1.5838 B( 16-C , 18-N ) :   0.6907 B( 16-C , 20-H ) :  -0.1500
B( 16-C , 21-H ) :  -0.3455 B( 16-C , 22-H ) :   0.2742 B( 16-C , 23-H ) :   0.3679
B( 17-C , 18-N ) :   0.3102 B( 17-C , 22-H ) :   0.5730 B( 17-C , 23-H ) :   0.5847
B( 18-N , 19-H ) :   1.0096 B( 18-N , 20-H ) :   1.2255 B( 19-H , 20-H ) :  -0.1451
B( 21-H , 22-H ) :  -0.1006

Dispersion correction           -0.024923447
FINAL SINGLE POINT ENERGY      -523.435854766703

DIPOLE MOMENT
-------------
                                X             Y             Z
Electronic contribution:      6.35155       2.45690       1.71095
Nuclear contribution   :     -7.85451      -2.70006      -1.48294
                        -----------------------------------------
Total Dipole Moment    :     -1.50296      -0.24316       0.22801
                        -----------------------------------------
Magnitude (a.u.)       :      1.53948
Magnitude (Debye)      :      3.91305

Rotational constants in cm-1:     0.044065     0.029250     0.019826
Rotational constants in MHz :  1321.026981   876.903192   594.367265

                             ****ORCA TERMINATED NORMALLY****
TOTAL RUN TIME: 0 days 0 hours 1 minutes 50 seconds 393 msec
