                         Program Version 5.0.0 -  RELEASE  -
|  1> !PBE0 D3BJ RIJCOSX def2-SVPD def2/J TightSCF xyzfile
|  2>
|  3> *xyzfile 0 1 D3.xyz
|  4>
|  5> %MaxCore 64000
|  6>
|  7> %pal nprocs 4
|  8> end
|  9>
| 10> %scf
| 11>   MaxIter 150
| 12> end
| 13>
| 14>
| 15>                          ****END OF INPUT****

CARTESIAN COORDINATES (ANGSTROEM)
---------------------------------
  C      1.635557   -1.670396   -5.292109
  C      0.338484   -1.500907   -4.505398
  N      2.484511   -0.507410   -5.140392
  C     -0.684873   -0.528026   -5.099889
  C     -0.290406    0.951335   -5.153423
  H      0.607991    1.070692   -5.764412
  C     -0.055168    1.619420   -3.788577
  H     -1.080912    1.483775   -5.689436
  H      0.045006    0.862302   -3.003015
  H     -0.922936    2.230329   -3.517028
  C      1.223022    2.469865   -3.756911
  H      1.114701    3.258074   -4.532999
  H      1.237732    3.011242   -2.792157
  F      2.353815    1.712032   -3.934477
  H      1.398337   -1.829239   -6.352591
  H      2.155864   -2.565398   -4.932091
  C      3.451149   -0.149530   -5.952589
  N      3.922667    1.089559   -5.850711
  C      3.966162   -1.006183   -6.867880
  H      3.521391   -1.906467   -6.995270
  H      4.444824   -0.623472   -7.670348
  H      2.251995    0.240804   -4.498792
  H      3.464277    1.640782   -5.136392
  H      4.834470    1.313745   -6.224653
  H     -0.937999   -0.869056   -6.110838
  H     -1.604638   -0.622496   -4.513132
  H      0.594887   -1.211578   -3.482312
  H     -0.126530   -2.487656   -4.434176

 Total Charge           Charge          ....    0
 Multiplicity           Mult            ....    1
 Number of Electrons    NEL             ....   88
 Basis Dimension        Dim             ....  359

ORBITAL ENERGIES
----------------

  NO   OCC          E(Eh)            E(eV)
   0   2.0000     -24.830066      -675.6604
   1   2.0000     -14.373928      -391.1345
   2   2.0000     -14.369407      -391.0115
   3   2.0000     -10.341800      -281.4147
   4   2.0000     -10.258825      -279.1568
   5   2.0000     -10.257506      -279.1209
   6   2.0000     -10.254691      -279.0443
   7   2.0000     -10.241542      -278.6865
   8   2.0000     -10.238394      -278.6009
   9   2.0000     -10.235363      -278.5184
  10   2.0000     -10.126564      -275.5578
  11   2.0000      -1.279804       -34.8252
  12   2.0000      -0.977002       -26.5856
  13   2.0000      -0.886840       -24.1321
  14   2.0000      -0.841876       -22.9086
  15   2.0000      -0.798168       -21.7193
  16   2.0000      -0.746666       -20.3178
  17   2.0000      -0.710684       -19.3387
  18   2.0000      -0.676624       -18.4119
  19   2.0000      -0.650714       -17.7068
  20   2.0000      -0.594772       -16.1846
  21   2.0000      -0.588236       -16.0067
  22   2.0000      -0.575131       -15.6501
  23   2.0000      -0.551128       -14.9970
  24   2.0000      -0.545790       -14.8517
  25   2.0000      -0.514928       -14.0119
  26   2.0000      -0.505888       -13.7659
  27   2.0000      -0.489737       -13.3264
  28   2.0000      -0.478158       -13.0113
  29   2.0000      -0.452151       -12.3037
  30   2.0000      -0.443627       -12.0717
  31   2.0000      -0.434325       -11.8186
  32   2.0000      -0.415987       -11.3196
  33   2.0000      -0.391901       -10.6642
  34   2.0000      -0.390453       -10.6248
  35   2.0000      -0.378023       -10.2865
  36   2.0000      -0.372830       -10.1452
  37   2.0000      -0.367495       -10.0000
  38   2.0000      -0.355895        -9.6844
  39   2.0000      -0.346328        -9.4241
  40   2.0000      -0.336675        -9.1614
  41   2.0000      -0.333751        -9.0818
  42   2.0000      -0.242237        -6.5916
  43   2.0000      -0.158263        -4.3066
  44   0.0000       0.015414         0.4194
  45   0.0000       0.031720         0.8631
  46   0.0000       0.038499         1.0476
  47   0.0000       0.043423         1.1816
  48   0.0000       0.053607         1.4587

MULLIKEN ATOMIC CHARGES
-----------------------
   0 C :    0.595988
   1 C :    0.017579
   2 N :   -0.016576
   3 C :    0.098623
   4 C :    0.027419
   5 H :    0.044658
   6 C :   -0.177270
   7 H :   -0.213241
   8 H :    0.034087
   9 H :   -0.094662
  10 C :    0.924151
  11 H :   -0.012405
  12 H :   -0.029956
  13 F :   -0.848196
  14 H :    0.063028
  15 H :   -0.171856
  16 C :    0.510493
  17 N :    0.207340
  18 C :    0.345639
  19 H :    0.000314
  20 H :   -0.355719
  21 H :   -0.577481
  22 H :   -0.183492
  23 H :   -0.207754
  24 H :    0.163041
  25 H :   -0.054822
  26 H :    0.033668
  27 H :   -0.122600
Sum of atomic charges:   -0.0000000

LOEWDIN ATOMIC CHARGES
----------------------
   0 C :    0.054826
   1 C :   -0.028169
   2 N :   -0.004278
   3 C :   -0.028530
   4 C :   -0.024951
   5 H :    0.012751
   6 C :   -0.003771
   7 H :    0.021654
   8 H :    0.018626
   9 H :    0.033695
  10 C :    0.162095
  11 H :    0.051384
  12 H :    0.041285
  13 F :   -0.214739
  14 H :    0.028574
  15 H :    0.027311
  16 C :   -0.224812
  17 N :    0.200801
  18 C :    0.150777
  19 H :   -0.125658
  20 H :   -0.110373
  21 H :   -0.062825
  22 H :   -0.076232
  23 H :    0.011383
  24 H :    0.028248
  25 H :    0.023310
  26 H :    0.013234
  27 H :    0.024384

  Mayer bond orders larger than 0.100000
B(  0-C ,  1-C ) :   1.2081 B(  0-C ,  2-N ) :   0.9571 B(  0-C , 14-H ) :   0.7833
B(  0-C , 15-H ) :   0.9000 B(  0-C , 21-H ) :  -0.1801 B(  0-C , 26-H ) :   0.1161
B(  0-C , 27-H ) :   0.1697 B(  1-C ,  2-N ) :   0.1135 B(  1-C ,  3-C ) :   1.2389
B(  1-C , 24-H ) :   0.1523 B(  1-C , 25-H ) :   0.1793 B(  1-C , 26-H ) :   0.7938
B(  1-C , 27-H ) :   0.8507 B(  2-N , 13-F ) :  -0.1055 B(  2-N , 14-H ) :   0.2565
B(  2-N , 15-H ) :   0.1620 B(  2-N , 16-C ) :   1.2405 B(  2-N , 17-N ) :   0.1027
B(  2-N , 18-C ) :   0.2177 B(  2-N , 21-H ) :   0.9412 B(  3-C ,  4-C ) :   1.3130
B(  3-C ,  5-H ) :   0.1355 B(  3-C ,  7-H ) :   0.1317 B(  3-C , 24-H ) :   0.6887
B(  3-C , 25-H ) :   0.8745 B(  3-C , 26-H ) :   0.1359 B(  3-C , 27-H ) :   0.1242
B(  4-C ,  5-H ) :   0.8524 B(  4-C ,  6-C ) :   1.1920 B(  4-C ,  7-H ) :   0.8581
B(  4-C ,  8-H ) :   0.1209 B(  4-C ,  9-H ) :   0.1509 B(  4-C , 24-H ) :   0.1859
B(  4-C , 25-H ) :   0.1180 B(  6-C ,  8-H ) :   0.8978 B(  6-C ,  9-H ) :   0.9497
B(  6-C , 10-C ) :   1.1737 B(  6-C , 11-H ) :   0.1007 B(  6-C , 12-H ) :   0.1486
B(  6-C , 13-F ) :   0.1481 B( 10-C , 11-H ) :   0.8574 B( 10-C , 12-H ) :   0.8247
B( 10-C , 13-F ) :   0.6014 B( 11-H , 13-F ) :   0.2048 B( 13-F , 22-H ) :   0.2036
B( 16-C , 17-N ) :   0.7706 B( 16-C , 18-C ) :   1.8265 B( 16-C , 19-H ) :   0.3138
B( 16-C , 20-H ) :   0.2191 B( 16-C , 21-H ) :  -0.3920 B( 16-C , 23-H ) :  -0.1845
B( 17-N , 18-C ) :   0.2096 B( 17-N , 22-H ) :   1.0091 B( 17-N , 23-H ) :   1.3333
B( 18-C , 19-H ) :   0.6174 B( 18-C , 20-H ) :   0.8178 B( 19-H , 20-H ) :   0.1987
B( 22-H , 23-H ) :  -0.1714

Dispersion correction           -0.024873866
FINAL SINGLE POINT ENERGY      -523.447816510176

DIPOLE MOMENT
-------------
                                X             Y             Z
Electronic contribution:      6.26031       4.45115       2.80559
Nuclear contribution   :     -7.84660      -3.08098      -1.66782
                        -----------------------------------------
Total Dipole Moment    :     -1.58629       1.37017       1.13776
                        -----------------------------------------
Magnitude (a.u.)       :      2.38499
Magnitude (Debye)      :      6.06217

Rotational constants in cm-1:     0.043547     0.029898     0.020008
Rotational constants in MHz :  1305.520367   896.323854   599.829375

                             ****ORCA TERMINATED NORMALLY****
TOTAL RUN TIME: 0 days 0 hours 1 minutes 49 seconds 935 msec
