                         Program Version 5.0.0 -  RELEASE  -
|  1> !LC-PBE RIJCOSX def2-TZVPD def2/J TightSCF
|  2> *xyz -1 1
|  3> C          0.13297        2.38587       -4.02462
|  4> C         -1.36646        2.47911       -4.31393
|  5> C         -2.35773        2.30686       -3.13675
|  6> H         -1.63680        1.72709       -5.06399
|  7> H         -1.58235        3.44561       -4.76869
|  8> O         -3.44376        2.84652       -3.25274
|  9> O         -1.97092        1.58304       -2.15123
| 10> H          0.68084        2.52514       -4.93310
| 11> H          0.35823        1.42282       -3.61633
| 12> H          0.40851        3.14443       -3.32208
| 13> *
| 14> %MaxCore 64000
| 15>
| 16> %pal nprocs 4
| 17> end
| 18>
| 19> %scf
| 20>   MaxIter 150
| 21> end
| 22>
| 23>
| 24>                          ****END OF INPUT****

CARTESIAN COORDINATES (ANGSTROEM)
---------------------------------
  C      0.132970    2.385870   -4.024620
  C     -1.366460    2.479110   -4.313930
  C     -2.357730    2.306860   -3.136750
  H     -1.636800    1.727090   -5.063990
  H     -1.582350    3.445610   -4.768690
  O     -3.443760    2.846520   -3.252740
  O     -1.970920    1.583040   -2.151230
  H      0.680840    2.525140   -4.933100
  H      0.358230    1.422820   -3.616330
  H      0.408510    3.144430   -3.322080

 Total Charge           Charge          ....   -1
 Multiplicity           Mult            ....    1
 Number of Electrons    NEL             ....   40
 Basis Dimension        Dim             ....  236

ORBITAL ENERGIES
----------------

  NO   OCC          E(Eh)            E(eV)
   0   2.0000     -18.715178      -509.2659
   1   2.0000     -18.703926      -508.9597
   2   2.0000     -10.003345      -272.2049
   3   2.0000      -9.947810      -270.6937
   4   2.0000      -9.941852      -270.5315
   5   2.0000      -0.995188       -27.0805
   6   2.0000      -0.886040       -24.1104
   7   2.0000      -0.780899       -21.2494
   8   2.0000      -0.638317       -17.3695
   9   2.0000      -0.466054       -12.6820
  10   2.0000      -0.440660       -11.9910
  11   2.0000      -0.405475       -11.0335
  12   2.0000      -0.373406       -10.1609
  13   2.0000      -0.357082        -9.7167
  14   2.0000      -0.348573        -9.4852
  15   2.0000      -0.314801        -8.5662
  16   2.0000      -0.296851        -8.0777
  17   2.0000      -0.178055        -4.8451
  18   2.0000      -0.172312        -4.6888
  19   2.0000      -0.163447        -4.4476
  20   0.0000       0.187837         5.1113
  21   0.0000       0.205565         5.5937
  22   0.0000       0.215207         5.8561
  23   0.0000       0.235837         6.4175
  24   0.0000       0.247962         6.7474

MULLIKEN ATOMIC CHARGES
-----------------------
   0 C :   -1.084879
   1 C :   -0.412492
   2 C :    0.334101
   3 H :    0.265496
   4 H :    0.306801
   5 O :   -0.651493
   6 O :   -0.724258
   7 H :    0.361736
   8 H :    0.301661
   9 H :    0.303326
Sum of atomic charges:   -1.0000000

LOEWDIN ATOMIC CHARGES
----------------------
   0 C :   -0.160924
   1 C :   -0.226378
   2 C :   -0.793324
   3 H :    0.106121
   4 H :    0.095873
   5 O :   -0.068661
   6 O :   -0.132971
   7 H :    0.051227
   8 H :    0.062208
   9 H :    0.066829

  Mayer bond orders larger than 0.100000
B(  0-C ,  1-C ) :   0.5366 B(  0-C ,  7-H ) :   0.9108 B(  0-C ,  8-H ) :   0.9865
B(  0-C ,  9-H ) :   0.9660 B(  1-C ,  2-C ) :   0.9725 B(  1-C ,  3-H ) :   0.9419
B(  1-C ,  4-H ) :   0.9504 B(  2-C ,  5-O ) :   1.5280 B(  2-C ,  6-O ) :   1.4624

FINAL SINGLE POINT ENERGY      -267.156179394091

DIPOLE MOMENT
-------------
                                X             Y             Z
Electronic contribution:     -5.20074      -0.35616       3.13043
Nuclear contribution   :      6.75610       0.63068      -4.53972
                        -----------------------------------------
Total Dipole Moment    :      1.55535       0.27452      -1.40929
                        -----------------------------------------
Magnitude (a.u.)       :      2.11674
Magnitude (Debye)      :      5.38032

Rotational constants in cm-1:     0.335096     0.130241     0.099025
Rotational constants in MHz : 10045.924902  3904.536250  2968.708333

                             ****ORCA TERMINATED NORMALLY****
TOTAL RUN TIME: 0 days 0 hours 0 minutes 29 seconds 319 msec
