                         Program Version 5.0.0 -  RELEASE  -
|  1> !LC-PBE RIJCOSX def2-TZVPD def2/J TightSCF
|  2> *xyz 1 1
|  3> C          0.64866        1.00359       -3.64560
|  4> N          0.28128        0.67645       -2.24018
|  5> C          0.13297        2.38587       -4.02462
|  6> H          0.39079       -0.31925       -2.02649
|  7> H         -0.69269        0.99010       -2.13812
|  8> H          0.85421        1.21221       -1.57528
|  9> H          0.19099        0.23965       -4.27575
| 10> H          1.73157        0.93173       -3.75075
| 11> H          0.40589        2.60338       -5.03610
| 12> H          0.56342        3.11797       -3.37374
| 13> H         -0.93265        2.40724       -3.93025
| 14> *
| 15> %MaxCore 64000
| 16>
| 17> %pal nprocs 4
| 18> end
| 19>
| 20> %scf
| 21>   MaxIter 150
| 22> end
| 23>
| 24>
| 25>                          ****END OF INPUT****

CARTESIAN COORDINATES (ANGSTROEM)
---------------------------------
  C      0.648660    1.003590   -3.645600
  N      0.281280    0.676450   -2.240180
  C      0.132970    2.385870   -4.024620
  H      0.390790   -0.319250   -2.026490
  H     -0.692690    0.990100   -2.138120
  H      0.854210    1.212210   -1.575280
  H      0.190990    0.239650   -4.275750
  H      1.731570    0.931730   -3.750750
  H      0.405890    2.603380   -5.036100
  H      0.563420    3.117970   -3.373740
  H     -0.932650    2.407240   -3.930250

 Total Charge           Charge          ....    1
 Multiplicity           Mult            ....    1
 Number of Electrons    NEL             ....   26
 Basis Dimension        Dim             ....  183

ORBITAL ENERGIES
----------------

  NO   OCC          E(Eh)            E(eV)
   0   2.0000     -14.549293      -395.9064
   1   2.0000     -10.370117      -282.1852
   2   2.0000     -10.289588      -279.9939
   3   2.0000      -1.391331       -37.8601
   4   2.0000      -1.140509       -31.0348
   5   2.0000      -1.007831       -27.4245
   6   2.0000      -0.948930       -25.8217
   7   2.0000      -0.941051       -25.6073
   8   2.0000      -0.837134       -22.7796
   9   2.0000      -0.784143       -21.3376
  10   2.0000      -0.719646       -19.5826
  11   2.0000      -0.704136       -19.1605
  12   2.0000      -0.683451       -18.5976
  13   0.0000      -0.120030        -3.2662
  14   0.0000      -0.067197        -1.8285
  15   0.0000      -0.062508        -1.7009
  16   0.0000      -0.061231        -1.6662
  17   0.0000      -0.026760        -0.7282

MULLIKEN ATOMIC CHARGES
-----------------------
   0 C :   -0.412487
   1 N :   -0.426457
   2 C :   -1.342005
   3 H :    0.387671
   4 H :    0.396762
   5 H :    0.388992
   6 H :    0.369542
   7 H :    0.380500
   8 H :    0.366620
   9 H :    0.422969
  10 H :    0.467894
Sum of atomic charges:    1.0000000

LOEWDIN ATOMIC CHARGES
----------------------
   0 C :   -0.220938
   1 N :    0.174387
   2 C :   -0.080716
   3 H :    0.186250
   4 H :    0.181588
   5 H :    0.188555
   6 H :    0.143248
   7 H :    0.143703
   8 H :    0.100800
   9 H :    0.092136
  10 H :    0.090987

  Mayer bond orders larger than 0.100000
B(  0-C ,  1-N ) :   0.8503 B(  0-C ,  2-C ) :   0.5725 B(  0-C ,  6-H ) :   0.9017
B(  0-C ,  7-H ) :   0.8947 B(  1-N ,  3-H ) :   0.8486 B(  1-N ,  4-H ) :   0.8327
B(  1-N ,  5-H ) :   0.8462 B(  2-C ,  8-H ) :   0.9532 B(  2-C ,  9-H ) :   0.8738
B(  2-C , 10-H ) :   0.8099

FINAL SINGLE POINT ENERGY      -135.131067343101

DIPOLE MOMENT
-------------
                                X             Y             Z
Electronic contribution:      0.16942      -1.30721       1.32973
Nuclear contribution   :     -0.22655       0.48066      -0.09136
                        -----------------------------------------
Total Dipole Moment    :     -0.05713      -0.82655       1.23838
                        -----------------------------------------
Magnitude (a.u.)       :      1.48998
Magnitude (Debye)      :      3.78722

Rotational constants in cm-1:     0.998155     0.284845     0.251232
Rotational constants in MHz : 29923.943568  8539.431565  7531.732866

                             ****ORCA TERMINATED NORMALLY****
TOTAL RUN TIME: 0 days 0 hours 0 minutes 17 seconds 987 msec
