                         Program Version 5.0.0 -  RELEASE  -
|  1> !LC-PBE RIJCOSX def2-TZVPD def2/J TightSCF xyzfile
|  2>
|  3> *xyzfile 0 1 B.xyz
|  4>
|  5> %MaxCore 64000
|  6>
|  7> %pal nprocs 4
|  8> end
|  9>
| 10> %scf
| 11>   MaxIter 150
| 12> end
| 13>
| 14>
| 15>                          ****END OF INPUT****

CARTESIAN COORDINATES (ANGSTROEM)
---------------------------------
  C      0.648656    1.003595   -3.645601
  N      0.281280    0.676454   -2.240179
  C      0.132968    2.385869   -4.024618
  C     -1.366462    2.479106   -4.313932
  C     -2.357732    2.306858   -3.136753
  H     -1.636802    1.727095   -5.063993
  H     -1.582347    3.445605   -4.768687
  H      0.390790   -0.319253   -2.026495
  H     -0.692686    0.990104   -2.138123
  H      0.854206    1.212214   -1.575279
  O     -3.443763    2.846518   -3.252744
  O     -1.970922    1.583042   -2.151229
  H      0.190993    0.239655   -4.275752
  H      1.731572    0.931729   -3.750751
  H      0.414839    3.102847   -3.245165
  H      0.683167    2.687560   -4.919721

 Total Charge           Charge          ....    0
 Multiplicity           Mult            ....    1
 Number of Electrons    NEL             ....   56
 Basis Dimension        Dim             ....  346

ORBITAL ENERGIES
----------------

  NO   OCC          E(Eh)            E(eV)
   0   2.0000     -18.902273      -514.3570
   1   2.0000     -18.881848      -513.8012
   2   2.0000     -14.326132      -389.8339
   3   2.0000     -10.206143      -277.7233
   4   2.0000     -10.182256      -277.0733
   5   2.0000     -10.145943      -276.0852
   6   2.0000     -10.107846      -275.0485
   7   2.0000      -1.197791       -32.5935
   8   2.0000      -1.170239       -31.8438
   9   2.0000      -1.079196       -29.3664
  10   2.0000      -0.991406       -26.9775
  11   2.0000      -0.887847       -24.1596
  12   2.0000      -0.800866       -21.7927
  13   2.0000      -0.758747       -20.6466
  14   2.0000      -0.744210       -20.2510
  15   2.0000      -0.670986       -18.2585
  16   2.0000      -0.631277       -17.1779
  17   2.0000      -0.626427       -17.0459
  18   2.0000      -0.579756       -15.7760
  19   2.0000      -0.565213       -15.3802
  20   2.0000      -0.528669       -14.3858
  21   2.0000      -0.527298       -14.3485
  22   2.0000      -0.516208       -14.0467
  23   2.0000      -0.494169       -13.4470
  24   2.0000      -0.471464       -12.8292
  25   2.0000      -0.366117        -9.9625
  26   2.0000      -0.364914        -9.9298
  27   2.0000      -0.336714        -9.1625
  28   0.0000       0.026410         0.7187
  29   0.0000       0.058593         1.5944
  30   0.0000       0.061436         1.6718
  31   0.0000       0.080889         2.2011
  32   0.0000       0.102384         2.7860

MULLIKEN ATOMIC CHARGES
-----------------------
   0 C :   -0.553088
   1 N :   -0.291160
   2 C :   -0.726324
   3 C :   -0.663498
   4 C :    0.474829
   5 H :    0.309096
   6 H :    0.339642
   7 H :    0.365723
   8 H :    0.293509
   9 H :    0.384428
  10 O :   -0.596351
  11 O :   -0.781184
  12 H :    0.372943
  13 H :    0.366791
  14 H :    0.335296
  15 H :    0.369349
Sum of atomic charges:    0.0000000

LOEWDIN ATOMIC CHARGES
----------------------
   0 C :   -0.185598
   1 N :    0.139069
   2 C :   -0.208410
   3 C :   -0.134007
   4 C :   -0.679681
   5 H :    0.129047
   6 H :    0.121630
   7 H :    0.169527
   8 H :   -0.005398
   9 H :    0.173905
  10 O :    0.021733
  11 O :   -0.064140
  12 H :    0.139875
  13 H :    0.127409
  14 H :    0.132671
  15 H :    0.122368

  Mayer bond orders larger than 0.100000
B(  0-C ,  1-N ) :   0.8582 B(  0-C ,  2-C ) :   0.7423 B(  0-C , 12-H ) :   0.8964
B(  0-C , 13-H ) :   0.9370 B(  1-N ,  7-H ) :   0.8667 B(  1-N ,  8-H ) :   0.7991
B(  1-N ,  9-H ) :   0.8397 B(  1-N , 11-O ) :  -0.1460 B(  2-C ,  3-C ) :   0.6586
B(  2-C , 14-H ) :   0.9260 B(  2-C , 15-H ) :   0.9396 B(  3-C ,  4-C ) :   1.0344
B(  3-C ,  5-H ) :   0.9167 B(  3-C ,  6-H ) :   0.9735 B(  4-C , 10-O ) :   1.5641
B(  4-C , 11-O ) :   1.2108 B(  8-H , 11-O ) :   0.1683

FINAL SINGLE POINT ENERGY      -362.098548653587

DIPOLE MOMENT
-------------
                                X             Y             Z
Electronic contribution:     -5.71999       0.91745       2.49421
Nuclear contribution   :      9.92875      -2.62114      -2.63866
                        -----------------------------------------
Total Dipole Moment    :      4.20876      -1.70369      -0.14445
                        -----------------------------------------
Magnitude (a.u.)       :      4.54281
Magnitude (Debye)      :     11.54689

Rotational constants in cm-1:     0.159108     0.062474     0.047603
Rotational constants in MHz :  4769.938632  1872.932224  1427.103830

                             ****ORCA TERMINATED NORMALLY****
TOTAL RUN TIME: 0 days 0 hours 1 minutes 25 seconds 527 msec
