                         Program Version 5.0.0 -  RELEASE  -
|  1> !LC-PBE RIJCOSX def2-TZVPD def2/J TightSCF
|  2> *xyz 0 1
|  3> C          0.13297        2.38587       -4.02462
|  4> C         -1.36646        2.47911       -4.31393
|  5> C         -2.35773        2.30686       -3.13675
|  6> H         -1.63680        1.72709       -5.06399
|  7> H         -1.58235        3.44561       -4.76869
|  8> F         -3.44376        2.84652       -3.25274
|  9> O         -1.97092        1.58304       -2.15123
| 10> H          0.68084        2.52514       -4.93310
| 11> H          0.35823        1.42282       -3.61633
| 12> H          0.40851        3.14443       -3.32208
| 13> *
| 14> %MaxCore 64000
| 15>
| 16> %pal nprocs 4
| 17> end
| 18>
| 19> %scf
| 20>   MaxIter 150
| 21> end
| 22>
| 23>
| 24>                          ****END OF INPUT****

CARTESIAN COORDINATES (ANGSTROEM)
---------------------------------
  C      0.132970    2.385870   -4.024620
  C     -1.366460    2.479110   -4.313930
  C     -2.357730    2.306860   -3.136750
  H     -1.636800    1.727090   -5.063990
  H     -1.582350    3.445610   -4.768690
  F     -3.443760    2.846520   -3.252740
  O     -1.970920    1.583040   -2.151230
  H      0.680840    2.525140   -4.933100
  H      0.358230    1.422820   -3.616330
  H      0.408510    3.144430   -3.322080

 Total Charge           Charge          ....    0
 Multiplicity           Mult            ....    1
 Number of Electrons    NEL             ....   40
 Basis Dimension        Dim             ....  236

ORBITAL ENERGIES
----------------

  NO   OCC          E(Eh)            E(eV)
   0   2.0000     -24.577617      -668.7910
   1   2.0000     -18.980637      -516.4894
   2   2.0000     -10.307215      -280.4736
   3   2.0000     -10.151537      -276.2374
   4   2.0000     -10.114601      -275.2323
   5   2.0000      -1.508386       -41.0453
   6   2.0000      -1.183615       -32.2078
   7   2.0000      -0.976945       -26.5840
   8   2.0000      -0.864464       -23.5233
   9   2.0000      -0.807205       -21.9652
  10   2.0000      -0.724621       -19.7179
  11   2.0000      -0.704031       -19.1577
  12   2.0000      -0.658555       -17.9202
  13   2.0000      -0.613291       -16.6885
  14   2.0000      -0.573534       -15.6066
  15   2.0000      -0.529862       -14.4183
  16   2.0000      -0.508535       -13.8379
  17   2.0000      -0.506424       -13.7805
  18   2.0000      -0.477108       -12.9828
  19   2.0000      -0.424897       -11.5620
  20   0.0000       0.055756         1.5172
  21   0.0000       0.069436         1.8894
  22   0.0000       0.081135         2.2078
  23   0.0000       0.087885         2.3915
  24   0.0000       0.104543         2.8448

MULLIKEN ATOMIC CHARGES
-----------------------
   0 C :   -1.183603
   1 C :   -0.490166
   2 C :    0.533092
   3 H :    0.342593
   4 H :    0.372022
   5 F :   -0.140492
   6 O :   -0.497794
   7 H :    0.376539
   8 H :    0.344379
   9 H :    0.343429
Sum of atomic charges:   -0.0000000

LOEWDIN ATOMIC CHARGES
----------------------
   0 C :   -0.115495
   1 C :   -0.176272
   2 C :   -0.507639
   3 H :    0.130540
   4 H :    0.116590
   5 F :    0.261270
   6 O :    0.053519
   7 H :    0.076396
   8 H :    0.078969
   9 H :    0.082122

  Mayer bond orders larger than 0.100000
B(  0-C ,  1-C ) :   0.6366 B(  0-C ,  7-H ) :   0.9092 B(  0-C ,  8-H ) :   0.9487
B(  0-C ,  9-H ) :   0.9286 B(  1-C ,  2-C ) :   0.9438 B(  1-C ,  3-H ) :   0.8917
B(  1-C ,  4-H ) :   0.8904 B(  2-C ,  5-F ) :   1.0724 B(  2-C ,  6-O ) :   1.7157

FINAL SINGLE POINT ENERGY      -291.684159080934

DIPOLE MOMENT
-------------
                                X             Y             Z
Electronic contribution:     -8.36373       0.49682       3.52643
Nuclear contribution   :      8.54799       0.05434      -4.66633
                        -----------------------------------------
Total Dipole Moment    :      0.18425       0.55116      -1.13989
                        -----------------------------------------
Magnitude (a.u.)       :      1.27949
Magnitude (Debye)      :      3.25219

Rotational constants in cm-1:     0.325803     0.123345     0.094275
Rotational constants in MHz :  9767.324172  3697.779805  2826.305733

                             ****ORCA TERMINATED NORMALLY****
TOTAL RUN TIME: 0 days 0 hours 0 minutes 33 seconds 376 msec
