                         Program Version 5.0.0 -  RELEASE  -
|  1> !LC-PBE RIJCOSX def2-TZVPD def2/J TightSCF
|  2> *xyz 0 1
|  3> C          0.64866        1.00359       -3.64560
|  4> C          0.28128        0.67645       -2.24018
|  5> C          0.13297        2.38587       -4.02462
|  6> H          0.39079       -0.31925       -2.02649
|  7> H         -0.69269        0.99010       -2.13812
|  8> H          0.85421        1.21221       -1.57528
|  9> H          0.19099        0.23965       -4.27575
| 10> H          1.73157        0.93173       -3.75075
| 11> H          0.40589        2.60338       -5.03610
| 12> H          0.56342        3.11797       -3.37374
| 13> H         -0.93265        2.40724       -3.93025
| 14> *
| 15> %MaxCore 64000
| 16>
| 17> %pal nprocs 4
| 18> end
| 19>
| 20> %scf
| 21>   MaxIter 150
| 22> end
| 23>
| 24>
| 25>                          ****END OF INPUT****

CARTESIAN COORDINATES (ANGSTROEM)
---------------------------------
  C      0.648660    1.003590   -3.645600
  C      0.281280    0.676450   -2.240180
  C      0.132970    2.385870   -4.024620
  H      0.390790   -0.319250   -2.026490
  H     -0.692690    0.990100   -2.138120
  H      0.854210    1.212210   -1.575280
  H      0.190990    0.239650   -4.275750
  H      1.731570    0.931730   -3.750750
  H      0.405890    2.603380   -5.036100
  H      0.563420    3.117970   -3.373740
  H     -0.932650    2.407240   -3.930250

 Total Charge           Charge          ....    0
 Multiplicity           Mult            ....    1
 Number of Electrons    NEL             ....   26
 Basis Dimension        Dim             ....  183

ORBITAL ENERGIES
----------------

  NO   OCC          E(Eh)            E(eV)
   0   2.0000     -10.100196      -274.8403
   1   2.0000     -10.090057      -274.5644
   2   2.0000     -10.070602      -274.0350
   3   2.0000      -0.973298       -26.4848
   4   2.0000      -0.858217       -23.3533
   5   2.0000      -0.745236       -20.2789
   6   2.0000      -0.616537       -16.7768
   7   2.0000      -0.594946       -16.1893
   8   2.0000      -0.540570       -14.7097
   9   2.0000      -0.521758       -14.1977
  10   2.0000      -0.467544       -12.7225
  11   2.0000      -0.463383       -12.6093
  12   2.0000      -0.453311       -12.3352
  13   0.0000       0.074739         2.0337
  14   0.0000       0.092048         2.5047
  15   0.0000       0.094285         2.5656
  16   0.0000       0.125856         3.4247
  17   0.0000       0.146335         3.9820

MULLIKEN ATOMIC CHARGES
-----------------------
   0 C :   -0.318052
   1 C :   -1.297277
   2 C :   -1.217464
   3 H :    0.358239
   4 H :    0.375745
   5 H :    0.384365
   6 H :    0.321905
   7 H :    0.318809
   8 H :    0.333822
   9 H :    0.351966
  10 H :    0.387941
Sum of atomic charges:    0.0000000

LOEWDIN ATOMIC CHARGES
----------------------
   0 C :   -0.339539
   1 C :   -0.149170
   2 C :   -0.141432
   3 H :    0.059408
   4 H :    0.061211
   5 H :    0.064909
   6 H :    0.111548
   7 H :    0.111448
   8 H :    0.069704
   9 H :    0.077051
  10 H :    0.074862

  Mayer bond orders larger than 0.100000
B(  0-C ,  1-C ) :   0.5531 B(  0-C ,  2-C ) :   0.5917 B(  0-C ,  6-H ) :   0.9328
B(  0-C ,  7-H ) :   0.9112 B(  1-C ,  3-H ) :   0.9515 B(  1-C ,  4-H ) :   0.9062
B(  1-C ,  5-H ) :   0.9284 B(  2-C ,  8-H ) :   0.9773 B(  2-C ,  9-H ) :   0.9376
B(  2-C , 10-H ) :   0.9025

FINAL SINGLE POINT ENERGY      -118.736886703533

DIPOLE MOMENT
-------------
                                X             Y             Z
Electronic contribution:      0.25931      -0.27803      -0.24580
Nuclear contribution   :     -0.24754       0.26111       0.24628
                        -----------------------------------------
Total Dipole Moment    :      0.01177      -0.01692       0.00047
                        -----------------------------------------
Magnitude (a.u.)       :      0.02062
Magnitude (Debye)      :      0.05240

Rotational constants in cm-1:     1.006509     0.299509     0.263145
Rotational constants in MHz : 30174.379724  8979.049324  7888.875355

                             ****ORCA TERMINATED NORMALLY****
TOTAL RUN TIME: 0 days 0 hours 0 minutes 16 seconds 685 msec
