                         Program Version 5.0.0 -  RELEASE  -
|  1> !LC-PBE RIJCOSX def2-TZVPD def2/J TightSCF
|  2> *xyz 0 1
|  3> C          0.13297        2.38587       -4.02462
|  4> C         -1.36646        2.47911       -4.31393
|  5> C         -2.35773        2.30686       -3.13675
|  6> H         -1.63680        1.72709       -5.06399
|  7> H         -1.58235        3.44561       -4.76869
|  8> O         -3.44376        2.84652       -3.25274
|  9> F         -1.97092        1.58304       -2.15123
| 10> H          0.68084        2.52514       -4.93310
| 11> H          0.35823        1.42282       -3.61633
| 12> H          0.40851        3.14443       -3.32208
| 13> *
| 14> %MaxCore 64000
| 15>
| 16> %pal nprocs 4
| 17> end
| 18>
| 19> %scf
| 20>   MaxIter 150
| 21> end
| 22>
| 23>
| 24>                          ****END OF INPUT****

CARTESIAN COORDINATES (ANGSTROEM)
---------------------------------
  C      0.132970    2.385870   -4.024620
  C     -1.366460    2.479110   -4.313930
  C     -2.357730    2.306860   -3.136750
  H     -1.636800    1.727090   -5.063990
  H     -1.582350    3.445610   -4.768690
  O     -3.443760    2.846520   -3.252740
  F     -1.970920    1.583040   -2.151230
  H      0.680840    2.525140   -4.933100
  H      0.358230    1.422820   -3.616330
  H      0.408510    3.144430   -3.322080

 Total Charge           Charge          ....    0
 Multiplicity           Mult            ....    1
 Number of Electrons    NEL             ....   40
 Basis Dimension        Dim             ....  236

ORBITAL ENERGIES
----------------

  NO   OCC          E(Eh)            E(eV)
   0   2.0000     -24.553188      -668.1262
   1   2.0000     -18.990388      -516.7547
   2   2.0000     -10.300982      -280.3040
   3   2.0000     -10.149726      -276.1881
   4   2.0000     -10.119793      -275.3736
   5   2.0000      -1.460198       -39.7340
   6   2.0000      -1.223132       -33.2831
   7   2.0000      -0.979733       -26.6599
   8   2.0000      -0.847191       -23.0532
   9   2.0000      -0.797165       -21.6920
  10   2.0000      -0.698429       -19.0052
  11   2.0000      -0.692225       -18.8364
  12   2.0000      -0.647210       -17.6115
  13   2.0000      -0.612917       -16.6783
  14   2.0000      -0.576061       -15.6754
  15   2.0000      -0.547952       -14.9105
  16   2.0000      -0.529761       -14.4155
  17   2.0000      -0.509174       -13.8553
  18   2.0000      -0.487911       -13.2767
  19   2.0000      -0.434170       -11.8144
  20   0.0000       0.056076         1.5259
  21   0.0000       0.074388         2.0242
  22   0.0000       0.080992         2.2039
  23   0.0000       0.087307         2.3757
  24   0.0000       0.104052         2.8314

MULLIKEN ATOMIC CHARGES
-----------------------
   0 C :   -1.203682
   1 C :   -0.409895
   2 C :    0.455945
   3 H :    0.339384
   4 H :    0.341245
   5 O :   -0.433032
   6 F :   -0.176793
   7 H :    0.363715
   8 H :    0.360182
   9 H :    0.362931
Sum of atomic charges:    0.0000000

LOEWDIN ATOMIC CHARGES
----------------------
   0 C :   -0.122346
   1 C :   -0.168941
   2 C :   -0.498806
   3 H :    0.131123
   4 H :    0.124001
   5 O :    0.112844
   6 F :    0.189685
   7 H :    0.076593
   8 H :    0.075675
   9 H :    0.080172

  Mayer bond orders larger than 0.100000
B(  0-C ,  1-C ) :   0.5658 B(  0-C ,  7-H ) :   0.9361 B(  0-C ,  8-H ) :   0.9271
B(  0-C ,  9-H ) :   0.9252 B(  1-C ,  2-C ) :   0.9307 B(  1-C ,  3-H ) :   0.8947
B(  1-C ,  4-H ) :   0.9143 B(  2-C ,  5-O ) :   1.7868 B(  2-C ,  6-F ) :   1.0341

FINAL SINGLE POINT ENERGY      -291.702559079353

DIPOLE MOMENT
-------------
                                X             Y             Z
Electronic contribution:     -5.85776      -1.63143       5.36889
Nuclear contribution   :      6.94213       1.43193      -5.86732
                        -----------------------------------------
Total Dipole Moment    :      1.08438      -0.19950      -0.49843
                        -----------------------------------------
Magnitude (a.u.)       :      1.21000
Magnitude (Debye)      :      3.07558

Rotational constants in cm-1:     0.306336     0.129048     0.095707
Rotational constants in MHz :  9183.725605  3868.769583  2869.236577

                             ****ORCA TERMINATED NORMALLY****
TOTAL RUN TIME: 0 days 0 hours 0 minutes 34 seconds 305 msec
