                         Program Version 5.0.0 -  RELEASE  -
|  1> !LC-PBE RIJCOSX def2-TZVPD def2/J TightSCF xyzfile
|  2>
|  3> *xyzfile 0 1 D1.xyz
|  4>
|  5> %MaxCore 64000
|  6>
|  7> %pal nprocs 4
|  8> end
|  9>
| 10> %scf
| 11>   MaxIter 150
| 12> end
| 13>
| 14>
| 15>                          ****END OF INPUT****

CARTESIAN COORDINATES (ANGSTROEM)
---------------------------------
  C      0.648656    1.003595   -3.645601
  C      0.281280    0.676454   -2.240179
  C      0.132968    2.385869   -4.024618
  C     -1.366462    2.479106   -4.313932
  C     -2.357732    2.306858   -3.136753
  H     -1.636802    1.727095   -5.063993
  H     -1.582347    3.445605   -4.768687
  H      0.390790   -0.319253   -2.026495
  H     -0.692686    0.990104   -2.138123
  H      0.854206    1.212214   -1.575279
  F     -3.443763    2.846518   -3.252744
  O     -1.970922    1.583042   -2.151229
  H      0.190993    0.239655   -4.275752
  H      1.731572    0.931729   -3.750751
  H      0.414839    3.102847   -3.245165
  H      0.683167    2.687560   -4.919721

 Total Charge           Charge          ....    0
 Multiplicity           Mult            ....    1
 Number of Electrons    NEL             ....   56
 Basis Dimension        Dim             ....  346

ORBITAL ENERGIES
----------------

  NO   OCC          E(Eh)            E(eV)
   0   2.0000     -24.588559      -669.0887
   1   2.0000     -18.989032      -516.7178
   2   2.0000     -10.322527      -280.8902
   3   2.0000     -10.156161      -276.3632
   4   2.0000     -10.124121      -275.4913
   5   2.0000     -10.094530      -274.6861
   6   2.0000     -10.019551      -272.6459
   7   2.0000      -1.519175       -41.3389
   8   2.0000      -1.207742       -32.8643
   9   2.0000      -0.998401       -27.1679
  10   2.0000      -0.933292       -25.3962
  11   2.0000      -0.853761       -23.2320
  12   2.0000      -0.823984       -22.4218
  13   2.0000      -0.743870       -20.2417
  14   2.0000      -0.731404       -19.9025
  15   2.0000      -0.715177       -19.4610
  16   2.0000      -0.678069       -18.4512
  17   2.0000      -0.632774       -17.2186
  18   2.0000      -0.595760       -16.2115
  19   2.0000      -0.578523       -15.7424
  20   2.0000      -0.551024       -14.9941
  21   2.0000      -0.520480       -14.1630
  22   2.0000      -0.513189       -13.9646
  23   2.0000      -0.489774       -13.3274
  24   2.0000      -0.475530       -12.9398
  25   2.0000      -0.447627       -12.1805
  26   2.0000      -0.439590       -11.9618
  27   2.0000      -0.374074       -10.1791
  28   0.0000       0.050682         1.3791
  29   0.0000       0.059551         1.6205
  30   0.0000       0.078909         2.1472
  31   0.0000       0.082739         2.2514
  32   0.0000       0.088472         2.4075

MULLIKEN ATOMIC CHARGES
-----------------------
   0 C :   -0.468077
   1 C :   -1.187644
   2 C :   -0.722643
   3 C :   -0.632885
   4 C :    0.598730
   5 H :    0.365793
   6 H :    0.381632
   7 H :    0.393793
   8 H :    0.266221
   9 H :    0.419444
  10 F :   -0.179679
  11 O :   -0.517560
  12 H :    0.320001
  13 H :    0.301705
  14 H :    0.328884
  15 H :    0.332287
Sum of atomic charges:   -0.0000000

LOEWDIN ATOMIC CHARGES
----------------------
   0 C :   -0.270861
   1 C :   -0.144023
   2 C :   -0.219686
   3 C :   -0.104743
   4 C :   -0.435436
   5 H :    0.140399
   6 H :    0.122920
   7 H :    0.065365
   8 H :   -0.052366
   9 H :    0.071731
  10 F :    0.277648
  11 O :    0.063339
  12 H :    0.120055
  13 H :    0.113788
  14 H :    0.133324
  15 H :    0.118548

  Mayer bond orders larger than 0.100000
B(  0-C ,  1-C ) :   0.5582 B(  0-C ,  2-C ) :   0.7568 B(  0-C , 12-H ) :   0.9353
B(  0-C , 13-H ) :   0.9651 B(  1-C ,  7-H ) :   1.0121 B(  1-C ,  8-H ) :   1.0373
B(  1-C ,  9-H ) :   1.0117 B(  2-C ,  3-C ) :   0.7466 B(  2-C , 14-H ) :   0.9291
B(  2-C , 15-H ) :   0.9687 B(  3-C ,  4-C ) :   0.9347 B(  3-C ,  5-H ) :   0.8967
B(  3-C ,  6-H ) :   0.9095 B(  4-C , 10-F ) :   1.0419 B(  4-C , 11-O ) :   1.6873
B(  8-H , 11-O ) :  -0.3279

FINAL SINGLE POINT ENERGY      -370.005795651606

DIPOLE MOMENT
-------------
                                X             Y             Z
Electronic contribution:    -12.99375       4.60866       1.37203
Nuclear contribution   :     12.79331      -3.91961      -2.45895
                        -----------------------------------------
Total Dipole Moment    :     -0.20044       0.68905      -1.08692
                        -----------------------------------------
Magnitude (a.u.)       :      1.30244
Magnitude (Debye)      :      3.31054

Rotational constants in cm-1:     0.162888     0.059977     0.046450
Rotational constants in MHz :  4883.250030  1798.063289  1392.548669

                             ****ORCA TERMINATED NORMALLY****
TOTAL RUN TIME: 0 days 0 hours 1 minutes 16 seconds 798 msec
