                         Program Version 5.0.0 -  RELEASE  -
|  1> !LC-PBE RIJCOSX def2-TZVPD def2/J TightSCF xyzfile
|  2>
|  3> *xyzfile 0 1 D2.xyz
|  4>
|  5> %MaxCore 64000
|  6>
|  7> %pal nprocs 4
|  8> end
|  9>
| 10> %scf
| 11>   MaxIter 150
| 12> end
| 13>
| 14>
| 15>                          ****END OF INPUT****

CARTESIAN COORDINATES (ANGSTROEM)
---------------------------------
  C      0.648656    1.003595   -3.645601
  C      0.281280    0.676454   -2.240179
  C      0.132968    2.385869   -4.024618
  C     -1.366462    2.479106   -4.313932
  C     -2.357732    2.306858   -3.136753
  H     -1.636802    1.727095   -5.063993
  H     -1.582347    3.445605   -4.768687
  H      0.390790   -0.319253   -2.026495
  H     -0.692686    0.990104   -2.138123
  H      0.854206    1.212214   -1.575279
  O     -3.443763    2.846518   -3.252744
  F     -1.970922    1.583042   -2.151229
  H      0.190993    0.239655   -4.275752
  H      1.731572    0.931729   -3.750751
  H      0.414839    3.102847   -3.245165
  H      0.683167    2.687560   -4.919721

 Total Charge           Charge          ....    0
 Multiplicity           Mult            ....    1
 Number of Electrons    NEL             ....   56
 Basis Dimension        Dim             ....  346

ORBITAL ENERGIES
----------------

  NO   OCC          E(Eh)            E(eV)
   0   2.0000     -24.564505      -668.4342
   1   2.0000     -18.997756      -516.9552
   2   2.0000     -10.308651      -280.5127
   3   2.0000     -10.151989      -276.2497
   4   2.0000     -10.128153      -275.6010
   5   2.0000     -10.108699      -275.0717
   6   2.0000     -10.052907      -273.5535
   7   2.0000      -1.482107       -40.3302
   8   2.0000      -1.231164       -33.5017
   9   2.0000      -1.007792       -27.4234
  10   2.0000      -0.939620       -25.5684
  11   2.0000      -0.846153       -23.0250
  12   2.0000      -0.839403       -22.8413
  13   2.0000      -0.745402       -20.2834
  14   2.0000      -0.719982       -19.5917
  15   2.0000      -0.708495       -19.2791
  16   2.0000      -0.659126       -17.9357
  17   2.0000      -0.620859       -16.8944
  18   2.0000      -0.599424       -16.3112
  19   2.0000      -0.592417       -16.1205
  20   2.0000      -0.562879       -15.3167
  21   2.0000      -0.530576       -14.4377
  22   2.0000      -0.522000       -14.2043
  23   2.0000      -0.499416       -13.5898
  24   2.0000      -0.470317       -12.7980
  25   2.0000      -0.461148       -12.5485
  26   2.0000      -0.454051       -12.3554
  27   2.0000      -0.423809       -11.5324
  28   0.0000       0.057078         1.5532
  29   0.0000       0.068036         1.8514
  30   0.0000       0.078078         2.1246
  31   0.0000       0.081988         2.2310
  32   0.0000       0.083122         2.2619

MULLIKEN ATOMIC CHARGES
-----------------------
   0 C :   -0.449655
   1 C :   -1.342063
   2 C :   -0.728327
   3 C :   -0.549206
   4 C :    0.510016
   5 H :    0.350424
   6 H :    0.342804
   7 H :    0.408038
   8 H :    0.394803
   9 H :    0.437386
  10 O :   -0.466822
  11 F :   -0.224700
  12 H :    0.333327
  13 H :    0.311159
  14 H :    0.337261
  15 H :    0.335555
Sum of atomic charges:    0.0000000

LOEWDIN ATOMIC CHARGES
----------------------
   0 C :   -0.271044
   1 C :   -0.125432
   2 C :   -0.226877
   3 C :   -0.104069
   4 C :   -0.458565
   5 H :    0.140127
   6 H :    0.129843
   7 H :    0.068671
   8 H :   -0.011199
   9 H :    0.074691
  10 O :    0.127866
  11 F :    0.167918
  12 H :    0.121178
  13 H :    0.116246
  14 H :    0.131563
  15 H :    0.119083

  Mayer bond orders larger than 0.100000
B(  0-C ,  1-C ) :   0.5546 B(  0-C ,  2-C ) :   0.7123 B(  0-C ,  8-H ) :  -0.1060
B(  0-C , 12-H ) :   0.9420 B(  0-C , 13-H ) :   0.9556 B(  1-C ,  7-H ) :   0.9591
B(  1-C ,  8-H ) :   0.9454 B(  1-C ,  9-H ) :   0.9478 B(  1-C , 11-F ) :   0.1594
B(  2-C ,  3-C ) :   0.6958 B(  2-C , 14-H ) :   0.9491 B(  2-C , 15-H ) :   0.9707
B(  3-C ,  4-C ) :   0.9180 B(  3-C ,  5-H ) :   0.8994 B(  3-C ,  6-H ) :   0.9631
B(  4-C , 10-O ) :   1.7448 B(  4-C , 11-F ) :   1.0049 B(  8-H , 11-F ) :  -0.2830

FINAL SINGLE POINT ENERGY      -370.025510671423

DIPOLE MOMENT
-------------
                                X             Y             Z
Electronic contribution:    -10.23100       2.33372       3.27565
Nuclear contribution   :     11.08738      -2.45618      -3.73478
                        -----------------------------------------
Total Dipole Moment    :      0.85639      -0.12246      -0.45914
                        -----------------------------------------
Magnitude (a.u.)       :      0.97939
Magnitude (Debye)      :      2.48940

Rotational constants in cm-1:     0.156244     0.063730     0.048063
Rotational constants in MHz :  4684.071402  1910.571278  1440.877811

                             ****ORCA TERMINATED NORMALLY****
TOTAL RUN TIME: 0 days 0 hours 1 minutes 17 seconds 378 msec
