                         Program Version 5.0.0 -  RELEASE  -
|  1> !LC-PBE RIJCOSX def2-SVPD def2/J TightSCF
|  2> *xyz -1 1
|  3> C          4.26524        2.50052       -0.79589
|  4> C          4.98224        1.65026        0.24742
|  5> O          4.36806        1.38927        1.31371
|  6> O          6.12892        1.23351       -0.04562
|  7> H          4.90412        2.63966       -1.64287
|  8> H          4.02079        3.45265       -0.37328
|  9> H          3.36773        2.00584       -1.10356
| 10> *
| 11> %MaxCore 64000
| 12> %pal nprocs 8
| 13> end
| 14> %scf
| 15>   MaxIter 150
| 16> end
| 17>
| 18>
| 19>                          ****END OF INPUT****

CARTESIAN COORDINATES (ANGSTROEM)
---------------------------------
  C      4.265240    2.500520   -0.795890
  C      4.982240    1.650260    0.247420
  O      4.368060    1.389270    1.313710
  O      6.128920    1.233510   -0.045620
  H      4.904120    2.639660   -1.642870
  H      4.020790    3.452650   -0.373280
  H      3.367730    2.005840   -1.103560

 Total Charge           Charge          ....   -1
 Multiplicity           Mult            ....    1
 Number of Electrons    NEL             ....   32
 Basis Dimension        Dim             ....  110

ORBITAL ENERGIES
----------------

  NO   OCC          E(Eh)            E(eV)
   0   2.0000     -18.724139      -509.5097
   1   2.0000     -18.722919      -509.4765
   2   2.0000     -10.017698      -272.5954
   3   2.0000      -9.939752      -270.4744
   4   2.0000      -0.977464       -26.5981
   5   2.0000      -0.873490       -23.7689
   6   2.0000      -0.712289       -19.3824
   7   2.0000      -0.451322       -12.2811
   8   2.0000      -0.407178       -11.0799
   9   2.0000      -0.388905       -10.5826
  10   2.0000      -0.372571       -10.1382
  11   2.0000      -0.324131        -8.8200
  12   2.0000      -0.308131        -8.3847
  13   2.0000      -0.175996        -4.7891
  14   2.0000      -0.173865        -4.7311
  15   2.0000      -0.160269        -4.3612
  16   0.0000       0.237229         6.4553
  17   0.0000       0.270185         7.3521
  18   0.0000       0.297090         8.0842
  19   0.0000       0.306931         8.3520
  20   0.0000       0.333027         9.0621

MULLIKEN ATOMIC CHARGES
-----------------------
   0 C :    0.246163
   1 C :   -0.044658
   2 O :   -0.623439
   3 O :   -0.602955
   4 H :   -0.000016
   5 H :    0.012937
   6 H :    0.011968
Sum of atomic charges:   -1.0000000

LOEWDIN ATOMIC CHARGES
----------------------
   0 C :    0.107817
   1 C :   -0.359862
   2 O :   -0.340767
   3 O :   -0.336465
   4 H :   -0.028546
   5 H :   -0.021687
   6 H :   -0.020489

  Mayer bond orders larger than 0.100000
B(  0-C ,  1-C ) :   1.2026 B(  0-C ,  4-H ) :   0.8948 B(  0-C ,  5-H ) :   0.8466
B(  0-C ,  6-H ) :   0.8520 B(  1-C ,  2-O ) :   1.5718 B(  1-C ,  3-O ) :   1.5720
B(  1-C ,  4-H ) :   0.2052 B(  1-C ,  5-H ) :   0.1326 B(  1-C ,  6-H ) :   0.1285

FINAL SINGLE POINT ENERGY      -227.726327071756

DIPOLE MOMENT
-------------
                                X             Y             Z
Electronic contribution:      1.64806      -1.95135       2.37339
Nuclear contribution   :     -2.34880       2.82033      -3.41655
                        -----------------------------------------
Total Dipole Moment    :     -0.70074       0.86897      -1.04316
                        -----------------------------------------
Magnitude (a.u.)       :      1.52785
Magnitude (Debye)      :      3.88348

Rotational constants in cm-1:     0.393413     0.334516     0.186969
Rotational constants in MHz : 11794.232386 10028.538646  5605.197050

                             ****ORCA TERMINATED NORMALLY****
TOTAL RUN TIME: 0 days 0 hours 0 minutes 5 seconds 227 msec
