                         Program Version 5.0.0 -  RELEASE  -
|  1> !LC-PBE RIJCOSX def2-SVPD def2/J TightSCF
|  2> *xyz 1 1
|  3> C          3.91385       -1.65829        3.01513
|  4> N          5.03927       -0.90115        2.49282
|  5> C          6.21038       -1.41726        2.17824
|  6> N          6.53591       -2.67712        2.55608
|  7> N          7.07675       -0.70082        1.47891
|  8> H          7.95464       -1.12155        1.20755
|  9> H          6.75616        0.10664        0.96028
| 10> H          4.84217        0.01761        2.11519
| 11> H          5.99388       -3.12692        3.28278
| 12> H          7.49844       -2.97548        2.46878
| 13> H          3.08844       -0.99893        3.18495
| 14> H          4.19412       -2.12366        3.93697
| 15> H          3.63051       -2.40965        2.30798
| 16> *
| 17> %MaxCore 64000
| 18> %pal nprocs 8
| 19> end
| 20> %scf
| 21>   MaxIter 150
| 22> end
| 23>
| 24>
| 25>                          ****END OF INPUT****

CARTESIAN COORDINATES (ANGSTROEM)
---------------------------------
  C      3.913850   -1.658290    3.015130
  N      5.039270   -0.901150    2.492820
  C      6.210380   -1.417260    2.178240
  N      6.535910   -2.677120    2.556080
  N      7.076750   -0.700820    1.478910
  H      7.954640   -1.121550    1.207550
  H      6.756160    0.106640    0.960280
  H      4.842170    0.017610    2.115190
  H      5.993880   -3.126920    3.282780
  H      7.498440   -2.975480    2.468780
  H      3.088440   -0.998930    3.184950
  H      4.194120   -2.123660    3.936970
  H      3.630510   -2.409650    2.307980

 Total Charge           Charge          ....    1
 Multiplicity           Mult            ....    1
 Number of Electrons    NEL             ....   40
 Basis Dimension        Dim             ....  164

ORBITAL ENERGIES
----------------

  NO   OCC          E(Eh)            E(eV)
   0   2.0000     -14.465587      -393.6286
   1   2.0000     -14.458752      -393.4426
   2   2.0000     -14.457366      -393.4049
   3   2.0000     -10.478789      -285.1423
   4   2.0000     -10.332878      -281.1719
   5   2.0000      -1.396235       -37.9935
   6   2.0000      -1.277305       -34.7572
   7   2.0000      -1.258332       -34.2409
   8   2.0000      -1.075012       -29.2526
   9   2.0000      -0.984746       -26.7963
  10   2.0000      -0.945380       -25.7251
  11   2.0000      -0.908252       -24.7148
  12   2.0000      -0.841752       -22.9052
  13   2.0000      -0.833336       -22.6762
  14   2.0000      -0.811435       -22.0803
  15   2.0000      -0.787691       -21.4342
  16   2.0000      -0.737758       -20.0754
  17   2.0000      -0.717643       -19.5281
  18   2.0000      -0.618119       -16.8199
  19   2.0000      -0.589651       -16.0452
  20   0.0000      -0.084743        -2.3060
  21   0.0000      -0.077669        -2.1135
  22   0.0000      -0.038823        -1.0564
  23   0.0000      -0.038174        -1.0388
  24   0.0000      -0.007712        -0.2098

MULLIKEN ATOMIC CHARGES
-----------------------
   0 C :    0.774855
   1 N :   -0.541198
   2 C :    1.260248
   3 N :   -0.131394
   4 N :   -0.130029
   5 H :    0.016924
   6 H :    0.009958
   7 H :   -0.145644
   8 H :   -0.004777
   9 H :   -0.036551
  10 H :   -0.155235
  11 H :    0.023699
  12 H :    0.059145
Sum of atomic charges:    1.0000000

LOEWDIN ATOMIC CHARGES
----------------------
   0 C :    0.221416
   1 N :    0.005634
   2 C :   -0.034919
   3 N :    0.264429
   4 N :    0.245390
   5 H :    0.049170
   6 H :    0.051168
   7 H :    0.069107
   8 H :    0.027130
   9 H :    0.044504
  10 H :    0.025220
  11 H :    0.010093
  12 H :    0.021659

  Mayer bond orders larger than 0.100000
B(  0-C ,  1-N ) :   0.9547 B(  0-C ,  7-H ) :  -0.1011 B(  0-C , 10-H ) :   0.8918
B(  0-C , 11-H ) :   0.8559 B(  0-C , 12-H ) :   0.8615 B(  1-N ,  2-C ) :   1.0774
B(  1-N ,  3-N ) :   0.2131 B(  1-N ,  4-N ) :   0.2145 B(  1-N ,  7-H ) :   1.2661
B(  1-N , 10-H ) :   0.1481 B(  1-N , 11-H ) :   0.1279 B(  2-C ,  3-N ) :   0.9448
B(  2-C ,  4-N ) :   0.8676 B(  2-C ,  5-H ) :  -0.1013 B(  2-C ,  6-H ) :  -0.1316
B(  2-C ,  7-H ) :  -0.2108 B(  2-C ,  8-H ) :  -0.1217 B(  2-C ,  9-H ) :  -0.1069
B(  3-N ,  4-N ) :   0.1377 B(  3-N ,  8-H ) :   1.0828 B(  3-N ,  9-H ) :   1.1848
B(  4-N ,  5-H ) :   1.1422 B(  4-N ,  6-H ) :   1.1577 B(  5-H ,  6-H ) :  -0.1452
B(  8-H ,  9-H ) :  -0.1560

FINAL SINGLE POINT ENERGY      -244.162432613097

DIPOLE MOMENT
-------------
                                X             Y             Z
Electronic contribution:      2.43322       0.85592      -0.96943
Nuclear contribution   :     -2.01473      -0.74897       0.69347
                        -----------------------------------------
Total Dipole Moment    :      0.41849       0.10695      -0.27596
                        -----------------------------------------
Magnitude (a.u.)       :      0.51257
Magnitude (Debye)      :      1.30286

Rotational constants in cm-1:     0.313249     0.134439     0.096258
Rotational constants in MHz :  9390.961986  4030.377472  2885.728233

                             ****ORCA TERMINATED NORMALLY****
TOTAL RUN TIME: 0 days 0 hours 0 minutes 10 seconds 632 msec
