                         Program Version 5.0.0 -  RELEASE  -
|  1> !LC-PBE RIJCOSX def2-SVPD def2/J TightSCF
|  2> *xyz 0 1
|  3> C          4.26524        2.50052       -0.79589
|  4> C          4.98224        1.65026        0.24742
|  5> F          4.36806        1.38927        1.31371
|  6> O          6.12892        1.23351       -0.04562
|  7> H          4.90412        2.63966       -1.64287
|  8> H          4.02079        3.45265       -0.37328
|  9> H          3.36773        2.00584       -1.10356
| 10> *
| 11> %MaxCore 64000
| 12> %pal nprocs 8
| 13> end
| 14> %scf
| 15>   MaxIter 150
| 16> end
| 17>
| 18>
| 19>                          ****END OF INPUT****

CARTESIAN COORDINATES (ANGSTROEM)
---------------------------------
  C      4.265240    2.500520   -0.795890
  C      4.982240    1.650260    0.247420
  F      4.368060    1.389270    1.313710
  O      6.128920    1.233510   -0.045620
  H      4.904120    2.639660   -1.642870
  H      4.020790    3.452650   -0.373280
  H      3.367730    2.005840   -1.103560

 Total Charge           Charge          ....    0
 Multiplicity           Mult            ....    1
 Number of Electrons    NEL             ....   32
 Basis Dimension        Dim             ....  110

ORBITAL ENERGIES
----------------

  NO   OCC          E(Eh)            E(eV)
   0   2.0000     -24.584312      -668.9731
   1   2.0000     -19.006125      -517.1830
   2   2.0000     -10.325158      -280.9618
   3   2.0000     -10.156752      -276.3793
   4   2.0000      -1.469644       -39.9911
   5   2.0000      -1.196365       -32.5548
   6   2.0000      -0.945505       -25.7285
   7   2.0000      -0.818146       -22.2629
   8   2.0000      -0.712724       -19.3942
   9   2.0000      -0.704883       -19.1808
  10   2.0000      -0.655380       -17.8338
  11   2.0000      -0.588827       -16.0228
  12   2.0000      -0.577180       -15.7059
  13   2.0000      -0.548715       -14.9313
  14   2.0000      -0.498449       -13.5635
  15   2.0000      -0.436569       -11.8797
  16   0.0000       0.066892         1.8202
  17   0.0000       0.079758         2.1703
  18   0.0000       0.118446         3.2231
  19   0.0000       0.153005         4.1635
  20   0.0000       0.160243         4.3604

MULLIKEN ATOMIC CHARGES
-----------------------
   0 C :    0.146526
   1 C :    0.330975
   2 F :   -0.316971
   3 O :   -0.403399
   4 H :    0.044347
   5 H :    0.098499
   6 H :    0.100023
Sum of atomic charges:    0.0000000

LOEWDIN ATOMIC CHARGES
----------------------
   0 C :    0.179517
   1 C :   -0.052921
   2 F :   -0.025917
   3 O :   -0.136130
   4 H :    0.012033
   5 H :    0.011025
   6 H :    0.012392

  Mayer bond orders larger than 0.100000
B(  0-C ,  1-C ) :   1.2354 B(  0-C ,  4-H ) :   0.9202 B(  0-C ,  5-H ) :   0.8332
B(  0-C ,  6-H ) :   0.8357 B(  1-C ,  2-F ) :   0.8353 B(  1-C ,  3-O ) :   1.9165
B(  1-C ,  4-H ) :   0.1638

FINAL SINGLE POINT ENERGY      -252.233053006408

DIPOLE MOMENT
-------------
                                X             Y             Z
Electronic contribution:      0.73367      -2.48841       4.29932
Nuclear contribution   :     -1.76261       3.13449      -4.58927
                        -----------------------------------------
Total Dipole Moment    :     -1.02893       0.64608      -0.28996
                        -----------------------------------------
Magnitude (a.u.)       :      1.24908
Magnitude (Debye)      :      3.17491

Rotational constants in cm-1:     0.370628     0.320375     0.177409
Rotational constants in MHz : 11111.155899  9604.607061  5318.597912

                             ****ORCA TERMINATED NORMALLY****
TOTAL RUN TIME: 0 days 0 hours 0 minutes 5 seconds 28 msec
