                         Program Version 5.0.0 -  RELEASE  -
|  1> !LC-PBE RIJCOSX def2-SVPD def2/J TightSCF
|  2> *xyz 0 1
|  3> C          3.91385       -1.65829        3.01513
|  4> C          5.03927       -0.90115        2.49282
|  5> C          6.21038       -1.41726        2.17824
|  6> N          6.53591       -2.67712        2.55608
|  7> N          7.07675       -0.70082        1.47891
|  8> H          7.95464       -1.12155        1.20755
|  9> H          6.75616        0.10664        0.96028
| 10> H          4.84217        0.01761        2.11519
| 11> H          5.99388       -3.12692        3.28278
| 12> H          7.49844       -2.97548        2.46878
| 13> H          3.08844       -0.99893        3.18495
| 14> H          4.19412       -2.12366        3.93697
| 15> H          3.63051       -2.40965        2.30798
| 16> *
| 17> %MaxCore 64000
| 18> %pal nprocs 8
| 19> end
| 20> %scf
| 21>   MaxIter 150
| 22> end
| 23>
| 24>
| 25>                          ****END OF INPUT****

CARTESIAN COORDINATES (ANGSTROEM)
---------------------------------
  C      3.913850   -1.658290    3.015130
  C      5.039270   -0.901150    2.492820
  C      6.210380   -1.417260    2.178240
  N      6.535910   -2.677120    2.556080
  N      7.076750   -0.700820    1.478910
  H      7.954640   -1.121550    1.207550
  H      6.756160    0.106640    0.960280
  H      4.842170    0.017610    2.115190
  H      5.993880   -3.126920    3.282780
  H      7.498440   -2.975480    2.468780
  H      3.088440   -0.998930    3.184950
  H      4.194120   -2.123660    3.936970
  H      3.630510   -2.409650    2.307980

 Total Charge           Charge          ....    0
 Multiplicity           Mult            ....    1
 Number of Electrons    NEL             ....   40
 Basis Dimension        Dim             ....  164

ORBITAL ENERGIES
----------------

  NO   OCC          E(Eh)            E(eV)
   0   2.0000     -14.229927      -387.2160
   1   2.0000     -14.225936      -387.1074
   2   2.0000     -10.172152      -276.7983
   3   2.0000     -10.089894      -274.5600
   4   2.0000     -10.049977      -273.4738
   5   2.0000      -1.128881       -30.7184
   6   2.0000      -1.028928       -27.9986
   7   2.0000      -0.923322       -25.1249
   8   2.0000      -0.816076       -22.2066
   9   2.0000      -0.735125       -20.0038
  10   2.0000      -0.688145       -18.7254
  11   2.0000      -0.654965       -17.8225
  12   2.0000      -0.611507       -16.6399
  13   2.0000      -0.565649       -15.3921
  14   2.0000      -0.560121       -15.2417
  15   2.0000      -0.515857       -14.0372
  16   2.0000      -0.496466       -13.5095
  17   2.0000      -0.470375       -12.7996
  18   2.0000      -0.401343       -10.9211
  19   2.0000      -0.276384        -7.5208
  20   0.0000       0.090894         2.4734
  21   0.0000       0.115454         3.1417
  22   0.0000       0.127183         3.4608
  23   0.0000       0.153659         4.1813
  24   0.0000       0.157225         4.2783

MULLIKEN ATOMIC CHARGES
-----------------------
   0 C :    0.549083
   1 C :   -0.709415
   2 C :    0.826159
   3 N :   -0.127221
   4 N :   -0.035414
   5 H :   -0.101832
   6 H :   -0.015458
   7 H :   -0.246689
   8 H :   -0.012941
   9 H :   -0.176415
  10 H :    0.005203
  11 H :    0.033050
  12 H :    0.011890
Sum of atomic charges:   -0.0000000

LOEWDIN ATOMIC CHARGES
----------------------
   0 C :    0.054122
   1 C :   -0.091702
   2 C :   -0.237510
   3 N :    0.183800
   4 N :    0.155697
   5 H :   -0.000169
   6 H :    0.016256
   7 H :   -0.040742
   8 H :   -0.004333
   9 H :   -0.003591
  10 H :   -0.007057
  11 H :   -0.018680
  12 H :   -0.006092

  Mayer bond orders larger than 0.100000
B(  0-C ,  1-C ) :   1.2087 B(  0-C ,  7-H ) :   0.1676 B(  0-C , 10-H ) :   0.8059
B(  0-C , 11-H ) :   0.7542 B(  0-C , 12-H ) :   0.7945 B(  1-C ,  2-C ) :   1.6666
B(  1-C ,  3-N ) :   0.2500 B(  1-C ,  4-N ) :   0.3051 B(  1-C ,  7-H ) :   1.0391
B(  1-C , 10-H ) :   0.2298 B(  1-C , 11-H ) :   0.2265 B(  1-C , 12-H ) :   0.1208
B(  2-C ,  3-N ) :   0.8784 B(  2-C ,  4-N ) :   0.8693 B(  2-C ,  7-H ) :   0.1114
B(  2-C ,  9-H ) :  -0.1232 B(  3-N ,  8-H ) :   1.0509 B(  3-N ,  9-H ) :   1.2590
B(  4-N ,  5-H ) :   1.1292 B(  4-N ,  6-H ) :   1.1515 B(  5-H ,  6-H ) :  -0.1406
B(  8-H ,  9-H ) :  -0.1490

FINAL SINGLE POINT ENERGY      -227.716789692113

DIPOLE MOMENT
-------------
                                X             Y             Z
Electronic contribution:      2.95991       0.35862      -1.00731
Nuclear contribution   :     -2.16157      -0.63191       0.72436
                        -----------------------------------------
Total Dipole Moment    :      0.79834      -0.27329      -0.28295
                        -----------------------------------------
Magnitude (a.u.)       :      0.89000
Magnitude (Debye)      :      2.26220

Rotational constants in cm-1:     0.318470     0.135474     0.097247
Rotational constants in MHz :  9547.495553  4061.405016  2915.385882

                             ****ORCA TERMINATED NORMALLY****
TOTAL RUN TIME: 0 days 0 hours 0 minutes 11 seconds 226 msec
