                         Program Version 5.0.0 -  RELEASE  -
|  1> !LC-PBE RIJCOSX def2-SVPD def2/J TightSCF
|  2> *xyz 0 1
|  3> C          4.26524        2.50052       -0.79589
|  4> C          4.98224        1.65026        0.24742
|  5> O          4.36806        1.38927        1.31371
|  6> F          6.12892        1.23351       -0.04562
|  7> H          4.90412        2.63966       -1.64287
|  8> H          4.02079        3.45265       -0.37328
|  9> H          3.36773        2.00584       -1.10356
| 10> *
| 11> %MaxCore 64000
| 12> %pal nprocs 8
| 13> end
| 14> %scf
| 15>   MaxIter 150
| 16> end
| 17>
| 18>
| 19>                          ****END OF INPUT****

CARTESIAN COORDINATES (ANGSTROEM)
---------------------------------
  C      4.265240    2.500520   -0.795890
  C      4.982240    1.650260    0.247420
  O      4.368060    1.389270    1.313710
  F      6.128920    1.233510   -0.045620
  H      4.904120    2.639660   -1.642870
  H      4.020790    3.452650   -0.373280
  H      3.367730    2.005840   -1.103560

 Total Charge           Charge          ....    0
 Multiplicity           Mult            ....    1
 Number of Electrons    NEL             ....   32
 Basis Dimension        Dim             ....  110

ORBITAL ENERGIES
----------------

  NO   OCC          E(Eh)            E(eV)
   0   2.0000     -24.584925      -668.9898
   1   2.0000     -19.005731      -517.1722
   2   2.0000     -10.325768      -280.9784
   3   2.0000     -10.157060      -276.3876
   4   2.0000      -1.471883       -40.0520
   5   2.0000      -1.194212       -32.4962
   6   2.0000      -0.946100       -25.7447
   7   2.0000      -0.819302       -22.2943
   8   2.0000      -0.713291       -19.4096
   9   2.0000      -0.706334       -19.2203
  10   2.0000      -0.655925       -17.8486
  11   2.0000      -0.589983       -16.0542
  12   2.0000      -0.576243       -15.6804
  13   2.0000      -0.548373       -14.9220
  14   2.0000      -0.494622       -13.4594
  15   2.0000      -0.438037       -11.9196
  16   0.0000       0.063035         1.7153
  17   0.0000       0.079660         2.1677
  18   0.0000       0.118605         3.2274
  19   0.0000       0.155625         4.2348
  20   0.0000       0.158170         4.3040

MULLIKEN ATOMIC CHARGES
-----------------------
   0 C :    0.128944
   1 C :    0.319164
   2 O :   -0.424011
   3 F :   -0.292851
   4 H :    0.058826
   5 H :    0.103882
   6 H :    0.106047
Sum of atomic charges:    0.0000000

LOEWDIN ATOMIC CHARGES
----------------------
   0 C :    0.180150
   1 C :   -0.051871
   2 O :   -0.137987
   3 F :   -0.025936
   4 H :    0.000311
   5 H :    0.017330
   6 H :    0.018002

  Mayer bond orders larger than 0.100000
B(  0-C ,  1-C ) :   1.2561 B(  0-C ,  4-H ) :   0.9041 B(  0-C ,  5-H ) :   0.8352
B(  0-C ,  6-H ) :   0.8392 B(  1-C ,  2-O ) :   1.8898 B(  1-C ,  3-F ) :   0.8726
B(  1-C ,  4-H ) :   0.1208 B(  1-C ,  5-H ) :   0.1118 B(  1-C ,  6-H ) :   0.1066

FINAL SINGLE POINT ENERGY      -252.232074901542

DIPOLE MOMENT
-------------
                                X             Y             Z
Electronic contribution:      3.63402      -2.74459       2.06051
Nuclear contribution   :     -3.58210       3.29544      -3.18468
                        -----------------------------------------
Total Dipole Moment    :      0.05192       0.55085      -1.12416
                        -----------------------------------------
Magnitude (a.u.)       :      1.25295
Magnitude (Debye)      :      3.18474

Rotational constants in cm-1:     0.368075     0.322590     0.177495
Rotational constants in MHz : 11034.605942  9670.991558  5321.154504

                             ****ORCA TERMINATED NORMALLY****
TOTAL RUN TIME: 0 days 0 hours 0 minutes 5 seconds 159 msec
