                         Program Version 5.0.0 -  RELEASE  -
|  1> !LC-PBE RIJCOSX def2-SVPD def2/J TightSCF
|  2> *xyz 0 1
|  3> C          3.91385       -1.65829        3.01513
|  4> N          5.03927       -0.90115        2.49282
|  5> C          6.21038       -1.41726        2.17824
|  6> C          6.53591       -2.67712        2.55608
|  7> N          7.07675       -0.70082        1.47891
|  8> H          7.95464       -1.12155        1.20755
|  9> H          6.75616        0.10664        0.96028
| 10> H          4.84217        0.01761        2.11519
| 11> H          5.99388       -3.12692        3.28278
| 12> H          7.49844       -2.97548        2.46878
| 13> H          3.08844       -0.99893        3.18495
| 14> H          4.19412       -2.12366        3.93697
| 15> H          3.63051       -2.40965        2.30798
| 16> *
| 17> %MaxCore 64000
| 18> %pal nprocs 8
| 19> end
| 20> %scf
| 21>   MaxIter 150
| 22> end
| 23>
| 24>
| 25>                          ****END OF INPUT****

CARTESIAN COORDINATES (ANGSTROEM)
---------------------------------
  C      3.913850   -1.658290    3.015130
  N      5.039270   -0.901150    2.492820
  C      6.210380   -1.417260    2.178240
  C      6.535910   -2.677120    2.556080
  N      7.076750   -0.700820    1.478910
  H      7.954640   -1.121550    1.207550
  H      6.756160    0.106640    0.960280
  H      4.842170    0.017610    2.115190
  H      5.993880   -3.126920    3.282780
  H      7.498440   -2.975480    2.468780
  H      3.088440   -0.998930    3.184950
  H      4.194120   -2.123660    3.936970
  H      3.630510   -2.409650    2.307980

 Total Charge           Charge          ....    0
 Multiplicity           Mult            ....    1
 Number of Electrons    NEL             ....   40
 Basis Dimension        Dim             ....  164

ORBITAL ENERGIES
----------------

  NO   OCC          E(Eh)            E(eV)
   0   2.0000     -14.238067      -387.4375
   1   2.0000     -14.231440      -387.2572
   2   2.0000     -10.182426      -277.0779
   3   2.0000     -10.150724      -276.2152
   4   2.0000     -10.038670      -273.1661
   5   2.0000      -1.144632       -31.1470
   6   2.0000      -1.051734       -28.6191
   7   2.0000      -0.882690       -24.0192
   8   2.0000      -0.860421       -23.4132
   9   2.0000      -0.721948       -19.6452
  10   2.0000      -0.702629       -19.1195
  11   2.0000      -0.667601       -18.1664
  12   2.0000      -0.602464       -16.3939
  13   2.0000      -0.587594       -15.9893
  14   2.0000      -0.554040       -15.0762
  15   2.0000      -0.523958       -14.2576
  16   2.0000      -0.510245       -13.8845
  17   2.0000      -0.499781       -13.5997
  18   2.0000      -0.383680       -10.4405
  19   2.0000      -0.284115        -7.7312
  20   0.0000       0.088128         2.3981
  21   0.0000       0.108107         2.9417
  22   0.0000       0.124622         3.3911
  23   0.0000       0.155222         4.2238
  24   0.0000       0.156572         4.2605

MULLIKEN ATOMIC CHARGES
-----------------------
   0 C :    0.775990
   1 N :   -0.504545
   2 C :    0.574540
   3 C :    0.263165
   4 N :   -0.067503
   5 H :    0.005506
   6 H :   -0.107146
   7 H :   -0.281394
   8 H :   -0.109557
   9 H :   -0.443884
  10 H :   -0.234908
  11 H :    0.100377
  12 H :    0.029359
Sum of atomic charges:   -0.0000000

LOEWDIN ATOMIC CHARGES
----------------------
   0 C :    0.175549
   1 N :   -0.063850
   2 C :   -0.247055
   3 C :    0.126231
   4 N :    0.163123
   5 H :    0.017949
   6 H :    0.004078
   7 H :    0.029536
   8 H :   -0.106717
   9 H :   -0.095232
  10 H :   -0.001875
  11 H :   -0.004545
  12 H :    0.002805

  Mayer bond orders larger than 0.100000
B(  0-C ,  1-N ) :   0.9526 B(  0-C ,  7-H ) :  -0.1188 B(  0-C , 10-H ) :   0.9142
B(  0-C , 11-H ) :   0.8400 B(  0-C , 12-H ) :   0.8608 B(  1-N ,  2-C ) :   1.0377
B(  1-N ,  3-C ) :   0.3274 B(  1-N ,  4-N ) :   0.1333 B(  1-N ,  7-H ) :   1.3425
B(  1-N , 10-H ) :   0.1390 B(  1-N , 12-H ) :   0.1118 B(  2-C ,  3-C ) :   1.7817
B(  2-C ,  4-N ) :   0.8937 B(  2-C ,  7-H ) :  -0.2221 B(  2-C ,  8-H ) :   0.2200
B(  2-C ,  9-H ) :   0.1493 B(  3-C ,  4-N ) :   0.2119 B(  3-C ,  8-H ) :   0.7713
B(  3-C ,  9-H ) :   0.9012 B(  4-N ,  5-H ) :   1.1192 B(  4-N ,  6-H ) :   1.1928
B(  5-H ,  6-H ) :  -0.1410

FINAL SINGLE POINT ENERGY      -227.704151722284

DIPOLE MOMENT
-------------
                                X             Y             Z
Electronic contribution:      1.47077       2.01156      -1.16628
Nuclear contribution   :     -1.85843      -0.99162       0.73717
                        -----------------------------------------
Total Dipole Moment    :     -0.38766       1.01994      -0.42911
                        -----------------------------------------
Magnitude (a.u.)       :      1.17247
Magnitude (Debye)      :      2.98018

Rotational constants in cm-1:     0.336495     0.135025     0.098658
Rotational constants in MHz : 10087.870488  4047.943278  2957.678786

                             ****ORCA TERMINATED NORMALLY****
TOTAL RUN TIME: 0 days 0 hours 0 minutes 11 seconds 6 msec
