                         Program Version 5.0.0 -  RELEASE  -
|  1> !LC-PBE RIJCOSX def2-SVPD def2/J TightSCF
|  2> *xyz 0 1
|  3> C          3.91385       -1.65829        3.01513
|  4> N          5.03927       -0.90115        2.49282
|  5> C          6.21038       -1.41726        2.17824
|  6> N          6.53591       -2.67712        2.55608
|  7> C          7.07675       -0.70082        1.47891
|  8> H          7.95464       -1.12155        1.20755
|  9> H          6.75616        0.10664        0.96028
| 10> H          4.84217        0.01761        2.11519
| 11> H          5.99388       -3.12692        3.28278
| 12> H          7.49844       -2.97548        2.46878
| 13> H          3.08844       -0.99893        3.18495
| 14> H          4.19412       -2.12366        3.93697
| 15> H          3.63051       -2.40965        2.30798
| 16> *
| 17> %MaxCore 64000
| 18> %pal nprocs 8
| 19> end
| 20> %scf
| 21>   MaxIter 150
| 22> end
| 23>
| 24>
| 25>                          ****END OF INPUT****

CARTESIAN COORDINATES (ANGSTROEM)
---------------------------------
  C      3.913850   -1.658290    3.015130
  N      5.039270   -0.901150    2.492820
  C      6.210380   -1.417260    2.178240
  N      6.535910   -2.677120    2.556080
  C      7.076750   -0.700820    1.478910
  H      7.954640   -1.121550    1.207550
  H      6.756160    0.106640    0.960280
  H      4.842170    0.017610    2.115190
  H      5.993880   -3.126920    3.282780
  H      7.498440   -2.975480    2.468780
  H      3.088440   -0.998930    3.184950
  H      4.194120   -2.123660    3.936970
  H      3.630510   -2.409650    2.307980

 Total Charge           Charge          ....    0
 Multiplicity           Mult            ....    1
 Number of Electrons    NEL             ....   40
 Basis Dimension        Dim             ....  164

ORBITAL ENERGIES
----------------

  NO   OCC          E(Eh)            E(eV)
   0   2.0000     -14.233133      -387.3032
   1   2.0000     -14.229783      -387.2121
   2   2.0000     -10.179441      -276.9967
   3   2.0000     -10.159051      -276.4418
   4   2.0000     -10.035639      -273.0836
   5   2.0000      -1.139636       -31.0111
   6   2.0000      -1.043957       -28.4075
   7   2.0000      -0.912713       -24.8362
   8   2.0000      -0.827970       -22.5302
   9   2.0000      -0.754938       -20.5429
  10   2.0000      -0.683358       -18.5951
  11   2.0000      -0.638713       -17.3803
  12   2.0000      -0.615803       -16.7568
  13   2.0000      -0.607367       -16.5273
  14   2.0000      -0.542525       -14.7629
  15   2.0000      -0.528813       -14.3897
  16   2.0000      -0.520614       -14.1666
  17   2.0000      -0.498573       -13.5669
  18   2.0000      -0.390380       -10.6228
  19   2.0000      -0.281315        -7.6550
  20   0.0000       0.083672         2.2768
  21   0.0000       0.117596         3.2000
  22   0.0000       0.125165         3.4059
  23   0.0000       0.153535         4.1779
  24   0.0000       0.154675         4.2089

MULLIKEN ATOMIC CHARGES
-----------------------
   0 C :    0.795682
   1 N :   -0.503725
   2 C :    0.745376
   3 N :   -0.072936
   4 C :    0.137906
   5 H :   -0.268531
   6 H :   -0.253756
   7 H :   -0.198207
   8 H :   -0.113174
   9 H :   -0.043588
  10 H :   -0.208683
  11 H :   -0.035159
  12 H :    0.018796
Sum of atomic charges:    0.0000000

LOEWDIN ATOMIC CHARGES
----------------------
   0 C :    0.168889
   1 N :   -0.059158
   2 C :   -0.241382
   3 N :    0.182249
   4 C :    0.102544
   5 H :   -0.089116
   6 H :   -0.087276
   7 H :    0.042455
   8 H :   -0.016432
   9 H :    0.013174
  10 H :   -0.000114
  11 H :   -0.012774
  12 H :   -0.003057

  Mayer bond orders larger than 0.100000
B(  0-C ,  1-N ) :   0.9619 B(  0-C ,  7-H ) :  -0.1118 B(  0-C , 10-H ) :   0.8859
B(  0-C , 11-H ) :   0.8589 B(  0-C , 12-H ) :   0.8631 B(  1-N ,  2-C ) :   1.0718
B(  1-N ,  3-N ) :   0.1493 B(  1-N ,  4-C ) :   0.2253 B(  1-N ,  7-H ) :   1.2429
B(  1-N , 10-H ) :   0.1470 B(  1-N , 11-H ) :   0.1415 B(  1-N , 12-H ) :   0.1069
B(  2-C ,  3-N ) :   0.9003 B(  2-C ,  4-C ) :   1.5749 B(  2-C ,  5-H ) :   0.1397
B(  2-C ,  7-H ) :  -0.1736 B(  3-N ,  4-C ) :   0.1909 B(  3-N ,  8-H ) :   1.0990
B(  3-N ,  9-H ) :   1.1535 B(  4-C ,  5-H ) :   0.8414 B(  4-C ,  6-H ) :   0.9193
B(  8-H ,  9-H ) :  -0.1553

FINAL SINGLE POINT ENERGY      -227.702606964671

DIPOLE MOMENT
-------------
                                X             Y             Z
Electronic contribution:      0.94261       0.09992       0.02255
Nuclear contribution   :     -1.74889      -0.59133       0.51900
                        -----------------------------------------
Total Dipole Moment    :     -0.80628      -0.49141       0.54155
                        -----------------------------------------
Magnitude (a.u.)       :      1.08850
Magnitude (Debye)      :      2.76676

Rotational constants in cm-1:     0.319878     0.140238     0.099847
Rotational constants in MHz :  9589.703832  4204.215525  2993.343846

                             ****ORCA TERMINATED NORMALLY****
TOTAL RUN TIME: 0 days 0 hours 0 minutes 11 seconds 73 msec
