                         Program Version 5.0.0 -  RELEASE  -
|  1> !LC-PBE RIJCOSX def2-SVPD def2/J TightSCF xyzfile
|  2>
|  3> *xyzfile 0 1 D4.xyz
|  4>
|  5> %MaxCore 64000
|  6>
|  7> %pal nprocs 4
|  8> end
|  9>
| 10> %scf
| 11>   MaxIter 150
| 12> end
| 13>
| 14>
| 15>                          ****END OF INPUT****

CARTESIAN COORDINATES (ANGSTROEM)
---------------------------------
  C      3.913853   -1.658291    3.015134
  C      5.039266   -0.901154    2.492821
  C      4.084215    1.742081   -2.114724
  C      4.265245    2.500518   -0.795890
  H      4.868534    3.392674   -0.981134
  H      3.307640    2.824571   -0.387809
  C      4.982240    1.650257    0.247422
  C      6.210384   -1.417261    2.178244
  N      6.535913   -2.677122    2.556078
  N      7.076754   -0.700820    1.478906
  H      7.954643   -1.121554    1.207554
  H      6.756161    0.106637    0.960278
  H      4.842168    0.017609    2.115191
  H      5.993876   -3.126918    3.282784
  H      7.498441   -2.975482    2.468776
  O      4.368065    1.389270    1.313706
  F      6.128919    1.233512   -0.045620
  C      3.139159   -2.376572    1.910609
  H      3.267235   -0.939401    3.520693
  H      4.247195   -2.355095    3.790065
  C      1.997274    0.430918   -1.399218
  C      3.412746    0.376886   -1.965497
  H      4.047407   -0.246590   -1.326706
  H      3.390774   -0.118719   -2.942839
  H      5.068475    1.598504   -2.565728
  H      3.503356    2.363939   -2.804565
  C      2.399946   -1.389579    1.009490
  H      2.440750   -3.087118    2.362976
  H      3.844475   -2.970462    1.318677
  C      2.070177   -1.936705   -0.372401
  H      1.481611   -1.061542    1.509912
  H      3.008628   -0.490001    0.897451
  C      1.322238   -0.935775   -1.256413
  H      1.472747   -2.850902   -0.283997
  H      3.003539   -2.234041   -0.862535
  H      1.376444    1.058920   -2.047420
  H      2.015341    0.929780   -0.426535
  H      0.316648   -0.787213   -0.848278
  H      1.185611   -1.379252   -2.248613

 Total Charge           Charge          ....    0
 Multiplicity           Mult            ....    1
 Number of Electrons    NEL             ....  126
 Basis Dimension        Dim             ....  510

ORBITAL ENERGIES
----------------

  NO   OCC          E(Eh)            E(eV)
   0   2.0000     -24.610628      -669.6892
   1   2.0000     -19.017038      -517.4799
   2   2.0000     -14.212387      -386.7387
   3   2.0000     -14.202758      -386.4767
   4   2.0000     -10.335499      -281.2432
   5   2.0000     -10.167371      -276.6682
   6   2.0000     -10.151891      -276.2470
   7   2.0000     -10.151049      -276.2241
   8   2.0000     -10.133116      -275.7361
   9   2.0000     -10.122358      -275.4434
  10   2.0000     -10.116166      -275.2749
  11   2.0000     -10.107133      -275.0291
  12   2.0000     -10.096028      -274.7269
  13   2.0000     -10.091431      -274.6018
  14   2.0000     -10.084727      -274.4194
  15   2.0000     -10.015023      -272.5226
  16   2.0000      -1.498308       -40.7710
  17   2.0000      -1.211038       -32.9540
  18   2.0000      -1.110514       -30.2186
  19   2.0000      -1.014751       -27.6128
  20   2.0000      -1.009807       -27.4783
  21   2.0000      -0.976360       -26.5681
  22   2.0000      -0.944239       -25.6941
  23   2.0000      -0.911586       -24.8055
  24   2.0000      -0.874412       -23.7940
  25   2.0000      -0.847482       -23.0612
  26   2.0000      -0.830851       -22.6086
  27   2.0000      -0.792676       -21.5698
  28   2.0000      -0.763549       -20.7772
  29   2.0000      -0.747378       -20.3372
  30   2.0000      -0.737666       -20.0729
  31   2.0000      -0.727189       -19.7878
  32   2.0000      -0.704690       -19.1756
  33   2.0000      -0.693725       -18.8772
  34   2.0000      -0.682761       -18.5789
  35   2.0000      -0.659341       -17.9416
  36   2.0000      -0.632560       -17.2128
  37   2.0000      -0.630466       -17.1559
  38   2.0000      -0.626598       -17.0506
  39   2.0000      -0.604068       -16.4375
  40   2.0000      -0.592457       -16.1216
  41   2.0000      -0.580297       -15.7907
  42   2.0000      -0.570530       -15.5249
  43   2.0000      -0.554968       -15.1014
  44   2.0000      -0.548733       -14.9318
  45   2.0000      -0.541783       -14.7427
  46   2.0000      -0.533752       -14.5241
  47   2.0000      -0.525794       -14.3076
  48   2.0000      -0.518823       -14.1179
  49   2.0000      -0.511597       -13.9213
  50   2.0000      -0.499658       -13.5964
  51   2.0000      -0.494249       -13.4492
  52   2.0000      -0.473363       -12.8809
  53   2.0000      -0.463688       -12.6176
  54   2.0000      -0.461434       -12.5562
  55   2.0000      -0.458194       -12.4681
  56   2.0000      -0.434168       -11.8143
  57   2.0000      -0.429430       -11.6854
  58   2.0000      -0.423083       -11.5127
  59   2.0000      -0.418227       -11.3805
  60   2.0000      -0.391615       -10.6564
  61   2.0000      -0.383342       -10.4313
  62   2.0000      -0.255860        -6.9623
  63   0.0000       0.048897         1.3306
  64   0.0000       0.079871         2.1734
  65   0.0000       0.097313         2.6480
  66   0.0000       0.101446         2.7605
  67   0.0000       0.105139         2.8610

MULLIKEN ATOMIC CHARGES
-----------------------
   0 C :    0.373111
   1 C :    0.125490
   2 C :    0.242591
   3 C :    0.112020
   4 H :    0.023573
   5 H :    0.208464
   6 C :    0.451311
   7 C :    0.639816
   8 N :   -0.107502
   9 N :    0.276869
  10 H :   -0.123220
  11 H :   -0.320077
  12 H :   -0.668397
  13 H :    0.011349
  14 H :   -0.216227
  15 O :   -0.459480
  16 F :   -0.367488
  17 C :    0.252435
  18 H :    0.119606
  19 H :   -0.154025
  20 C :   -0.265297
  21 C :   -0.229444
  22 H :    0.028170
  23 H :   -0.072768
  24 H :    0.061057
  25 H :   -0.012901
  26 C :    0.489879
  27 H :   -0.010468
  28 H :    0.017370
  29 C :   -0.159257
  30 H :    0.111719
  31 H :   -0.915239
  32 C :    0.525630
  33 H :   -0.298474
  34 H :    0.196357
  35 H :   -0.295885
  36 H :    0.238474
  37 H :    0.097298
  38 H :    0.073560
Sum of atomic charges:   -0.0000000

LOEWDIN ATOMIC CHARGES
----------------------
   0 C :   -0.066634
   1 C :   -0.032070
   2 C :   -0.042470
   3 C :    0.039161
   4 H :    0.051448
   5 H :    0.046015
   6 C :    0.035646
   7 C :   -0.206674
   8 N :    0.181200
   9 N :    0.184365
  10 H :    0.002752
  11 H :   -0.077938
  12 H :   -0.133210
  13 H :   -0.010248
  14 H :   -0.007577
  15 O :   -0.106377
  16 F :   -0.005254
  17 C :   -0.048741
  18 H :    0.034249
  19 H :    0.010445
  20 C :   -0.054843
  21 C :   -0.050741
  22 H :    0.026105
  23 H :    0.043919
  24 H :    0.035925
  25 H :    0.041788
  26 C :   -0.050634
  27 H :    0.028332
  28 H :    0.030330
  29 C :   -0.063807
  30 H :    0.047903
  31 H :   -0.014429
  32 C :   -0.055110
  33 H :    0.035655
  34 H :    0.028089
  35 H :    0.036674
  36 H :    0.019588
  37 H :    0.035169
  38 H :    0.032000

  Mayer bond orders larger than 0.100000
B(  0-C ,  1-C ) :   0.9895 B(  0-C , 12-H ) :   0.6831 B(  0-C , 17-C ) :   1.0657
B(  0-C , 18-H ) :   0.7351 B(  0-C , 19-H ) :   0.7022 B(  1-C ,  7-C ) :   1.9282
B(  1-C ,  8-N ) :   0.2441 B(  1-C ,  9-N ) :   0.2386 B(  1-C , 18-H ) :   0.2576
B(  1-C , 19-H ) :   0.2609 B(  2-C ,  3-C ) :   1.1786 B(  2-C ,  4-H ) :   0.1360
B(  2-C , 21-C ) :   1.2418 B(  2-C , 24-H ) :   0.7486 B(  2-C , 25-H ) :   0.8727
B(  3-C ,  4-H ) :   0.7195 B(  3-C ,  5-H ) :   0.8088 B(  3-C ,  6-C ) :   1.2167
B(  3-C , 25-H ) :   0.1224 B(  4-H ,  6-C ) :   0.2293 B(  5-H ,  6-C ) :   0.1533
B(  6-C , 15-O ) :   1.8760 B(  6-C , 16-F ) :   0.6171 B(  7-C ,  8-N ) :   0.7961
B(  7-C ,  9-N ) :   0.7922 B(  7-C , 11-H ) :  -0.2434 B(  7-C , 12-H ) :   0.3678
B(  7-C , 14-H ) :  -0.1529 B(  8-N , 13-H ) :   1.0183 B(  8-N , 14-H ) :   1.2874
B(  9-N , 10-H ) :   1.1449 B(  9-N , 11-H ) :   1.2552 B( 10-H , 11-H ) :  -0.1686
B( 10-H , 12-H ) :  -0.1009 B( 13-H , 14-H ) :  -0.1777 B( 15-O , 16-F ) :   0.1381
B( 15-O , 31-H ) :   0.1011 B( 17-C , 26-C ) :   1.1653 B( 17-C , 27-H ) :   0.8757
B( 17-C , 28-H ) :   0.9287 B( 17-C , 30-H ) :   0.1438 B( 20-C , 21-C ) :   1.2472
B( 20-C , 22-H ) :   0.1031 B( 20-C , 23-H ) :   0.1350 B( 20-C , 32-C ) :   1.1630
B( 20-C , 35-H ) :   1.1066 B( 20-C , 36-H ) :   0.8260 B( 20-C , 37-H ) :   0.2251
B( 20-C , 38-H ) :   0.1129 B( 21-C , 22-H ) :   0.9466 B( 21-C , 23-H ) :   0.9297
B( 21-C , 24-H ) :   0.2100 B( 21-C , 25-H ) :   0.1390 B( 21-C , 35-H ) :   0.1084
B( 26-C , 27-H ) :   0.1620 B( 26-C , 29-C ) :   1.2645 B( 26-C , 30-H ) :   0.6533
B( 26-C , 31-H ) :   0.2825 B( 26-C , 33-H ) :   0.1234 B( 26-C , 34-H ) :   0.1028
B( 29-C , 31-H ) :   0.1269 B( 29-C , 32-C ) :   1.1250 B( 29-C , 33-H ) :   1.0897
B( 29-C , 34-H ) :   0.8500 B( 29-C , 38-H ) :   0.2015 B( 30-H , 31-H ) :   0.2866
B( 32-C , 37-H ) :   0.7284 B( 32-C , 38-H ) :   0.7258

FINAL SINGLE POINT ENERGY      -752.785671589490

DIPOLE MOMENT
-------------
                                X             Y             Z
Electronic contribution:     14.24487       8.78799       3.63590
Nuclear contribution   :    -13.61164      -8.17416      -5.14068
                        -----------------------------------------
Total Dipole Moment    :      0.63323       0.61383      -1.50478
                        -----------------------------------------
Magnitude (a.u.)       :      1.74417
Magnitude (Debye)      :      4.43332

Rotational constants in cm-1:     0.019858     0.013613     0.009401
Rotational constants in MHz :   595.331791   408.100423   281.843625

                             ****ORCA TERMINATED NORMALLY****
TOTAL RUN TIME: 0 days 0 hours 5 minutes 11 seconds 514 msec
