                         Program Version 5.0.0 -  RELEASE  -
|  1> !LC-PBE RIJCOSX def2-SVPD def2/J TightSCF
|  2> *xyz -1 1
|  3> C         -7.33044       -2.67899       -3.20681
|  4> S         -6.01966       -2.92697       -4.41913
|  5> O         -5.64583       -1.58838       -4.91931
|  6> O         -4.88196       -3.50370       -3.66724
|  7> O         -6.54927       -3.80515       -5.42507
|  8> H         -8.18867       -2.26077       -3.68996
|  9> H         -6.98921       -2.01038       -2.44430
| 10> H         -7.59151       -3.61862       -2.76655
| 11> *
| 12> %MaxCore 64000
| 13>
| 14> %pal nprocs 8
| 15> end
| 16>
| 17> %scf
| 18>   MaxIter 150
| 19> end
| 20>
| 21>
| 22>                          ****END OF INPUT****

CARTESIAN COORDINATES (ANGSTROEM)
---------------------------------
  C     -7.330440   -2.678990   -3.206810
  S     -6.019660   -2.926970   -4.419130
  O     -5.645830   -1.588380   -4.919310
  O     -4.881960   -3.503700   -3.667240
  O     -6.549270   -3.805150   -5.425070
  H     -8.188670   -2.260770   -3.689960
  H     -6.989210   -2.010380   -2.444300
  H     -7.591510   -3.618620   -2.766550

 Total Charge           Charge          ....   -1
 Multiplicity           Mult            ....    1
 Number of Electrons    NEL             ....   50
 Basis Dimension        Dim             ....  140

ORBITAL ENERGIES
----------------

  NO   OCC          E(Eh)            E(eV)
   0   2.0000     -88.317101     -2403.2305
   1   2.0000     -18.777175      -510.9529
   2   2.0000     -18.765182      -510.6265
   3   2.0000     -18.762645      -510.5575
   4   2.0000      -9.988137      -271.7910
   5   2.0000      -7.938524      -216.0182
   6   2.0000      -5.960880      -162.2038
   7   2.0000      -5.960672      -162.1981
   8   2.0000      -5.960664      -162.1979
   9   2.0000      -1.105579       -30.0843
  10   2.0000      -0.949703       -25.8427
  11   2.0000      -0.926146       -25.2017
  12   2.0000      -0.759609       -20.6700
  13   2.0000      -0.543962       -14.8020
  14   2.0000      -0.455418       -12.3926
  15   2.0000      -0.439908       -11.9705
  16   2.0000      -0.438394       -11.9293
  17   2.0000      -0.392629       -10.6840
  18   2.0000      -0.391466       -10.6523
  19   2.0000      -0.292624        -7.9627
  20   2.0000      -0.290618        -7.9081
  21   2.0000      -0.250573        -6.8184
  22   2.0000      -0.242100        -6.5879
  23   2.0000      -0.236198        -6.4273
  24   2.0000      -0.195678        -5.3247
  25   0.0000       0.209484         5.7004
  26   0.0000       0.232118         6.3162
  27   0.0000       0.232478         6.3260
  28   0.0000       0.238589         6.4923
  29   0.0000       0.270403         7.3580

MULLIKEN ATOMIC CHARGES
-----------------------
   0 C :    0.233257
   1 S :    0.977714
   2 O :   -0.755616
   3 O :   -0.760745
   4 O :   -0.710675
   5 H :    0.003731
   6 H :    0.004797
   7 H :    0.007539
Sum of atomic charges:   -1.0000000

LOEWDIN ATOMIC CHARGES
----------------------
   0 C :    0.027035
   1 S :    0.819554
   2 O :   -0.597963
   3 O :   -0.601644
   4 O :   -0.577133
   5 H :   -0.024152
   6 H :   -0.022372
   7 H :   -0.023326

  Mayer bond orders larger than 0.100000
B(  0-C ,  1-S ) :   0.9678 B(  0-C ,  5-H ) :   0.9369 B(  0-C ,  6-H ) :   0.9394
B(  0-C ,  7-H ) :   0.9361 B(  1-S ,  2-O ) :   1.3418 B(  1-S ,  3-O ) :   1.3386
B(  1-S ,  4-O ) :   1.3773 B(  1-S ,  6-H ) :   0.1058

FINAL SINGLE POINT ENERGY      -662.427490689790

DIPOLE MOMENT
-------------
                                X             Y             Z
Electronic contribution:      2.91417      -0.63462      -2.85772
Nuclear contribution   :     -4.26236       0.77434       3.87117
                        -----------------------------------------
Total Dipole Moment    :     -1.34819       0.13971       1.01345
                        -----------------------------------------
Magnitude (a.u.)       :      1.69240
Magnitude (Debye)      :      4.30174

Rotational constants in cm-1:     0.172427     0.155038     0.152780
Rotational constants in MHz :  5169.225473  4647.928623  4580.233540

                             ****ORCA TERMINATED NORMALLY****
TOTAL RUN TIME: 0 days 0 hours 0 minutes 7 seconds 112 msec
