                         Program Version 5.0.0 -  RELEASE  -
|  1> !LC-PBE RIJCOSX def2-SVPD def2/J TightSCF
|  2> *xyz 1 1
|  3> C         -2.16038       -1.36949       -3.46710
|  4> N         -3.03011       -1.91086       -4.54107
|  5> H         -3.47744       -2.79151       -4.25710
|  6> H         -2.53801       -2.01786       -5.43808
|  7> H         -3.89159       -1.37604       -4.71437
|  8> H         -1.71294       -0.45536       -3.79734
|  9> H         -1.39344       -2.07939       -3.23742
| 10> H         -2.74775       -1.18344       -2.59230
| 11> *
| 12> %MaxCore 64000
| 13>
| 14> %pal nprocs 8
| 15> end
| 16>
| 17> %scf
| 18>   MaxIter 150
| 19> end
| 20>
| 21>
| 22>                          ****END OF INPUT****

CARTESIAN COORDINATES (ANGSTROEM)
---------------------------------
  C     -2.160380   -1.369490   -3.467100
  N     -3.030110   -1.910860   -4.541070
  H     -3.477440   -2.791510   -4.257100
  H     -2.538010   -2.017860   -5.438080
  H     -3.891590   -1.376040   -4.714370
  H     -1.712940   -0.455360   -3.797340
  H     -1.393440   -2.079390   -3.237420
  H     -2.747750   -1.183440   -2.592300

 Total Charge           Charge          ....    1
 Multiplicity           Mult            ....    1
 Number of Electrons    NEL             ....   18
 Basis Dimension        Dim             ....   88

ORBITAL ENERGIES
----------------

  NO   OCC          E(Eh)            E(eV)
   0   2.0000     -14.579550      -396.7297
   1   2.0000     -10.384305      -282.5713
   2   2.0000      -1.393043       -37.9066
   3   2.0000      -1.105710       -30.0879
   4   2.0000      -0.968075       -26.3427
   5   2.0000      -0.939971       -25.5779
   6   2.0000      -0.861265       -23.4362
   7   2.0000      -0.763921       -20.7874
   8   2.0000      -0.759204       -20.6590
   9   0.0000      -0.119352        -3.2477
  10   0.0000      -0.055602        -1.5130
  11   0.0000      -0.047134        -1.2826
  12   0.0000      -0.046868        -1.2753
  13   0.0000      -0.000704        -0.0192

MULLIKEN ATOMIC CHARGES
-----------------------
   0 C :    0.631017
   1 N :   -0.895088
   2 H :    0.391964
   3 H :    0.402975
   4 H :    0.376973
   5 H :    0.026079
   6 H :    0.038285
   7 H :    0.027795
Sum of atomic charges:    1.0000000

LOEWDIN ATOMIC CHARGES
----------------------
   0 C :    0.252634
   1 N :    0.287246
   2 H :    0.115916
   3 H :    0.121567
   4 H :    0.117176
   5 H :    0.034592
   6 H :    0.035631
   7 H :    0.035238

  Mayer bond orders larger than 0.100000
B(  0-C ,  1-N ) :   0.7843 B(  0-C ,  5-H ) :   0.9305 B(  0-C ,  6-H ) :   0.9177
B(  0-C ,  7-H ) :   0.9242 B(  1-N ,  2-H ) :   0.7879 B(  1-N ,  3-H ) :   0.7601
B(  1-N ,  4-H ) :   0.8050

FINAL SINGLE POINT ENERGY       -95.834790406691

DIPOLE MOMENT
-------------
                                X             Y             Z
Electronic contribution:     -0.59176      -0.38415      -0.80083
Nuclear contribution   :      0.00575       0.04584       0.17617
                        -----------------------------------------
Total Dipole Moment    :     -0.58600      -0.33830      -0.62465
                        -----------------------------------------
Magnitude (a.u.)       :      0.92089
Magnitude (Debye)      :      2.34072

Rotational constants in cm-1:     2.917716     0.684997     0.676552
Rotational constants in MHz : 87470.913131 20535.702929 20282.512120

                             ****ORCA TERMINATED NORMALLY****
TOTAL RUN TIME: 0 days 0 hours 0 minutes 3 seconds 602 msec
