                         Program Version 5.0.0 -  RELEASE  -
|  1> !LC-PBE RIJCOSX def2-SVPD def2/J TightSCF
|  2> *xyz 0 1
|  3> C         -7.33044       -2.67899       -3.20681
|  4> S         -6.01966       -2.92697       -4.41913
|  5> F         -5.64583       -1.58838       -4.91931
|  6> O         -4.88196       -3.50370       -3.66724
|  7> O         -6.54927       -3.80515       -5.42507
|  8> H         -8.18867       -2.26077       -3.68996
|  9> H         -6.98921       -2.01038       -2.44430
| 10> H         -7.59151       -3.61862       -2.76655
| 11> *
| 12> %MaxCore 64000
| 13>
| 14> %pal nprocs 8
| 15> end
| 16>
| 17> %scf
| 18>   MaxIter 150
| 19> end
| 20>
| 21>
| 22>                          ****END OF INPUT****

CARTESIAN COORDINATES (ANGSTROEM)
---------------------------------
  C     -7.330440   -2.678990   -3.206810
  S     -6.019660   -2.926970   -4.419130
  F     -5.645830   -1.588380   -4.919310
  O     -4.881960   -3.503700   -3.667240
  O     -6.549270   -3.805150   -5.425070
  H     -8.188670   -2.260770   -3.689960
  H     -6.989210   -2.010380   -2.444300
  H     -7.591510   -3.618620   -2.766550

 Total Charge           Charge          ....    0
 Multiplicity           Mult            ....    1
 Number of Electrons    NEL             ....   50
 Basis Dimension        Dim             ....  140

ORBITAL ENERGIES
----------------

  NO   OCC          E(Eh)            E(eV)
   0   2.0000     -88.583489     -2410.4793
   1   2.0000     -24.621813      -669.9936
   2   2.0000     -19.017428      -517.4905
   3   2.0000     -19.002414      -517.0820
   4   2.0000     -10.197943      -277.5001
   5   2.0000      -8.205485      -223.2826
   6   2.0000      -6.232463      -169.5939
   7   2.0000      -6.225287      -169.3987
   8   2.0000      -6.224560      -169.3789
   9   2.0000      -1.520567       -41.3767
  10   2.0000      -1.290191       -35.1079
  11   2.0000      -1.178503       -32.0687
  12   2.0000      -0.980931       -26.6925
  13   2.0000      -0.871224       -23.7072
  14   2.0000      -0.758003       -20.6263
  15   2.0000      -0.733552       -19.9610
  16   2.0000      -0.710280       -19.3277
  17   2.0000      -0.631377       -17.1806
  18   2.0000      -0.629278       -17.1235
  19   2.0000      -0.615796       -16.7567
  20   2.0000      -0.586599       -15.9622
  21   2.0000      -0.537532       -14.6270
  22   2.0000      -0.484890       -13.1945
  23   2.0000      -0.470953       -12.8153
  24   2.0000      -0.453544       -12.3416
  25   0.0000       0.058468         1.5910
  26   0.0000       0.090025         2.4497
  27   0.0000       0.094653         2.5756
  28   0.0000       0.096982         2.6390
  29   0.0000       0.111150         3.0245

MULLIKEN ATOMIC CHARGES
-----------------------
   0 C :    0.178625
   1 S :    1.150243
   2 F :   -0.349106
   3 O :   -0.627443
   4 O :   -0.579377
   5 H :    0.076499
   6 H :    0.074508
   7 H :    0.076051
Sum of atomic charges:   -0.0000000

LOEWDIN ATOMIC CHARGES
----------------------
   0 C :    0.096940
   1 S :    1.087997
   2 F :   -0.258132
   3 O :   -0.483484
   4 O :   -0.460310
   5 H :    0.000755
   6 H :    0.001828
   7 H :    0.014407

  Mayer bond orders larger than 0.100000
B(  0-C ,  1-S ) :   1.0189 B(  0-C ,  5-H ) :   0.9259 B(  0-C ,  6-H ) :   0.9280
B(  0-C ,  7-H ) :   0.9268 B(  1-S ,  2-F ) :   0.7113 B(  1-S ,  3-O ) :   1.5472
B(  1-S ,  4-O ) :   1.5853

FINAL SINGLE POINT ENERGY      -686.892644382802

DIPOLE MOMENT
-------------
                                X             Y             Z
Electronic contribution:      3.48884       1.63650      -3.69447
Nuclear contribution   :     -4.68608      -0.54182       4.44322
                        -----------------------------------------
Total Dipole Moment    :     -1.19724       1.09468       0.74876
                        -----------------------------------------
Magnitude (a.u.)       :      1.78671
Magnitude (Debye)      :      4.54147

Rotational constants in cm-1:     0.164393     0.151201     0.145518
Rotational constants in MHz :  4928.381777  4532.884356  4362.527209

                             ****ORCA TERMINATED NORMALLY****
TOTAL RUN TIME: 0 days 0 hours 0 minutes 7 seconds 602 msec
