                         Program Version 5.0.0 -  RELEASE  -
|  1> !LC-PBE RIJCOSX def2-SVPD def2/J TightSCF
|  2> *xyz 0 1
|  3> C         -2.16038       -1.36949       -3.46710
|  4> C         -3.03011       -1.91086       -4.54107
|  5> H         -3.47744       -2.79151       -4.25710
|  6> H         -2.53801       -2.01786       -5.43808
|  7> H         -3.89159       -1.37604       -4.71437
|  8> H         -1.71294       -0.45536       -3.79734
|  9> H         -1.39344       -2.07939       -3.23742
| 10> H         -2.74775       -1.18344       -2.59230
| 11> *
| 12> %MaxCore 64000
| 13>
| 14> %pal nprocs 8
| 15> end
| 16>
| 17> %scf
| 18>   MaxIter 150
| 19> end
| 20>
| 21>
| 22>                          ****END OF INPUT****

CARTESIAN COORDINATES (ANGSTROEM)
---------------------------------
  C     -2.160380   -1.369490   -3.467100
  C     -3.030110   -1.910860   -4.541070
  H     -3.477440   -2.791510   -4.257100
  H     -2.538010   -2.017860   -5.438080
  H     -3.891590   -1.376040   -4.714370
  H     -1.712940   -0.455360   -3.797340
  H     -1.393440   -2.079390   -3.237420
  H     -2.747750   -1.183440   -2.592300

 Total Charge           Charge          ....    0
 Multiplicity           Mult            ....    1
 Number of Electrons    NEL             ....   18
 Basis Dimension        Dim             ....   88

ORBITAL ENERGIES
----------------

  NO   OCC          E(Eh)            E(eV)
   0   2.0000     -10.103744      -274.9369
   1   2.0000     -10.089472      -274.5485
   2   2.0000      -0.939944       -25.5772
   3   2.0000      -0.783135       -21.3102
   4   2.0000      -0.598822       -16.2948
   5   2.0000      -0.582718       -15.8566
   6   2.0000      -0.511275       -13.9125
   7   2.0000      -0.481230       -13.0949
   8   2.0000      -0.463963       -12.6251
   9   0.0000       0.096467         2.6250
  10   0.0000       0.124817         3.3964
  11   0.0000       0.178965         4.8699
  12   0.0000       0.183094         4.9822
  13   0.0000       0.201734         5.4894

MULLIKEN ATOMIC CHARGES
-----------------------
   0 C :    0.055919
   1 C :    0.272900
   2 H :   -0.117704
   3 H :   -0.110016
   4 H :   -0.130916
   5 H :    0.003759
   6 H :    0.008737
   7 H :    0.017322
Sum of atomic charges:   -0.0000000

LOEWDIN ATOMIC CHARGES
----------------------
   0 C :    0.048107
   1 C :    0.041269
   2 H :   -0.026411
   3 H :   -0.020305
   4 H :   -0.026730
   5 H :   -0.006284
   6 H :   -0.004961
   7 H :   -0.004686

  Mayer bond orders larger than 0.100000
B(  0-C ,  1-C ) :   1.4144 B(  0-C ,  2-H ) :   0.1183 B(  0-C ,  3-H ) :   0.1233
B(  0-C ,  4-H ) :   0.1028 B(  0-C ,  5-H ) :   0.9058 B(  0-C ,  6-H ) :   0.8876
B(  0-C ,  7-H ) :   0.9013 B(  1-C ,  2-H ) :   0.8245 B(  1-C ,  3-H ) :   0.8645
B(  1-C ,  4-H ) :   0.8295 B(  1-C ,  5-H ) :   0.1134 B(  1-C ,  6-H ) :   0.1200
B(  1-C ,  7-H ) :   0.1160 B(  2-H ,  4-H ) :   0.2015

FINAL SINGLE POINT ENERGY       -79.464730939143

DIPOLE MOMENT
-------------
                                X             Y             Z
Electronic contribution:      0.09848       0.03284      -0.00025
Nuclear contribution   :     -0.14218      -0.04688      -0.00907
                        -----------------------------------------
Total Dipole Moment    :     -0.04369      -0.01404      -0.00932
                        -----------------------------------------
Magnitude (a.u.)       :      0.04683
Magnitude (Debye)      :      0.11903

Rotational constants in cm-1:     2.917838     0.714537     0.705359
Rotational constants in MHz : 87474.579540 21421.280941 21146.123231

                             ****ORCA TERMINATED NORMALLY****
TOTAL RUN TIME: 0 days 0 hours 0 minutes 3 seconds 370 msec
