                         Program Version 5.0.0 -  RELEASE  -
|  1> !LC-PBE RIJCOSX def2-SVPD def2/J TightSCF
|  2> *xyz 0 1
|  3> C         -7.33044       -2.67899       -3.20681
|  4> S         -6.01966       -2.92697       -4.41913
|  5> O         -5.64583       -1.58838       -4.91931
|  6> F         -4.88196       -3.50370       -3.66724
|  7> O         -6.54927       -3.80515       -5.42507
|  8> H         -8.18867       -2.26077       -3.68996
|  9> H         -6.98921       -2.01038       -2.44430
| 10> H         -7.59151       -3.61862       -2.76655
| 11> *
| 12> %MaxCore 64000
| 13>
| 14> %pal nprocs 8
| 15> end
| 16>
| 17> %scf
| 18>   MaxIter 150
| 19> end
| 20>
| 21>
| 22>                          ****END OF INPUT****

CARTESIAN COORDINATES (ANGSTROEM)
---------------------------------
  C     -7.330440   -2.678990   -3.206810
  S     -6.019660   -2.926970   -4.419130
  O     -5.645830   -1.588380   -4.919310
  F     -4.881960   -3.503700   -3.667240
  O     -6.549270   -3.805150   -5.425070
  H     -8.188670   -2.260770   -3.689960
  H     -6.989210   -2.010380   -2.444300
  H     -7.591510   -3.618620   -2.766550

 Total Charge           Charge          ....    0
 Multiplicity           Mult            ....    1
 Number of Electrons    NEL             ....   50
 Basis Dimension        Dim             ....  140

ORBITAL ENERGIES
----------------

  NO   OCC          E(Eh)            E(eV)
   0   2.0000     -88.583400     -2410.4769
   1   2.0000     -24.619010      -669.9173
   2   2.0000     -19.017281      -517.4865
   3   2.0000     -19.004910      -517.1499
   4   2.0000     -10.197832      -277.4971
   5   2.0000      -8.205352      -223.2790
   6   2.0000      -6.232328      -169.5903
   7   2.0000      -6.225188      -169.3960
   8   2.0000      -6.224438      -169.3756
   9   2.0000      -1.517078       -41.2818
  10   2.0000      -1.290661       -35.1207
  11   2.0000      -1.181067       -32.1385
  12   2.0000      -0.981255       -26.7013
  13   2.0000      -0.869003       -23.6468
  14   2.0000      -0.756404       -20.5828
  15   2.0000      -0.731069       -19.8934
  16   2.0000      -0.709945       -19.3186
  17   2.0000      -0.631511       -17.1843
  18   2.0000      -0.629546       -17.1308
  19   2.0000      -0.614948       -16.7336
  20   2.0000      -0.587465       -15.9857
  21   2.0000      -0.538118       -14.6429
  22   2.0000      -0.485270       -13.2049
  23   2.0000      -0.473632       -12.8882
  24   2.0000      -0.455613       -12.3979
  25   0.0000       0.059155         1.6097
  26   0.0000       0.090305         2.4573
  27   0.0000       0.094823         2.5803
  28   0.0000       0.097043         2.6407
  29   0.0000       0.112709         3.0670

MULLIKEN ATOMIC CHARGES
-----------------------
   0 C :    0.177918
   1 S :    1.151205
   2 O :   -0.623965
   3 F :   -0.350681
   4 O :   -0.580960
   5 H :    0.072161
   6 H :    0.075147
   7 H :    0.079176
Sum of atomic charges:    0.0000000

LOEWDIN ATOMIC CHARGES
----------------------
   0 C :    0.096933
   1 S :    1.087359
   2 O :   -0.479856
   3 F :   -0.260902
   4 O :   -0.460575
   5 H :    0.013791
   6 H :    0.002053
   7 H :    0.001197

  Mayer bond orders larger than 0.100000
B(  0-C ,  1-S ) :   1.0185 B(  0-C ,  5-H ) :   0.9280 B(  0-C ,  6-H ) :   0.9292
B(  0-C ,  7-H ) :   0.9242 B(  1-S ,  2-O ) :   1.5497 B(  1-S ,  3-F ) :   0.7085
B(  1-S ,  4-O ) :   1.5856

FINAL SINGLE POINT ENERGY      -686.895378120473

DIPOLE MOMENT
-------------
                                X             Y             Z
Electronic contribution:      4.79349      -1.62486      -1.56143
Nuclear contribution   :     -5.44924       1.37171       3.19232
                        -----------------------------------------
Total Dipole Moment    :     -0.65574      -0.25316       1.63089
                        -----------------------------------------
Magnitude (a.u.)       :      1.77592
Magnitude (Debye)      :      4.51403

Rotational constants in cm-1:     0.163884     0.151426     0.145804
Rotational constants in MHz :  4913.124213  4539.628058  4371.086672

                             ****ORCA TERMINATED NORMALLY****
TOTAL RUN TIME: 0 days 0 hours 0 minutes 7 seconds 290 msec
