                         Program Version 5.0.0 -  RELEASE  -
|  1> !LC-PBE RIJCOSX def2-SVPD def2/J TightSCF
|  2> *xyz 0 1
|  3> C         -7.33044       -2.67899       -3.20681
|  4> S         -6.01966       -2.92697       -4.41913
|  5> O         -5.64583       -1.58838       -4.91931
|  6> O         -4.88196       -3.50370       -3.66724
|  7> F         -6.54927       -3.80515       -5.42507
|  8> H         -8.18867       -2.26077       -3.68996
|  9> H         -6.98921       -2.01038       -2.44430
| 10> H         -7.59151       -3.61862       -2.76655
| 11> *
| 12> %MaxCore 64000
| 13>
| 14> %pal nprocs 8
| 15> end
| 16>
| 17> %scf
| 18>   MaxIter 150
| 19> end
| 20>
| 21>
| 22>                          ****END OF INPUT****

CARTESIAN COORDINATES (ANGSTROEM)
---------------------------------
  C     -7.330440   -2.678990   -3.206810
  S     -6.019660   -2.926970   -4.419130
  O     -5.645830   -1.588380   -4.919310
  O     -4.881960   -3.503700   -3.667240
  F     -6.549270   -3.805150   -5.425070
  H     -8.188670   -2.260770   -3.689960
  H     -6.989210   -2.010380   -2.444300
  H     -7.591510   -3.618620   -2.766550

 Total Charge           Charge          ....    0
 Multiplicity           Mult            ....    1
 Number of Electrons    NEL             ....   50
 Basis Dimension        Dim             ....  140

ORBITAL ENERGIES
----------------

  NO   OCC          E(Eh)            E(eV)
   0   2.0000     -88.585513     -2410.5344
   1   2.0000     -24.641104      -670.5185
   2   2.0000     -19.005405      -517.1633
   3   2.0000     -19.002796      -517.0924
   4   2.0000     -10.198782      -277.5230
   5   2.0000      -8.207597      -223.3401
   6   2.0000      -6.234805      -169.6577
   7   2.0000      -6.227172      -169.4500
   8   2.0000      -6.226456      -169.4305
   9   2.0000      -1.554017       -42.2869
  10   2.0000      -1.276215       -34.7276
  11   2.0000      -1.163683       -31.6654
  12   2.0000      -0.983530       -26.7632
  13   2.0000      -0.887660       -24.1545
  14   2.0000      -0.774197       -21.0670
  15   2.0000      -0.757467       -20.6117
  16   2.0000      -0.713678       -19.4202
  17   2.0000      -0.629895       -17.1403
  18   2.0000      -0.626402       -17.0453
  19   2.0000      -0.616574       -16.7778
  20   2.0000      -0.579420       -15.7668
  21   2.0000      -0.530159       -14.4263
  22   2.0000      -0.472962       -12.8700
  23   2.0000      -0.468953       -12.7609
  24   2.0000      -0.441835       -12.0229
  25   0.0000       0.056809         1.5459
  26   0.0000       0.088667         2.4128
  27   0.0000       0.093674         2.5490
  28   0.0000       0.097559         2.6547
  29   0.0000       0.114221         3.1081

MULLIKEN ATOMIC CHARGES
-----------------------
   0 C :    0.178898
   1 S :    1.143773
   2 O :   -0.611737
   3 O :   -0.617105
   4 F :   -0.322735
   5 H :    0.076001
   6 H :    0.072444
   7 H :    0.080460
Sum of atomic charges:   -0.0000000

LOEWDIN ATOMIC CHARGES
----------------------
   0 C :    0.096521
   1 S :    1.089984
   2 O :   -0.479379
   3 O :   -0.483131
   4 F :   -0.241207
   5 H :    0.000516
   6 H :    0.015117
   7 H :    0.001580

  Mayer bond orders larger than 0.100000
B(  0-C ,  1-S ) :   1.0179 B(  0-C ,  5-H ) :   0.9241 B(  0-C ,  6-H ) :   0.9320
B(  0-C ,  7-H ) :   0.9237 B(  1-S ,  2-O ) :   1.5527 B(  1-S ,  3-O ) :   1.5501
B(  1-S ,  4-F ) :   0.7558 B(  1-S ,  6-H ) :   0.1035

FINAL SINGLE POINT ENERGY      -686.876311447603

DIPOLE MOMENT
-------------
                                X             Y             Z
Electronic contribution:      1.96835      -2.11917      -4.54096
Nuclear contribution   :     -3.78348       1.67287       4.94851
                        -----------------------------------------
Total Dipole Moment    :     -1.81513      -0.44630       0.40755
                        -----------------------------------------
Magnitude (a.u.)       :      1.91311
Magnitude (Debye)      :      4.86274

Rotational constants in cm-1:     0.163108     0.153882     0.144407
Rotational constants in MHz :  4889.859464  4613.257659  4329.207840

                             ****ORCA TERMINATED NORMALLY****
TOTAL RUN TIME: 0 days 0 hours 0 minutes 10 seconds 60 msec
