                         Program Version 5.0.0 -  RELEASE  -
|  1> !LC-PBE RIJCOSX def2-SVPD def2/J TightSCF xyzfile
|  2>
|  3> *xyzfile 0 1 D2.xyz
|  4>
|  5> %MaxCore 64000
|  6>
|  7> %pal nprocs 4
|  8> end
|  9>
| 10> %scf
| 11>   MaxIter 150
| 12> end
| 13>
| 14>
| 15>                          ****END OF INPUT****

CARTESIAN COORDINATES (ANGSTROEM)
---------------------------------
  C     -2.160376   -1.369486   -3.467104
  C     -3.030108   -1.910857   -4.541074
  C     -2.047717    0.146583   -3.511774
  C     -7.330440   -2.678991   -3.206811
  S     -6.019659   -2.926965   -4.419128
  H     -3.477443   -2.791513   -4.257096
  H     -2.538013   -2.017860   -5.438075
  H     -3.891589   -1.376039   -4.714365
  O     -5.645830   -1.588384   -4.919307
  F     -4.881961   -3.503697   -3.667235
  H     -1.184438   -1.843997   -3.566393
  H     -2.598195   -1.708376   -2.528477
  O     -6.549267   -3.805150   -5.425071
  C     -3.328755    0.875037   -3.103669
  H     -1.740034    0.452343   -4.517126
  H     -1.232611    0.434938   -2.842208
  C     -3.628487    0.771601   -1.609363
  H     -4.175106    0.490791   -3.682203
  H     -3.237812    1.928663   -3.381480
  C     -4.975718    1.361432   -1.190644
  H     -2.830700    1.276234   -1.054766
  H     -3.594312   -0.275838   -1.294603
  C     -6.184720    0.784347   -1.926464
  H     -4.956292    2.445725   -1.342200
  H     -5.097256    1.205252   -0.114136
  C     -6.286921   -0.735882   -1.893531
  H     -6.163994    1.100199   -2.974250
  H     -7.094530    1.223459   -1.504509
  C     -7.468999   -1.246153   -2.713833
  H     -6.360641   -1.090347   -0.859176
  H     -5.369848   -1.171853   -2.295982
  H     -7.601914   -0.601349   -3.585329
  H     -8.389791   -1.173436   -2.126922
  H     -7.118254   -3.379818   -2.398055
  H     -8.241838   -3.004745   -3.706513

 Total Charge           Charge          ....    0
 Multiplicity           Mult            ....    1
 Number of Electrons    NEL             ....  122
 Basis Dimension        Dim             ....  464

ORBITAL ENERGIES
----------------

  NO   OCC          E(Eh)            E(eV)
   0   2.0000     -88.582360     -2410.4486
   1   2.0000     -24.619893      -669.9413
   2   2.0000     -19.018669      -517.5243
   3   2.0000     -19.006544      -517.1944
   4   2.0000     -10.200222      -277.5621
   5   2.0000     -10.158176      -276.4180
   6   2.0000     -10.139378      -275.9065
   7   2.0000     -10.128225      -275.6030
   8   2.0000     -10.122834      -275.4563
   9   2.0000     -10.116804      -275.2922
  10   2.0000     -10.110935      -275.1325
  11   2.0000     -10.107684      -275.0441
  12   2.0000     -10.101917      -274.8871
  13   2.0000     -10.054281      -273.5909
  14   2.0000      -8.203289      -223.2228
  15   2.0000      -6.230396      -169.5377
  16   2.0000      -6.223438      -169.3484
  17   2.0000      -6.221954      -169.3080
  18   2.0000      -1.521309       -41.3969
  19   2.0000      -1.292614       -35.1738
  20   2.0000      -1.185682       -32.2641
  21   2.0000      -1.023685       -27.8559
  22   2.0000      -0.992053       -26.9951
  23   2.0000      -0.962049       -26.1787
  24   2.0000      -0.933094       -25.3908
  25   2.0000      -0.887217       -24.1424
  26   2.0000      -0.872886       -23.7524
  27   2.0000      -0.832327       -22.6488
  28   2.0000      -0.795934       -21.6585
  29   2.0000      -0.781709       -21.2714
  30   2.0000      -0.741597       -20.1799
  31   2.0000      -0.737410       -20.0660
  32   2.0000      -0.728851       -19.8330
  33   2.0000      -0.712987       -19.4014
  34   2.0000      -0.695581       -18.9277
  35   2.0000      -0.657905       -17.9025
  36   2.0000      -0.636329       -17.3154
  37   2.0000      -0.628430       -17.1004
  38   2.0000      -0.619665       -16.8619
  39   2.0000      -0.612027       -16.6541
  40   2.0000      -0.590928       -16.0800
  41   2.0000      -0.578127       -15.7316
  42   2.0000      -0.574510       -15.6332
  43   2.0000      -0.569926       -15.5085
  44   2.0000      -0.548499       -14.9254
  45   2.0000      -0.541540       -14.7361
  46   2.0000      -0.527994       -14.3675
  47   2.0000      -0.520179       -14.1548
  48   2.0000      -0.509542       -13.8653
  49   2.0000      -0.499328       -13.5874
  50   2.0000      -0.491797       -13.3825
  51   2.0000      -0.477622       -12.9968
  52   2.0000      -0.469431       -12.7739
  53   2.0000      -0.467309       -12.7161
  54   2.0000      -0.459634       -12.5073
  55   2.0000      -0.456838       -12.4312
  56   2.0000      -0.447749       -12.1839
  57   2.0000      -0.440487       -11.9862
  58   2.0000      -0.426961       -11.6182
  59   2.0000      -0.423670       -11.5287
  60   2.0000      -0.413286       -11.2461
  61   0.0000       0.065698         1.7877
  62   0.0000       0.081874         2.2279
  63   0.0000       0.088903         2.4192
  64   0.0000       0.095912         2.6099
  65   0.0000       0.103070         2.8047

MULLIKEN ATOMIC CHARGES
-----------------------
   0 C :   -0.073737
   1 C :    1.702106
   2 C :    0.368651
   3 C :    0.203463
   4 S :    1.326432
   5 H :   -0.500940
   6 H :   -0.203116
   7 H :   -0.872339
   8 O :   -0.671821
   9 F :   -0.464386
  10 H :   -0.170107
  11 H :    0.031797
  12 O :   -0.655387
  13 C :    0.280446
  14 H :    0.007862
  15 H :   -0.020968
  16 C :   -0.263026
  17 H :   -0.531525
  18 H :    0.018769
  19 C :    0.498874
  20 H :   -0.222976
  21 H :    0.132140
  22 C :   -0.279935
  23 H :    0.054305
  24 H :    0.079472
  25 C :    0.226224
  26 H :    0.265640
  27 H :   -0.295001
  28 C :    0.122318
  29 H :    0.017272
  30 H :   -0.350973
  31 H :    0.182962
  32 H :   -0.092897
  33 H :    0.059216
  34 H :    0.091185
Sum of atomic charges:   -0.0000000

LOEWDIN ATOMIC CHARGES
----------------------
   0 C :   -0.065575
   1 C :    0.100455
   2 C :   -0.049530
   3 C :   -0.049607
   4 S :    1.143456
   5 H :   -0.087167
   6 H :    0.001456
   7 H :   -0.110205
   8 O :   -0.446808
   9 F :   -0.263434
  10 H :    0.033631
  11 H :    0.018842
  12 O :   -0.440026
  13 C :   -0.040594
  14 H :    0.039144
  15 H :    0.029529
  16 C :   -0.059434
  17 H :    0.009432
  18 H :    0.038795
  19 C :   -0.053179
  20 H :    0.036221
  21 H :    0.013526
  22 C :   -0.056366
  23 H :    0.035869
  24 H :    0.033621
  25 C :   -0.047150
  26 H :    0.032986
  27 H :    0.038231
  28 C :   -0.058941
  29 H :    0.048816
  30 H :    0.006491
  31 H :    0.038903
  32 H :    0.049632
  33 H :    0.038773
  34 H :    0.040206

  Mayer bond orders larger than 0.100000
B(  0-C ,  1-C ) :   1.0192 B(  0-C ,  2-C ) :   1.2091 B(  0-C ,  5-H ) :   0.3572
B(  0-C ,  7-H ) :   0.3609 B(  0-C , 10-H ) :   0.9658 B(  0-C , 11-H ) :   0.7863
B(  0-C , 14-H ) :   0.1300 B(  0-C , 15-H ) :   0.1487 B(  1-C ,  6-H ) :   0.6763
B(  1-C ,  7-H ) :  -0.2700 B(  1-C , 11-H ) :   0.1737 B(  2-C ,  7-H ) :  -0.1084
B(  2-C , 11-H ) :   0.1005 B(  2-C , 13-C ) :   1.2151 B(  2-C , 14-H ) :   0.7542
B(  2-C , 15-H ) :   0.8038 B(  2-C , 17-H ) :   0.1122 B(  3-C ,  4-S ) :   0.9169
B(  3-C , 12-O ) :   0.1022 B(  3-C , 28-C ) :   1.2388 B(  3-C , 33-H ) :   0.9190
B(  3-C , 34-H ) :   0.7964 B(  4-S ,  8-O ) :   1.4847 B(  4-S ,  9-F ) :   0.6208
B(  4-S , 12-O ) :   1.5805 B(  5-H ,  6-H ) :  -0.1089 B(  5-H ,  7-H ) :   0.7377
B(  5-H ,  9-F ) :   0.1874 B(  6-H ,  7-H ) :   0.1966 B(  7-H ,  8-O ) :   0.1029
B(  7-H ,  9-F ) :   0.1028 B(  7-H , 17-H ) :   0.1547 B( 13-C , 14-H ) :   0.1799
B( 13-C , 15-H ) :   0.1336 B( 13-C , 16-C ) :   1.1831 B( 13-C , 17-H ) :   0.8086
B( 13-C , 18-H ) :   0.7934 B( 13-C , 20-H ) :   0.1778 B( 14-H , 15-H ) :  -0.1168
B( 16-C , 17-H ) :   0.1835 B( 16-C , 18-H ) :   0.1708 B( 16-C , 19-C ) :   1.1996
B( 16-C , 20-H ) :   1.0257 B( 16-C , 21-H ) :   0.8822 B( 16-C , 22-C ) :   0.1023
B( 16-C , 23-H ) :   0.1267 B( 16-C , 24-H ) :   0.2277 B( 19-C , 22-C ) :   1.1491
B( 19-C , 23-H ) :   0.7374 B( 19-C , 24-H ) :   0.7361 B( 22-C , 23-H ) :   0.1939
B( 22-C , 25-C ) :   1.2853 B( 22-C , 26-H ) :   0.7924 B( 22-C , 27-H ) :   1.1019
B( 22-C , 28-C ) :   0.1259 B( 22-C , 30-H ) :   0.1362 B( 25-C , 27-H ) :   0.1723
B( 25-C , 28-C ) :   1.1557 B( 25-C , 29-H ) :   0.7516 B( 25-C , 30-H ) :   0.8044
B( 25-C , 32-H ) :   0.1838 B( 28-C , 29-H ) :   0.1131 B( 28-C , 31-H ) :   0.8562
B( 28-C , 32-H ) :   0.8804 B( 28-C , 34-H ) :   0.1685 B( 29-H , 30-H ) :   0.2782

FINAL SINGLE POINT ENERGY     -1039.193102089553

DIPOLE MOMENT
-------------
                                X             Y             Z
Electronic contribution:     -9.57984     -19.49409     -10.99511
Nuclear contribution   :      8.71934      19.48829      12.54264
                        -----------------------------------------
Total Dipole Moment    :     -0.86050      -0.00581       1.54753
                        -----------------------------------------
Magnitude (a.u.)       :      1.77069
Magnitude (Debye)      :      4.50073

Rotational constants in cm-1:     0.025810     0.015137     0.010647
Rotational constants in MHz :   773.773140   453.802427   319.195213

                             ****ORCA TERMINATED NORMALLY****
TOTAL RUN TIME: 0 days 0 hours 3 minutes 29 seconds 961 msec
