                         Program Version 5.0.0 -  RELEASE  -
|  1> !LC-PBE RIJCOSX def2-SVPD def2/J TightSCF
|  2> *xyz -1 1
|  3> C         -0.47749        0.60819       -4.10105
|  4> C          0.18467       -0.50664       -4.91676
|  5> O         -0.15869       -1.70109       -4.65798
|  6> O          1.05594       -0.17441       -5.74037
|  7> H         -0.09903        1.55672       -4.42038
|  8> H         -0.25931        0.46828       -3.06292
|  9> H         -1.53664        0.57826       -4.25010
| 10> *
| 11>
| 12> %MaxCore 64000
| 13>
| 14> %pal nprocs 4
| 15> end
| 16>
| 17> %scf
| 18>   MaxIter 150
| 19> end
| 20>
| 21>
| 22>                          ****END OF INPUT****

CARTESIAN COORDINATES (ANGSTROEM)
---------------------------------
  C     -0.477490    0.608190   -4.101050
  C      0.184670   -0.506640   -4.916760
  O     -0.158690   -1.701090   -4.657980
  O      1.055940   -0.174410   -5.740370
  H     -0.099030    1.556720   -4.420380
  H     -0.259310    0.468280   -3.062920
  H     -1.536640    0.578260   -4.250100

 Total Charge           Charge          ....   -1
 Multiplicity           Mult            ....    1
 Number of Electrons    NEL             ....   32
 Basis Dimension        Dim             ....  110

ORBITAL ENERGIES
----------------

  NO   OCC          E(Eh)            E(eV)
   0   2.0000     -18.726984      -509.5871
   1   2.0000     -18.720972      -509.4235
   2   2.0000     -10.018585      -272.6196
   3   2.0000      -9.940246      -270.4878
   4   2.0000      -0.978034       -26.6137
   5   2.0000      -0.872937       -23.7538
   6   2.0000      -0.711550       -19.3623
   7   2.0000      -0.450940       -12.2707
   8   2.0000      -0.406491       -11.0612
   9   2.0000      -0.388709       -10.5773
  10   2.0000      -0.372935       -10.1481
  11   2.0000      -0.324427        -8.8281
  12   2.0000      -0.308938        -8.4066
  13   2.0000      -0.175972        -4.7885
  14   2.0000      -0.173910        -4.7323
  15   2.0000      -0.160433        -4.3656
  16   0.0000       0.237120         6.4524
  17   0.0000       0.270213         7.3529
  18   0.0000       0.297543         8.0966
  19   0.0000       0.306968         8.3530
  20   0.0000       0.332873         9.0579

MULLIKEN ATOMIC CHARGES
-----------------------
   0 C :    0.243640
   1 C :   -0.045984
   2 O :   -0.642267
   3 O :   -0.579395
   4 H :    0.000173
   5 H :    0.011295
   6 H :    0.012537
Sum of atomic charges:   -1.0000000

LOEWDIN ATOMIC CHARGES
----------------------
   0 C :    0.108712
   1 C :   -0.356663
   2 O :   -0.351091
   3 O :   -0.327341
   4 H :   -0.029480
   5 H :   -0.021201
   6 H :   -0.022935

  Mayer bond orders larger than 0.100000
B(  0-C ,  1-C ) :   1.2012 B(  0-C ,  4-H ) :   0.8959 B(  0-C ,  5-H ) :   0.8560
B(  0-C ,  6-H ) :   0.8483 B(  1-C ,  2-O ) :   1.5524 B(  1-C ,  3-O ) :   1.5899
B(  1-C ,  4-H ) :   0.2021 B(  1-C ,  5-H ) :   0.1262 B(  1-C ,  6-H ) :   0.1324

FINAL SINGLE POINT ENERGY      -227.725907093444

DIPOLE MOMENT
-------------
                                X             Y             Z
Electronic contribution:      1.55640      -2.50816      -1.88843
Nuclear contribution   :     -2.19461       3.67480       2.63888
                        -----------------------------------------
Total Dipole Moment    :     -0.63821       1.16664       0.75045
                        -----------------------------------------
Magnitude (a.u.)       :      1.52694
Magnitude (Debye)      :      3.88116

Rotational constants in cm-1:     0.393152     0.332423     0.186264
Rotational constants in MHz : 11786.395082  9965.786704  5584.045355

                             ****ORCA TERMINATED NORMALLY****
TOTAL RUN TIME: 0 days 0 hours 0 minutes 7 seconds 866 msec
