                         Program Version 5.0.0 -  RELEASE  -
|  1> !LC-PBE RIJCOSX def2-SVPD def2/J TightSCF
|  2> *xyz 1 1
|  3> C          2.48645       -2.67712       -2.56345
|  4> C          3.03764       -2.36672       -3.92351
|  5> N          2.28036       -2.45441       -4.96769
|  6> N          4.32174       -2.01793       -4.01664
|  7> H          4.87994       -1.91167       -3.17382
|  8> H          4.71015       -1.67088       -4.88356
|  9> H          1.27042       -2.41265       -4.86614
| 10> H          2.58183       -2.05528       -5.84688
| 11> H          1.45238       -2.93848       -2.64882
| 12> H          2.58636       -1.81799       -1.93352
| 13> H          3.02742       -3.49632       -2.13781
| 14> *
| 15>
| 16> %MaxCore 64000
| 17>
| 18> %pal nprocs 4
| 19> end
| 20>
| 21> %scf
| 22>   MaxIter 150
| 23> end
| 24>
| 25>
| 26>                          ****END OF INPUT****

CARTESIAN COORDINATES (ANGSTROEM)
---------------------------------
  C      2.486450   -2.677120   -2.563450
  C      3.037640   -2.366720   -3.923510
  N      2.280360   -2.454410   -4.967690
  N      4.321740   -2.017930   -4.016640
  H      4.879940   -1.911670   -3.173820
  H      4.710150   -1.670880   -4.883560
  H      1.270420   -2.412650   -4.866140
  H      2.581830   -2.055280   -5.846880
  H      1.452380   -2.938480   -2.648820
  H      2.586360   -1.817990   -1.933520
  H      3.027420   -3.496320   -2.137810

 Total Charge           Charge          ....    1
 Multiplicity           Mult            ....    1
 Number of Electrons    NEL             ....   32
 Basis Dimension        Dim             ....  136

ORBITAL ENERGIES
----------------

  NO   OCC          E(Eh)            E(eV)
   0   2.0000     -14.486130      -394.1876
   1   2.0000     -14.480189      -394.0260
   2   2.0000     -10.473126      -284.9883
   3   2.0000     -10.326738      -281.0048
   4   2.0000      -1.386178       -37.7198
   5   2.0000      -1.278952       -34.8021
   6   2.0000      -1.125038       -30.6138
   7   2.0000      -1.002423       -27.2773
   8   2.0000      -0.933704       -25.4074
   9   2.0000      -0.918637       -24.9974
  10   2.0000      -0.848426       -23.0868
  11   2.0000      -0.815796       -22.1989
  12   2.0000      -0.754242       -20.5240
  13   2.0000      -0.740189       -20.1416
  14   2.0000      -0.717804       -19.5324
  15   2.0000      -0.634864       -17.2755
  16   0.0000      -0.128589        -3.4991
  17   0.0000      -0.082575        -2.2470
  18   0.0000      -0.039621        -1.0781
  19   0.0000      -0.036383        -0.9900
  20   0.0000      -0.012734        -0.3465

MULLIKEN ATOMIC CHARGES
-----------------------
   0 C :    0.289586
   1 C :    0.273069
   2 N :    0.035914
   3 N :    0.009080
   4 H :    0.059496
   5 H :   -0.072473
   6 H :    0.075956
   7 H :   -0.024057
   8 H :    0.125150
   9 H :    0.110938
  10 H :    0.117339
Sum of atomic charges:    1.0000000

LOEWDIN ATOMIC CHARGES
----------------------
   0 C :    0.201880
   1 C :   -0.065533
   2 N :    0.263904
   3 N :    0.261583
   4 H :    0.065312
   5 H :    0.053574
   6 H :    0.069791
   7 H :    0.061394
   8 H :    0.018778
   9 H :    0.033737
  10 H :    0.035580

  Mayer bond orders larger than 0.100000
B(  0-C ,  1-C ) :   1.3096 B(  0-C ,  8-H ) :   0.8091 B(  0-C ,  9-H ) :   0.8214
B(  0-C , 10-H ) :   0.7778 B(  1-C ,  2-N ) :   1.1391 B(  1-C ,  3-N ) :   1.1301
B(  1-C ,  5-H ) :  -0.1389 B(  1-C ,  7-H ) :  -0.1184 B(  1-C ,  8-H ) :   0.1956
B(  1-C ,  9-H ) :   0.1265 B(  1-C , 10-H ) :   0.1519 B(  2-N ,  3-N ) :   0.1328
B(  2-N ,  6-H ) :   1.0456 B(  2-N ,  7-H ) :   1.1749 B(  3-N ,  4-H ) :   1.1038
B(  3-N ,  5-H ) :   1.2313 B(  4-H ,  5-H ) :  -0.1469 B(  6-H ,  7-H ) :  -0.1174

FINAL SINGLE POINT ENERGY      -188.982771929060

DIPOLE MOMENT
-------------
                                X             Y             Z
Electronic contribution:      0.78298       0.26215      -1.96946
Nuclear contribution   :     -0.70516       0.22720       1.57908
                        -----------------------------------------
Total Dipole Moment    :      0.07782       0.48935      -0.39038
                        -----------------------------------------
Magnitude (a.u.)       :      0.63081
Magnitude (Debye)      :      1.60339

Rotational constants in cm-1:     0.330529     0.301293     0.162717
Rotational constants in MHz :  9909.000224  9032.538169  4878.126278

                             ****ORCA TERMINATED NORMALLY****
TOTAL RUN TIME: 0 days 0 hours 0 minutes 11 seconds 684 msec
