                         Program Version 5.0.0 -  RELEASE  -
|  1> !LC-PBE RIJCOSX def2-SVPD def2/J TightSCF xyzfile
|  2>
|  3> *xyzfile 0 1 B.xyz
|  4>
|  5> %MaxCore 64000
|  6>
|  7> %pal nprocs 4
|  8> end
|  9>
| 10> %scf
| 11>   MaxIter 150
| 12> end
| 13>
| 14>
| 15>                          ****END OF INPUT****

CARTESIAN COORDINATES (ANGSTROEM)
---------------------------------
  C      2.486452   -2.677121   -2.563447
  C     -0.870963    0.248043   -2.662804
  C     -0.477492    0.608191   -4.101052
  H      0.206773    1.458299   -4.118748
  H     -1.368442    0.929419   -4.647855
  C      0.184673   -0.506640   -4.916760
  C      3.037640   -2.366715   -3.923509
  N      2.280360   -2.454408   -4.967692
  N      4.321736   -2.017932   -4.016641
  H      4.879940   -1.911668   -3.173823
  H      4.710148   -1.670882   -4.883561
  H      1.270423   -2.412650   -4.866143
  H      2.581829   -2.055282   -5.846878
  O     -0.158685   -1.701088   -4.657981
  O      1.055938   -0.174410   -5.740373
  C      2.497991   -1.469464   -1.610303
  C      1.582841   -0.321986   -2.042619
  H      2.193083   -1.833912   -0.625420
  H      3.523356   -1.103982   -1.490392
  C      0.100160   -0.673551   -1.915815
  H      1.822311   -0.040361   -3.072834
  H      1.813180    0.557019   -1.433266
  H     -0.063284   -1.679120   -2.301112
  H     -0.168820   -0.691680   -0.853831
  H     -1.001048    1.181040   -2.104071
  H     -1.844645   -0.246592   -2.663281
  H      1.472592   -3.051527   -2.694366
  H      3.083201   -3.490638   -2.141472

 Total Charge           Charge          ....    0
 Multiplicity           Mult            ....    1
 Number of Electrons    NEL             ....   94
 Basis Dimension        Dim             ....  374

ORBITAL ENERGIES
----------------

  NO   OCC          E(Eh)            E(eV)
   0   2.0000     -18.905772      -514.4522
   1   2.0000     -18.899330      -514.2769
   2   2.0000     -14.315128      -389.5344
   3   2.0000     -14.277568      -388.5124
   4   2.0000     -10.288918      -279.9757
   5   2.0000     -10.187817      -277.2246
   6   2.0000     -10.175095      -276.8784
   7   2.0000     -10.157354      -276.3957
   8   2.0000     -10.125895      -275.5396
   9   2.0000     -10.107274      -275.0329
  10   2.0000     -10.103100      -274.9193
  11   2.0000     -10.090937      -274.5884
  12   2.0000      -1.205714       -32.8092
  13   2.0000      -1.161416       -31.6037
  14   2.0000      -1.096081       -29.8259
  15   2.0000      -1.055334       -28.7171
  16   2.0000      -1.008429       -27.4407
  17   2.0000      -0.951758       -25.8987
  18   2.0000      -0.902535       -24.5592
  19   2.0000      -0.840853       -22.8808
  20   2.0000      -0.819696       -22.3051
  21   2.0000      -0.775274       -21.0963
  22   2.0000      -0.760496       -20.6942
  23   2.0000      -0.732266       -19.9260
  24   2.0000      -0.709116       -19.2960
  25   2.0000      -0.672704       -18.3052
  26   2.0000      -0.652246       -17.7485
  27   2.0000      -0.626660       -17.0523
  28   2.0000      -0.605543       -16.4777
  29   2.0000      -0.600240       -16.3334
  30   2.0000      -0.591109       -16.0849
  31   2.0000      -0.567309       -15.4373
  32   2.0000      -0.554334       -15.0842
  33   2.0000      -0.550703       -14.9854
  34   2.0000      -0.535862       -14.5815
  35   2.0000      -0.519624       -14.1397
  36   2.0000      -0.510957       -13.9039
  37   2.0000      -0.492802       -13.4098
  38   2.0000      -0.484845       -13.1933
  39   2.0000      -0.469547       -12.7770
  40   2.0000      -0.454701       -12.3731
  41   2.0000      -0.442373       -12.0376
  42   2.0000      -0.435591       -11.8530
  43   2.0000      -0.424131       -11.5412
  44   2.0000      -0.358286        -9.7495
  45   2.0000      -0.346116        -9.4183
  46   2.0000      -0.337087        -9.1726
  47   0.0000       0.042076         1.1449
  48   0.0000       0.059125         1.6089
  49   0.0000       0.091317         2.4849
  50   0.0000       0.101842         2.7713
  51   0.0000       0.107798         2.9333

MULLIKEN ATOMIC CHARGES
-----------------------
   0 C :    0.049866
   1 C :    0.305757
   2 C :    0.092591
   3 H :    0.267411
   4 H :   -0.167734
   5 C :    0.042575
   6 C :    0.538084
   7 N :    0.262944
   8 N :   -0.008939
   9 H :    0.028157
  10 H :   -0.091017
  11 H :   -0.216780
  12 H :    0.024314
  13 O :   -0.706028
  14 O :   -0.516423
  15 C :    0.129315
  16 C :    0.060389
  17 H :    0.028080
  18 H :   -0.024169
  19 C :   -0.117656
  20 H :   -0.087194
  21 H :   -0.096287
  22 H :    0.062370
  23 H :   -0.096207
  24 H :   -0.047623
  25 H :    0.125644
  26 H :    0.136178
  27 H :    0.022384
Sum of atomic charges:    0.0000000

LOEWDIN ATOMIC CHARGES
----------------------
   0 C :    0.034120
   1 C :   -0.040980
   2 C :    0.006398
   3 H :    0.030659
   4 H :    0.041678
   5 C :   -0.259063
   6 C :   -0.046294
   7 N :    0.300144
   8 N :    0.238642
   9 H :    0.033728
  10 H :    0.038904
  11 H :   -0.094699
  12 H :    0.042710
  13 O :   -0.254456
  14 O :   -0.259472
  15 C :   -0.035751
  16 C :   -0.031009
  17 H :    0.042333
  18 H :    0.021875
  19 C :   -0.051313
  20 H :    0.021364
  21 H :    0.039686
  22 H :   -0.001729
  23 H :    0.033371
  24 H :    0.027936
  25 H :    0.035197
  26 H :    0.036389
  27 H :    0.049634

  Mayer bond orders larger than 0.100000
B(  0-C ,  6-C ) :   1.1240 B(  0-C ,  7-N ) :   0.1072 B(  0-C , 15-C ) :   1.1829
B(  0-C , 17-H ) :   0.1206 B(  0-C , 18-H ) :   0.1271 B(  0-C , 26-H ) :   0.7895
B(  0-C , 27-H ) :   0.7903 B(  1-C ,  2-C ) :   1.1890 B(  1-C , 19-C ) :   1.3218
B(  1-C , 24-H ) :   0.8402 B(  1-C , 25-H ) :   0.7196 B(  2-C ,  3-H ) :   0.7688
B(  2-C ,  4-H ) :   0.8379 B(  2-C ,  5-C ) :   1.2065 B(  2-C , 24-H ) :   0.1261
B(  3-H ,  5-C ) :   0.2414 B(  4-H ,  5-C ) :   0.2278 B(  5-C , 13-O ) :   1.3559
B(  5-C , 14-O ) :   1.6805 B(  6-C ,  7-N ) :   1.2300 B(  6-C ,  8-N ) :   1.0030
B(  6-C , 12-H ) :  -0.1350 B(  6-C , 26-H ) :   0.1510 B(  6-C , 27-H ) :   0.1373
B(  7-N ,  8-N ) :   0.1748 B(  7-N , 11-H ) :   1.0474 B(  7-N , 12-H ) :   1.0701
B(  8-N ,  9-H ) :   1.1345 B(  8-N , 10-H ) :   1.2482 B(  9-H , 10-H ) :  -0.1696
B( 11-H , 12-H ) :  -0.1292 B( 11-H , 13-O ) :   0.2838 B( 13-O , 14-O ) :   0.1031
B( 15-C , 16-C ) :   1.2260 B( 15-C , 17-H ) :   0.9032 B( 15-C , 18-H ) :   0.7565
B( 15-C , 20-H ) :   0.1434 B( 15-C , 26-H ) :   0.1422 B( 15-C , 27-H ) :   0.1033
B( 16-C , 17-H ) :   0.1011 B( 16-C , 18-H ) :   0.1842 B( 16-C , 19-C ) :   1.1856
B( 16-C , 20-H ) :   0.8832 B( 16-C , 21-H ) :   0.9233 B( 16-C , 22-H ) :   0.1010
B( 16-C , 23-H ) :   0.2117 B( 19-C , 20-H ) :   0.1150 B( 19-C , 21-H ) :   0.1077
B( 19-C , 22-H ) :   0.8824 B( 19-C , 23-H ) :   0.8599 B( 19-C , 24-H ) :   0.1699
B( 19-C , 25-H ) :   0.1861 B( 22-H , 26-H ) :   0.1039

FINAL SINGLE POINT ENERGY      -572.301368886416

DIPOLE MOMENT
-------------
                                X             Y             Z
Electronic contribution:      1.75577      -2.89867      -8.72969
Nuclear contribution   :      1.39386       1.90489      10.36520
                        -----------------------------------------
Total Dipole Moment    :      3.14963      -0.99378       1.63551
                        -----------------------------------------
Magnitude (a.u.)       :      3.68546
Magnitude (Debye)      :      9.36770

Rotational constants in cm-1:     0.041165     0.025922     0.019001
Rotational constants in MHz :  1234.086888   777.109255   569.639629

                             ****ORCA TERMINATED NORMALLY****
TOTAL RUN TIME: 0 days 0 hours 2 minutes 28 seconds 22 msec
