                         Program Version 5.0.0 -  RELEASE  -
|  1> !LC-PBE RIJCOSX def2-SVPD def2/J TightSCF
|  2> *xyz 0 1
|  3> C         -0.47749        0.60819       -4.10105
|  4> C          0.18467       -0.50664       -4.91676
|  5> F         -0.15869       -1.70109       -4.65798
|  6> O          1.05594       -0.17441       -5.74037
|  7> H         -0.09903        1.55672       -4.42038
|  8> H         -0.25931        0.46828       -3.06292
|  9> H         -1.53664        0.57826       -4.25010
| 10> *
| 11>
| 12> %MaxCore 64000
| 13>
| 14> %pal nprocs 4
| 15> end
| 16>
| 17> %scf
| 18>   MaxIter 150
| 19> end
| 20>
| 21>
| 22>                          ****END OF INPUT****

CARTESIAN COORDINATES (ANGSTROEM)
---------------------------------
  C     -0.477490    0.608190   -4.101050
  C      0.184670   -0.506640   -4.916760
  F     -0.158690   -1.701090   -4.657980
  O      1.055940   -0.174410   -5.740370
  H     -0.099030    1.556720   -4.420380
  H     -0.259310    0.468280   -3.062920
  H     -1.536640    0.578260   -4.250100

 Total Charge           Charge          ....    0
 Multiplicity           Mult            ....    1
 Number of Electrons    NEL             ....   32
 Basis Dimension        Dim             ....  110

ORBITAL ENERGIES
----------------

  NO   OCC          E(Eh)            E(eV)
   0   2.0000     -24.580122      -668.8591
   1   2.0000     -19.008587      -517.2499
   2   2.0000     -10.324847      -280.9534
   3   2.0000     -10.157177      -276.3908
   4   2.0000      -1.461194       -39.7611
   5   2.0000      -1.203079       -32.7374
   6   2.0000      -0.943982       -25.6871
   7   2.0000      -0.813672       -22.1411
   8   2.0000      -0.707716       -19.2579
   9   2.0000      -0.701053       -19.0766
  10   2.0000      -0.655460       -17.8360
  11   2.0000      -0.588114       -16.0034
  12   2.0000      -0.577642       -15.7184
  13   2.0000      -0.550084       -14.9686
  14   2.0000      -0.502933       -13.6855
  15   2.0000      -0.439029       -11.9466
  16   0.0000       0.067633         1.8404
  17   0.0000       0.080188         2.1820
  18   0.0000       0.118717         3.2305
  19   0.0000       0.153140         4.1672
  20   0.0000       0.159883         4.3506

MULLIKEN ATOMIC CHARGES
-----------------------
   0 C :    0.145309
   1 C :    0.328760
   2 F :   -0.329347
   3 O :   -0.386474
   4 H :    0.044929
   5 H :    0.099499
   6 H :    0.097323
Sum of atomic charges:    0.0000000

LOEWDIN ATOMIC CHARGES
----------------------
   0 C :    0.180990
   1 C :   -0.049506
   2 F :   -0.035066
   3 O :   -0.128888
   4 H :    0.011138
   5 H :    0.011655
   6 H :    0.009678

  Mayer bond orders larger than 0.100000
B(  0-C ,  1-C ) :   1.2307 B(  0-C ,  4-H ) :   0.9209 B(  0-C ,  5-H ) :   0.8391
B(  0-C ,  6-H ) :   0.8356 B(  1-C ,  2-F ) :   0.8197 B(  1-C ,  3-O ) :   1.9301
B(  1-C ,  4-H ) :   0.1614

FINAL SINGLE POINT ENERGY      -252.235765989770

DIPOLE MOMENT
-------------
                                X             Y             Z
Electronic contribution:      1.05746      -4.64748      -1.58989
Nuclear contribution   :     -1.87439       4.97468       2.43802
                        -----------------------------------------
Total Dipole Moment    :     -0.81693       0.32720       0.84812
                        -----------------------------------------
Magnitude (a.u.)       :      1.22219
Magnitude (Debye)      :      3.10656

Rotational constants in cm-1:     0.370842     0.317886     0.176700
Rotational constants in MHz : 11117.569466  9529.969862  5297.328364

                             ****ORCA TERMINATED NORMALLY****
TOTAL RUN TIME: 0 days 0 hours 0 minutes 8 seconds 66 msec
