                         Program Version 5.0.0 -  RELEASE  -
|  1> !LC-PBE RIJCOSX def2-SVPD def2/J TightSCF
|  2> *xyz 0 1
|  3> C          2.48645       -2.67712       -2.56345
|  4> C          3.03764       -2.36672       -3.92351
|  5> C          2.28036       -2.45441       -4.96769
|  6> N          4.32174       -2.01793       -4.01664
|  7> H          4.87994       -1.91167       -3.17382
|  8> H          4.71015       -1.67088       -4.88356
|  9> H          1.27042       -2.41265       -4.86614
| 10> H          2.58183       -2.05528       -5.84688
| 11> H          1.45238       -2.93848       -2.64882
| 12> H          2.58636       -1.81799       -1.93352
| 13> H          3.02742       -3.49632       -2.13781
| 14> *
| 15>
| 16> %MaxCore 64000
| 17>
| 18> %pal nprocs 4
| 19> end
| 20>
| 21> %scf
| 22>   MaxIter 150
| 23> end
| 24>
| 25>
| 26>                          ****END OF INPUT****

CARTESIAN COORDINATES (ANGSTROEM)
---------------------------------
  C      2.486450   -2.677120   -2.563450
  C      3.037640   -2.366720   -3.923510
  C      2.280360   -2.454410   -4.967690
  N      4.321740   -2.017930   -4.016640
  H      4.879940   -1.911670   -3.173820
  H      4.710150   -1.670880   -4.883560
  H      1.270420   -2.412650   -4.866140
  H      2.581830   -2.055280   -5.846880
  H      1.452380   -2.938480   -2.648820
  H      2.586360   -1.817990   -1.933520
  H      3.027420   -3.496320   -2.137810

 Total Charge           Charge          ....    0
 Multiplicity           Mult            ....    1
 Number of Electrons    NEL             ....   32
 Basis Dimension        Dim             ....  136

ORBITAL ENERGIES
----------------

  NO   OCC          E(Eh)            E(eV)
   0   2.0000     -14.229256      -387.1977
   1   2.0000     -10.156691      -276.3776
   2   2.0000     -10.117120      -275.3008
   3   2.0000     -10.057309      -273.6733
   4   2.0000      -1.092685       -29.7335
   5   2.0000      -0.927500       -25.2386
   6   2.0000      -0.857452       -23.3325
   7   2.0000      -0.722182       -19.6516
   8   2.0000      -0.669728       -18.2242
   9   2.0000      -0.622551       -16.9405
  10   2.0000      -0.578943       -15.7538
  11   2.0000      -0.532832       -14.4991
  12   2.0000      -0.529888       -14.4190
  13   2.0000      -0.479578       -13.0500
  14   2.0000      -0.472428       -12.8554
  15   2.0000      -0.318533        -8.6677
  16   0.0000       0.091389         2.4868
  17   0.0000       0.125540         3.4161
  18   0.0000       0.128306         3.4914
  19   0.0000       0.134282         3.6540
  20   0.0000       0.168142         4.5754

MULLIKEN ATOMIC CHARGES
-----------------------
   0 C :    0.513937
   1 C :   -0.439639
   2 C :    0.191210
   3 N :    0.109139
   4 H :   -0.116700
   5 H :   -0.125956
   6 H :   -0.042181
   7 H :   -0.280496
   8 H :    0.112008
   9 H :    0.023182
  10 H :    0.055497
Sum of atomic charges:   -0.0000000

LOEWDIN ATOMIC CHARGES
----------------------
   0 C :    0.133690
   1 C :   -0.297210
   2 C :    0.126893
   3 N :    0.147379
   4 H :    0.010224
   5 H :    0.012312
   6 H :   -0.063741
   7 H :   -0.070054
   8 H :   -0.001384
   9 H :    0.000394
  10 H :    0.001499

  Mayer bond orders larger than 0.100000
B(  0-C ,  1-C ) :   1.3627 B(  0-C ,  8-H ) :   0.8229 B(  0-C ,  9-H ) :   0.6839
B(  0-C , 10-H ) :   0.7514 B(  1-C ,  2-C ) :   2.0584 B(  1-C ,  3-N ) :   1.1158
B(  1-C ,  7-H ) :   0.2130 B(  1-C ,  8-H ) :   0.1803 B(  1-C ,  9-H ) :   0.2709
B(  1-C , 10-H ) :   0.1909 B(  2-C ,  3-N ) :   0.2445 B(  2-C ,  6-H ) :   0.8726
B(  2-C ,  7-H ) :   0.7514 B(  3-N ,  4-H ) :   1.1762 B(  3-N ,  5-H ) :   1.1925
B(  4-H ,  5-H ) :  -0.1337 B(  6-H ,  7-H ) :   0.1879

FINAL SINGLE POINT ENERGY      -172.544941542583

DIPOLE MOMENT
-------------
                                X             Y             Z
Electronic contribution:      1.42285       0.18850      -0.89638
Nuclear contribution   :     -0.87498       0.20680       1.33581
                        -----------------------------------------
Total Dipole Moment    :      0.54787       0.39529       0.43943
                        -----------------------------------------
Magnitude (a.u.)       :      0.80593
Magnitude (Debye)      :      2.04850

Rotational constants in cm-1:     0.351941     0.304186     0.168624
Rotational constants in MHz : 10550.928440  9119.266441  5055.221775

                             ****ORCA TERMINATED NORMALLY****
TOTAL RUN TIME: 0 days 0 hours 0 minutes 11 seconds 636 msec
