                         Program Version 5.0.0 -  RELEASE  -
|  1> !LC-PBE RIJCOSX def2-SVPD def2/J TightSCF
|  2> *xyz 0 1
|  3> C         -0.47749        0.60819       -4.10105
|  4> C          0.18467       -0.50664       -4.91676
|  5> O         -0.15869       -1.70109       -4.65798
|  6> F          1.05594       -0.17441       -5.74037
|  7> H         -0.09903        1.55672       -4.42038
|  8> H         -0.25931        0.46828       -3.06292
|  9> H         -1.53664        0.57826       -4.25010
| 10> *
| 11>
| 12> %MaxCore 64000
| 13>
| 14> %pal nprocs 4
| 15> end
| 16>
| 17> %scf
| 18>   MaxIter 150
| 19> end
| 20>
| 21>
| 22>                          ****END OF INPUT****

CARTESIAN COORDINATES (ANGSTROEM)
---------------------------------
  C     -0.477490    0.608190   -4.101050
  C      0.184670   -0.506640   -4.916760
  O     -0.158690   -1.701090   -4.657980
  F      1.055940   -0.174410   -5.740370
  H     -0.099030    1.556720   -4.420380
  H     -0.259310    0.468280   -3.062920
  H     -1.536640    0.578260   -4.250100

 Total Charge           Charge          ....    0
 Multiplicity           Mult            ....    1
 Number of Electrons    NEL             ....   32
 Basis Dimension        Dim             ....  110

ORBITAL ENERGIES
----------------

  NO   OCC          E(Eh)            E(eV)
   0   2.0000     -24.589521      -669.1149
   1   2.0000     -19.004083      -517.1274
   2   2.0000     -10.327368      -281.0220
   3   2.0000     -10.157665      -276.4041
   4   2.0000      -1.480265       -40.2801
   5   2.0000      -1.187348       -32.3094
   6   2.0000      -0.945145       -25.7187
   7   2.0000      -0.824033       -22.4231
   8   2.0000      -0.718057       -19.5393
   9   2.0000      -0.710378       -19.3304
  10   2.0000      -0.655184       -17.8285
  11   2.0000      -0.589717       -16.0470
  12   2.0000      -0.575986       -15.6734
  13   2.0000      -0.546180       -14.8623
  14   2.0000      -0.490753       -13.3541
  15   2.0000      -0.435725       -11.8567
  16   0.0000       0.061488         1.6732
  17   0.0000       0.079567         2.1651
  18   0.0000       0.118365         3.2209
  19   0.0000       0.155756         4.2383
  20   0.0000       0.158362         4.3092

MULLIKEN ATOMIC CHARGES
-----------------------
   0 C :    0.127864
   1 C :    0.321296
   2 O :   -0.438890
   3 F :   -0.277771
   4 H :    0.059678
   5 H :    0.105575
   6 H :    0.102247
Sum of atomic charges:    0.0000000

LOEWDIN ATOMIC CHARGES
----------------------
   0 C :    0.180977
   1 C :   -0.049345
   2 O :   -0.146422
   3 F :   -0.017945
   4 H :   -0.000634
   5 H :    0.017168
   6 H :    0.016201

  Mayer bond orders larger than 0.100000
B(  0-C ,  1-C ) :   1.2542 B(  0-C ,  4-H ) :   0.9044 B(  0-C ,  5-H ) :   0.8426
B(  0-C ,  6-H ) :   0.8369 B(  1-C ,  2-O ) :   1.8757 B(  1-C ,  3-F ) :   0.8883
B(  1-C ,  4-H ) :   0.1182 B(  1-C ,  5-H ) :   0.1042 B(  1-C ,  6-H ) :   0.1119

FINAL SINGLE POINT ENERGY      -252.227854448477

DIPOLE MOMENT
-------------
                                X             Y             Z
Electronic contribution:      3.05720      -2.13504      -3.37221
Nuclear contribution   :     -3.12947       3.39716       3.55645
                        -----------------------------------------
Total Dipole Moment    :     -0.07227       1.26213       0.18424
                        -----------------------------------------
Magnitude (a.u.)       :      1.27755
Magnitude (Debye)      :      3.24727

Rotational constants in cm-1:     0.366922     0.321471     0.176896
Rotational constants in MHz : 11000.056350  9637.461211  5303.212706

                             ****ORCA TERMINATED NORMALLY****
TOTAL RUN TIME: 0 days 0 hours 0 minutes 7 seconds 612 msec
