                         Program Version 5.0.0 -  RELEASE  -
|  1> !LC-PBE RIJCOSX def2-SVPD def2/J TightSCF
|  2> *xyz 0 1
|  3> C          2.48645       -2.67712       -2.56345
|  4> C          3.03764       -2.36672       -3.92351
|  5> N          2.28036       -2.45441       -4.96769
|  6> C          4.32174       -2.01793       -4.01664
|  7> H          4.87994       -1.91167       -3.17382
|  8> H          4.71015       -1.67088       -4.88356
|  9> H          1.27042       -2.41265       -4.86614
| 10> H          2.58183       -2.05528       -5.84688
| 11> H          1.45238       -2.93848       -2.64882
| 12> H          2.58636       -1.81799       -1.93352
| 13> H          3.02742       -3.49632       -2.13781
| 14> *
| 15>
| 16> %MaxCore 64000
| 17>
| 18> %pal nprocs 4
| 19> end
| 20>
| 21> %scf
| 22>   MaxIter 150
| 23> end
| 24>
| 25>
| 26>                          ****END OF INPUT****

CARTESIAN COORDINATES (ANGSTROEM)
---------------------------------
  C      2.486450   -2.677120   -2.563450
  C      3.037640   -2.366720   -3.923510
  N      2.280360   -2.454410   -4.967690
  C      4.321740   -2.017930   -4.016640
  H      4.879940   -1.911670   -3.173820
  H      4.710150   -1.670880   -4.883560
  H      1.270420   -2.412650   -4.866140
  H      2.581830   -2.055280   -5.846880
  H      1.452380   -2.938480   -2.648820
  H      2.586360   -1.817990   -1.933520
  H      3.027420   -3.496320   -2.137810

 Total Charge           Charge          ....    0
 Multiplicity           Mult            ....    1
 Number of Electrons    NEL             ....   32
 Basis Dimension        Dim             ....  136

ORBITAL ENERGIES
----------------

  NO   OCC          E(Eh)            E(eV)
   0   2.0000     -14.233231      -387.3059
   1   2.0000     -10.156952      -276.3847
   2   2.0000     -10.117358      -275.3073
   3   2.0000     -10.056839      -273.6605
   4   2.0000      -1.108060       -30.1519
   5   2.0000      -0.924919       -25.1683
   6   2.0000      -0.850006       -23.1299
   7   2.0000      -0.731464       -19.9042
   8   2.0000      -0.670758       -18.2523
   9   2.0000      -0.619609       -16.8604
  10   2.0000      -0.577960       -15.7271
  11   2.0000      -0.532203       -14.4820
  12   2.0000      -0.526338       -14.3224
  13   2.0000      -0.485750       -13.2179
  14   2.0000      -0.481146       -13.0927
  15   2.0000      -0.307435        -8.3657
  16   0.0000       0.091128         2.4797
  17   0.0000       0.123173         3.3517
  18   0.0000       0.127416         3.4672
  19   0.0000       0.130505         3.5512
  20   0.0000       0.162259         4.4153

MULLIKEN ATOMIC CHARGES
-----------------------
   0 C :    0.514885
   1 C :   -0.389378
   2 N :    0.085089
   3 C :    0.217975
   4 H :   -0.148525
   5 H :   -0.323516
   6 H :   -0.029266
   7 H :   -0.057811
   8 H :   -0.024068
   9 H :    0.076485
  10 H :    0.078131
Sum of atomic charges:    0.0000000

LOEWDIN ATOMIC CHARGES
----------------------
   0 C :    0.135080
   1 C :   -0.299387
   2 N :    0.142851
   3 C :    0.136192
   4 H :   -0.067998
   5 H :   -0.079360
   6 H :    0.014449
   7 H :    0.020251
   8 H :   -0.014461
   9 H :    0.005647
  10 H :    0.006736

  Mayer bond orders larger than 0.100000
B(  0-C ,  1-C ) :   1.1622 B(  0-C ,  8-H ) :   0.7720 B(  0-C ,  9-H ) :   0.8007
B(  0-C , 10-H ) :   0.7670 B(  1-C ,  2-N ) :   1.0685 B(  1-C ,  3-C ) :   1.8855
B(  1-C ,  4-H ) :   0.1137 B(  1-C ,  5-H ) :   0.1184 B(  1-C ,  8-H ) :   0.2472
B(  1-C ,  9-H ) :   0.1390 B(  1-C , 10-H ) :   0.1609 B(  2-N ,  3-C ) :   0.2189
B(  2-N ,  6-H ) :   1.0415 B(  2-N ,  7-H ) :   1.1246 B(  3-C ,  4-H ) :   0.8721
B(  3-C ,  5-H ) :   0.8979 B(  6-H ,  7-H ) :  -0.1057

FINAL SINGLE POINT ENERGY      -172.544728655613

DIPOLE MOMENT
-------------
                                X             Y             Z
Electronic contribution:     -0.38776      -0.11990      -1.72161
Nuclear contribution   :     -0.41717       0.30469       1.54910
                        -----------------------------------------
Total Dipole Moment    :     -0.80493       0.18478      -0.17251
                        -----------------------------------------
Magnitude (a.u.)       :      0.84369
Magnitude (Debye)      :      2.14450

Rotational constants in cm-1:     0.351587     0.304754     0.168726
Rotational constants in MHz : 10540.302868  9136.286689  5058.281984

                             ****ORCA TERMINATED NORMALLY****
TOTAL RUN TIME: 0 days 0 hours 0 minutes 14 seconds 253 msec
