                         Program Version 5.0.0 -  RELEASE  -
|  1> !M062X D3Zero RIJCOSX def2-SVPD def2/J TightSCF
|  2> *xyz -1 1
|  3> C         -0.05517        1.61942       -3.78858
|  4> C          1.22302        2.46987       -3.75691
|  5> H          1.11470        3.25807       -4.53300
|  6> H          1.23773        3.01124       -2.79216
|  7> O          2.35381        1.71203       -3.93448
|  8> H         -0.10198        1.08015       -4.71156
|  9> H         -0.91014        2.25726       -3.70441
| 10> H         -0.04403        0.92826       -2.97183
| 11> *
| 12>
| 13> %MaxCore 64000
| 14>
| 15> %pal nprocs 4
| 16> end
| 17>
| 18> %scf
| 19>   MaxIter 150
| 20> end
| 21>
| 22>
| 23>                          ****END OF INPUT****

CARTESIAN COORDINATES (ANGSTROEM)
---------------------------------
  C     -0.055170    1.619420   -3.788580
  C      1.223020    2.469870   -3.756910
  H      1.114700    3.258070   -4.533000
  H      1.237730    3.011240   -2.792160
  O      2.353810    1.712030   -3.934480
  H     -0.101980    1.080150   -4.711560
  H     -0.910140    2.257260   -3.704410
  H     -0.044030    0.928260   -2.971830

 Total Charge           Charge          ....   -1
 Multiplicity           Mult            ....    1
 Number of Electrons    NEL             ....   26
 Basis Dimension        Dim             ....  103

ORBITAL ENERGIES
----------------

  NO   OCC          E(Eh)            E(eV)
   0   2.0000     -19.297540      -525.1128
   1   2.0000     -10.362725      -281.9841
   2   2.0000     -10.340402      -281.3766
   3   2.0000      -0.775458       -21.1013
   4   2.0000      -0.610432       -16.6107
   5   2.0000      -0.447643       -12.1810
   6   2.0000      -0.318976        -8.6798
   7   2.0000      -0.293848        -7.9960
   8   2.0000      -0.236619        -6.4387
   9   2.0000      -0.219734        -5.9793
  10   2.0000      -0.174446        -4.7469
  11   2.0000      -0.030696        -0.8353
  12   2.0000      -0.029522        -0.8033
  13   0.0000       0.201028         5.4702
  14   0.0000       0.231829         6.3084
  15   0.0000       0.272890         7.4257
  16   0.0000       0.285017         7.7557
  17   0.0000       0.297315         8.0903

MULLIKEN ATOMIC CHARGES
-----------------------
   0 C :    0.344228
   1 C :    0.171207
   2 H :   -0.149673
   3 H :   -0.163295
   4 O :   -0.919956
   5 H :   -0.106436
   6 H :   -0.073072
   7 H :   -0.103002
Sum of atomic charges:   -1.0000000

LOEWDIN ATOMIC CHARGES
----------------------
   0 C :    0.061139
   1 C :   -0.254879
   2 H :   -0.030321
   3 H :   -0.031986
   4 O :   -0.601212
   5 H :   -0.041191
   6 H :   -0.059300
   7 H :   -0.042250

  Mayer bond orders larger than 0.100000
B(  0-C ,  1-C ) :   1.1812 B(  0-C ,  2-H ) :   0.1135 B(  0-C ,  3-H ) :   0.1103
B(  0-C ,  4-O ) :   0.1293 B(  0-C ,  5-H ) :   0.8943 B(  0-C ,  6-H ) :   0.8924
B(  0-C ,  7-H ) :   0.8933 B(  1-C ,  2-H ) :   0.9745 B(  1-C ,  3-H ) :   0.9817
B(  1-C ,  4-O ) :   1.1264 B(  1-C ,  5-H ) :   0.1811 B(  1-C ,  6-H ) :   0.1192
B(  1-C ,  7-H ) :   0.1738

Dispersion correction           -0.000014732
FINAL SINGLE POINT ENERGY      -154.233712170650

DIPOLE MOMENT
-------------
                                X             Y             Z
Electronic contribution:      2.69826      -0.50544      -0.24425
Nuclear contribution   :     -4.28298       0.81046       0.39340
                        -----------------------------------------
Total Dipole Moment    :     -1.58472       0.30502       0.14915
                        -----------------------------------------
Magnitude (a.u.)       :      1.62068
Magnitude (Debye)      :      4.11945

Rotational constants in cm-1:     1.266793     0.328147     0.288309
Rotational constants in MHz : 37977.512300  9837.594308  8643.275638

                             ****ORCA TERMINATED NORMALLY****
TOTAL RUN TIME: 0 days 0 hours 0 minutes 10 seconds 981 msec
