                         Program Version 5.0.0 -  RELEASE  -
|  1> !M062X D3Zero RIJCOSX def2-SVPD def2/J TightSCF
|  2> *xyz 1 1
|  3> C          1.63556       -1.67040       -5.29211
|  4> C          0.33848       -1.50091       -4.50540
|  5> N          2.48451       -0.50741       -5.14039
|  6> H          1.39834       -1.82924       -6.35259
|  7> H          2.15586       -2.56540       -4.93209
|  8> C          3.45115       -0.14953       -5.95259
|  9> N          3.92267        1.08956       -5.85071
| 10> N          3.96616       -1.00618       -6.86788
| 11> H          3.52139       -1.90647       -6.99527
| 12> H          4.44482       -0.62347       -7.67035
| 13> H          2.25200        0.24080       -4.49879
| 14> H          3.46428        1.64078       -5.13639
| 15> H          4.83447        1.31375       -6.22465
| 16> H         -0.17658       -0.62881       -4.85045
| 17> H          0.56384       -1.39374       -3.46490
| 18> H         -0.28102       -2.36136       -4.64938
| 19> *
| 20>
| 21> %MaxCore 64000
| 22>
| 23> %pal nprocs 4
| 24> end
| 25>
| 26> %scf
| 27>   MaxIter 150
| 28> end
| 29>
| 30>
| 31>                          ****END OF INPUT****

CARTESIAN COORDINATES (ANGSTROEM)
---------------------------------
  C      1.635560   -1.670400   -5.292110
  C      0.338480   -1.500910   -4.505400
  N      2.484510   -0.507410   -5.140390
  H      1.398340   -1.829240   -6.352590
  H      2.155860   -2.565400   -4.932090
  C      3.451150   -0.149530   -5.952590
  N      3.922670    1.089560   -5.850710
  N      3.966160   -1.006180   -6.867880
  H      3.521390   -1.906470   -6.995270
  H      4.444820   -0.623470   -7.670350
  H      2.252000    0.240800   -4.498790
  H      3.464280    1.640780   -5.136390
  H      4.834470    1.313750   -6.224650
  H     -0.176580   -0.628810   -4.850450
  H      0.563840   -1.393740   -3.464900
  H     -0.281020   -2.361360   -4.649380

 Total Charge           Charge          ....    1
 Multiplicity           Mult            ....    1
 Number of Electrons    NEL             ....   48
 Basis Dimension        Dim             ....  200

ORBITAL ENERGIES
----------------

  NO   OCC          E(Eh)            E(eV)
   0   2.0000     -14.991216      -407.9317
   1   2.0000     -14.986497      -407.8033
   2   2.0000     -14.984952      -407.7613
   3   2.0000     -10.890683      -296.3506
   4   2.0000     -10.762272      -292.8563
   5   2.0000     -10.691135      -290.9206
   6   2.0000      -1.324002       -36.0279
   7   2.0000      -1.202550       -32.7230
   8   2.0000      -1.187446       -32.3120
   9   2.0000      -1.025669       -27.9099
  10   2.0000      -0.912949       -24.8426
  11   2.0000      -0.896065       -24.3832
  12   2.0000      -0.855763       -23.2865
  13   2.0000      -0.821874       -22.3643
  14   2.0000      -0.760722       -20.7003
  15   2.0000      -0.757274       -20.6065
  16   2.0000      -0.738703       -20.1011
  17   2.0000      -0.712229       -19.3807
  18   2.0000      -0.675458       -18.3802
  19   2.0000      -0.612314       -16.6619
  20   2.0000      -0.594874       -16.1874
  21   2.0000      -0.586126       -15.9493
  22   2.0000      -0.543687       -14.7945
  23   2.0000      -0.515359       -14.0236
  24   0.0000      -0.133750        -3.6395
  25   0.0000      -0.132209        -3.5976
  26   0.0000      -0.102572        -2.7911
  27   0.0000      -0.087923        -2.3925
  28   0.0000      -0.068920        -1.8754

MULLIKEN ATOMIC CHARGES
-----------------------
   0 C :    0.006736
   1 C :    0.744245
   2 N :   -0.536466
   3 H :   -0.046234
   4 H :   -0.060594
   5 C :    1.380091
   6 N :   -0.072205
   7 N :   -0.139135
   8 H :   -0.001268
   9 H :   -0.063587
  10 H :   -0.120201
  11 H :    0.045728
  12 H :   -0.092137
  13 H :   -0.006932
  14 H :    0.002306
  15 H :   -0.040349
Sum of atomic charges:    1.0000000

LOEWDIN ATOMIC CHARGES
----------------------
   0 C :    0.024285
   1 C :    0.162255
   2 N :    0.027535
   3 H :    0.039026
   4 H :    0.043755
   5 C :   -0.024041
   6 N :    0.257073
   7 N :    0.275664
   8 H :    0.016610
   9 H :    0.037540
  10 H :    0.055170
  11 H :    0.034843
  12 H :    0.046296
  13 H :   -0.001725
  14 H :   -0.000635
  15 H :    0.006350

  Mayer bond orders larger than 0.100000
B(  0-C ,  1-C ) :   1.3222 B(  0-C ,  2-N ) :   0.9309 B(  0-C ,  3-H ) :   0.8634
B(  0-C ,  4-H ) :   0.9130 B(  0-C , 10-H ) :  -0.1160 B(  0-C , 13-H ) :   0.2119
B(  0-C , 14-H ) :   0.2367 B(  0-C , 15-H ) :   0.2819 B(  1-C , 13-H ) :   0.7940
B(  1-C , 14-H ) :   0.7353 B(  1-C , 15-H ) :   0.7598 B(  2-N ,  3-H ) :   0.1686
B(  2-N ,  4-H ) :   0.1610 B(  2-N ,  5-C ) :   1.0514 B(  2-N ,  6-N ) :   0.2689
B(  2-N ,  7-N ) :   0.2036 B(  2-N , 10-H ) :   1.1989 B(  5-C ,  6-N ) :   0.9113
B(  5-C ,  7-N ) :   0.8687 B(  5-C ,  8-H ) :  -0.1156 B(  5-C ,  9-H ) :  -0.1342
B(  5-C , 10-H ) :  -0.2290 B(  5-C , 12-H ) :  -0.1267 B(  6-N ,  7-N ) :   0.1432
B(  6-N , 11-H ) :   1.0484 B(  6-N , 12-H ) :   1.2364 B(  7-N ,  8-H ) :   1.0347
B(  7-N ,  9-H ) :   1.2232 B(  8-H ,  9-H ) :  -0.1597 B( 11-H , 12-H ) :  -0.1499

Dispersion correction           -0.000319194
FINAL SINGLE POINT ENERGY      -284.063941838628

DIPOLE MOMENT
-------------
                                X             Y             Z
Electronic contribution:      4.69368       2.47257      -1.70074
Nuclear contribution   :     -3.96322      -1.85512       1.24891
                        -----------------------------------------
Total Dipole Moment    :      0.73046       0.61745      -0.45183
                        -----------------------------------------
Magnitude (a.u.)       :      1.05781
Magnitude (Debye)      :      2.68875

Rotational constants in cm-1:     0.261404     0.067000     0.054949
Rotational constants in MHz :  7836.702504  2008.609425  1647.329138

                             ****ORCA TERMINATED NORMALLY****
TOTAL RUN TIME: 0 days 0 hours 0 minutes 30 seconds 520 msec
