                         Program Version 5.0.0 -  RELEASE  -
|  1> !M062X D3Zero RIJCOSX def2-SVPD def2/J TightSCF
|  2> *xyz 0 1
|  3> C         -0.05517        1.61942       -3.78858
|  4> C          1.22302        2.46987       -3.75691
|  5> H          1.11470        3.25807       -4.53300
|  6> H          1.23773        3.01124       -2.79216
|  7> F          2.35381        1.71203       -3.93448
|  8> H         -0.10198        1.08015       -4.71156
|  9> H         -0.91014        2.25726       -3.70441
| 10> H         -0.04403        0.92826       -2.97183
| 11> *
| 12>
| 13> %MaxCore 64000
| 14>
| 15> %pal nprocs 4
| 16> end
| 17>
| 18> %scf
| 19>   MaxIter 150
| 20> end
| 21>
| 22>
| 23>                          ****END OF INPUT****

CARTESIAN COORDINATES (ANGSTROEM)
---------------------------------
  C     -0.055170    1.619420   -3.788580
  C      1.223020    2.469870   -3.756910
  H      1.114700    3.258070   -4.533000
  H      1.237730    3.011240   -2.792160
  F      2.353810    1.712030   -3.934480
  H     -0.101980    1.080150   -4.711560
  H     -0.910140    2.257260   -3.704410
  H     -0.044030    0.928260   -2.971830

 Total Charge           Charge          ....    0
 Multiplicity           Mult            ....    1
 Number of Electrons    NEL             ....   26
 Basis Dimension        Dim             ....  103

ORBITAL ENERGIES
----------------

  NO   OCC          E(Eh)            E(eV)
   0   2.0000     -25.244432      -686.9359
   1   2.0000     -10.632561      -289.3267
   2   2.0000     -10.547252      -287.0053
   3   2.0000      -1.318766       -35.8854
   4   2.0000      -0.855781       -23.2870
   5   2.0000      -0.716228       -19.4895
   6   2.0000      -0.590905       -16.0793
   7   2.0000      -0.581931       -15.8351
   8   2.0000      -0.544964       -14.8292
   9   2.0000      -0.482263       -13.1230
  10   2.0000      -0.468442       -12.7469
  11   2.0000      -0.407974       -11.1015
  12   2.0000      -0.401670       -10.9300
  13   0.0000       0.039734         1.0812
  14   0.0000       0.069796         1.8992
  15   0.0000       0.100586         2.7371
  16   0.0000       0.105427         2.8688
  17   0.0000       0.133497         3.6326

MULLIKEN ATOMIC CHARGES
-----------------------
   0 C :    0.258046
   1 C :    0.390651
   2 H :   -0.033947
   3 H :   -0.047807
   4 F :   -0.475911
   5 H :   -0.040092
   6 H :   -0.014522
   7 H :   -0.036419
Sum of atomic charges:    0.0000000

LOEWDIN ATOMIC CHARGES
----------------------
   0 C :    0.135005
   1 C :    0.076666
   2 H :    0.032792
   3 H :    0.030282
   4 F :   -0.234765
   5 H :   -0.013094
   6 H :   -0.012867
   7 H :   -0.014019

  Mayer bond orders larger than 0.100000
B(  0-C ,  1-C ) :   1.3395 B(  0-C ,  5-H ) :   0.8999 B(  0-C ,  6-H ) :   0.8715
B(  0-C ,  7-H ) :   0.9016 B(  1-C ,  2-H ) :   0.9563 B(  1-C ,  3-H ) :   0.9617
B(  1-C ,  4-F ) :   0.6827 B(  1-C ,  5-H ) :   0.1401 B(  1-C ,  6-H ) :   0.1098
B(  1-C ,  7-H ) :   0.1333

Dispersion correction           -0.000018707
FINAL SINGLE POINT ENERGY      -178.848838139827

DIPOLE MOMENT
-------------
                                X             Y             Z
Electronic contribution:      4.99602      -0.71978      -0.42827
Nuclear contribution   :     -5.66833       1.07099       0.52006
                        -----------------------------------------
Total Dipole Moment    :     -0.67231       0.35121       0.09180
                        -----------------------------------------
Magnitude (a.u.)       :      0.76405
Magnitude (Debye)      :      1.94206

Rotational constants in cm-1:     1.245689     0.305293     0.269541
Rotational constants in MHz : 37344.801915  9152.442838  8080.640229

                             ****ORCA TERMINATED NORMALLY****
TOTAL RUN TIME: 0 days 0 hours 0 minutes 10 seconds 364 msec
