                         Program Version 5.0.0 -  RELEASE  -
|  1> !M062X D3Zero RIJCOSX def2-SVPD def2/J TightSCF
|  2> *xyz 0 1
|  3> C          1.63556       -1.67040       -5.29211
|  4> C          0.33848       -1.50091       -4.50540
|  5> C          2.48451       -0.50741       -5.14039
|  6> H          1.39834       -1.82924       -6.35259
|  7> H          2.15586       -2.56540       -4.93209
|  8> C          3.45115       -0.14953       -5.95259
|  9> N          3.92267        1.08956       -5.85071
| 10> N          3.96616       -1.00618       -6.86788
| 11> H          3.52139       -1.90647       -6.99527
| 12> H          4.44482       -0.62347       -7.67035
| 13> H          2.25200        0.24080       -4.49879
| 14> H          3.46428        1.64078       -5.13639
| 15> H          4.83447        1.31375       -6.22465
| 16> H         -0.17658       -0.62881       -4.85045
| 17> H          0.56384       -1.39374       -3.46490
| 18> H         -0.28102       -2.36136       -4.64938
| 19> *
| 20>
| 21> %MaxCore 64000
| 22>
| 23> %pal nprocs 4
| 24> end
| 25>
| 26> %scf
| 27>   MaxIter 150
| 28> end
| 29>
| 30>
| 31>                          ****END OF INPUT****

CARTESIAN COORDINATES (ANGSTROEM)
---------------------------------
  C      1.635560   -1.670400   -5.292110
  C      0.338480   -1.500910   -4.505400
  C      2.484510   -0.507410   -5.140390
  H      1.398340   -1.829240   -6.352590
  H      2.155860   -2.565400   -4.932090
  C      3.451150   -0.149530   -5.952590
  N      3.922670    1.089560   -5.850710
  N      3.966160   -1.006180   -6.867880
  H      3.521390   -1.906470   -6.995270
  H      4.444820   -0.623470   -7.670350
  H      2.252000    0.240800   -4.498790
  H      3.464280    1.640780   -5.136390
  H      4.834470    1.313750   -6.224650
  H     -0.176580   -0.628810   -4.850450
  H      0.563840   -1.393740   -3.464900
  H     -0.281020   -2.361360   -4.649380

 Total Charge           Charge          ....    0
 Multiplicity           Mult            ....    1
 Number of Electrons    NEL             ....   48
 Basis Dimension        Dim             ....  200

ORBITAL ENERGIES
----------------

  NO   OCC          E(Eh)            E(eV)
   0   2.0000     -14.762845      -401.7174
   1   2.0000     -14.757530      -401.5728
   2   2.0000     -10.591719      -288.2153
   3   2.0000     -10.528237      -286.4879
   4   2.0000     -10.519828      -286.2591
   5   2.0000     -10.474132      -285.0156
   6   2.0000      -1.057887       -28.7866
   7   2.0000      -0.962466       -26.1900
   8   2.0000      -0.867707       -23.6115
   9   2.0000      -0.783652       -21.3243
  10   2.0000      -0.690766       -18.7967
  11   2.0000      -0.657460       -17.8904
  12   2.0000      -0.608625       -16.5615
  13   2.0000      -0.585893       -15.9430
  14   2.0000      -0.535123       -14.5614
  15   2.0000      -0.511916       -13.9299
  16   2.0000      -0.496405       -13.5079
  17   2.0000      -0.466055       -12.6820
  18   2.0000      -0.447171       -12.1681
  19   2.0000      -0.404069       -10.9953
  20   2.0000      -0.393678       -10.7125
  21   2.0000      -0.391390       -10.6503
  22   2.0000      -0.329652        -8.9703
  23   2.0000      -0.215852        -5.8736
  24   0.0000       0.038170         1.0386
  25   0.0000       0.060209         1.6384
  26   0.0000       0.064190         1.7467
  27   0.0000       0.087951         2.3933
  28   0.0000       0.097308         2.6479

MULLIKEN ATOMIC CHARGES
-----------------------
   0 C :   -0.258751
   1 C :    0.937847
   2 C :   -0.117758
   3 H :   -0.158339
   4 H :   -0.083358
   5 C :    0.601639
   6 N :   -0.029077
   7 N :   -0.144724
   8 H :   -0.002262
   9 H :   -0.151375
  10 H :   -0.377454
  11 H :    0.084357
  12 H :   -0.200129
  13 H :    0.001426
  14 H :    0.006085
  15 H :   -0.108126
Sum of atomic charges:   -0.0000000

LOEWDIN ATOMIC CHARGES
----------------------
   0 C :   -0.119649
   1 C :    0.111699
   2 C :   -0.036493
   3 H :    0.017738
   4 H :    0.019560
   5 C :   -0.224673
   6 N :    0.165682
   7 N :    0.195201
   8 H :   -0.013975
   9 H :   -0.010375
  10 H :   -0.051417
  11 H :    0.003305
  12 H :   -0.004637
  13 H :   -0.014358
  14 H :   -0.014404
  15 H :   -0.023203

  Mayer bond orders larger than 0.100000
B(  0-C ,  1-C ) :   1.2153 B(  0-C ,  2-C ) :   0.9387 B(  0-C ,  3-H ) :   0.8962
B(  0-C ,  4-H ) :   0.7749 B(  0-C , 10-H ) :   0.1898 B(  0-C , 13-H ) :   0.2313
B(  0-C , 14-H ) :   0.2418 B(  0-C , 15-H ) :   0.3315 B(  1-C , 10-H ) :  -0.1191
B(  1-C , 13-H ) :   0.7631 B(  1-C , 14-H ) :   0.7188 B(  1-C , 15-H ) :   0.6922
B(  2-C ,  3-H ) :   0.1107 B(  2-C ,  4-H ) :   0.2467 B(  2-C ,  5-C ) :   1.6113
B(  2-C ,  6-N ) :   0.3104 B(  2-C ,  7-N ) :   0.1995 B(  2-C ,  8-H ) :  -0.1144
B(  2-C , 10-H ) :   0.8408 B(  3-H , 10-H ) :   0.1250 B(  5-C ,  6-N ) :   0.9207
B(  5-C ,  7-N ) :   0.9135 B(  6-N ,  7-N ) :   0.1028 B(  6-N , 11-H ) :   1.0212
B(  6-N , 12-H ) :   1.2359 B(  7-N ,  8-H ) :   1.0308 B(  7-N ,  9-H ) :   1.2188
B(  8-H ,  9-H ) :  -0.1390 B( 11-H , 12-H ) :  -0.1507

Dispersion correction           -0.000317474
FINAL SINGLE POINT ENERGY      -267.599876309447

DIPOLE MOMENT
-------------
                                X             Y             Z
Electronic contribution:      4.50790       2.15382      -1.89654
Nuclear contribution   :     -3.99655      -1.83277       1.34879
                        -----------------------------------------
Total Dipole Moment    :      0.51135       0.32106      -0.54775
                        -----------------------------------------
Magnitude (a.u.)       :      0.81522
Magnitude (Debye)      :      2.07213

Rotational constants in cm-1:     0.262971     0.067064     0.055026
Rotational constants in MHz :  7883.664566  2010.513309  1649.636654

                             ****ORCA TERMINATED NORMALLY****
TOTAL RUN TIME: 0 days 0 hours 0 minutes 31 seconds 974 msec
