                         Program Version 5.0.0 -  RELEASE  -
|  1> !M062X D3Zero RIJCOSX def2-SVPD def2/J TightSCF
|  2> *xyz 0 1
|  3> C          1.63556       -1.67040       -5.29211
|  4> C          0.33848       -1.50091       -4.50540
|  5> N          2.48451       -0.50741       -5.14039
|  6> H          1.39834       -1.82924       -6.35259
|  7> H          2.15586       -2.56540       -4.93209
|  8> C          3.45115       -0.14953       -5.95259
|  9> C          3.92267        1.08956       -5.85071
| 10> N          3.96616       -1.00618       -6.86788
| 11> H          3.52139       -1.90647       -6.99527
| 12> H          4.44482       -0.62347       -7.67035
| 13> H          2.25200        0.24080       -4.49879
| 14> H          3.46428        1.64078       -5.13639
| 15> H          4.83447        1.31375       -6.22465
| 16> H         -0.17658       -0.62881       -4.85045
| 17> H          0.56384       -1.39374       -3.46490
| 18> H         -0.28102       -2.36136       -4.64938
| 19> *
| 20>
| 21> %MaxCore 64000
| 22>
| 23> %pal nprocs 4
| 24> end
| 25>
| 26> %scf
| 27>   MaxIter 150
| 28> end
| 29>
| 30>
| 31>                          ****END OF INPUT****

CARTESIAN COORDINATES (ANGSTROEM)
---------------------------------
  C      1.635560   -1.670400   -5.292110
  C      0.338480   -1.500910   -4.505400
  N      2.484510   -0.507410   -5.140390
  H      1.398340   -1.829240   -6.352590
  H      2.155860   -2.565400   -4.932090
  C      3.451150   -0.149530   -5.952590
  C      3.922670    1.089560   -5.850710
  N      3.966160   -1.006180   -6.867880
  H      3.521390   -1.906470   -6.995270
  H      4.444820   -0.623470   -7.670350
  H      2.252000    0.240800   -4.498790
  H      3.464280    1.640780   -5.136390
  H      4.834470    1.313750   -6.224650
  H     -0.176580   -0.628810   -4.850450
  H      0.563840   -1.393740   -3.464900
  H     -0.281020   -2.361360   -4.649380

 Total Charge           Charge          ....    0
 Multiplicity           Mult            ....    1
 Number of Electrons    NEL             ....   48
 Basis Dimension        Dim             ....  200

ORBITAL ENERGIES
----------------

  NO   OCC          E(Eh)            E(eV)
   0   2.0000     -14.761803      -401.6891
   1   2.0000     -14.760873      -401.6638
   2   2.0000     -10.595773      -288.3257
   3   2.0000     -10.594213      -288.2832
   4   2.0000     -10.551540      -287.1220
   5   2.0000     -10.460455      -284.6435
   6   2.0000      -1.070915       -29.1411
   7   2.0000      -0.976653       -26.5761
   8   2.0000      -0.868342       -23.6288
   9   2.0000      -0.788587       -21.4585
  10   2.0000      -0.708401       -19.2766
  11   2.0000      -0.674851       -18.3636
  12   2.0000      -0.609316       -16.5803
  13   2.0000      -0.569331       -15.4923
  14   2.0000      -0.553838       -15.0707
  15   2.0000      -0.531977       -14.4758
  16   2.0000      -0.487340       -13.2612
  17   2.0000      -0.465884       -12.6773
  18   2.0000      -0.446137       -12.1400
  19   2.0000      -0.439431       -11.9575
  20   2.0000      -0.438410       -11.9297
  21   2.0000      -0.415214       -11.2986
  22   2.0000      -0.321829        -8.7574
  23   2.0000      -0.213440        -5.8080
  24   0.0000       0.032073         0.8727
  25   0.0000       0.051342         1.3971
  26   0.0000       0.061539         1.6745
  27   0.0000       0.090558         2.4642
  28   0.0000       0.100464         2.7338

MULLIKEN ATOMIC CHARGES
-----------------------
   0 C :    0.032775
   1 C :    0.777040
   2 N :   -0.444524
   3 H :   -0.108226
   4 H :   -0.136427
   5 C :    0.640470
   6 C :    0.443186
   7 N :   -0.073390
   8 H :   -0.119582
   9 H :   -0.057843
  10 H :   -0.153585
  11 H :   -0.201413
  12 H :   -0.452662
  13 H :   -0.039639
  14 H :   -0.027153
  15 H :   -0.079027
Sum of atomic charges:    0.0000000

LOEWDIN ATOMIC CHARGES
----------------------
   0 C :   -0.006835
   1 C :    0.131614
   2 N :   -0.036696
   3 H :    0.021019
   4 H :    0.021042
   5 C :   -0.230679
   6 C :    0.142605
   7 N :    0.191741
   8 H :   -0.026441
   9 H :    0.005464
  10 H :    0.030076
  11 H :   -0.104560
  12 H :   -0.098416
  13 H :   -0.011848
  14 H :   -0.013329
  15 H :   -0.014756

  Mayer bond orders larger than 0.100000
B(  0-C ,  1-C ) :   1.2835 B(  0-C ,  2-N ) :   0.9259 B(  0-C ,  3-H ) :   0.8823
B(  0-C ,  4-H ) :   0.9237 B(  0-C , 10-H ) :  -0.1277 B(  0-C , 13-H ) :   0.2350
B(  0-C , 14-H ) :   0.2487 B(  0-C , 15-H ) :   0.2917 B(  1-C , 13-H ) :   0.7836
B(  1-C , 14-H ) :   0.7310 B(  1-C , 15-H ) :   0.7501 B(  2-N ,  3-H ) :   0.1621
B(  2-N ,  4-H ) :   0.1908 B(  2-N ,  5-C ) :   1.0927 B(  2-N ,  6-C ) :   0.2664
B(  2-N ,  7-N ) :   0.1185 B(  2-N , 10-H ) :   1.1532 B(  5-C ,  6-C ) :   1.6825
B(  5-C ,  7-N ) :   0.8455 B(  5-C ,  9-H ) :  -0.1156 B(  5-C , 10-H ) :  -0.1693
B(  5-C , 11-H ) :   0.2430 B(  5-C , 12-H ) :   0.2667 B(  6-C ,  7-N ) :   0.2237
B(  6-C , 11-H ) :   0.7881 B(  6-C , 12-H ) :   0.6958 B(  7-N ,  8-H ) :   1.0492
B(  7-N ,  9-H ) :   1.1740 B(  8-H ,  9-H ) :  -0.1499

Dispersion correction           -0.000314600
FINAL SINGLE POINT ENERGY      -267.588711695907

DIPOLE MOMENT
-------------
                                X             Y             Z
Electronic contribution:      2.96153       0.57387      -1.28871
Nuclear contribution   :     -3.69145      -1.49398       1.19810
                        -----------------------------------------
Total Dipole Moment    :     -0.72992      -0.92011      -0.09061
                        -----------------------------------------
Magnitude (a.u.)       :      1.17797
Magnitude (Debye)      :      2.99415

Rotational constants in cm-1:     0.270790     0.068966     0.056679
Rotational constants in MHz :  8118.084803  2067.559423  1699.196934

                             ****ORCA TERMINATED NORMALLY****
TOTAL RUN TIME: 0 days 0 hours 0 minutes 32 seconds 155 msec
