                         Program Version 5.0.0 -  RELEASE  -
|  1> !M062X D3Zero RIJCOSX def2-SVPD def2/J TightSCF
|  2> *xyz 0 1
|  3> C          1.63556       -1.67040       -5.29211
|  4> C          0.33848       -1.50091       -4.50540
|  5> N          2.48451       -0.50741       -5.14039
|  6> H          1.39834       -1.82924       -6.35259
|  7> H          2.15586       -2.56540       -4.93209
|  8> C          3.45115       -0.14953       -5.95259
|  9> N          3.92267        1.08956       -5.85071
| 10> C          3.96616       -1.00618       -6.86788
| 11> H          3.52139       -1.90647       -6.99527
| 12> H          4.44482       -0.62347       -7.67035
| 13> H          2.25200        0.24080       -4.49879
| 14> H          3.46428        1.64078       -5.13639
| 15> H          4.83447        1.31375       -6.22465
| 16> H         -0.17658       -0.62881       -4.85045
| 17> H          0.56384       -1.39374       -3.46490
| 18> H         -0.28102       -2.36136       -4.64938
| 19> *
| 20>
| 21> %MaxCore 64000
| 22>
| 23> %pal nprocs 4
| 24> end
| 25>
| 26> %scf
| 27>   MaxIter 150
| 28> end
| 29>
| 30>
| 31>                          ****END OF INPUT****

CARTESIAN COORDINATES (ANGSTROEM)
---------------------------------
  C      1.635560   -1.670400   -5.292110
  C      0.338480   -1.500910   -4.505400
  N      2.484510   -0.507410   -5.140390
  H      1.398340   -1.829240   -6.352590
  H      2.155860   -2.565400   -4.932090
  C      3.451150   -0.149530   -5.952590
  N      3.922670    1.089560   -5.850710
  C      3.966160   -1.006180   -6.867880
  H      3.521390   -1.906470   -6.995270
  H      4.444820   -0.623470   -7.670350
  H      2.252000    0.240800   -4.498790
  H      3.464280    1.640780   -5.136390
  H      4.834470    1.313750   -6.224650
  H     -0.176580   -0.628810   -4.850450
  H      0.563840   -1.393740   -3.464900
  H     -0.281020   -2.361360   -4.649380

 Total Charge           Charge          ....    0
 Multiplicity           Mult            ....    1
 Number of Electrons    NEL             ....   48
 Basis Dimension        Dim             ....  200

ORBITAL ENERGIES
----------------

  NO   OCC          E(Eh)            E(eV)
   0   2.0000     -14.768301      -401.8659
   1   2.0000     -14.762926      -401.7197
   2   2.0000     -10.597533      -288.3735
   3   2.0000     -10.587519      -288.1011
   4   2.0000     -10.547795      -287.0201
   5   2.0000     -10.462958      -284.7116
   6   2.0000      -1.079742       -29.3813
   7   2.0000      -0.982197       -26.7269
   8   2.0000      -0.853392       -23.2220
   9   2.0000      -0.789879       -21.4937
  10   2.0000      -0.726199       -19.7609
  11   2.0000      -0.645002       -17.5514
  12   2.0000      -0.611138       -16.6299
  13   2.0000      -0.598123       -16.2757
  14   2.0000      -0.548372       -14.9219
  15   2.0000      -0.536339       -14.5945
  16   2.0000      -0.471798       -12.8383
  17   2.0000      -0.461222       -12.5505
  18   2.0000      -0.458250       -12.4696
  19   2.0000      -0.436020       -11.8647
  20   2.0000      -0.425985       -11.5916
  21   2.0000      -0.415959       -11.3188
  22   2.0000      -0.314924        -8.5695
  23   2.0000      -0.217634        -5.9221
  24   0.0000       0.032809         0.8928
  25   0.0000       0.049455         1.3457
  26   0.0000       0.064208         1.7472
  27   0.0000       0.088607         2.4111
  28   0.0000       0.099631         2.7111

MULLIKEN ATOMIC CHARGES
-----------------------
   0 C :    0.046390
   1 C :    0.785856
   2 N :   -0.478149
   3 H :   -0.065908
   4 H :   -0.094451
   5 C :    0.510826
   6 N :    0.021825
   7 C :    0.440443
   8 H :   -0.092175
   9 H :   -0.453376
  10 H :   -0.258293
  11 H :   -0.105009
  12 H :   -0.103001
  13 H :   -0.040265
  14 H :   -0.035808
  15 H :   -0.078906
Sum of atomic charges:   -0.0000000

LOEWDIN ATOMIC CHARGES
----------------------
   0 C :    0.005612
   1 C :    0.128925
   2 N :   -0.037196
   3 H :    0.028324
   4 H :    0.029129
   5 C :   -0.241228
   6 N :    0.176926
   7 C :    0.165116
   8 H :   -0.124013
   9 H :   -0.107680
  10 H :    0.018760
  11 H :   -0.011270
  12 H :    0.014004
  13 H :   -0.014876
  14 H :   -0.016441
  15 H :   -0.014092

  Mayer bond orders larger than 0.100000
B(  0-C ,  1-C ) :   1.2688 B(  0-C ,  2-N ) :   0.9660 B(  0-C ,  3-H ) :   0.8701
B(  0-C ,  4-H ) :   0.9115 B(  0-C , 10-H ) :  -0.1186 B(  0-C , 13-H ) :   0.2169
B(  0-C , 14-H ) :   0.2524 B(  0-C , 15-H ) :   0.2861 B(  1-C , 13-H ) :   0.7920
B(  1-C , 14-H ) :   0.7193 B(  1-C , 15-H ) :   0.7495 B(  2-N ,  3-H ) :   0.1878
B(  2-N ,  4-H ) :   0.1605 B(  2-N ,  5-C ) :   1.0830 B(  2-N ,  6-N ) :   0.1869
B(  2-N ,  7-C ) :   0.3015 B(  2-N , 10-H ) :   1.2224 B(  5-C ,  6-N ) :   0.8860
B(  5-C ,  7-C ) :   1.8231 B(  5-C ,  8-H ) :   0.3024 B(  5-C ,  9-H ) :   0.2120
B(  5-C , 10-H ) :  -0.2307 B(  5-C , 12-H ) :  -0.1029 B(  6-N ,  7-C ) :   0.2333
B(  6-N , 11-H ) :   1.0760 B(  6-N , 12-H ) :   1.2131 B(  7-C ,  8-H ) :   0.6346
B(  7-C ,  9-H ) :   0.7790 B(  8-H ,  9-H ) :   0.1443 B( 11-H , 12-H ) :  -0.1407

Dispersion correction           -0.000318246
FINAL SINGLE POINT ENERGY      -267.589689782251

DIPOLE MOMENT
-------------
                                X             Y             Z
Electronic contribution:      3.03115       2.60240      -0.22191
Nuclear contribution   :     -3.68222      -1.93858       0.98231
                        -----------------------------------------
Total Dipole Moment    :     -0.65108       0.66382       0.76041
                        -----------------------------------------
Magnitude (a.u.)       :      1.20116
Magnitude (Debye)      :      3.05310

Rotational constants in cm-1:     0.275407     0.068040     0.056255
Rotational constants in MHz :  8256.498401  2039.796466  1686.484500

                             ****ORCA TERMINATED NORMALLY****
TOTAL RUN TIME: 0 days 0 hours 0 minutes 32 seconds 974 msec
