                         Program Version 5.0.0 -  RELEASE  -
|  1> !TPSS D3BJ RIJCOSX def2-SVPD def2/J TightSCF
|  2> *xyz -1 1
|  3> C         -2.12050        0.88520        1.78951
|  4> C         -0.77894        0.17197        1.80496
|  5> H          0.01569        0.91077        1.93915
|  6> H         -0.74355       -0.50683        2.66542
|  7> C         -0.60249       -0.63071        0.49224
|  8> H          0.31389       -1.24035        0.60350
|  9> H         -0.36383        0.11332       -0.30117
| 10> O         -1.71206       -1.37684        0.20253
| 11> H         -2.16160        1.54956        0.95175
| 12> H         -2.23761        1.44436        2.69423
| 13> H         -2.90702        0.16393        1.71165
| 14> *
| 15> %MaxCore 64000
| 16>
| 17> %pal nprocs 4
| 18> end
| 19> %scf
| 20>   MaxIter 150
| 21> end
| 22>
| 23>                          ****END OF INPUT****

CARTESIAN COORDINATES (ANGSTROEM)
---------------------------------
  C     -2.120500    0.885200    1.789510
  C     -0.778940    0.171970    1.804960
  H      0.015690    0.910770    1.939150
  H     -0.743550   -0.506830    2.665420
  C     -0.602490   -0.630710    0.492240
  H      0.313890   -1.240350    0.603500
  H     -0.363830    0.113320   -0.301170
  O     -1.712060   -1.376840    0.202530
  H     -2.161600    1.549560    0.951750
  H     -2.237610    1.444360    2.694230
  H     -2.907020    0.163930    1.711650

 Total Charge           Charge          ....   -1
 Multiplicity           Mult            ....    1
 Number of Electrons    NEL             ....   34
 Basis Dimension        Dim             ....  139

ORBITAL ENERGIES
----------------

  NO   OCC          E(Eh)            E(eV)
   0   2.0000     -18.577823      -505.5283
   1   2.0000      -9.818488      -267.1746
   2   2.0000      -9.811740      -266.9910
   3   2.0000      -9.806981      -266.8615
   4   2.0000      -0.614133       -16.7114
   5   2.0000      -0.516519       -14.0552
   6   2.0000      -0.405898       -11.0451
   7   2.0000      -0.313751        -8.5376
   8   2.0000      -0.232315        -6.3216
   9   2.0000      -0.222058        -6.0425
  10   2.0000      -0.173690        -4.7264
  11   2.0000      -0.147322        -4.0088
  12   2.0000      -0.119380        -3.2485
  13   2.0000      -0.115360        -3.1391
  14   2.0000      -0.074285        -2.0214
  15   2.0000       0.062063         1.6888
  16   2.0000       0.064908         1.7662
  17   0.0000       0.159090         4.3291
  18   0.0000       0.182934         4.9779
  19   0.0000       0.197894         5.3850
  20   0.0000       0.221222         6.0198
  21   0.0000       0.242064         6.5869

MULLIKEN ATOMIC CHARGES
-----------------------
   0 C :    0.502284
   1 C :   -0.535618
   2 H :   -0.061429
   3 H :   -0.036771
   4 C :    0.455127
   5 H :   -0.186693
   6 H :   -0.097029
   7 O :   -0.892059
   8 H :   -0.049888
   9 H :   -0.103889
  10 H :    0.005966
Sum of atomic charges:   -1.0000000

LOEWDIN ATOMIC CHARGES
----------------------
   0 C :    0.080492
   1 C :   -0.107829
   2 H :   -0.022964
   3 H :   -0.005702
   4 C :   -0.200996
   5 H :   -0.043884
   6 H :   -0.036608
   7 O :   -0.530715
   8 H :   -0.034341
   9 H :   -0.055903
  10 H :   -0.041550

  Mayer bond orders larger than 0.100000
B(  0-C ,  1-C ) :   1.2736 B(  0-C ,  2-H ) :   0.1024 B(  0-C ,  8-H ) :   0.8427
B(  0-C ,  9-H ) :   0.8364 B(  0-C , 10-H ) :   0.8358 B(  1-C ,  2-H ) :   1.0223
B(  1-C ,  3-H ) :   0.9917 B(  1-C ,  4-C ) :   1.0149 B(  1-C ,  5-H ) :   0.1470
B(  1-C ,  6-H ) :   0.1496 B(  1-C ,  7-O ) :   0.1793 B(  1-C ,  8-H ) :   0.1956
B(  1-C ,  9-H ) :   0.1881 B(  1-C , 10-H ) :   0.1952 B(  4-C ,  5-H ) :   0.9884
B(  4-C ,  6-H ) :   0.9403 B(  4-C ,  7-O ) :   1.1091

Dispersion correction           -0.008178017
FINAL SINGLE POINT ENERGY      -193.647714395472

DIPOLE MOMENT
-------------
                                X             Y             Z
Electronic contribution:     -0.66678      -2.46967      -1.55420
Nuclear contribution   :      1.03476       3.87369       2.65163
                        -----------------------------------------
Total Dipole Moment    :      0.36798       1.40402       1.09743
                        -----------------------------------------
Magnitude (a.u.)       :      1.81962
Magnitude (Debye)      :      4.62511

Rotational constants in cm-1:     0.475803     0.193433     0.155403
Rotational constants in MHz : 14264.216647  5798.988361  4658.874800

                             ****ORCA TERMINATED NORMALLY****
TOTAL RUN TIME: 0 days 0 hours 0 minutes 6 seconds 916 msec
