                         Program Version 5.0.0 -  RELEASE  -
|  1> !TPSS D3BJ RIJCOSX def2-SVPD def2/J TightSCF
|  2> *xyz 1 1
|  3> C         -2.12050        0.88520        1.78951
|  4> C         -0.77894        0.17197        1.80496
|  5> H         -2.32419        1.47265        2.68608
|  6> H         -2.18770        1.54127        0.91948
|  7> N         -3.17690       -0.15948        1.61070
|  8> H          0.01569        0.91077        1.93915
|  9> H         -0.74355       -0.50683        2.66542
| 10> C         -0.60249       -0.63071        0.49224
| 11> H         -4.06474        0.23127        1.28675
| 12> H         -3.34407       -0.67151        2.48493
| 13> H         -2.71686       -0.78189        0.93588
| 14> H         -0.63812        0.03805       -0.34226
| 15> H         -1.38918       -1.35085        0.40604
| 16> H          0.34172       -1.13388        0.50602
| 17> *
| 18> %MaxCore 64000
| 19>
| 20> %pal nprocs 4
| 21> end
| 22>
| 23> %scf
| 24>   MaxIter 150
| 25> end
| 26>
| 27>
| 28>                          ****END OF INPUT****

CARTESIAN COORDINATES (ANGSTROEM)
---------------------------------
  C     -2.120500    0.885200    1.789510
  C     -0.778940    0.171970    1.804960
  H     -2.324190    1.472650    2.686080
  H     -2.187700    1.541270    0.919480
  N     -3.176900   -0.159480    1.610700
  H      0.015690    0.910770    1.939150
  H     -0.743550   -0.506830    2.665420
  C     -0.602490   -0.630710    0.492240
  H     -4.064740    0.231270    1.286750
  H     -3.344070   -0.671510    2.484930
  H     -2.716860   -0.781890    0.935880
  H     -0.638120    0.038050   -0.342260
  H     -1.389180   -1.350850    0.406040
  H      0.341720   -1.133880    0.506020

 Total Charge           Charge          ....    1
 Multiplicity           Mult            ....    1
 Number of Electrons    NEL             ....   34
 Basis Dimension        Dim             ....  160

ORBITAL ENERGIES
----------------

  NO   OCC          E(Eh)            E(eV)
   0   2.0000     -14.437103      -392.8535
   1   2.0000     -10.247941      -278.8607
   2   2.0000     -10.188304      -277.2378
   3   2.0000     -10.168970      -276.7117
   4   2.0000      -1.137522       -30.9536
   5   2.0000      -0.915949       -24.9243
   6   2.0000      -0.832301       -22.6481
   7   2.0000      -0.755585       -20.5605
   8   2.0000      -0.752853       -20.4862
   9   2.0000      -0.722089       -19.6490
  10   2.0000      -0.643463       -17.5095
  11   2.0000      -0.601002       -16.3541
  12   2.0000      -0.574198       -15.6247
  13   2.0000      -0.551663       -15.0115
  14   2.0000      -0.507462       -13.8088
  15   2.0000      -0.496469       -13.5096
  16   2.0000      -0.491453       -13.3731
  17   0.0000      -0.195183        -5.3112
  18   0.0000      -0.144739        -3.9385
  19   0.0000      -0.136708        -3.7200
  20   0.0000      -0.128059        -3.4847
  21   0.0000      -0.101458        -2.7608

MULLIKEN ATOMIC CHARGES
-----------------------
   0 C :    0.569093
   1 C :   -0.242217
   2 H :   -0.129493
   3 H :    0.046402
   4 N :   -0.626934
   5 H :   -0.061219
   6 H :    0.047796
   7 C :    0.609711
   8 H :    0.333521
   9 H :    0.408754
  10 H :    0.164047
  11 H :    0.037671
  12 H :   -0.129789
  13 H :   -0.027342
Sum of atomic charges:    1.0000000

LOEWDIN ATOMIC CHARGES
----------------------
   0 C :    0.098104
   1 C :   -0.014054
   2 H :    0.048069
   3 H :    0.051661
   4 N :    0.343338
   5 H :    0.044985
   6 H :    0.035090
   7 C :    0.176166
   8 H :    0.106437
   9 H :    0.110262
  10 H :    0.019713
  11 H :    0.006005
  12 H :   -0.036382
  13 H :    0.010606

  Mayer bond orders larger than 0.100000
B(  0-C ,  1-C ) :   1.1470 B(  0-C ,  2-H ) :   0.9468 B(  0-C ,  3-H ) :   0.8947
B(  0-C ,  4-N ) :   0.7969 B(  1-C ,  5-H ) :   0.9832 B(  1-C ,  6-H ) :   0.9291
B(  1-C ,  7-C ) :   1.2543 B(  1-C , 11-H ) :   0.1545 B(  1-C , 12-H ) :   0.1227
B(  1-C , 13-H ) :   0.1602 B(  2-H ,  4-N ) :   0.1350 B(  4-N ,  8-H ) :   0.7596
B(  4-N ,  9-H ) :   0.7561 B(  4-N , 10-H ) :   0.8621 B(  7-C , 11-H ) :   0.7929
B(  7-C , 12-H ) :   0.8489 B(  7-C , 13-H ) :   0.8401 B( 10-H , 12-H ) :   0.2737

Dispersion correction           -0.011786026
FINAL SINGLE POINT ENERGY      -174.768911945271

DIPOLE MOMENT
-------------
                                X             Y             Z
Electronic contribution:     -1.82653       0.50608       0.92827
Nuclear contribution   :      0.18509      -0.64781      -0.64735
                        -----------------------------------------
Total Dipole Moment    :     -1.64144      -0.14174       0.28092
                        -----------------------------------------
Magnitude (a.u.)       :      1.67133
Magnitude (Debye)      :      4.24817

Rotational constants in cm-1:     0.411855     0.178330     0.145265
Rotational constants in MHz : 12347.103052  5346.196801  4354.936890

                             ****ORCA TERMINATED NORMALLY****
TOTAL RUN TIME: 0 days 0 hours 0 minutes 7 seconds 685 msec
