                         Program Version 5.0.0 -  RELEASE  -
|  1> !TPSS D3BJ RIJCOSX def2-SVPD def2/J TightSCF
|  2> *xyz 0 1
|  3> C         -2.12050        0.88520        1.78951
|  4> C         -0.77894        0.17197        1.80496
|  5> H          0.01569        0.91077        1.93915
|  6> H         -0.74355       -0.50683        2.66542
|  7> C         -0.60249       -0.63071        0.49224
|  8> H          0.31389       -1.24035        0.60350
|  9> H         -0.36383        0.11332       -0.30117
| 10> F         -1.71206       -1.37684        0.20253
| 11> H         -2.16160        1.54956        0.95175
| 12> H         -2.23761        1.44436        2.69423
| 13> H         -2.90702        0.16393        1.71165
| 14> *
| 15> %MaxCore 64000
| 16>
| 17> %pal nprocs 4
| 18> end
| 19> %scf
| 20>   MaxIter 150
| 21> end
| 22>
| 23>                          ****END OF INPUT****

CARTESIAN COORDINATES (ANGSTROEM)
---------------------------------
  C     -2.120500    0.885200    1.789510
  C     -0.778940    0.171970    1.804960
  H      0.015690    0.910770    1.939150
  H     -0.743550   -0.506830    2.665420
  C     -0.602490   -0.630710    0.492240
  H      0.313890   -1.240350    0.603500
  H     -0.363830    0.113320   -0.301170
  F     -1.712060   -1.376840    0.202530
  H     -2.161600    1.549560    0.951750
  H     -2.237610    1.444360    2.694230
  H     -2.907020    0.163930    1.711650

 Total Charge           Charge          ....    0
 Multiplicity           Mult            ....    1
 Number of Electrons    NEL             ....   34
 Basis Dimension        Dim             ....  139

ORBITAL ENERGIES
----------------

  NO   OCC          E(Eh)            E(eV)
   0   2.0000     -24.418563      -664.4629
   1   2.0000     -10.078627      -274.2534
   2   2.0000     -10.006036      -272.2781
   3   2.0000      -9.986703      -271.7520
   4   2.0000      -1.109708       -30.1967
   5   2.0000      -0.725558       -19.7434
   6   2.0000      -0.629998       -17.1431
   7   2.0000      -0.542841       -14.7714
   8   2.0000      -0.462966       -12.5980
   9   2.0000      -0.447154       -12.1677
  10   2.0000      -0.428205       -11.6520
  11   2.0000      -0.393510       -10.7080
  12   2.0000      -0.351092        -9.5537
  13   2.0000      -0.333200        -9.0668
  14   2.0000      -0.318049        -8.6546
  15   2.0000      -0.288738        -7.8570
  16   2.0000      -0.284040        -7.7291
  17   0.0000       0.011306         0.3077
  18   0.0000       0.035893         0.9767
  19   0.0000       0.046078         1.2538
  20   0.0000       0.056278         1.5314
  21   0.0000       0.076052         2.0695

MULLIKEN ATOMIC CHARGES
-----------------------
   0 C :    0.514285
   1 C :   -0.482287
   2 H :   -0.052765
   3 H :   -0.044552
   4 C :    0.713096
   5 H :   -0.084845
   6 H :    0.000060
   7 F :   -0.449397
   8 H :   -0.037490
   9 H :   -0.081576
  10 H :    0.005473
Sum of atomic charges:    0.0000000

LOEWDIN ATOMIC CHARGES
----------------------
   0 C :    0.121089
   1 C :   -0.056452
   2 H :    0.020055
   3 H :    0.018541
   4 C :    0.106556
   5 H :    0.022581
   6 H :    0.030339
   7 F :   -0.200720
   8 H :   -0.017239
   9 H :   -0.022547
  10 H :   -0.022203

  Mayer bond orders larger than 0.100000
B(  0-C ,  1-C ) :   1.3194 B(  0-C ,  8-H ) :   0.8352 B(  0-C ,  9-H ) :   0.8532
B(  0-C , 10-H ) :   0.8416 B(  1-C ,  2-H ) :   0.9693 B(  1-C ,  3-H ) :   0.9663
B(  1-C ,  4-C ) :   1.1558 B(  1-C ,  5-H ) :   0.1064 B(  1-C ,  6-H ) :   0.1095
B(  1-C ,  8-H ) :   0.1696 B(  1-C ,  9-H ) :   0.1735 B(  1-C , 10-H ) :   0.1626
B(  4-C ,  5-H ) :   0.9398 B(  4-C ,  6-H ) :   0.8970 B(  4-C ,  7-F ) :   0.7100

Dispersion correction           -0.007704668
FINAL SINGLE POINT ENERGY      -218.256780486469

DIPOLE MOMENT
-------------
                                X             Y             Z
Electronic contribution:     -1.03364      -4.84754      -3.46780
Nuclear contribution   :      1.51874       5.24801       3.69322
                        -----------------------------------------
Total Dipole Moment    :      0.48510       0.40047       0.22542
                        -----------------------------------------
Magnitude (a.u.)       :      0.66822
Magnitude (Debye)      :      1.69848

Rotational constants in cm-1:     0.461913     0.182549     0.147043
Rotational constants in MHz : 13847.794369  5472.673442  4408.246847

                             ****ORCA TERMINATED NORMALLY****
TOTAL RUN TIME: 0 days 0 hours 0 minutes 5 seconds 860 msec
