                         Program Version 5.0.0 -  RELEASE  -
|  1> !TPSS D3BJ RIJCOSX def2-SVPD def2/J TightSCF
|  2> *xyz 0 1
|  3> C         -2.12050        0.88520        1.78951
|  4> C         -0.77894        0.17197        1.80496
|  5> H         -2.32419        1.47265        2.68608
|  6> H         -2.18770        1.54127        0.91948
|  7> C         -3.17690       -0.15948        1.61070
|  8> H          0.01569        0.91077        1.93915
|  9> H         -0.74355       -0.50683        2.66542
| 10> C         -0.60249       -0.63071        0.49224
| 11> H         -4.06474        0.23127        1.28675
| 12> H         -3.34407       -0.67151        2.48493
| 13> H         -2.71686       -0.78189        0.93588
| 14> H         -0.63812        0.03805       -0.34226
| 15> H         -1.38918       -1.35085        0.40604
| 16> H          0.34172       -1.13388        0.50602
| 17> *
| 18> %MaxCore 64000
| 19>
| 20> %pal nprocs 4
| 21> end
| 22>
| 23> %scf
| 24>   MaxIter 150
| 25> end
| 26>
| 27>
| 28>                          ****END OF INPUT****

CARTESIAN COORDINATES (ANGSTROEM)
---------------------------------
  C     -2.120500    0.885200    1.789510
  C     -0.778940    0.171970    1.804960
  H     -2.324190    1.472650    2.686080
  H     -2.187700    1.541270    0.919480
  C     -3.176900   -0.159480    1.610700
  H      0.015690    0.910770    1.939150
  H     -0.743550   -0.506830    2.665420
  C     -0.602490   -0.630710    0.492240
  H     -4.064740    0.231270    1.286750
  H     -3.344070   -0.671510    2.484930
  H     -2.716860   -0.781890    0.935880
  H     -0.638120    0.038050   -0.342260
  H     -1.389180   -1.350850    0.406040
  H      0.341720   -1.133880    0.506020

 Total Charge           Charge          ....    0
 Multiplicity           Mult            ....    1
 Number of Electrons    NEL             ....   34
 Basis Dimension        Dim             ....  160

ORBITAL ENERGIES
----------------

  NO   OCC          E(Eh)            E(eV)
   0   2.0000      -9.993385      -271.9338
   1   2.0000      -9.985408      -271.7168
   2   2.0000      -9.985190      -271.7108
   3   2.0000      -9.958545      -270.9858
   4   2.0000      -0.744421       -20.2567
   5   2.0000      -0.660067       -17.9613
   6   2.0000      -0.591866       -16.1055
   7   2.0000      -0.515076       -14.0159
   8   2.0000      -0.438770       -11.9395
   9   2.0000      -0.419484       -11.4147
  10   2.0000      -0.382954       -10.4207
  11   2.0000      -0.352564        -9.5938
  12   2.0000      -0.338970        -9.2239
  13   2.0000      -0.322756        -8.7826
  14   2.0000      -0.291392        -7.9292
  15   2.0000      -0.289862        -7.8875
  16   2.0000      -0.277605        -7.5540
  17   0.0000       0.018560         0.5050
  18   0.0000       0.040125         1.0919
  19   0.0000       0.045094         1.2271
  20   0.0000       0.050491         1.3739
  21   0.0000       0.084325         2.2946

MULLIKEN ATOMIC CHARGES
-----------------------
   0 C :   -0.304305
   1 C :   -0.219158
   2 H :   -0.212403
   3 H :    0.046723
   4 C :    1.497170
   5 H :   -0.134458
   6 H :    0.013698
   7 C :    0.568027
   8 H :   -0.122392
   9 H :   -0.049090
  10 H :   -0.990058
  11 H :    0.026002
  12 H :   -0.069581
  13 H :   -0.050174
Sum of atomic charges:   -0.0000000

LOEWDIN ATOMIC CHARGES
----------------------
   0 C :   -0.068644
   1 C :   -0.054970
   2 H :    0.014405
   3 H :    0.020221
   4 C :    0.145546
   5 H :    0.010562
   6 H :    0.021263
   7 C :    0.140564
   8 H :   -0.031454
   9 H :   -0.024278
  10 H :   -0.094171
  11 H :   -0.011688
  12 H :   -0.045576
  13 H :   -0.021779

  Mayer bond orders larger than 0.100000
B(  0-C ,  1-C ) :   1.1271 B(  0-C ,  2-H ) :   1.0483 B(  0-C ,  3-H ) :   0.8889
B(  0-C ,  4-C ) :   1.0842 B(  0-C ,  6-H ) :   0.1096 B(  0-C ,  8-H ) :   0.1411
B(  0-C ,  9-H ) :   0.2248 B(  0-C , 10-H ) :   0.4101 B(  1-C ,  5-H ) :   1.0058
B(  1-C ,  6-H ) :   0.9167 B(  1-C ,  7-C ) :   1.2391 B(  1-C , 11-H ) :   0.1826
B(  1-C , 12-H ) :   0.1349 B(  1-C , 13-H ) :   0.1590 B(  4-C ,  8-H ) :   0.5351
B(  4-C ,  9-H ) :   0.5042 B(  4-C , 10-H ) :   0.2583 B(  7-C , 10-H ) :   0.1311
B(  7-C , 11-H ) :   0.7874 B(  7-C , 12-H ) :   0.8028 B(  7-C , 13-H ) :   0.8105
B(  8-H , 10-H ) :   0.2619 B(  9-H , 10-H ) :   0.2653 B( 10-H , 12-H ) :   0.3874

Dispersion correction           -0.011825011
FINAL SINGLE POINT ENERGY      -158.358842130256

DIPOLE MOMENT
-------------
                                X             Y             Z
Electronic contribution:      0.30719       0.71005       0.58514
Nuclear contribution   :     -0.27446      -0.71220      -0.58629
                        -----------------------------------------
Total Dipole Moment    :      0.03273      -0.00215      -0.00114
                        -----------------------------------------
Magnitude (a.u.)       :      0.03282
Magnitude (Debye)      :      0.08342

Rotational constants in cm-1:     0.419751     0.185753     0.151088
Rotational constants in MHz : 12583.819928  5568.732483  4529.512437

                             ****ORCA TERMINATED NORMALLY****
TOTAL RUN TIME: 0 days 0 hours 0 minutes 7 seconds 934 msec
