                         Program Version 5.0.0 -  RELEASE  -
|  1> !TPSS D3BJ RIJCOSX def2-SVPD def2/J TightSCF xyzfile
|  2>
|  3> *xyzfile 0 1 D.xyz
|  4>
|  5> %MaxCore 64000
|  6>
|  7> %pal nprocs 4
|  8> end
|  9>
| 10> %scf
| 11>   MaxIter 150
| 12> end
| 13>
| 14>
| 15>                          ****END OF INPUT****

CARTESIAN COORDINATES (ANGSTROEM)
---------------------------------
  C     -2.120502    0.885196    1.789506
  C     -0.778939    0.171966    1.804965
  H     -2.324193    1.472649    2.686078
  H     -2.187698    1.541272    0.919482
  C     -3.176900   -0.159484    1.610700
  H      0.015695    0.910767    1.939153
  H     -0.743553   -0.506827    2.665420
  C     -0.602493   -0.630712    0.492240
  H      0.313894   -1.240346    0.603498
  H     -0.363829    0.113322   -0.301169
  F     -1.712061   -1.376836    0.202535
  H     -4.064736    0.231272    1.286754
  H     -3.344073   -0.671511    2.484928
  H     -2.716861   -0.781886    0.935880

 Total Charge           Charge          ....    0
 Multiplicity           Mult            ....    1
 Number of Electrons    NEL             ....   42
 Basis Dimension        Dim             ....  175

ORBITAL ENERGIES
----------------

  NO   OCC          E(Eh)            E(eV)
   0   2.0000     -24.434380      -664.8933
   1   2.0000     -10.088558      -274.5236
   2   2.0000     -10.006475      -272.2900
   3   2.0000      -9.986255      -271.7398
   4   2.0000      -9.927869      -270.1510
   5   2.0000      -1.139571       -31.0093
   6   2.0000      -0.741518       -20.1777
   7   2.0000      -0.673694       -18.3322
   8   2.0000      -0.581224       -15.8159
   9   2.0000      -0.539378       -14.6772
  10   2.0000      -0.480647       -13.0791
  11   2.0000      -0.478703       -13.0262
  12   2.0000      -0.440192       -11.9782
  13   2.0000      -0.399197       -10.8627
  14   2.0000      -0.368892       -10.0381
  15   2.0000      -0.361783        -9.8446
  16   2.0000      -0.340996        -9.2790
  17   2.0000      -0.307084        -8.3562
  18   2.0000      -0.291666        -7.9366
  19   2.0000      -0.289058        -7.8657
  20   2.0000      -0.237920        -6.4741
  21   0.0000       0.010337         0.2813
  22   0.0000       0.036164         0.9841
  23   0.0000       0.040467         1.1012
  24   0.0000       0.043798         1.1918
  25   0.0000       0.065661         1.7867

MULLIKEN ATOMIC CHARGES
-----------------------
   0 C :   -0.289712
   1 C :   -0.053948
   2 H :   -0.236477
   3 H :    0.018914
   4 C :    1.761332
   5 H :   -0.119242
   6 H :    0.038874
   7 C :    0.760244
   8 H :   -0.057555
   9 H :    0.008869
  10 F :   -0.634927
  11 H :   -0.133202
  12 H :   -0.069825
  13 H :   -0.993346
Sum of atomic charges:    0.0000000

LOEWDIN ATOMIC CHARGES
----------------------
   0 C :   -0.053426
   1 C :   -0.010988
   2 H :    0.012621
   3 H :    0.021643
   4 C :    0.156743
   5 H :    0.020510
   6 H :    0.026663
   7 C :    0.161276
   8 H :    0.028356
   9 H :    0.037725
  10 F :   -0.180386
  11 H :   -0.033735
  12 H :   -0.026334
  13 H :   -0.160668

  Mayer bond orders larger than 0.100000
B(  0-C ,  1-C ) :   1.1321 B(  0-C ,  2-H ) :   1.0467 B(  0-C ,  3-H ) :   0.8802
B(  0-C ,  4-C ) :   1.0015 B(  0-C ,  5-H ) :   0.1033 B(  0-C , 11-H ) :   0.1687
B(  0-C , 12-H ) :   0.2280 B(  0-C , 13-H ) :   0.4561 B(  1-C ,  5-H ) :   0.9617
B(  1-C ,  6-H ) :   0.8904 B(  1-C ,  7-C ) :   1.2081 B(  1-C ,  8-H ) :   0.1201
B(  1-C ,  9-H ) :   0.1129 B(  1-C , 10-F ) :   0.1280 B(  4-C , 10-F ) :  -0.1506
B(  4-C , 11-H ) :   0.5320 B(  4-C , 12-H ) :   0.3770 B(  4-C , 13-H ) :  -0.2535
B(  5-H ,  7-C ) :   0.1021 B(  7-C ,  8-H ) :   0.8775 B(  7-C ,  9-H ) :   0.8827
B(  7-C , 10-F ) :   0.6692 B( 10-F , 13-H ) :   0.2900 B( 11-H , 13-H ) :   0.2540
B( 12-H , 13-H ) :   0.4419

Dispersion correction           -0.012177408
FINAL SINGLE POINT ENERGY      -257.493742143351

DIPOLE MOMENT
-------------
                                X             Y             Z
Electronic contribution:      0.87118      -4.21123      -3.74089
Nuclear contribution   :     -0.20666       4.43855       3.76066
                        -----------------------------------------
Total Dipole Moment    :      0.66452       0.22732       0.01977
                        -----------------------------------------
Magnitude (a.u.)       :      0.70260
Magnitude (Debye)      :      1.78587

Rotational constants in cm-1:     0.236353     0.155239     0.105045
Rotational constants in MHz :  7085.692869  4653.957069  3149.180346

                             ****ORCA TERMINATED NORMALLY****
TOTAL RUN TIME: 0 days 0 hours 0 minutes 13 seconds 171 msec
