                         Program Version 5.0.0 -  RELEASE  -
|  1> !B3LYP D3BJ RIJCOSX def2-TZVP def2/J TightSCF
|  2> *xyz -1 1
|  3> C         -1.10433        0.25137       -2.86006
|  4> C         -0.71189        0.84252       -4.21834
|  5> H          0.15463        1.49980       -4.13091
|  6> H         -1.53813        1.45922       -4.58267
|  7> C         -0.39762       -0.20587       -5.28802
|  8> O          0.61717       -0.00535       -5.99827
|  9> O         -1.13317       -1.22138       -5.34147
| 10> H         -1.95489       -0.38644       -2.98099
| 11> H         -1.34603        1.04362       -2.18269
| 12> H         -0.28606       -0.31581       -2.46809
| 13> *
| 14>
| 15> %MaxCore 64000
| 16>
| 17> %pal nprocs 4
| 18> end
| 19>
| 20> %scf
| 21>   MaxIter 150
| 22> end
| 23>
| 24>
| 25>                          ****END OF INPUT****

CARTESIAN COORDINATES (ANGSTROEM)
---------------------------------
  C     -1.104330    0.251370   -2.860060
  C     -0.711890    0.842520   -4.218340
  H      0.154630    1.499800   -4.130910
  H     -1.538130    1.459220   -4.582670
  C     -0.397620   -0.205870   -5.288020
  O      0.617170   -0.005350   -5.998270
  O     -1.133170   -1.221380   -5.341470
  H     -1.954890   -0.386440   -2.980990
  H     -1.346030    1.043620   -2.182690
  H     -0.286060   -0.315810   -2.468090

 Total Charge           Charge          ....   -1
 Multiplicity           Mult            ....    1
 Number of Electrons    NEL             ....   40
 Basis Dimension        Dim             ....  185

ORBITAL ENERGIES
----------------

  NO   OCC          E(Eh)            E(eV)
   0   2.0000     -18.848777      -512.9013
   1   2.0000     -18.847296      -512.8610
   2   2.0000     -10.040938      -273.2278
   3   2.0000      -9.998720      -272.0790
   4   2.0000      -9.988142      -271.7912
   5   2.0000      -0.810510       -22.0551
   6   2.0000      -0.718870       -19.5614
   7   2.0000      -0.598488       -16.2857
   8   2.0000      -0.468686       -12.7536
   9   2.0000      -0.312390        -8.5006
  10   2.0000      -0.287726        -7.8294
  11   2.0000      -0.253921        -6.9095
  12   2.0000      -0.222407        -6.0520
  13   2.0000      -0.208985        -5.6868
  14   2.0000      -0.199828        -5.4376
  15   2.0000      -0.171876        -4.6770
  16   2.0000      -0.153358        -4.1731
  17   2.0000      -0.039787        -1.0827
  18   2.0000      -0.033086        -0.9003
  19   2.0000      -0.018886        -0.5139
  20   0.0000       0.183492         4.9931
  21   0.0000       0.224646         6.1129
  22   0.0000       0.240852         6.5539
  23   0.0000       0.248569         6.7639
  24   0.0000       0.261870         7.1258

MULLIKEN ATOMIC CHARGES
-----------------------
   0 C :   -0.283864
   1 C :   -0.127525
   2 H :    0.032705
   3 H :    0.023254
   4 C :    0.200575
   5 O :   -0.523152
   6 O :   -0.523171
   7 H :    0.085955
   8 H :    0.042767
   9 H :    0.072455
Sum of atomic charges:   -1.0000000

LOEWDIN ATOMIC CHARGES
----------------------
   0 C :   -0.323068
   1 C :   -0.289709
   2 H :    0.116455
   3 H :    0.118297
   4 C :   -0.702258
   5 O :   -0.112286
   6 O :   -0.110111
   7 H :    0.108496
   8 H :    0.089507
   9 H :    0.104677

  Mayer bond orders larger than 0.100000
B(  0-C ,  1-C ) :   0.9378 B(  0-C ,  7-H ) :   0.9717 B(  0-C ,  8-H ) :   0.9666
B(  0-C ,  9-H ) :   0.9812 B(  1-C ,  2-H ) :   0.9563 B(  1-C ,  3-H ) :   0.9528
B(  1-C ,  4-C ) :   0.9386 B(  4-C ,  5-O ) :   1.8866 B(  4-C ,  6-O ) :   1.8513

Dispersion correction           -0.010944891
FINAL SINGLE POINT ENERGY      -267.811273366417

DIPOLE MOMENT
-------------
                                X             Y             Z
Electronic contribution:      1.57953      -2.42652      -5.31699
Nuclear contribution   :     -2.09607       3.44215       6.87744
                        -----------------------------------------
Total Dipole Moment    :     -0.51654       1.01563       1.56045
                        -----------------------------------------
Magnitude (a.u.)       :      1.93218
Magnitude (Debye)      :      4.91120

Rotational constants in cm-1:     0.324698     0.133739     0.103466
Rotational constants in MHz :  9734.203431  4009.406827  3101.846422

                             ****ORCA TERMINATED NORMALLY****
TOTAL RUN TIME: 0 days 0 hours 0 minutes 18 seconds 536 msec
