                         Program Version 5.0.0 -  RELEASE  -
|  1> !B3LYP D3BJ RIJCOSX def2-TZVP def2/J TightSCF
|  2> *xyz 1 1
|  3> C          2.23447       -2.98975       -2.39762
|  4> N          2.75680       -2.94555       -3.76503
|  5> C          1.98721       -2.59045       -4.81898
|  6> N          0.74322       -3.01749       -4.91352
|  7> N          2.49964       -1.84860       -5.80324
|  8> H          3.30978       -1.29282       -5.55895
|  9> H          1.80103       -1.30430       -6.28913
| 10> H          3.71612       -2.62880       -3.82953
| 11> H          0.39583       -3.62775       -4.18502
| 12> H          0.03920       -2.45438       -5.37137
| 13> C          2.19120       -1.61950       -1.71549
| 14> H          2.87278       -3.66637       -1.82801
| 15> H          1.24619       -3.44744       -2.40784
| 16> H          1.56387       -0.96046       -2.27853
| 17> H          3.18033       -1.21449       -1.66568
| 18> H          1.79916       -1.72608       -0.72562
| 19> *
| 20>
| 21> %MaxCore 64000
| 22>
| 23> %pal nprocs 4
| 24> end
| 25>
| 26> %scf
| 27>   MaxIter 150
| 28> end
| 29>
| 30>
| 31>                          ****END OF INPUT****

CARTESIAN COORDINATES (ANGSTROEM)
---------------------------------
  C      2.234470   -2.989750   -2.397620
  N      2.756800   -2.945550   -3.765030
  C      1.987210   -2.590450   -4.818980
  N      0.743220   -3.017490   -4.913520
  N      2.499640   -1.848600   -5.803240
  H      3.309780   -1.292820   -5.558950
  H      1.801030   -1.304300   -6.289130
  H      3.716120   -2.628800   -3.829530
  H      0.395830   -3.627750   -4.185020
  H      0.039200   -2.454380   -5.371370
  C      2.191200   -1.619500   -1.715490
  H      2.872780   -3.666370   -1.828010
  H      1.246190   -3.447440   -2.407840
  H      1.563870   -0.960460   -2.278530
  H      3.180330   -1.214490   -1.665680
  H      1.799160   -1.726080   -0.725620

 Total Charge           Charge          ....    1
 Multiplicity           Mult            ....    1
 Number of Electrons    NEL             ....   48
 Basis Dimension        Dim             ....  246

ORBITAL ENERGIES
----------------

  NO   OCC          E(Eh)            E(eV)
   0   2.0000     -14.544348      -395.7718
   1   2.0000     -14.540610      -395.6701
   2   2.0000     -14.537999      -395.5991
   3   2.0000     -10.507106      -285.9129
   4   2.0000     -10.377942      -282.3981
   5   2.0000     -10.309056      -280.5237
   6   2.0000      -1.220099       -33.2006
   7   2.0000      -1.106924       -30.1209
   8   2.0000      -1.103252       -30.0210
   9   2.0000      -0.928888       -25.2763
  10   2.0000      -0.844549       -22.9813
  11   2.0000      -0.805311       -21.9136
  12   2.0000      -0.785146       -21.3649
  13   2.0000      -0.742141       -20.1947
  14   2.0000      -0.702065       -19.1042
  15   2.0000      -0.686591       -18.6831
  16   2.0000      -0.649867       -17.6838
  17   2.0000      -0.621336       -16.9074
  18   2.0000      -0.603504       -16.4222
  19   2.0000      -0.569485       -15.4965
  20   2.0000      -0.537135       -14.6162
  21   2.0000      -0.518624       -14.1125
  22   2.0000      -0.489780       -13.3276
  23   2.0000      -0.452747       -12.3199
  24   0.0000      -0.195128        -5.3097
  25   0.0000      -0.156413        -4.2562
  26   0.0000      -0.124613        -3.3909
  27   0.0000      -0.110238        -2.9997
  28   0.0000      -0.093333        -2.5397

MULLIKEN ATOMIC CHARGES
-----------------------
   0 C :   -0.121036
   1 N :   -0.252985
   2 C :    0.393184
   3 N :   -0.362233
   4 N :   -0.336160
   5 H :    0.264657
   6 H :    0.262659
   7 H :    0.238069
   8 H :    0.275956
   9 H :    0.276894
  10 C :   -0.310765
  11 H :    0.165951
  12 H :    0.107482
  13 H :    0.111214
  14 H :    0.131211
  15 H :    0.155903
Sum of atomic charges:    1.0000000

LOEWDIN ATOMIC CHARGES
----------------------
   0 C :   -0.279689
   1 N :    0.156123
   2 C :   -0.401742
   3 N :    0.088569
   4 N :    0.063136
   5 H :    0.194515
   6 H :    0.198178
   7 H :    0.203980
   8 H :    0.197000
   9 H :    0.198266
  10 C :   -0.277720
  11 H :    0.149014
  12 H :    0.132488
  13 H :    0.117608
  14 H :    0.123866
  15 H :    0.136408

  Mayer bond orders larger than 0.100000
B(  0-C ,  1-N ) :   0.8771 B(  0-C , 10-C ) :   0.9544 B(  0-C , 11-H ) :   0.9600
B(  0-C , 12-H ) :   0.9752 B(  1-N ,  2-C ) :   1.3457 B(  1-N ,  7-H ) :   0.9094
B(  2-C ,  3-N ) :   1.3396 B(  2-C ,  4-N ) :   1.3281 B(  3-N ,  8-H ) :   0.8980
B(  3-N ,  9-H ) :   0.8921 B(  4-N ,  5-H ) :   0.9008 B(  4-N ,  6-H ) :   0.8985
B( 10-C , 13-H ) :   0.9634 B( 10-C , 14-H ) :   0.9671 B( 10-C , 15-H ) :   0.9646

Dispersion correction           -0.020339895
FINAL SINGLE POINT ENERGY      -284.342373249606

DIPOLE MOMENT
-------------
                                X             Y             Z
Electronic contribution:      0.18300      -1.66937      -5.19182
Nuclear contribution   :     -0.59121       2.30298       4.63196
                        -----------------------------------------
Total Dipole Moment    :     -0.40821       0.63361      -0.55987
                        -----------------------------------------
Magnitude (a.u.)       :      0.93891
Magnitude (Debye)      :      2.38651

Rotational constants in cm-1:     0.205874     0.074757     0.066901
Rotational constants in MHz :  6171.937773  2241.151057  2005.629823

                             ****ORCA TERMINATED NORMALLY****
TOTAL RUN TIME: 0 days 0 hours 0 minutes 35 seconds 196 msec
