                         Program Version 5.0.0 -  RELEASE  -
|  1> !B3LYP D3BJ RIJCOSX def2-TZVP def2/J TightSCF
|  2> *xyz 0 1
|  3> C         -1.10433        0.25137       -2.86006
|  4> C         -0.71189        0.84252       -4.21834
|  5> H          0.15463        1.49980       -4.13091
|  6> H         -1.53813        1.45922       -4.58267
|  7> C         -0.39762       -0.20587       -5.28802
|  8> F          0.61717       -0.00535       -5.99827
|  9> O         -1.13317       -1.22138       -5.34147
| 10> H         -1.95489       -0.38644       -2.98099
| 11> H         -1.34603        1.04362       -2.18269
| 12> H         -0.28606       -0.31581       -2.46809
| 13> *
| 14>
| 15> %MaxCore 64000
| 16>
| 17> %pal nprocs 4
| 18> end
| 19>
| 20> %scf
| 21>   MaxIter 150
| 22> end
| 23>
| 24>
| 25>                          ****END OF INPUT****

CARTESIAN COORDINATES (ANGSTROEM)
---------------------------------
  C     -1.104330    0.251370   -2.860060
  C     -0.711890    0.842520   -4.218340
  H      0.154630    1.499800   -4.130910
  H     -1.538130    1.459220   -4.582670
  C     -0.397620   -0.205870   -5.288020
  F      0.617170   -0.005350   -5.998270
  O     -1.133170   -1.221380   -5.341470
  H     -1.954890   -0.386440   -2.980990
  H     -1.346030    1.043620   -2.182690
  H     -0.286060   -0.315810   -2.468090

 Total Charge           Charge          ....    0
 Multiplicity           Mult            ....    1
 Number of Electrons    NEL             ....   40
 Basis Dimension        Dim             ....  185

ORBITAL ENERGIES
----------------

  NO   OCC          E(Eh)            E(eV)
   0   2.0000     -24.750611      -673.4984
   1   2.0000     -19.129654      -520.5443
   2   2.0000     -10.346657      -281.5469
   3   2.0000     -10.200870      -277.5798
   4   2.0000     -10.170132      -276.7434
   5   2.0000      -1.319337       -35.9010
   6   2.0000      -1.033146       -28.1133
   7   2.0000      -0.798384       -21.7251
   8   2.0000      -0.691520       -18.8172
   9   2.0000      -0.637731       -17.3535
  10   2.0000      -0.548476       -14.9248
  11   2.0000      -0.535194       -14.5634
  12   2.0000      -0.507943       -13.8218
  13   2.0000      -0.465826       -12.6758
  14   2.0000      -0.434232       -11.8161
  15   2.0000      -0.396501       -10.7894
  16   2.0000      -0.377824       -10.2811
  17   2.0000      -0.376032       -10.2324
  18   2.0000      -0.348525        -9.4838
  19   2.0000      -0.293761        -7.9936
  20   0.0000      -0.030614        -0.8330
  21   0.0000       0.032019         0.8713
  22   0.0000       0.071758         1.9526
  23   0.0000       0.087930         2.3927
  24   0.0000       0.097227         2.6457

MULLIKEN ATOMIC CHARGES
-----------------------
   0 C :   -0.313487
   1 C :   -0.199039
   2 H :    0.104308
   3 H :    0.116312
   4 C :    0.374133
   5 F :   -0.103332
   6 O :   -0.331131
   7 H :    0.131440
   8 H :    0.112163
   9 H :    0.108632
Sum of atomic charges:   -0.0000000

LOEWDIN ATOMIC CHARGES
----------------------
   0 C :   -0.281885
   1 C :   -0.257175
   2 H :    0.137651
   3 H :    0.152719
   4 C :   -0.499710
   5 F :    0.324782
   6 O :    0.064904
   7 H :    0.123781
   8 H :    0.116856
   9 H :    0.118075

  Mayer bond orders larger than 0.100000
B(  0-C ,  1-C ) :   0.9642 B(  0-C ,  7-H ) :   0.9689 B(  0-C ,  8-H ) :   0.9693
B(  0-C ,  9-H ) :   0.9769 B(  1-C ,  2-H ) :   0.9604 B(  1-C ,  3-H ) :   0.9354
B(  1-C ,  4-C ) :   0.9907 B(  4-C ,  5-F ) :   1.1544 B(  4-C ,  6-O ) :   2.0471

Dispersion correction           -0.010387578
FINAL SINGLE POINT ENERGY      -292.381206565888

DIPOLE MOMENT
-------------
                                X             Y             Z
Electronic contribution:      3.60219      -2.37199      -7.72273
Nuclear contribution   :     -3.36368       3.36392       8.24820
                        -----------------------------------------
Total Dipole Moment    :      0.23850       0.99193       0.52546
                        -----------------------------------------
Magnitude (a.u.)       :      1.14757
Magnitude (Debye)      :      2.91690

Rotational constants in cm-1:     0.315013     0.126712     0.098430
Rotational constants in MHz :  9443.861322  3798.734540  2950.846388

                             ****ORCA TERMINATED NORMALLY****
TOTAL RUN TIME: 0 days 0 hours 0 minutes 18 seconds 215 msec
