                         Program Version 5.0.0 -  RELEASE  -
|  1> !B3LYP D3BJ RIJCOSX def2-TZVP def2/J TightSCF
|  2> *xyz 0 1
|  3> C          2.23447       -2.98975       -2.39762
|  4> C          2.75680       -2.94555       -3.76503
|  5> C          1.98721       -2.59045       -4.81898
|  6> N          0.74322       -3.01749       -4.91352
|  7> N          2.49964       -1.84860       -5.80324
|  8> H          3.30978       -1.29282       -5.55895
|  9> H          1.80103       -1.30430       -6.28913
| 10> H          3.71612       -2.62880       -3.82953
| 11> H          0.39583       -3.62775       -4.18502
| 12> H          0.03920       -2.45438       -5.37137
| 13> C          2.19120       -1.61950       -1.71549
| 14> H          2.87278       -3.66637       -1.82801
| 15> H          1.24619       -3.44744       -2.40784
| 16> H          1.56387       -0.96046       -2.27853
| 17> H          3.18033       -1.21449       -1.66568
| 18> H          1.79916       -1.72608       -0.72562
| 19> *
| 20>
| 21> %MaxCore 64000
| 22>
| 23> %pal nprocs 4
| 24> end
| 25>
| 26> %scf
| 27>   MaxIter 150
| 28> end
| 29>
| 30>
| 31>                          ****END OF INPUT****

CARTESIAN COORDINATES (ANGSTROEM)
---------------------------------
  C      2.234470   -2.989750   -2.397620
  C      2.756800   -2.945550   -3.765030
  C      1.987210   -2.590450   -4.818980
  N      0.743220   -3.017490   -4.913520
  N      2.499640   -1.848600   -5.803240
  H      3.309780   -1.292820   -5.558950
  H      1.801030   -1.304300   -6.289130
  H      3.716120   -2.628800   -3.829530
  H      0.395830   -3.627750   -4.185020
  H      0.039200   -2.454380   -5.371370
  C      2.191200   -1.619500   -1.715490
  H      2.872780   -3.666370   -1.828010
  H      1.246190   -3.447440   -2.407840
  H      1.563870   -0.960460   -2.278530
  H      3.180330   -1.214490   -1.665680
  H      1.799160   -1.726080   -0.725620

 Total Charge           Charge          ....    0
 Multiplicity           Mult            ....    1
 Number of Electrons    NEL             ....   48
 Basis Dimension        Dim             ....  246

ORBITAL ENERGIES
----------------

  NO   OCC          E(Eh)            E(eV)
   0   2.0000     -14.319241      -389.6464
   1   2.0000     -14.315256      -389.5379
   2   2.0000     -10.214698      -277.9561
   3   2.0000     -10.143622      -276.0220
   4   2.0000     -10.134702      -275.7793
   5   2.0000     -10.091680      -274.6086
   6   2.0000      -0.969972       -26.3943
   7   2.0000      -0.879492       -23.9322
   8   2.0000      -0.771634       -20.9972
   9   2.0000      -0.691058       -18.8046
  10   2.0000      -0.618475       -16.8295
  11   2.0000      -0.578546       -15.7430
  12   2.0000      -0.542314       -14.7571
  13   2.0000      -0.507165       -13.8006
  14   2.0000      -0.470191       -12.7945
  15   2.0000      -0.449359       -12.2277
  16   2.0000      -0.412521       -11.2253
  17   2.0000      -0.392723       -10.6865
  18   2.0000      -0.371743       -10.1156
  19   2.0000      -0.358126        -9.7451
  20   2.0000      -0.327749        -8.9185
  21   2.0000      -0.321214        -8.7407
  22   2.0000      -0.274742        -7.4761
  23   2.0000      -0.159599        -4.3429
  24   0.0000       0.011449         0.3115
  25   0.0000       0.046168         1.2563
  26   0.0000       0.059351         1.6150
  27   0.0000       0.062857         1.7104
  28   0.0000       0.077704         2.1144

MULLIKEN ATOMIC CHARGES
-----------------------
   0 C :   -0.148429
   1 C :   -0.317651
   2 C :    0.297792
   3 N :   -0.434951
   4 N :   -0.420886
   5 H :    0.230345
   6 H :    0.198261
   7 H :    0.054681
   8 H :    0.233465
   9 H :    0.202025
  10 C :   -0.269395
  11 H :    0.083978
  12 H :    0.029922
  13 H :    0.082112
  14 H :    0.086480
  15 H :    0.092252
Sum of atomic charges:   -0.0000000

LOEWDIN ATOMIC CHARGES
----------------------
   0 C :   -0.311358
   1 C :   -0.279693
   2 C :   -0.462113
   3 N :    0.005001
   4 N :   -0.016677
   5 H :    0.173548
   6 H :    0.161393
   7 H :    0.114432
   8 H :    0.176087
   9 H :    0.156789
  10 C :   -0.296718
  11 H :    0.132461
  12 H :    0.120494
  13 H :    0.108373
  14 H :    0.110513
  15 H :    0.107468

  Mayer bond orders larger than 0.100000
B(  0-C ,  1-C ) :   1.0356 B(  0-C , 10-C ) :   0.9275 B(  0-C , 11-H ) :   0.9800
B(  0-C , 12-H ) :   0.9701 B(  1-C ,  2-C ) :   1.6323 B(  1-C ,  7-H ) :   1.0280
B(  2-C ,  3-N ) :   1.1546 B(  2-C ,  4-N ) :   1.1411 B(  3-N ,  8-H ) :   0.9253
B(  3-N ,  9-H ) :   0.9145 B(  4-N ,  5-H ) :   0.9253 B(  4-N ,  6-H ) :   0.9297
B( 10-C , 13-H ) :   0.9807 B( 10-C , 14-H ) :   0.9782 B( 10-C , 15-H ) :   0.9727

Dispersion correction           -0.021283865
FINAL SINGLE POINT ENERGY      -267.860050794266

DIPOLE MOMENT
-------------
                                X             Y             Z
Electronic contribution:     -0.34685      -1.36000      -5.04775
Nuclear contribution   :     -0.44240       2.20379       4.66256
                        -----------------------------------------
Total Dipole Moment    :     -0.78924       0.84379      -0.38518
                        -----------------------------------------
Magnitude (a.u.)       :      1.21789
Magnitude (Debye)      :      3.09563

Rotational constants in cm-1:     0.209447     0.075194     0.066975
Rotational constants in MHz :  6279.068019  2254.272519  2007.845458

                             ****ORCA TERMINATED NORMALLY****
TOTAL RUN TIME: 0 days 0 hours 0 minutes 32 seconds 252 msec
