                         Program Version 5.0.0 -  RELEASE  -
|  1> !B3LYP D3BJ RIJCOSX def2-TZVP def2/J TightSCF
|  2> *xyz 0 1
|  3> C         -1.10433        0.25137       -2.86006
|  4> C         -0.71189        0.84252       -4.21834
|  5> H          0.15463        1.49980       -4.13091
|  6> H         -1.53813        1.45922       -4.58267
|  7> C         -0.39762       -0.20587       -5.28802
|  8> O          0.61717       -0.00535       -5.99827
|  9> F         -1.13317       -1.22138       -5.34147
| 10> H         -1.95489       -0.38644       -2.98099
| 11> H         -1.34603        1.04362       -2.18269
| 12> H         -0.28606       -0.31581       -2.46809
| 13> *
| 14>
| 15> %MaxCore 64000
| 16>
| 17> %pal nprocs 4
| 18> end
| 19>
| 20> %scf
| 21>   MaxIter 150
| 22> end
| 23>
| 24>
| 25>                          ****END OF INPUT****

CARTESIAN COORDINATES (ANGSTROEM)
---------------------------------
  C     -1.104330    0.251370   -2.860060
  C     -0.711890    0.842520   -4.218340
  H      0.154630    1.499800   -4.130910
  H     -1.538130    1.459220   -4.582670
  C     -0.397620   -0.205870   -5.288020
  O      0.617170   -0.005350   -5.998270
  F     -1.133170   -1.221380   -5.341470
  H     -1.954890   -0.386440   -2.980990
  H     -1.346030    1.043620   -2.182690
  H     -0.286060   -0.315810   -2.468090

 Total Charge           Charge          ....    0
 Multiplicity           Mult            ....    1
 Number of Electrons    NEL             ....   40
 Basis Dimension        Dim             ....  185

ORBITAL ENERGIES
----------------

  NO   OCC          E(Eh)            E(eV)
   0   2.0000     -24.751336      -673.5181
   1   2.0000     -19.128502      -520.5130
   2   2.0000     -10.345907      -281.5264
   3   2.0000     -10.200089      -277.5585
   4   2.0000     -10.175851      -276.8990
   5   2.0000      -1.319831       -35.9144
   6   2.0000      -1.032019       -28.0827
   7   2.0000      -0.802492       -21.8369
   8   2.0000      -0.686798       -18.6887
   9   2.0000      -0.644819       -17.5464
  10   2.0000      -0.550580       -14.9820
  11   2.0000      -0.541987       -14.7482
  12   2.0000      -0.498417       -13.5626
  13   2.0000      -0.467357       -12.7174
  14   2.0000      -0.434718       -11.8293
  15   2.0000      -0.401567       -10.9272
  16   2.0000      -0.385935       -10.5018
  17   2.0000      -0.379927       -10.3383
  18   2.0000      -0.348862        -9.4930
  19   2.0000      -0.289068        -7.8659
  20   0.0000      -0.028301        -0.7701
  21   0.0000       0.027048         0.7360
  22   0.0000       0.071416         1.9433
  23   0.0000       0.090679         2.4675
  24   0.0000       0.098667         2.6849

MULLIKEN ATOMIC CHARGES
-----------------------
   0 C :   -0.320466
   1 C :   -0.196759
   2 H :    0.127440
   3 H :    0.110188
   4 C :    0.367470
   5 O :   -0.328138
   6 F :   -0.106612
   7 H :    0.112803
   8 H :    0.117562
   9 H :    0.116512
Sum of atomic charges:   -0.0000000

LOEWDIN ATOMIC CHARGES
----------------------
   0 C :   -0.291136
   1 C :   -0.252721
   2 H :    0.150534
   3 H :    0.148764
   4 C :   -0.500652
   5 O :    0.062954
   6 F :    0.327070
   7 H :    0.117462
   8 H :    0.118983
   9 H :    0.118741

  Mayer bond orders larger than 0.100000
B(  0-C ,  1-C ) :   0.9469 B(  0-C ,  7-H ) :   0.9702 B(  0-C ,  8-H ) :   0.9707
B(  0-C ,  9-H ) :   0.9749 B(  1-C ,  2-H ) :   0.9654 B(  1-C ,  3-H ) :   0.9376
B(  1-C ,  4-C ) :   1.0053 B(  4-C ,  5-O ) :   2.0628 B(  4-C ,  6-F ) :   1.1432

Dispersion correction           -0.010299873
FINAL SINGLE POINT ENERGY      -292.380305399523

DIPOLE MOMENT
-------------
                                X             Y             Z
Electronic contribution:      0.68956      -4.37269      -6.60478
Nuclear contribution   :     -1.45527       4.68977       7.53208
                        -----------------------------------------
Total Dipole Moment    :     -0.76571       0.31708       0.92730
                        -----------------------------------------
Magnitude (a.u.)       :      1.24368
Magnitude (Debye)      :      3.16117

Rotational constants in cm-1:     0.298240     0.132464     0.099915
Rotational constants in MHz :  8940.998095  3971.171647  2995.369122

                             ****ORCA TERMINATED NORMALLY****
TOTAL RUN TIME: 0 days 0 hours 0 minutes 18 seconds 317 msec
