                         Program Version 5.0.0 -  RELEASE  -
|  1> !B3LYP D3BJ RIJCOSX def2-TZVP def2/J TightSCF
|  2> *xyz 0 1
|  3> C          2.23447       -2.98975       -2.39762
|  4> N          2.75680       -2.94555       -3.76503
|  5> C          1.98721       -2.59045       -4.81898
|  6> C          0.74322       -3.01749       -4.91352
|  7> N          2.49964       -1.84860       -5.80324
|  8> H          3.30978       -1.29282       -5.55895
|  9> H          1.80103       -1.30430       -6.28913
| 10> H          3.71612       -2.62880       -3.82953
| 11> H          0.39583       -3.62775       -4.18502
| 12> H          0.03920       -2.45438       -5.37137
| 13> C          2.19120       -1.61950       -1.71549
| 14> H          2.87278       -3.66637       -1.82801
| 15> H          1.24619       -3.44744       -2.40784
| 16> H          1.56387       -0.96046       -2.27853
| 17> H          3.18033       -1.21449       -1.66568
| 18> H          1.79916       -1.72608       -0.72562
| 19> *
| 20>
| 21> %MaxCore 64000
| 22>
| 23> %pal nprocs 4
| 24> end
| 25>
| 26> %scf
| 27>   MaxIter 150
| 28> end
| 29>
| 30>
| 31>                          ****END OF INPUT****

CARTESIAN COORDINATES (ANGSTROEM)
---------------------------------
  C      2.234470   -2.989750   -2.397620
  N      2.756800   -2.945550   -3.765030
  C      1.987210   -2.590450   -4.818980
  C      0.743220   -3.017490   -4.913520
  N      2.499640   -1.848600   -5.803240
  H      3.309780   -1.292820   -5.558950
  H      1.801030   -1.304300   -6.289130
  H      3.716120   -2.628800   -3.829530
  H      0.395830   -3.627750   -4.185020
  H      0.039200   -2.454380   -5.371370
  C      2.191200   -1.619500   -1.715490
  H      2.872780   -3.666370   -1.828010
  H      1.246190   -3.447440   -2.407840
  H      1.563870   -0.960460   -2.278530
  H      3.180330   -1.214490   -1.665680
  H      1.799160   -1.726080   -0.725620

 Total Charge           Charge          ....    0
 Multiplicity           Mult            ....    1
 Number of Electrons    NEL             ....   48
 Basis Dimension        Dim             ....  246

ORBITAL ENERGIES
----------------

  NO   OCC          E(Eh)            E(eV)
   0   2.0000     -14.315692      -389.5498
   1   2.0000     -14.313635      -389.4938
   2   2.0000     -10.212016      -277.8831
   3   2.0000     -10.200422      -277.5676
   4   2.0000     -10.156141      -276.3627
   5   2.0000     -10.083966      -274.3987
   6   2.0000      -0.966608       -26.3027
   7   2.0000      -0.887726       -24.1563
   8   2.0000      -0.755032       -20.5455
   9   2.0000      -0.713769       -19.4226
  10   2.0000      -0.639704       -17.4072
  11   2.0000      -0.562061       -15.2944
  12   2.0000      -0.542500       -14.7622
  13   2.0000      -0.511729       -13.9249
  14   2.0000      -0.460523       -12.5315
  15   2.0000      -0.446499       -12.1499
  16   2.0000      -0.415521       -11.3069
  17   2.0000      -0.398490       -10.8435
  18   2.0000      -0.393372       -10.7042
  19   2.0000      -0.371271       -10.1028
  20   2.0000      -0.357586        -9.7304
  21   2.0000      -0.348919        -9.4946
  22   2.0000      -0.252268        -6.8646
  23   2.0000      -0.175643        -4.7795
  24   0.0000       0.017321         0.4713
  25   0.0000       0.048071         1.3081
  26   0.0000       0.055830         1.5192
  27   0.0000       0.068829         1.8729
  28   0.0000       0.081247         2.2109

MULLIKEN ATOMIC CHARGES
-----------------------
   0 C :   -0.056946
   1 N :   -0.308936
   2 C :    0.329507
   3 C :   -0.458534
   4 N :   -0.426810
   5 H :    0.189804
   6 H :    0.225448
   7 H :    0.172302
   8 H :    0.064317
   9 H :    0.077366
  10 C :   -0.318463
  11 H :    0.100081
  12 H :    0.102583
  13 H :    0.116991
  14 H :    0.088681
  15 H :    0.102610
Sum of atomic charges:    0.0000000

LOEWDIN ATOMIC CHARGES
----------------------
   0 C :   -0.295894
   1 N :    0.103671
   2 C :   -0.461740
   3 C :   -0.316777
   4 N :   -0.019859
   5 H :    0.152329
   6 H :    0.176926
   7 H :    0.170588
   8 H :    0.098273
   9 H :    0.096397
  10 C :   -0.303571
  11 H :    0.125451
  12 H :    0.133324
  13 H :    0.116711
  14 H :    0.108685
  15 H :    0.115486

  Mayer bond orders larger than 0.100000
B(  0-C ,  1-N ) :   0.9399 B(  0-C , 10-C ) :   0.9546 B(  0-C , 11-H ) :   0.9758
B(  0-C , 12-H ) :   0.9699 B(  1-N ,  2-C ) :   1.1289 B(  1-N ,  7-H ) :   0.9367
B(  2-C ,  3-C ) :   1.6282 B(  2-C ,  4-N ) :   1.1464 B(  3-C ,  8-H ) :   1.0158
B(  3-C ,  9-H ) :   0.9790 B(  4-N ,  5-H ) :   0.9254 B(  4-N ,  6-H ) :   0.9237
B( 10-C , 13-H ) :   0.9749 B( 10-C , 14-H ) :   0.9746 B( 10-C , 15-H ) :   0.9705

Dispersion correction           -0.021133923
FINAL SINGLE POINT ENERGY      -267.856439206917

DIPOLE MOMENT
-------------
                                X             Y             Z
Electronic contribution:      1.52497      -1.24016      -3.85543
Nuclear contribution   :     -0.86957       2.18853       4.41892
                        -----------------------------------------
Total Dipole Moment    :      0.65540       0.94837       0.56348
                        -----------------------------------------
Magnitude (a.u.)       :      1.28315
Magnitude (Debye)      :      3.26151

Rotational constants in cm-1:     0.214718     0.075736     0.068547
Rotational constants in MHz :  6437.075121  2270.519635  2054.974198

                             ****ORCA TERMINATED NORMALLY****
TOTAL RUN TIME: 0 days 0 hours 0 minutes 34 seconds 341 msec
