                         Program Version 5.0.0 -  RELEASE  -
|  1> !B3LYP D3BJ RIJCOSX def2-TZVP def2/J TightSCF
|  2> *xyz 0 1
|  3> C          2.23447       -2.98975       -2.39762
|  4> N          2.75680       -2.94555       -3.76503
|  5> C          1.98721       -2.59045       -4.81898
|  6> N          0.74322       -3.01749       -4.91352
|  7> C          2.49964       -1.84860       -5.80324
|  8> H          3.30978       -1.29282       -5.55895
|  9> H          1.80103       -1.30430       -6.28913
| 10> H          3.71612       -2.62880       -3.82953
| 11> H          0.39583       -3.62775       -4.18502
| 12> H          0.03920       -2.45438       -5.37137
| 13> C          2.19120       -1.61950       -1.71549
| 14> H          2.87278       -3.66637       -1.82801
| 15> H          1.24619       -3.44744       -2.40784
| 16> H          1.56387       -0.96046       -2.27853
| 17> H          3.18033       -1.21449       -1.66568
| 18> H          1.79916       -1.72608       -0.72562
| 19> *
| 20>
| 21> %MaxCore 64000
| 22>
| 23> %pal nprocs 4
| 24> end
| 25>
| 26> %scf
| 27>   MaxIter 150
| 28> end
| 29>
| 30>
| 31>                          ****END OF INPUT****

CARTESIAN COORDINATES (ANGSTROEM)
---------------------------------
  C      2.234470   -2.989750   -2.397620
  N      2.756800   -2.945550   -3.765030
  C      1.987210   -2.590450   -4.818980
  N      0.743220   -3.017490   -4.913520
  C      2.499640   -1.848600   -5.803240
  H      3.309780   -1.292820   -5.558950
  H      1.801030   -1.304300   -6.289130
  H      3.716120   -2.628800   -3.829530
  H      0.395830   -3.627750   -4.185020
  H      0.039200   -2.454380   -5.371370
  C      2.191200   -1.619500   -1.715490
  H      2.872780   -3.666370   -1.828010
  H      1.246190   -3.447440   -2.407840
  H      1.563870   -0.960460   -2.278530
  H      3.180330   -1.214490   -1.665680
  H      1.799160   -1.726080   -0.725620

 Total Charge           Charge          ....    0
 Multiplicity           Mult            ....    1
 Number of Electrons    NEL             ....   48
 Basis Dimension        Dim             ....  246

ORBITAL ENERGIES
----------------

  NO   OCC          E(Eh)            E(eV)
   0   2.0000     -14.316650      -389.5758
   1   2.0000     -14.314675      -389.5221
   2   2.0000     -10.215266      -277.9715
   3   2.0000     -10.208613      -277.7905
   4   2.0000     -10.160043      -276.4688
   5   2.0000     -10.079105      -274.2664
   6   2.0000      -0.968508       -26.3545
   7   2.0000      -0.887976       -24.1630
   8   2.0000      -0.766972       -20.8704
   9   2.0000      -0.706987       -19.2381
  10   2.0000      -0.629835       -17.1387
  11   2.0000      -0.600285       -16.3346
  12   2.0000      -0.538815       -14.6619
  13   2.0000      -0.491268       -13.3681
  14   2.0000      -0.488485       -13.2924
  15   2.0000      -0.438950       -11.9444
  16   2.0000      -0.427627       -11.6363
  17   2.0000      -0.401362       -10.9216
  18   2.0000      -0.378049       -10.2872
  19   2.0000      -0.366926        -9.9846
  20   2.0000      -0.363910        -9.9025
  21   2.0000      -0.354992        -9.6598
  22   2.0000      -0.254686        -6.9304
  23   2.0000      -0.170842        -4.6488
  24   0.0000       0.018459         0.5023
  25   0.0000       0.044742         1.2175
  26   0.0000       0.049289         1.3412
  27   0.0000       0.063651         1.7320
  28   0.0000       0.077493         2.1087

MULLIKEN ATOMIC CHARGES
-----------------------
   0 C :   -0.098185
   1 N :   -0.292700
   2 C :    0.289496
   3 N :   -0.437220
   4 C :   -0.403616
   5 H :    0.052440
   6 H :    0.049096
   7 H :    0.202749
   8 H :    0.209407
   9 H :    0.232908
  10 C :   -0.295060
  11 H :    0.108740
  12 H :    0.071785
  13 H :    0.112492
  14 H :    0.097281
  15 H :    0.100386
Sum of atomic charges:   -0.0000000

LOEWDIN ATOMIC CHARGES
----------------------
   0 C :   -0.311127
   1 N :    0.104163
   2 C :   -0.461448
   3 N :    0.007431
   4 C :   -0.347019
   5 H :    0.093626
   6 H :    0.098496
   7 H :    0.187659
   8 H :    0.160838
   9 H :    0.175323
  10 C :   -0.300396
  11 H :    0.127220
  12 H :    0.120465
  13 H :    0.116922
  14 H :    0.113065
  15 H :    0.114783

  Mayer bond orders larger than 0.100000
B(  0-C ,  1-N ) :   0.9668 B(  0-C , 10-C ) :   0.9446 B(  0-C , 11-H ) :   0.9762
B(  0-C , 12-H ) :   0.9777 B(  1-N ,  2-C ) :   1.1726 B(  1-N ,  7-H ) :   0.9306
B(  2-C ,  3-N ) :   1.1183 B(  2-C ,  4-C ) :   1.7128 B(  3-N ,  8-H ) :   0.9332
B(  3-N ,  9-H ) :   0.9199 B(  4-C ,  5-H ) :   1.0115 B(  4-C ,  6-H ) :   0.9980
B( 10-C , 13-H ) :   0.9748 B( 10-C , 14-H ) :   0.9740 B( 10-C , 15-H ) :   0.9691

Dispersion correction           -0.021049621
FINAL SINGLE POINT ENERGY      -267.850908269859

DIPOLE MOMENT
-------------
                                X             Y             Z
Electronic contribution:     -0.14146      -2.41189      -2.95868
Nuclear contribution   :     -0.49695       2.43650       4.23017
                        -----------------------------------------
Total Dipole Moment    :     -0.63841       0.02461       1.27149
                        -----------------------------------------
Magnitude (a.u.)       :      1.42298
Magnitude (Debye)      :      3.61692

Rotational constants in cm-1:     0.211102     0.077011     0.069221
Rotational constants in MHz :  6328.667765  2308.731604  2075.192956

                             ****ORCA TERMINATED NORMALLY****
TOTAL RUN TIME: 0 days 0 hours 0 minutes 34 seconds 371 msec
