                         Program Version 5.0.0 -  RELEASE  -
|  1> !B3LYP D3BJ RIJCOSX def2-TZVP def2/J TightSCF xyzfile
|  2>
|  3> *xyzfile 0 1 D4.xyz
|  4>
|  5> %MaxCore 64000
|  6>
|  7> %pal nprocs 18
|  8> end
|  9>
| 10> %scf
| 11>   MaxIter 150
| 12> end
| 13>
| 14>
| 15>                          ****END OF INPUT****

CARTESIAN COORDINATES (ANGSTROEM)
---------------------------------
  C      2.234473   -2.989754   -2.397622
  C      2.756799   -2.945553   -3.765029
  C     -1.104325    0.251374   -2.860056
  C     -0.711893    0.842517   -4.218344
  H      0.154626    1.499800   -4.130909
  H     -1.538134    1.459222   -4.582671
  C     -0.397624   -0.205875   -5.288018
  C      1.987208   -2.590451   -4.818975
  N      0.743221   -3.017493   -4.913524
  N      2.499636   -1.848598   -5.803241
  H      3.309780   -1.292818   -5.558947
  H      1.801025   -1.304298   -6.289129
  H      3.716116   -2.628797   -3.829533
  H      0.395828   -3.627747   -4.185024
  H      0.039201   -2.454383   -5.371367
  O      0.617165   -0.005348   -5.998273
  F     -1.133173   -1.221380   -5.341465
  C      2.191199   -1.619503   -1.715492
  H      2.872783   -3.666368   -1.828014
  H      1.246188   -3.447444   -2.407842
  C      1.298729   -0.554314   -2.359773
  H      1.872917   -1.787955   -0.681310
  H      3.216809   -1.238432   -1.654428
  C     -0.196255   -0.863365   -2.325763
  H      1.612531   -0.371346   -3.393065
  H      1.480944    0.388638   -1.834444
  H     -0.404105   -1.761825   -2.909448
  H     -0.490439   -1.087880   -1.294131
  H     -1.143842    1.066711   -2.129680
  H     -2.114401   -0.156834   -2.930323

 Total Charge           Charge          ....    0
 Multiplicity           Mult            ....    1
 Number of Electrons    NEL             ....  102
 Basis Dimension        Dim             ....  505

ORBITAL ENERGIES
----------------

  NO   OCC          E(Eh)            E(eV)
   0   2.0000     -24.785710      -674.4535
   1   2.0000     -19.160686      -521.3888
   2   2.0000     -14.303919      -389.2294
   3   2.0000     -14.287463      -388.7816
   4   2.0000     -10.373645      -282.2812
   5   2.0000     -10.211770      -277.8764
   6   2.0000     -10.201950      -277.6092
   7   2.0000     -10.190542      -277.2987
   8   2.0000     -10.171901      -276.7915
   9   2.0000     -10.161047      -276.4961
  10   2.0000     -10.149659      -276.1863
  11   2.0000     -10.139710      -275.9155
  12   2.0000     -10.080654      -274.3086
  13   2.0000      -1.357635       -36.9431
  14   2.0000      -1.067790       -29.0561
  15   2.0000      -0.954890       -25.9839
  16   2.0000      -0.862923       -23.4813
  17   2.0000      -0.832939       -22.6654
  18   2.0000      -0.789096       -21.4724
  19   2.0000      -0.752176       -20.4677
  20   2.0000      -0.706862       -19.2347
  21   2.0000      -0.689291       -18.7566
  22   2.0000      -0.655945       -17.8492
  23   2.0000      -0.614759       -16.7284
  24   2.0000      -0.597033       -16.2461
  25   2.0000      -0.581681       -15.8283
  26   2.0000      -0.571970       -15.5641
  27   2.0000      -0.560407       -15.2495
  28   2.0000      -0.527262       -14.3475
  29   2.0000      -0.516630       -14.0582
  30   2.0000      -0.488375       -13.2893
  31   2.0000      -0.483071       -13.1450
  32   2.0000      -0.474891       -12.9224
  33   2.0000      -0.452384       -12.3100
  34   2.0000      -0.440435       -11.9849
  35   2.0000      -0.437671       -11.9096
  36   2.0000      -0.429327       -11.6826
  37   2.0000      -0.404378       -11.0037
  38   2.0000      -0.398080       -10.8323
  39   2.0000      -0.392086       -10.6692
  40   2.0000      -0.384845       -10.4722
  41   2.0000      -0.363631        -9.8949
  42   2.0000      -0.359260        -9.7760
  43   2.0000      -0.346813        -9.4373
  44   2.0000      -0.338742        -9.2176
  45   2.0000      -0.325650        -8.8614
  46   2.0000      -0.318175        -8.6580
  47   2.0000      -0.308088        -8.3835
  48   2.0000      -0.306739        -8.3468
  49   2.0000      -0.256459        -6.9786
  50   2.0000      -0.148519        -4.0414
  51   0.0000      -0.057064        -1.5528
  52   0.0000       0.016603         0.4518
  53   0.0000       0.041379         1.1260
  54   0.0000       0.048212         1.3119
  55   0.0000       0.052732         1.4349

MULLIKEN ATOMIC CHARGES
-----------------------
   0 C :   -0.183206
   1 C :   -0.277038
   2 C :   -0.178151
   3 C :   -0.193945
   4 H :    0.133882
   5 H :    0.131234
   6 C :    0.384744
   7 C :    0.124212
   8 N :   -0.395430
   9 N :   -0.361844
  10 H :    0.216499
  11 H :    0.221954
  12 H :    0.051193
  13 H :    0.221781
  14 H :    0.209255
  15 O :   -0.358159
  16 F :   -0.120454
  17 C :   -0.105382
  18 H :    0.086472
  19 H :    0.050902
  20 C :   -0.147926
  21 H :    0.066131
  22 H :    0.073455
  23 C :   -0.203965
  24 H :    0.108126
  25 H :    0.078112
  26 H :    0.068459
  27 H :    0.092212
  28 H :    0.103968
  29 H :    0.102908
Sum of atomic charges:   -0.0000000

LOEWDIN ATOMIC CHARGES
----------------------
   0 C :   -0.291254
   1 C :   -0.279354
   2 C :   -0.259694
   3 C :   -0.225258
   4 H :    0.155825
   5 H :    0.154619
   6 C :   -0.494482
   7 C :   -0.477879
   8 N :    0.013019
   9 N :   -0.005329
  10 H :    0.168849
  11 H :    0.149852
  12 H :    0.114239
  13 H :    0.169959
  14 H :    0.145119
  15 O :    0.073697
  16 F :    0.337829
  17 C :   -0.254736
  18 H :    0.135883
  19 H :    0.122967
  20 C :   -0.262499
  21 H :    0.128327
  22 H :    0.133231
  23 C :   -0.266674
  24 H :    0.138926
  25 H :    0.133457
  26 H :    0.126258
  27 H :    0.137519
  28 H :    0.140477
  29 H :    0.137105

  Mayer bond orders larger than 0.100000
B(  0-C ,  1-C ) :   1.0068 B(  0-C , 17-C ) :   0.9372 B(  0-C , 18-H ) :   0.9793
B(  0-C , 19-H ) :   0.9799 B(  1-C ,  7-C ) :   1.6857 B(  1-C , 12-H ) :   1.0188
B(  2-C ,  3-C ) :   0.9359 B(  2-C , 23-C ) :   0.9518 B(  2-C , 28-H ) :   0.9588
B(  2-C , 29-H ) :   0.9762 B(  3-C ,  4-H ) :   0.9605 B(  3-C ,  5-H ) :   0.9392
B(  3-C ,  6-C ) :   1.0062 B(  6-C , 15-O ) :   1.9554 B(  6-C , 16-F ) :   1.1025
B(  7-C ,  8-N ) :   1.1837 B(  7-C ,  9-N ) :   1.1847 B(  8-N , 13-H ) :   0.9260
B(  8-N , 14-H ) :   0.9077 B(  9-N , 10-H ) :   0.9310 B(  9-N , 11-H ) :   0.9029
B( 17-C , 20-C ) :   0.9853 B( 17-C , 21-H ) :   0.9581 B( 17-C , 22-H ) :   0.9657
B( 20-C , 23-C ) :   0.9286 B( 20-C , 24-H ) :   0.9570 B( 20-C , 25-H ) :   0.9685
B( 23-C , 26-H ) :   0.9771 B( 23-C , 27-H ) :   0.9701

Dispersion correction           -0.057308221
FINAL SINGLE POINT ENERGY      -637.643178933089

DIPOLE MOMENT
-------------
                                X             Y             Z
Electronic contribution:     -5.98277       0.19604     -13.47053
Nuclear contribution   :      4.38568       1.15960      13.97148
                        -----------------------------------------
Total Dipole Moment    :     -1.59709       1.35564       0.50095
                        -----------------------------------------
Magnitude (a.u.)       :      2.15393
Magnitude (Debye)      :      5.47485

Rotational constants in cm-1:     0.032892     0.023844     0.017123
Rotational constants in MHz :   986.091711   714.821905   513.334630

                             ****ORCA TERMINATED NORMALLY****
TOTAL RUN TIME: 0 days 0 hours 0 minutes 55 seconds 635 msec
