                         Program Version 5.0.0 -  RELEASE  -
|  1> !B3LYP D3BJ RIJCOSX def2-TZVP def2/J TightSCF xyzfile
|  2>
|  3> *xyzfile 0 1 D5.xyz
|  4>
|  5> %MaxCore 64000
|  6>
|  7> %pal nprocs 18
|  8> end
|  9>
| 10> %scf
| 11>   MaxIter 150
| 12> end
| 13>
| 14>
| 15>                          ****END OF INPUT****

CARTESIAN COORDINATES (ANGSTROEM)
---------------------------------
  C      2.234473   -2.989754   -2.397622
  N      2.756799   -2.945553   -3.765029
  C     -1.104325    0.251374   -2.860056
  C     -0.711893    0.842517   -4.218344
  H      0.154626    1.499800   -4.130909
  H     -1.538134    1.459222   -4.582671
  C     -0.397624   -0.205875   -5.288018
  C      1.987208   -2.590451   -4.818975
  C      0.743221   -3.017493   -4.913524
  N      2.499636   -1.848598   -5.803241
  H      3.309780   -1.292818   -5.558947
  H      1.801025   -1.304298   -6.289129
  H      3.716116   -2.628797   -3.829533
  H      0.395828   -3.627747   -4.185024
  H      0.039201   -2.454383   -5.371367
  O      0.617165   -0.005348   -5.998273
  F     -1.133173   -1.221380   -5.341465
  C      2.191199   -1.619503   -1.715492
  H      2.872783   -3.666368   -1.828014
  H      1.246188   -3.447444   -2.407842
  C      1.298729   -0.554314   -2.359773
  H      1.872917   -1.787955   -0.681310
  H      3.216809   -1.238432   -1.654428
  C     -0.196255   -0.863365   -2.325763
  H      1.612531   -0.371346   -3.393065
  H      1.480944    0.388638   -1.834444
  H     -0.404105   -1.761825   -2.909448
  H     -0.490439   -1.087880   -1.294131
  H     -1.143842    1.066711   -2.129680
  H     -2.114401   -0.156834   -2.930323

 Total Charge           Charge          ....    0
 Multiplicity           Mult            ....    1
 Number of Electrons    NEL             ....  102
 Basis Dimension        Dim             ....  505

ORBITAL ENERGIES
----------------

  NO   OCC          E(Eh)            E(eV)
   0   2.0000     -24.757353      -673.6818
   1   2.0000     -19.143405      -520.9185
   2   2.0000     -14.306779      -389.3073
   3   2.0000     -14.286689      -388.7606
   4   2.0000     -10.358023      -281.8561
   5   2.0000     -10.202593      -277.6267
   6   2.0000     -10.199346      -277.5383
   7   2.0000     -10.196248      -277.4540
   8   2.0000     -10.184860      -277.1441
   9   2.0000     -10.168823      -276.7077
  10   2.0000     -10.167964      -276.6844
  11   2.0000     -10.167611      -276.6748
  12   2.0000     -10.068966      -273.9905
  13   2.0000      -1.330603       -36.2075
  14   2.0000      -1.050940       -28.5975
  15   2.0000      -0.953321       -25.9412
  16   2.0000      -0.873639       -23.7729
  17   2.0000      -0.826056       -22.4781
  18   2.0000      -0.784330       -21.3427
  19   2.0000      -0.734301       -19.9813
  20   2.0000      -0.704948       -19.1826
  21   2.0000      -0.687312       -18.7027
  22   2.0000      -0.662242       -18.0205
  23   2.0000      -0.618509       -16.8305
  24   2.0000      -0.585752       -15.9391
  25   2.0000      -0.570252       -15.5174
  26   2.0000      -0.552951       -15.0466
  27   2.0000      -0.541873       -14.7451
  28   2.0000      -0.526984       -14.3400
  29   2.0000      -0.516948       -14.0669
  30   2.0000      -0.486702       -13.2438
  31   2.0000      -0.480401       -13.0724
  32   2.0000      -0.472650       -12.8615
  33   2.0000      -0.450041       -12.2462
  34   2.0000      -0.443218       -12.0606
  35   2.0000      -0.420886       -11.4529
  36   2.0000      -0.415969       -11.3191
  37   2.0000      -0.410079       -11.1588
  38   2.0000      -0.393099       -10.6968
  39   2.0000      -0.385855       -10.4996
  40   2.0000      -0.377145       -10.2626
  41   2.0000      -0.371448       -10.1076
  42   2.0000      -0.359481        -9.7820
  43   2.0000      -0.357999        -9.7416
  44   2.0000      -0.341902        -9.3036
  45   2.0000      -0.331688        -9.0257
  46   2.0000      -0.328994        -8.9524
  47   2.0000      -0.321965        -8.7611
  48   2.0000      -0.301307        -8.1990
  49   2.0000      -0.237723        -6.4688
  50   2.0000      -0.164655        -4.4805
  51   0.0000      -0.040776        -1.1096
  52   0.0000       0.020781         0.5655
  53   0.0000       0.033024         0.8986
  54   0.0000       0.048692         1.3250
  55   0.0000       0.055524         1.5109

MULLIKEN ATOMIC CHARGES
-----------------------
   0 C :   -0.100549
   1 N :   -0.273608
   2 C :   -0.177759
   3 C :   -0.197775
   4 H :    0.126496
   5 H :    0.127380
   6 C :    0.403431
   7 C :    0.215218
   8 C :   -0.483179
   9 N :   -0.377023
  10 H :    0.178681
  11 H :    0.244547
  12 H :    0.172488
  13 H :    0.067679
  14 H :    0.097283
  15 O :   -0.377558
  16 F :   -0.100904
  17 C :   -0.190153
  18 H :    0.110904
  19 H :    0.112009
  20 C :   -0.134213
  21 H :    0.077669
  22 H :    0.085633
  23 C :   -0.193483
  24 H :    0.108296
  25 H :    0.081027
  26 H :    0.111567
  27 H :    0.083892
  28 H :    0.099637
  29 H :    0.102368
Sum of atomic charges:    0.0000000

LOEWDIN ATOMIC CHARGES
----------------------
   0 C :   -0.275202
   1 N :    0.108954
   2 C :   -0.259193
   3 C :   -0.226140
   4 H :    0.153051
   5 H :    0.153222
   6 C :   -0.486889
   7 C :   -0.477594
   8 C :   -0.320326
   9 N :   -0.008942
  10 H :    0.148365
  11 H :    0.163328
  12 H :    0.170806
  13 H :    0.093512
  14 H :    0.090906
  15 O :    0.065340
  16 F :    0.346931
  17 C :   -0.266363
  18 H :    0.129321
  19 H :    0.135058
  20 C :   -0.262748
  21 H :    0.135247
  22 H :    0.131194
  23 C :   -0.265714
  24 H :    0.139905
  25 H :    0.134013
  26 H :    0.138169
  27 H :    0.134911
  28 H :    0.138386
  29 H :    0.138491

  Mayer bond orders larger than 0.100000
B(  0-C ,  1-N ) :   0.9351 B(  0-C , 17-C ) :   0.9711 B(  0-C , 18-H ) :   0.9794
B(  0-C , 19-H ) :   0.9764 B(  1-N ,  7-C ) :   1.1446 B(  1-N , 12-H ) :   0.9291
B(  2-C ,  3-C ) :   0.9393 B(  2-C , 23-C ) :   0.9586 B(  2-C , 28-H ) :   0.9609
B(  2-C , 29-H ) :   0.9733 B(  3-C ,  4-H ) :   0.9619 B(  3-C ,  5-H ) :   0.9410
B(  3-C ,  6-C ) :   1.0046 B(  6-C , 15-O ) :   1.9329 B(  6-C , 16-F ) :   1.1408
B(  7-C ,  8-C ) :   1.5857 B(  7-C ,  9-N ) :   1.1976 B(  8-C , 13-H ) :   1.0230
B(  8-C , 14-H ) :   1.0058 B(  9-N , 10-H ) :   0.9297 B(  9-N , 11-H ) :   0.8890
B( 17-C , 20-C ) :   0.9660 B( 17-C , 21-H ) :   0.9606 B( 17-C , 22-H ) :   0.9724
B( 20-C , 23-C ) :   0.9273 B( 20-C , 24-H ) :   0.9573 B( 20-C , 25-H ) :   0.9695
B( 23-C , 26-H ) :   0.9752 B( 23-C , 27-H ) :   0.9689

Dispersion correction           -0.057395307
FINAL SINGLE POINT ENERGY      -637.634145567252

DIPOLE MOMENT
-------------
                                X             Y             Z
Electronic contribution:     -4.32642       0.17940     -12.44309
Nuclear contribution   :      4.07548       1.14852      13.79455
                        -----------------------------------------
Total Dipole Moment    :     -0.25094       1.32792       1.35146
                        -----------------------------------------
Magnitude (a.u.)       :      1.91122
Magnitude (Debye)      :      4.85794

Rotational constants in cm-1:     0.033274     0.023559     0.016968
Rotational constants in MHz :   997.539108   706.293545   508.690532

                             ****ORCA TERMINATED NORMALLY****
TOTAL RUN TIME: 0 days 0 hours 0 minutes 56 seconds 127 msec
