                         Program Version 5.0.0 -  RELEASE  -
|  1> !B3LYP D3BJ RIJCOSX def2-TZVP def2/J TightSCF xyzfile
|  2>
|  3> *xyzfile 0 1 D6.xyz
|  4>
|  5> %MaxCore 64000
|  6>
|  7> %pal nprocs 18
|  8> end
|  9>
| 10> %scf
| 11>   MaxIter 150
| 12> end
| 13>
| 14>
| 15>                          ****END OF INPUT****

CARTESIAN COORDINATES (ANGSTROEM)
---------------------------------
  C      2.234473   -2.989754   -2.397622
  N      2.756799   -2.945553   -3.765029
  C     -1.104325    0.251374   -2.860056
  C     -0.711893    0.842517   -4.218344
  H      0.154626    1.499800   -4.130909
  H     -1.538134    1.459222   -4.582671
  C     -0.397624   -0.205875   -5.288018
  C      1.987208   -2.590451   -4.818975
  N      0.743221   -3.017493   -4.913524
  C      2.499636   -1.848598   -5.803241
  H      3.309780   -1.292818   -5.558947
  H      1.801025   -1.304298   -6.289129
  H      3.716116   -2.628797   -3.829533
  H      0.395828   -3.627747   -4.185024
  H      0.039201   -2.454383   -5.371367
  O      0.617165   -0.005348   -5.998273
  F     -1.133173   -1.221380   -5.341465
  C      2.191199   -1.619503   -1.715492
  H      2.872783   -3.666368   -1.828014
  H      1.246188   -3.447444   -2.407842
  C      1.298729   -0.554314   -2.359773
  H      1.872917   -1.787955   -0.681310
  H      3.216809   -1.238432   -1.654428
  C     -0.196255   -0.863365   -2.325763
  H      1.612531   -0.371346   -3.393065
  H      1.480944    0.388638   -1.834444
  H     -0.404105   -1.761825   -2.909448
  H     -0.490439   -1.087880   -1.294131
  H     -1.143842    1.066711   -2.129680
  H     -2.114401   -0.156834   -2.930323

 Total Charge           Charge          ....    0
 Multiplicity           Mult            ....    1
 Number of Electrons    NEL             ....  102
 Basis Dimension        Dim             ....  505

ORBITAL ENERGIES
----------------

  NO   OCC          E(Eh)            E(eV)
   0   2.0000     -24.771517      -674.0672
   1   2.0000     -19.140372      -520.8360
   2   2.0000     -14.304950      -389.2575
   3   2.0000     -14.301442      -389.1620
   4   2.0000     -10.354466      -281.7593
   5   2.0000     -10.203836      -277.6605
   6   2.0000     -10.202491      -277.6239
   7   2.0000     -10.199542      -277.5436
   8   2.0000     -10.188881      -277.2535
   9   2.0000     -10.176335      -276.9122
  10   2.0000     -10.171270      -276.7743
  11   2.0000     -10.169597      -276.7288
  12   2.0000     -10.057073      -273.6669
  13   2.0000      -1.344043       -36.5733
  14   2.0000      -1.046885       -28.4872
  15   2.0000      -0.958422       -26.0800
  16   2.0000      -0.879612       -23.9355
  17   2.0000      -0.830510       -22.5993
  18   2.0000      -0.789029       -21.4706
  19   2.0000      -0.741961       -20.1898
  20   2.0000      -0.709388       -19.3034
  21   2.0000      -0.683747       -18.6057
  22   2.0000      -0.662356       -18.0236
  23   2.0000      -0.617199       -16.7949
  24   2.0000      -0.603788       -16.4299
  25   2.0000      -0.581437       -15.8217
  26   2.0000      -0.564989       -15.3741
  27   2.0000      -0.558748       -15.2043
  28   2.0000      -0.528822       -14.3900
  29   2.0000      -0.509566       -13.8660
  30   2.0000      -0.491012       -13.3611
  31   2.0000      -0.480748       -13.0818
  32   2.0000      -0.469868       -12.7858
  33   2.0000      -0.461198       -12.5498
  34   2.0000      -0.445749       -12.1294
  35   2.0000      -0.437075       -11.8934
  36   2.0000      -0.414957       -11.2916
  37   2.0000      -0.409979       -11.1561
  38   2.0000      -0.388443       -10.5701
  39   2.0000      -0.383855       -10.4452
  40   2.0000      -0.381171       -10.3722
  41   2.0000      -0.372595       -10.1388
  42   2.0000      -0.366512        -9.9733
  43   2.0000      -0.358481        -9.7548
  44   2.0000      -0.337855        -9.1935
  45   2.0000      -0.334703        -9.1077
  46   2.0000      -0.332918        -9.0592
  47   2.0000      -0.326561        -8.8862
  48   2.0000      -0.287144        -7.8136
  49   2.0000      -0.244286        -6.6474
  50   2.0000      -0.155174        -4.2225
  51   0.0000      -0.040681        -1.1070
  52   0.0000       0.017531         0.4770
  53   0.0000       0.034641         0.9426
  54   0.0000       0.036802         1.0014
  55   0.0000       0.054120         1.4727

MULLIKEN ATOMIC CHARGES
-----------------------
   0 C :   -0.144258
   1 N :   -0.256714
   2 C :   -0.178142
   3 C :   -0.201454
   4 H :    0.132617
   5 H :    0.126965
   6 C :    0.376817
   7 C :    0.161980
   8 N :   -0.413082
   9 C :   -0.358183
  10 H :    0.040672
  11 H :    0.087359
  12 H :    0.199164
  13 H :    0.201537
  14 H :    0.229842
  15 O :   -0.312787
  16 F :   -0.133954
  17 C :   -0.161976
  18 H :    0.117919
  19 H :    0.088531
  20 C :   -0.164190
  21 H :    0.074131
  22 H :    0.092219
  23 C :   -0.191728
  24 H :    0.144176
  25 H :    0.084636
  26 H :    0.065816
  27 H :    0.088185
  28 H :    0.102289
  29 H :    0.101613
Sum of atomic charges:   -0.0000000

LOEWDIN ATOMIC CHARGES
----------------------
   0 C :   -0.290763
   1 N :    0.107731
   2 C :   -0.260229
   3 C :   -0.227714
   4 H :    0.155422
   5 H :    0.152872
   6 C :   -0.504111
   7 C :   -0.482150
   8 N :    0.014648
   9 C :   -0.333856
  10 H :    0.090777
  11 H :    0.098572
  12 H :    0.187021
  13 H :    0.155030
  14 H :    0.158198
  15 O :    0.103275
  16 F :    0.329402
  17 C :   -0.265982
  18 H :    0.130576
  19 H :    0.123001
  20 C :   -0.261691
  21 H :    0.134129
  22 H :    0.134715
  23 C :   -0.268708
  24 H :    0.146782
  25 H :    0.135720
  26 H :    0.125149
  27 H :    0.135536
  28 H :    0.139364
  29 H :    0.137285

  Mayer bond orders larger than 0.100000
B(  0-C ,  1-N ) :   0.9637 B(  0-C , 17-C ) :   0.9549 B(  0-C , 18-H ) :   0.9816
B(  0-C , 19-H ) :   0.9858 B(  1-N ,  7-C ) :   1.1887 B(  1-N , 12-H ) :   0.9253
B(  2-C ,  3-C ) :   0.9342 B(  2-C , 23-C ) :   0.9595 B(  2-C , 28-H ) :   0.9602
B(  2-C , 29-H ) :   0.9753 B(  3-C ,  4-H ) :   0.9619 B(  3-C ,  5-H ) :   0.9420
B(  3-C ,  6-C ) :   1.0079 B(  6-C , 15-O ) :   2.0094 B(  6-C , 16-F ) :   1.0791
B(  7-C ,  8-N ) :   1.1283 B(  7-C ,  9-C ) :   1.6889 B(  8-N , 13-H ) :   0.9332
B(  8-N , 14-H ) :   0.9028 B(  9-C , 10-H ) :   0.9979 B(  9-C , 11-H ) :   1.0044
B( 17-C , 20-C ) :   0.9600 B( 17-C , 21-H ) :   0.9586 B( 17-C , 22-H ) :   0.9691
B( 20-C , 23-C ) :   0.9277 B( 20-C , 24-H ) :   0.9568 B( 20-C , 25-H ) :   0.9667
B( 23-C , 26-H ) :   0.9757 B( 23-C , 27-H ) :   0.9669

Dispersion correction           -0.057166499
FINAL SINGLE POINT ENERGY      -637.619431840990

DIPOLE MOMENT
-------------
                                X             Y             Z
Electronic contribution:     -5.67305      -0.74078     -11.73806
Nuclear contribution   :      4.34606       1.32859      13.65749
                        -----------------------------------------
Total Dipole Moment    :     -1.32699       0.58781       1.91943
                        -----------------------------------------
Magnitude (a.u.)       :      2.40637
Magnitude (Debye)      :      6.11651

Rotational constants in cm-1:     0.033551     0.023540     0.017085
Rotational constants in MHz :  1005.818710   705.725032   512.192443

                             ****ORCA TERMINATED NORMALLY****
TOTAL RUN TIME: 0 days 0 hours 0 minutes 53 seconds 267 msec
