                         Program Version 5.0.0 -  RELEASE  -
|  1> !B3LYP D3BJ RIJCOSX def2-SVPD def2/J TightSCF
|  2> *xyz -1 1
|  3> C         -0.87096        0.24804       -2.66280
|  4> C         -0.47749        0.60819       -4.10105
|  5> H          0.20677        1.45830       -4.11875
|  6> H         -1.36844        0.92942       -4.64785
|  7> C          0.18467       -0.50664       -4.91676
|  8> O         -0.15869       -1.70109       -4.65798
|  9> O          1.05594       -0.17441       -5.74037
| 10> H         -1.54056       -0.58646       -2.67455
| 11> H         -1.35339        1.08600       -2.20455
| 12> H          0.00660       -0.00662       -2.10609
| 13> *
| 14>
| 15> %MaxCore 64000
| 16>
| 17> %pal nprocs 4
| 18> end
| 19>
| 20> %scf
| 21>   MaxIter 150
| 22> end
| 23>
| 24>
| 25>                          ****END OF INPUT****

CARTESIAN COORDINATES (ANGSTROEM)
---------------------------------
  C     -0.870960    0.248040   -2.662800
  C     -0.477490    0.608190   -4.101050
  H      0.206770    1.458300   -4.118750
  H     -1.368440    0.929420   -4.647850
  C      0.184670   -0.506640   -4.916760
  O     -0.158690   -1.701090   -4.657980
  O      1.055940   -0.174410   -5.740370
  H     -1.540560   -0.586460   -2.674550
  H     -1.353390    1.086000   -2.204550
  H      0.006600   -0.006620   -2.106090

 Total Charge           Charge          ....   -1
 Multiplicity           Mult            ....    1
 Number of Electrons    NEL             ....   40
 Basis Dimension        Dim             ....  146

ORBITAL ENERGIES
----------------

  NO   OCC          E(Eh)            E(eV)
   0   2.0000     -18.879869      -513.7473
   1   2.0000     -18.876269      -513.6494
   2   2.0000     -10.069648      -274.0091
   3   2.0000     -10.020118      -272.6613
   4   2.0000     -10.010708      -272.4052
   5   2.0000      -0.812216       -22.1015
   6   2.0000      -0.718467       -19.5505
   7   2.0000      -0.596868       -16.2416
   8   2.0000      -0.469962       -12.7883
   9   2.0000      -0.315383        -8.5820
  10   2.0000      -0.293338        -7.9821
  11   2.0000      -0.258446        -7.0327
  12   2.0000      -0.229786        -6.2528
  13   2.0000      -0.216292        -5.8856
  14   2.0000      -0.208724        -5.6797
  15   2.0000      -0.180567        -4.9135
  16   2.0000      -0.162125        -4.4116
  17   2.0000      -0.051618        -1.4046
  18   2.0000      -0.045020        -1.2251
  19   2.0000      -0.030357        -0.8260
  20   0.0000       0.152995         4.1632
  21   0.0000       0.188485         5.1289
  22   0.0000       0.203897         5.5483
  23   0.0000       0.212527         5.7832
  24   0.0000       0.240889         6.5549

MULLIKEN ATOMIC CHARGES
-----------------------
   0 C :    0.865948
   1 C :   -0.199330
   2 H :   -0.135704
   3 H :   -0.103542
   4 C :    0.420888
   5 O :   -0.737241
   6 O :   -0.666662
   7 H :   -0.117230
   8 H :   -0.182932
   9 H :   -0.144195
Sum of atomic charges:   -1.0000000

LOEWDIN ATOMIC CHARGES
----------------------
   0 C :    0.104235
   1 C :   -0.032100
   2 H :   -0.005225
   3 H :    0.005100
   4 C :   -0.305828
   5 O :   -0.330605
   6 O :   -0.322928
   7 H :   -0.034138
   8 H :   -0.049731
   9 H :   -0.028780

  Mayer bond orders larger than 0.100000
B(  0-C ,  1-C ) :   1.2575 B(  0-C ,  7-H ) :   0.7770 B(  0-C ,  8-H ) :   0.7472
B(  0-C ,  9-H ) :   0.7864 B(  1-C ,  2-H ) :   0.9179 B(  1-C ,  3-H ) :   0.8625
B(  1-C ,  4-C ) :   1.0227 B(  1-C ,  7-H ) :   0.2399 B(  1-C ,  8-H ) :   0.2449
B(  1-C ,  9-H ) :   0.2032 B(  2-H ,  4-C ) :   0.2071 B(  4-C ,  5-O ) :   1.4590
B(  4-C ,  6-O ) :   1.4841

Dispersion correction           -0.010902249
FINAL SINGLE POINT ENERGY      -267.525866294019

DIPOLE MOMENT
-------------
                                X             Y             Z
Electronic contribution:      2.61888      -2.89671      -4.54392
Nuclear contribution   :     -3.54611       4.15440       5.90446
                        -----------------------------------------
Total Dipole Moment    :     -0.92723       1.25769       1.36055
                        -----------------------------------------
Magnitude (a.u.)       :      2.07187
Magnitude (Debye)      :      5.26626

Rotational constants in cm-1:     0.332789     0.132085     0.101080
Rotational constants in MHz :  9976.755824  3959.803182  3030.288811

                             ****ORCA TERMINATED NORMALLY****
TOTAL RUN TIME: 0 days 0 hours 0 minutes 19 seconds 101 msec
