                         Program Version 5.0.0 -  RELEASE  -
|  1> !B3LYP D3BJ RIJCOSX def2-SVPD def2/J TightSCF
|  2> *xyz 1 1
|  3> C          2.48645       -2.67712       -2.56345
|  4> C          3.03764       -2.36672       -3.92351
|  5> N          2.28036       -2.45441       -4.96769
|  6> N          4.32174       -2.01793       -4.01664
|  7> H          4.87994       -1.91167       -3.17382
|  8> H          4.71015       -1.67088       -4.88356
|  9> H          1.27042       -2.41265       -4.86614
| 10> H          2.58183       -2.05528       -5.84688
| 11> C          2.49799       -1.46946       -1.61030
| 12> H          1.47259       -3.05153       -2.69437
| 13> H          3.08320       -3.49064       -2.14147
| 14> H          1.91240       -0.67831       -2.02991
| 15> H          3.50450       -1.13364       -1.47227
| 16> H          2.08509       -1.75655       -0.66585
| 17> *
| 18>
| 19> %MaxCore 64000
| 20>
| 21> %pal nprocs 4
| 22> end
| 23>
| 24> %scf
| 25>   MaxIter 150
| 26> end
| 27>
| 28>
| 29>                          ****END OF INPUT****

CARTESIAN COORDINATES (ANGSTROEM)
---------------------------------
  C      2.486450   -2.677120   -2.563450
  C      3.037640   -2.366720   -3.923510
  N      2.280360   -2.454410   -4.967690
  N      4.321740   -2.017930   -4.016640
  H      4.879940   -1.911670   -3.173820
  H      4.710150   -1.670880   -4.883560
  H      1.270420   -2.412650   -4.866140
  H      2.581830   -2.055280   -5.846880
  C      2.497990   -1.469460   -1.610300
  H      1.472590   -3.051530   -2.694370
  H      3.083200   -3.490640   -2.141470
  H      1.912400   -0.678310   -2.029910
  H      3.504500   -1.133640   -1.472270
  H      2.085090   -1.756550   -0.665850

 Total Charge           Charge          ....    1
 Multiplicity           Mult            ....    1
 Number of Electrons    NEL             ....   40
 Basis Dimension        Dim             ....  172

ORBITAL ENERGIES
----------------

  NO   OCC          E(Eh)            E(eV)
   0   2.0000     -14.581356      -396.7789
   1   2.0000     -14.575831      -396.6285
   2   2.0000     -10.508206      -285.9428
   3   2.0000     -10.382905      -282.5332
   4   2.0000     -10.342689      -281.4389
   5   2.0000      -1.200581       -32.6695
   6   2.0000      -1.104336       -30.0505
   7   2.0000      -0.963580       -26.2203
   8   2.0000      -0.862677       -23.4746
   9   2.0000      -0.814506       -22.1638
  10   2.0000      -0.778346       -21.1799
  11   2.0000      -0.749454       -20.3937
  12   2.0000      -0.704568       -19.1723
  13   2.0000      -0.653010       -17.7693
  14   2.0000      -0.624705       -16.9991
  15   2.0000      -0.610396       -16.6097
  16   2.0000      -0.551041       -14.9946
  17   2.0000      -0.540380       -14.7045
  18   2.0000      -0.530531       -14.4365
  19   2.0000      -0.498826       -13.5738
  20   0.0000      -0.218992        -5.9591
  21   0.0000      -0.162744        -4.4285
  22   0.0000      -0.120840        -3.2882
  23   0.0000      -0.118867        -3.2345
  24   0.0000      -0.086128        -2.3437

MULLIKEN ATOMIC CHARGES
-----------------------
   0 C :   -0.099111
   1 C :    0.505323
   2 N :    0.247383
   3 N :    0.216249
   4 H :   -0.019575
   5 H :   -0.177405
   6 H :   -0.024781
   7 H :   -0.128339
   8 C :    0.930772
   9 H :   -0.062132
  10 H :   -0.031256
  11 H :   -0.151135
  12 H :   -0.143997
  13 H :   -0.061995
Sum of atomic charges:    1.0000000

LOEWDIN ATOMIC CHARGES
----------------------
   0 C :    0.020085
   1 C :   -0.047931
   2 N :    0.287797
   3 N :    0.292884
   4 H :    0.046921
   5 H :    0.043414
   6 H :    0.058299
   7 H :    0.049337
   8 C :    0.180493
   9 H :    0.032564
  10 H :    0.051113
  11 H :   -0.003339
  12 H :   -0.017975
  13 H :    0.006337

  Mayer bond orders larger than 0.100000
B(  0-C ,  1-C ) :   1.1862 B(  0-C ,  8-C ) :   1.2536 B(  0-C ,  9-H ) :   0.8405
B(  0-C , 10-H ) :   0.8292 B(  0-C , 11-H ) :   0.1814 B(  0-C , 12-H ) :   0.2113
B(  0-C , 13-H ) :   0.1784 B(  1-C ,  2-N ) :   1.1437 B(  1-C ,  3-N ) :   1.1463
B(  1-C ,  5-H ) :  -0.1476 B(  1-C ,  7-H ) :  -0.1164 B(  1-C ,  9-H ) :   0.2086
B(  1-C , 10-H ) :   0.1194 B(  2-N ,  3-N ) :   0.1469 B(  2-N ,  6-H ) :   1.0695
B(  2-N ,  7-H ) :   1.1889 B(  3-N ,  4-H ) :   1.1122 B(  3-N ,  5-H ) :   1.2707
B(  4-H ,  5-H ) :  -0.1768 B(  6-H ,  7-H ) :  -0.1313 B(  8-C , 11-H ) :   0.7746
B(  8-C , 12-H ) :   0.7417 B(  8-C , 13-H ) :   0.8076

Dispersion correction           -0.016681930
FINAL SINGLE POINT ENERGY      -228.748870696735

DIPOLE MOMENT
-------------
                                X             Y             Z
Electronic contribution:      1.06074      -1.07609      -3.91671
Nuclear contribution   :     -0.84604       1.34287       2.92710
                        -----------------------------------------
Total Dipole Moment    :      0.21470       0.26678      -0.98961
                        -----------------------------------------
Magnitude (a.u.)       :      1.04718
Magnitude (Debye)      :      2.66172

Rotational constants in cm-1:     0.265816     0.126189     0.097583
Rotational constants in MHz :  7968.948902  3783.040103  2925.457702

                             ****ORCA TERMINATED NORMALLY****
TOTAL RUN TIME: 0 days 0 hours 0 minutes 21 seconds 641 msec
