                         Program Version 5.0.0 -  RELEASE  -
|  1> !B3LYP D3BJ RIJCOSX def2-SVPD def2/J TightSCF xyzfile
|  2>
|  3> *xyzfile 0 1 B.xyz
|  4>
|  5> %MaxCore 64000
|  6>
|  7> %pal nprocs 4
|  8> end
|  9>
| 10> %scf
| 11>   MaxIter 150
| 12> end
| 13>
| 14>
| 15>                          ****END OF INPUT****

CARTESIAN COORDINATES (ANGSTROEM)
---------------------------------
  C      2.486452   -2.677121   -2.563447
  C     -0.870963    0.248043   -2.662804
  C     -0.477492    0.608191   -4.101052
  H      0.206773    1.458299   -4.118748
  H     -1.368442    0.929419   -4.647855
  C      0.184673   -0.506640   -4.916760
  C      3.037640   -2.366715   -3.923509
  N      2.280360   -2.454408   -4.967692
  N      4.321736   -2.017932   -4.016641
  H      4.879940   -1.911668   -3.173823
  H      4.710148   -1.670882   -4.883561
  H      1.270423   -2.412650   -4.866143
  H      2.581829   -2.055282   -5.846878
  O     -0.158685   -1.701088   -4.657981
  O      1.055938   -0.174410   -5.740373
  C      2.497991   -1.469464   -1.610303
  C      1.582841   -0.321986   -2.042619
  H      2.193083   -1.833912   -0.625420
  H      3.523356   -1.103982   -1.490392
  C      0.100160   -0.673551   -1.915815
  H      1.822311   -0.040361   -3.072834
  H      1.813180    0.557019   -1.433266
  H     -0.063284   -1.679120   -2.301112
  H     -0.168820   -0.691680   -0.853831
  H     -1.001048    1.181040   -2.104071
  H     -1.844645   -0.246592   -2.663281
  H      1.472592   -3.051527   -2.694366
  H      3.083201   -3.490638   -2.141472

 Total Charge           Charge          ....    0
 Multiplicity           Mult            ....    1
 Number of Electrons    NEL             ....   94
 Basis Dimension        Dim             ....  374

ORBITAL ENERGIES
----------------

  NO   OCC          E(Eh)            E(eV)
   0   2.0000     -19.054136      -518.4894
   1   2.0000     -19.048231      -518.3287
   2   2.0000     -14.414729      -392.2447
   3   2.0000     -14.377191      -391.2232
   4   2.0000     -10.332045      -281.1492
   5   2.0000     -10.236701      -278.5548
   6   2.0000     -10.227865      -278.3144
   7   2.0000     -10.210104      -277.8311
   8   2.0000     -10.179987      -277.0115
   9   2.0000     -10.161611      -276.5115
  10   2.0000     -10.157080      -276.3882
  11   2.0000     -10.145400      -276.0704
  12   2.0000      -1.024904       -27.8891
  13   2.0000      -0.991001       -26.9665
  14   2.0000      -0.926836       -25.2205
  15   2.0000      -0.896241       -24.3880
  16   2.0000      -0.824851       -22.4453
  17   2.0000      -0.771426       -20.9916
  18   2.0000      -0.727975       -19.8092
  19   2.0000      -0.674750       -18.3609
  20   2.0000      -0.656914       -17.8755
  21   2.0000      -0.613967       -16.7069
  22   2.0000      -0.609038       -16.5728
  23   2.0000      -0.578642       -15.7457
  24   2.0000      -0.553943       -15.0736
  25   2.0000      -0.525322       -14.2947
  26   2.0000      -0.499624       -13.5954
  27   2.0000      -0.480040       -13.0625
  28   2.0000      -0.457546       -12.4505
  29   2.0000      -0.452070       -12.3015
  30   2.0000      -0.443845       -12.0776
  31   2.0000      -0.423795       -11.5321
  32   2.0000      -0.413343       -11.2476
  33   2.0000      -0.409461       -11.1420
  34   2.0000      -0.392251       -10.6737
  35   2.0000      -0.381643       -10.3850
  36   2.0000      -0.370272       -10.0756
  37   2.0000      -0.359014        -9.7693
  38   2.0000      -0.353643        -9.6231
  39   2.0000      -0.337182        -9.1752
  40   2.0000      -0.324944        -8.8422
  41   2.0000      -0.316021        -8.5994
  42   2.0000      -0.307955        -8.3799
  43   2.0000      -0.298704        -8.1282
  44   2.0000      -0.229577        -6.2471
  45   2.0000      -0.216308        -5.8860
  46   2.0000      -0.204310        -5.5596
  47   0.0000      -0.048766        -1.3270
  48   0.0000      -0.020681        -0.5628
  49   0.0000       0.015861         0.4316
  50   0.0000       0.029942         0.8148
  51   0.0000       0.036158         0.9839

MULLIKEN ATOMIC CHARGES
-----------------------
   0 C :    0.423772
   1 C :    0.691324
   2 C :    0.462291
   3 H :    0.125604
   4 H :   -0.401882
   5 C :    0.207130
   6 C :    0.507192
   7 N :    0.480032
   8 N :    0.189020
   9 H :   -0.067227
  10 H :   -0.192063
  11 H :   -0.304535
  12 H :   -0.067550
  13 O :   -0.811249
  14 O :   -0.592660
  15 C :    0.465372
  16 C :    0.355904
  17 H :   -0.153394
  18 H :   -0.189687
  19 C :    0.171965
  20 H :   -0.215235
  21 H :   -0.283044
  22 H :   -0.041504
  23 H :   -0.285395
  24 H :   -0.235785
  25 H :   -0.038562
  26 H :   -0.028966
  27 H :   -0.170869
Sum of atomic charges:    0.0000000

LOEWDIN ATOMIC CHARGES
----------------------
   0 C :    0.061418
   1 C :   -0.011950
   2 C :    0.037124
   3 H :    0.014179
   4 H :    0.024701
   5 C :   -0.239875
   6 C :   -0.049163
   7 N :    0.314637
   8 N :    0.258382
   9 H :    0.021656
  10 H :    0.026667
  11 H :   -0.097839
  12 H :    0.030285
  13 O :   -0.254261
  14 O :   -0.259647
  15 C :   -0.007683
  16 C :   -0.004008
  17 H :    0.027150
  18 H :    0.006552
  19 C :   -0.022174
  20 H :    0.007479
  21 H :    0.024833
  22 H :   -0.013551
  23 H :    0.018201
  24 H :    0.011892
  25 H :    0.019691
  26 H :    0.021950
  27 H :    0.033356

  Mayer bond orders larger than 0.100000
B(  0-C ,  6-C ) :   1.0876 B(  0-C ,  7-N ) :   0.1140 B(  0-C , 15-C ) :   1.1438
B(  0-C , 16-C ) :   0.1197 B(  0-C , 17-H ) :   0.1736 B(  0-C , 18-H ) :   0.1610
B(  0-C , 26-H ) :   0.7373 B(  0-C , 27-H ) :   0.6484 B(  1-C ,  2-C ) :   1.1441
B(  1-C ,  4-H ) :   0.1310 B(  1-C , 19-C ) :   1.2734 B(  1-C , 22-H ) :   0.1065
B(  1-C , 23-H ) :   0.1076 B(  1-C , 24-H ) :   0.6900 B(  1-C , 25-H ) :   0.6017
B(  2-C ,  3-H ) :   0.7190 B(  2-C ,  4-H ) :   0.6584 B(  2-C ,  5-C ) :   1.1418
B(  2-C , 19-C ) :   0.1456 B(  2-C , 24-H ) :   0.1708 B(  3-H ,  4-H ) :  -0.1089
B(  3-H ,  5-C ) :   0.3299 B(  4-H ,  5-C ) :   0.2988 B(  5-C , 13-O ) :   1.2311
B(  5-C , 14-O ) :   1.5383 B(  6-C ,  7-N ) :   1.1984 B(  6-C ,  8-N ) :   1.0169
B(  6-C ,  9-H ) :  -0.1054 B(  6-C , 12-H ) :  -0.1397 B(  6-C , 26-H ) :   0.2208
B(  6-C , 27-H ) :   0.1750 B(  7-N ,  8-N ) :   0.2093 B(  7-N , 11-H ) :   0.9943
B(  7-N , 12-H ) :   1.0752 B(  8-N ,  9-H ) :   1.1749 B(  8-N , 10-H ) :   1.2484
B(  9-H , 10-H ) :  -0.1841 B( 11-H , 12-H ) :  -0.1393 B( 11-H , 13-O ) :   0.2868
B( 13-O , 14-O ) :   0.1106 B( 15-C , 16-C ) :   1.1864 B( 15-C , 17-H ) :   0.8091
B( 15-C , 18-H ) :   0.6208 B( 15-C , 20-H ) :   0.1814 B( 15-C , 21-H ) :   0.1035
B( 15-C , 26-H ) :   0.1635 B( 15-C , 27-H ) :   0.1510 B( 16-C , 17-H ) :   0.1167
B( 16-C , 18-H ) :   0.2454 B( 16-C , 19-C ) :   1.1626 B( 16-C , 20-H ) :   0.7721
B( 16-C , 21-H ) :   0.7788 B( 16-C , 22-H ) :   0.1437 B( 16-C , 23-H ) :   0.2687
B( 17-H , 18-H ) :  -0.1199 B( 19-C , 20-H ) :   0.1575 B( 19-C , 21-H ) :   0.1145
B( 19-C , 22-H ) :   0.8109 B( 19-C , 23-H ) :   0.7163 B( 19-C , 24-H ) :   0.2309
B( 19-C , 25-H ) :   0.2569 B( 22-H , 26-H ) :   0.1248 B( 24-H , 25-H ) :  -0.1339

Dispersion correction           -0.051342766
FINAL SINGLE POINT ENERGY      -573.786958134966

DIPOLE MOMENT
-------------
                                X             Y             Z
Electronic contribution:      1.70591      -2.91343      -8.80087
Nuclear contribution   :      1.39386       1.90489      10.36520
                        -----------------------------------------
Total Dipole Moment    :      3.09977      -1.00854       1.56433
                        -----------------------------------------
Magnitude (a.u.)       :      3.61564
Magnitude (Debye)      :      9.19023

Rotational constants in cm-1:     0.041165     0.025922     0.019001
Rotational constants in MHz :  1234.086888   777.109255   569.639629

                             ****ORCA TERMINATED NORMALLY****
TOTAL RUN TIME: 0 days 0 hours 1 minutes 55 seconds 961 msec
