                         Program Version 5.0.0 -  RELEASE  -
|  1> !B3LYP D3BJ RIJCOSX def2-SVPD def2/J TightSCF
|  2> *xyz 0 1
|  3> C         -0.87096        0.24804       -2.66280
|  4> C         -0.47749        0.60819       -4.10105
|  5> H          0.20677        1.45830       -4.11875
|  6> H         -1.36844        0.92942       -4.64785
|  7> C          0.18467       -0.50664       -4.91676
|  8> F         -0.15869       -1.70109       -4.65798
|  9> O          1.05594       -0.17441       -5.74037
| 10> H         -1.54056       -0.58646       -2.67455
| 11> H         -1.35339        1.08600       -2.20455
| 12> H          0.00660       -0.00662       -2.10609
| 13> *
| 14>
| 15> %MaxCore 64000
| 16>
| 17> %pal nprocs 4
| 18> end
| 19>
| 20> %scf
| 21>   MaxIter 150
| 22> end
| 23>
| 24>
| 25>                          ****END OF INPUT****

CARTESIAN COORDINATES (ANGSTROEM)
---------------------------------
  C     -0.870960    0.248040   -2.662800
  C     -0.477490    0.608190   -4.101050
  H      0.206770    1.458300   -4.118750
  H     -1.368440    0.929420   -4.647850
  C      0.184670   -0.506640   -4.916760
  F     -0.158690   -1.701090   -4.657980
  O      1.055940   -0.174410   -5.740370
  H     -1.540560   -0.586460   -2.674550
  H     -1.353390    1.086000   -2.204550
  H      0.006600   -0.006620   -2.106090

 Total Charge           Charge          ....    0
 Multiplicity           Mult            ....    1
 Number of Electrons    NEL             ....   40
 Basis Dimension        Dim             ....  146

ORBITAL ENERGIES
----------------

  NO   OCC          E(Eh)            E(eV)
   0   2.0000     -24.766128      -673.9206
   1   2.0000     -19.151852      -521.1484
   2   2.0000     -10.366954      -282.0992
   3   2.0000     -10.218282      -278.0536
   4   2.0000     -10.193779      -277.3868
   5   2.0000      -1.298773       -35.3414
   6   2.0000      -1.034073       -28.1386
   7   2.0000      -0.797366       -21.6974
   8   2.0000      -0.682191       -18.5634
   9   2.0000      -0.642629       -17.4868
  10   2.0000      -0.550032       -14.9671
  11   2.0000      -0.542702       -14.7677
  12   2.0000      -0.497368       -13.5341
  13   2.0000      -0.469387       -12.7727
  14   2.0000      -0.436275       -11.8716
  15   2.0000      -0.407087       -11.0774
  16   2.0000      -0.391815       -10.6618
  17   2.0000      -0.382398       -10.4056
  18   2.0000      -0.355179        -9.6649
  19   2.0000      -0.298099        -8.1117
  20   0.0000      -0.035170        -0.9570
  21   0.0000       0.007693         0.2093
  22   0.0000       0.045362         1.2344
  23   0.0000       0.053712         1.4616
  24   0.0000       0.071410         1.9432

MULLIKEN ATOMIC CHARGES
-----------------------
   0 C :    0.882476
   1 C :   -0.242243
   2 H :   -0.101207
   3 H :   -0.031781
   4 C :    0.711047
   5 F :   -0.400495
   6 O :   -0.441883
   7 H :   -0.110873
   8 H :   -0.147572
   9 H :   -0.117468
Sum of atomic charges:    0.0000000

LOEWDIN ATOMIC CHARGES
----------------------
   0 C :    0.140832
   1 C :    0.017523
   2 H :    0.031038
   3 H :    0.036866
   4 C :   -0.010155
   5 F :   -0.040305
   6 O :   -0.127103
   7 H :   -0.018614
   8 H :   -0.016759
   9 H :   -0.013322

  Mayer bond orders larger than 0.100000
B(  0-C ,  1-C ) :   1.2943 B(  0-C ,  7-H ) :   0.7744 B(  0-C ,  8-H ) :   0.7557
B(  0-C ,  9-H ) :   0.7937 B(  1-C ,  2-H ) :   0.9353 B(  1-C ,  3-H ) :   0.8461
B(  1-C ,  4-C ) :   1.0452 B(  1-C ,  7-H ) :   0.2072 B(  1-C ,  8-H ) :   0.2374
B(  1-C ,  9-H ) :   0.1893 B(  2-H ,  4-C ) :   0.1562 B(  4-C ,  5-F ) :   0.7337
B(  4-C ,  6-O ) :   1.8339 B(  5-F ,  6-O ) :   0.1115

Dispersion correction           -0.010257549
FINAL SINGLE POINT ENERGY      -292.060179612052

DIPOLE MOMENT
-------------
                                X             Y             Z
Electronic contribution:      2.60111      -5.34417      -5.28611
Nuclear contribution   :     -3.42837       5.66737       6.17046
                        -----------------------------------------
Total Dipole Moment    :     -0.82726       0.32320       0.88435
                        -----------------------------------------
Magnitude (a.u.)       :      1.25335
Magnitude (Debye)      :      3.18577

Rotational constants in cm-1:     0.304660     0.130969     0.097716
Rotational constants in MHz :  9133.464515  3926.366384  2929.457090

                             ****ORCA TERMINATED NORMALLY****
TOTAL RUN TIME: 0 days 0 hours 0 minutes 22 seconds 430 msec
