                         Program Version 5.0.0 -  RELEASE  -
|  1> !B3LYP D3BJ RIJCOSX def2-SVPD def2/J TightSCF
|  2> *xyz 0 1
|  3> C          2.48645       -2.67712       -2.56345
|  4> C          3.03764       -2.36672       -3.92351
|  5> C          2.28036       -2.45441       -4.96769
|  6> N          4.32174       -2.01793       -4.01664
|  7> H          4.87994       -1.91167       -3.17382
|  8> H          4.71015       -1.67088       -4.88356
|  9> H          1.27042       -2.41265       -4.86614
| 10> H          2.58183       -2.05528       -5.84688
| 11> C          2.49799       -1.46946       -1.61030
| 12> H          1.47259       -3.05153       -2.69437
| 13> H          3.08320       -3.49064       -2.14147
| 14> H          1.91240       -0.67831       -2.02991
| 15> H          3.50450       -1.13364       -1.47227
| 16> H          2.08509       -1.75655       -0.66585
| 17> *
| 18>
| 19> %MaxCore 64000
| 20>
| 21> %pal nprocs 4
| 22> end
| 23>
| 24> %scf
| 25>   MaxIter 150
| 26> end
| 27>
| 28>
| 29>                          ****END OF INPUT****

CARTESIAN COORDINATES (ANGSTROEM)
---------------------------------
  C      2.486450   -2.677120   -2.563450
  C      3.037640   -2.366720   -3.923510
  C      2.280360   -2.454410   -4.967690
  N      4.321740   -2.017930   -4.016640
  H      4.879940   -1.911670   -3.173820
  H      4.710150   -1.670880   -4.883560
  H      1.270420   -2.412650   -4.866140
  H      2.581830   -2.055280   -5.846880
  C      2.497990   -1.469460   -1.610300
  H      1.472590   -3.051530   -2.694370
  H      3.083200   -3.490640   -2.141470
  H      1.912400   -0.678310   -2.029910
  H      3.504500   -1.133640   -1.472270
  H      2.085090   -1.756550   -0.665850

 Total Charge           Charge          ....    0
 Multiplicity           Mult            ....    1
 Number of Electrons    NEL             ....   40
 Basis Dimension        Dim             ....  172

ORBITAL ENERGIES
----------------

  NO   OCC          E(Eh)            E(eV)
   0   2.0000     -14.331799      -389.9881
   1   2.0000     -10.202596      -277.6268
   2   2.0000     -10.182225      -277.0724
   3   2.0000     -10.173206      -276.8270
   4   2.0000     -10.114755      -275.2365
   5   2.0000      -0.916804       -24.9475
   6   2.0000      -0.772228       -21.0134
   7   2.0000      -0.718880       -19.5617
   8   2.0000      -0.630577       -17.1589
   9   2.0000      -0.565788       -15.3959
  10   2.0000      -0.524700       -14.2778
  11   2.0000      -0.477231       -12.9861
  12   2.0000      -0.437266       -11.8986
  13   2.0000      -0.431780       -11.7493
  14   2.0000      -0.389799       -10.6070
  15   2.0000      -0.383045       -10.4232
  16   2.0000      -0.355771        -9.6810
  17   2.0000      -0.335471        -9.1286
  18   2.0000      -0.326516        -8.8849
  19   2.0000      -0.197837        -5.3834
  20   0.0000       0.013248         0.3605
  21   0.0000       0.036430         0.9913
  22   0.0000       0.051637         1.4051
  23   0.0000       0.057544         1.5659
  24   0.0000       0.067975         1.8497

MULLIKEN ATOMIC CHARGES
-----------------------
   0 C :   -0.028300
   1 C :   -0.146516
   2 C :    0.527607
   3 N :    0.333275
   4 H :   -0.194355
   5 H :   -0.237506
   6 H :   -0.104440
   7 H :   -0.522095
   8 C :    0.932867
   9 H :    0.010114
  10 H :   -0.127849
  11 H :   -0.142318
  12 H :   -0.156284
  13 H :   -0.144201
Sum of atomic charges:   -0.0000000

LOEWDIN ATOMIC CHARGES
----------------------
   0 C :   -0.022881
   1 C :   -0.261635
   2 C :    0.168283
   3 N :    0.182089
   4 H :   -0.006766
   5 H :    0.002365
   6 H :   -0.079921
   7 H :   -0.087444
   8 C :    0.141888
   9 H :    0.017047
  10 H :    0.020804
  11 H :   -0.016003
  12 H :   -0.035154
  13 H :   -0.022672

  Mayer bond orders larger than 0.100000
B(  0-C ,  1-C ) :   1.2662 B(  0-C ,  2-C ) :   0.1044 B(  0-C ,  8-C ) :   1.2056
B(  0-C ,  9-H ) :   0.8418 B(  0-C , 10-H ) :   0.8396 B(  0-C , 11-H ) :   0.1658
B(  0-C , 12-H ) :   0.2380 B(  0-C , 13-H ) :   0.2190 B(  1-C ,  2-C ) :   1.9180
B(  1-C ,  3-N ) :   1.2233 B(  1-C ,  6-H ) :   0.1262 B(  1-C ,  7-H ) :   0.2748
B(  1-C ,  9-H ) :   0.1749 B(  1-C , 10-H ) :   0.1792 B(  2-C ,  3-N ) :   0.2679
B(  2-C ,  6-H ) :   0.8300 B(  2-C ,  7-H ) :   0.5560 B(  3-N ,  4-H ) :   1.1465
B(  3-N ,  5-H ) :   1.1988 B(  4-H ,  5-H ) :  -0.1483 B(  6-H ,  7-H ) :   0.1622
B(  8-C ,  9-H ) :   0.1002 B(  8-C , 11-H ) :   0.7880 B(  8-C , 12-H ) :   0.7316
B(  8-C , 13-H ) :   0.7727

Dispersion correction           -0.017401463
FINAL SINGLE POINT ENERGY      -212.291724373105

DIPOLE MOMENT
-------------
                                X             Y             Z
Electronic contribution:      1.53244      -0.88338      -2.14072
Nuclear contribution   :     -0.99743       1.27863       2.57190
                        -----------------------------------------
Total Dipole Moment    :      0.53501       0.39525       0.43118
                        -----------------------------------------
Magnitude (a.u.)       :      0.79270
Magnitude (Debye)      :      2.01488

Rotational constants in cm-1:     0.274050     0.130114     0.100964
Rotational constants in MHz :  8215.815505  3900.722919  3026.834930

                             ****ORCA TERMINATED NORMALLY****
TOTAL RUN TIME: 0 days 0 hours 0 minutes 20 seconds 469 msec
