                         Program Version 5.0.0 -  RELEASE  -
|  1> !B3LYP D3BJ RIJCOSX def2-SVPD def2/J TightSCF
|  2> *xyz 0 1
|  3> C         -0.87096        0.24804       -2.66280
|  4> C         -0.47749        0.60819       -4.10105
|  5> H          0.20677        1.45830       -4.11875
|  6> H         -1.36844        0.92942       -4.64785
|  7> C          0.18467       -0.50664       -4.91676
|  8> O         -0.15869       -1.70109       -4.65798
|  9> F          1.05594       -0.17441       -5.74037
| 10> H         -1.54056       -0.58646       -2.67455
| 11> H         -1.35339        1.08600       -2.20455
| 12> H          0.00660       -0.00662       -2.10609
| 13> *
| 14>
| 15> %MaxCore 64000
| 16>
| 17> %pal nprocs 4
| 18> end
| 19>
| 20> %scf
| 21>   MaxIter 150
| 22> end
| 23>
| 24>
| 25>                          ****END OF INPUT****

CARTESIAN COORDINATES (ANGSTROEM)
---------------------------------
  C     -0.870960    0.248040   -2.662800
  C     -0.477490    0.608190   -4.101050
  H      0.206770    1.458300   -4.118750
  H     -1.368440    0.929420   -4.647850
  C      0.184670   -0.506640   -4.916760
  O     -0.158690   -1.701090   -4.657980
  F      1.055940   -0.174410   -5.740370
  H     -1.540560   -0.586460   -2.674550
  H     -1.353390    1.086000   -2.204550
  H      0.006600   -0.006620   -2.106090

 Total Charge           Charge          ....    0
 Multiplicity           Mult            ....    1
 Number of Electrons    NEL             ....   40
 Basis Dimension        Dim             ....  146

ORBITAL ENERGIES
----------------

  NO   OCC          E(Eh)            E(eV)
   0   2.0000     -24.775267      -674.1693
   1   2.0000     -19.148495      -521.0570
   2   2.0000     -10.369138      -282.1586
   3   2.0000     -10.219486      -278.0863
   4   2.0000     -10.187805      -277.2243
   5   2.0000      -1.317552       -35.8524
   6   2.0000      -1.018840       -27.7241
   7   2.0000      -0.793622       -21.5956
   8   2.0000      -0.692492       -18.8437
   9   2.0000      -0.641567       -17.4579
  10   2.0000      -0.558787       -15.2054
  11   2.0000      -0.542592       -14.7647
  12   2.0000      -0.508230       -13.8297
  13   2.0000      -0.468368       -12.7449
  14   2.0000      -0.434704       -11.8289
  15   2.0000      -0.398862       -10.8536
  16   2.0000      -0.379716       -10.3326
  17   2.0000      -0.377513       -10.2726
  18   2.0000      -0.350695        -9.5429
  19   2.0000      -0.295378        -8.0377
  20   0.0000      -0.037776        -1.0279
  21   0.0000       0.011112         0.3024
  22   0.0000       0.041428         1.1273
  23   0.0000       0.056753         1.5443
  24   0.0000       0.070372         1.9149

MULLIKEN ATOMIC CHARGES
-----------------------
   0 C :    0.871688
   1 C :   -0.251446
   2 H :   -0.090138
   3 H :   -0.026279
   4 C :    0.708505
   5 O :   -0.496944
   6 F :   -0.350478
   7 H :   -0.100116
   8 H :   -0.148607
   9 H :   -0.116187
Sum of atomic charges:    0.0000000

LOEWDIN ATOMIC CHARGES
----------------------
   0 C :    0.150149
   1 C :    0.008714
   2 H :    0.020108
   3 H :    0.036735
   4 C :   -0.010160
   5 O :   -0.138263
   6 F :   -0.025660
   7 H :   -0.013709
   8 H :   -0.016897
   9 H :   -0.011017

  Mayer bond orders larger than 0.100000
B(  0-C ,  1-C ) :   1.3277 B(  0-C ,  7-H ) :   0.7753 B(  0-C ,  8-H ) :   0.7505
B(  0-C ,  9-H ) :   0.7893 B(  1-C ,  2-H ) :   0.9063 B(  1-C ,  3-H ) :   0.8461
B(  1-C ,  4-C ) :   1.0854 B(  1-C ,  7-H ) :   0.2210 B(  1-C ,  8-H ) :   0.2329
B(  1-C ,  9-H ) :   0.1977 B(  2-H ,  4-C ) :   0.1298 B(  4-C ,  5-O ) :   1.8162
B(  4-C ,  6-F ) :   0.7724 B(  5-O ,  6-F ) :   0.1037

Dispersion correction           -0.010350740
FINAL SINGLE POINT ENERGY      -292.053582665808

DIPOLE MOMENT
-------------
                                X             Y             Z
Electronic contribution:      4.63755      -2.82118      -7.11035
Nuclear contribution   :     -4.75269       4.00281       7.35060
                        -----------------------------------------
Total Dipole Moment    :     -0.11514       1.18163       0.24025
                        -----------------------------------------
Magnitude (a.u.)       :      1.21130
Magnitude (Debye)      :      3.07887

Rotational constants in cm-1:     0.323805     0.124913     0.096140
Rotational constants in MHz :  9707.430323  3744.789513  2882.191141

                             ****ORCA TERMINATED NORMALLY****
TOTAL RUN TIME: 0 days 0 hours 0 minutes 18 seconds 773 msec
