                         Program Version 5.0.0 -  RELEASE  -
|  1> !B3LYP D3BJ RIJCOSX def2-SVPD def2/J TightSCF
|  2> *xyz 0 1
|  3> C          2.48645       -2.67712       -2.56345
|  4> C          3.03764       -2.36672       -3.92351
|  5> N          2.28036       -2.45441       -4.96769
|  6> C          4.32174       -2.01793       -4.01664
|  7> H          4.87994       -1.91167       -3.17382
|  8> H          4.71015       -1.67088       -4.88356
|  9> H          1.27042       -2.41265       -4.86614
| 10> H          2.58183       -2.05528       -5.84688
| 11> C          2.49799       -1.46946       -1.61030
| 12> H          1.47259       -3.05153       -2.69437
| 13> H          3.08320       -3.49064       -2.14147
| 14> H          1.91240       -0.67831       -2.02991
| 15> H          3.50450       -1.13364       -1.47227
| 16> H          2.08509       -1.75655       -0.66585
| 17> *
| 18>
| 19> %MaxCore 64000
| 20>
| 21> %pal nprocs 4
| 22> end
| 23>
| 24> %scf
| 25>   MaxIter 150
| 26> end
| 27>
| 28>
| 29>                          ****END OF INPUT****

CARTESIAN COORDINATES (ANGSTROEM)
---------------------------------
  C      2.486450   -2.677120   -2.563450
  C      3.037640   -2.366720   -3.923510
  N      2.280360   -2.454410   -4.967690
  C      4.321740   -2.017930   -4.016640
  H      4.879940   -1.911670   -3.173820
  H      4.710150   -1.670880   -4.883560
  H      1.270420   -2.412650   -4.866140
  H      2.581830   -2.055280   -5.846880
  C      2.497990   -1.469460   -1.610300
  H      1.472590   -3.051530   -2.694370
  H      3.083200   -3.490640   -2.141470
  H      1.912400   -0.678310   -2.029910
  H      3.504500   -1.133640   -1.472270
  H      2.085090   -1.756550   -0.665850

 Total Charge           Charge          ....    0
 Multiplicity           Mult            ....    1
 Number of Electrons    NEL             ....   40
 Basis Dimension        Dim             ....  172

ORBITAL ENERGIES
----------------

  NO   OCC          E(Eh)            E(eV)
   0   2.0000     -14.335813      -390.0973
   1   2.0000     -10.202807      -277.6325
   2   2.0000     -10.182947      -277.0921
   3   2.0000     -10.169354      -276.7222
   4   2.0000     -10.115322      -275.2519
   5   2.0000      -0.932262       -25.3681
   6   2.0000      -0.773539       -21.0491
   7   2.0000      -0.703122       -19.1329
   8   2.0000      -0.635864       -17.3027
   9   2.0000      -0.569698       -15.5023
  10   2.0000      -0.521396       -14.1879
  11   2.0000      -0.481341       -13.0980
  12   2.0000      -0.445143       -12.1130
  13   2.0000      -0.409752       -11.1499
  14   2.0000      -0.395150       -10.7526
  15   2.0000      -0.379595       -10.3293
  16   2.0000      -0.353620        -9.6225
  17   2.0000      -0.338874        -9.2212
  18   2.0000      -0.335332        -9.1248
  19   2.0000      -0.188426        -5.1273
  20   0.0000       0.015161         0.4126
  21   0.0000       0.031846         0.8666
  22   0.0000       0.051381         1.3982
  23   0.0000       0.055954         1.5226
  24   0.0000       0.069185         1.8826

MULLIKEN ATOMIC CHARGES
-----------------------
   0 C :    0.143454
   1 C :   -0.098672
   2 N :    0.277862
   3 C :    0.583838
   4 H :   -0.270375
   5 H :   -0.574169
   6 H :   -0.126835
   7 H :   -0.162784
   8 C :    0.896866
   9 H :   -0.179251
  10 H :   -0.051647
  11 H :   -0.180276
  12 H :   -0.174718
  13 H :   -0.083292
Sum of atomic charges:   -0.0000000

LOEWDIN ATOMIC CHARGES
----------------------
   0 C :   -0.023138
   1 C :   -0.263772
   2 N :    0.170706
   3 C :    0.185632
   4 H :   -0.087846
   5 H :   -0.094853
   6 H :    0.001576
   7 H :    0.008534
   8 C :    0.143845
   9 H :    0.005015
  10 H :    0.025639
  11 H :   -0.019183
  12 H :   -0.028522
  13 H :   -0.023633

  Mayer bond orders larger than 0.100000
B(  0-C ,  1-C ) :   1.1343 B(  0-C ,  2-N ) :   0.1095 B(  0-C ,  3-C ) :   0.1453
B(  0-C ,  8-C ) :   1.2613 B(  0-C ,  9-H ) :   0.7258 B(  0-C , 10-H ) :   0.7883
B(  0-C , 11-H ) :   0.1995 B(  0-C , 12-H ) :   0.2065 B(  0-C , 13-H ) :   0.1836
B(  1-C ,  2-N ) :   1.1045 B(  1-C ,  3-C ) :   1.6738 B(  1-C ,  4-H ) :   0.1045
B(  1-C ,  5-H ) :   0.1519 B(  1-C ,  9-H ) :   0.2525 B(  1-C , 10-H ) :   0.1488
B(  2-N ,  3-C ) :   0.2613 B(  2-N ,  6-H ) :   1.0110 B(  2-N ,  7-H ) :   1.1359
B(  3-C ,  4-H ) :   0.7579 B(  3-C ,  5-H ) :   0.7307 B(  6-H ,  7-H ) :  -0.1165
B(  8-C ,  9-H ) :   0.1112 B(  8-C , 11-H ) :   0.7791 B(  8-C , 12-H ) :   0.7940
B(  8-C , 13-H ) :   0.7652

Dispersion correction           -0.017450843
FINAL SINGLE POINT ENERGY      -212.292344631255

DIPOLE MOMENT
-------------
                                X             Y             Z
Electronic contribution:     -0.24433      -1.19919      -2.97896
Nuclear contribution   :     -0.52463       1.37972       2.79217
                        -----------------------------------------
Total Dipole Moment    :     -0.76896       0.18053      -0.18679
                        -----------------------------------------
Magnitude (a.u.)       :      0.81166
Magnitude (Debye)      :      2.06307

Rotational constants in cm-1:     0.281086     0.127387     0.100311
Rotational constants in MHz :  8426.743103  3818.969834  3007.238026

                             ****ORCA TERMINATED NORMALLY****
TOTAL RUN TIME: 0 days 0 hours 0 minutes 24 seconds 826 msec
