                         Program Version 5.0.0 -  RELEASE  -
|  1> !B3LYP D3BJ RIJCOSX def2-SVPD def2/J TightSCF xyzfile
|  2>
|  3> *xyzfile 0 1 D1.xyz
|  4>
|  5> %MaxCore 64000
|  6>
|  7> %pal nprocs 4
|  8> end
|  9>
| 10> %scf
| 11>   MaxIter 150
| 12> end
| 13>
| 14>
| 15>                          ****END OF INPUT****

CARTESIAN COORDINATES (ANGSTROEM)
---------------------------------
  C      2.486452   -2.677121   -2.563447
  C     -0.870963    0.248043   -2.662804
  C     -0.477492    0.608191   -4.101052
  H      0.206773    1.458299   -4.118748
  H     -1.368442    0.929419   -4.647855
  C      0.184673   -0.506640   -4.916760
  C      3.037640   -2.366715   -3.923509
  C      2.280360   -2.454408   -4.967692
  N      4.321736   -2.017932   -4.016641
  H      4.879940   -1.911668   -3.173823
  H      4.710148   -1.670882   -4.883561
  H      1.270423   -2.412650   -4.866143
  H      2.581829   -2.055282   -5.846878
  F     -0.158685   -1.701088   -4.657981
  O      1.055938   -0.174410   -5.740373
  C      2.497991   -1.469464   -1.610303
  C      1.582841   -0.321986   -2.042619
  H      2.193083   -1.833912   -0.625420
  H      3.523356   -1.103982   -1.490392
  C      0.100160   -0.673551   -1.915815
  H      1.822311   -0.040361   -3.072834
  H      1.813180    0.557019   -1.433266
  H     -0.063284   -1.679120   -2.301112
  H     -0.168820   -0.691680   -0.853831
  H     -1.001048    1.181040   -2.104071
  H     -1.844645   -0.246592   -2.663281
  H      1.472592   -3.051527   -2.694366
  H      3.083201   -3.490638   -2.141472

 Total Charge           Charge          ....    0
 Multiplicity           Mult            ....    1
 Number of Electrons    NEL             ....   94
 Basis Dimension        Dim             ....  374

ORBITAL ENERGIES
----------------

  NO   OCC          E(Eh)            E(eV)
   0   2.0000     -24.766918      -673.9421
   1   2.0000     -19.147914      -521.0412
   2   2.0000     -14.320212      -389.6728
   3   2.0000     -10.364475      -282.0317
   4   2.0000     -10.212717      -277.9022
   5   2.0000     -10.197005      -277.4746
   6   2.0000     -10.187442      -277.2144
   7   2.0000     -10.184894      -277.1451
   8   2.0000     -10.181934      -277.0645
   9   2.0000     -10.180841      -277.0348
  10   2.0000     -10.175645      -276.8934
  11   2.0000     -10.093131      -274.6481
  12   2.0000      -1.305343       -35.5202
  13   2.0000      -1.032309       -28.0905
  14   2.0000      -0.905228       -24.6325
  15   2.0000      -0.820280       -22.3210
  16   2.0000      -0.785636       -21.3783
  17   2.0000      -0.737449       -20.0670
  18   2.0000      -0.715548       -19.4710
  19   2.0000      -0.672420       -18.2975
  20   2.0000      -0.655363       -17.8333
  21   2.0000      -0.614081       -16.7100
  22   2.0000      -0.577298       -15.7091
  23   2.0000      -0.572104       -15.5677
  24   2.0000      -0.550081       -14.9685
  25   2.0000      -0.536847       -14.6084
  26   2.0000      -0.509939       -13.8762
  27   2.0000      -0.493733       -13.4352
  28   2.0000      -0.480014       -13.0618
  29   2.0000      -0.470967       -12.8157
  30   2.0000      -0.458093       -12.4653
  31   2.0000      -0.442490       -12.0408
  32   2.0000      -0.431300       -11.7363
  33   2.0000      -0.414305       -11.2738
  34   2.0000      -0.405342       -11.0299
  35   2.0000      -0.390071       -10.6144
  36   2.0000      -0.377490       -10.2720
  37   2.0000      -0.374355       -10.1867
  38   2.0000      -0.359184        -9.7739
  39   2.0000      -0.353639        -9.6230
  40   2.0000      -0.341585        -9.2950
  41   2.0000      -0.336302        -9.1513
  42   2.0000      -0.321084        -8.7371
  43   2.0000      -0.314740        -8.5645
  44   2.0000      -0.311818        -8.4850
  45   2.0000      -0.291465        -7.9312
  46   2.0000      -0.182906        -4.9771
  47   0.0000      -0.034620        -0.9420
  48   0.0000       0.010750         0.2925
  49   0.0000       0.021071         0.5734
  50   0.0000       0.033211         0.9037
  51   0.0000       0.038196         1.0394

MULLIKEN ATOMIC CHARGES
-----------------------
   0 C :    0.439099
   1 C :    0.712115
   2 C :    0.407069
   3 H :    0.121590
   4 H :   -0.374661
   5 C :    0.449293
   6 C :   -0.232023
   7 C :    1.295623
   8 N :    0.312255
   9 H :   -0.147102
  10 H :   -0.231215
  11 H :   -0.573007
  12 H :   -0.481001
  13 F :   -0.616650
  14 O :   -0.466310
  15 C :    0.503792
  16 C :    0.380927
  17 H :   -0.190283
  18 H :   -0.167462
  19 C :    0.178318
  20 H :   -0.202828
  21 H :   -0.270121
  22 H :   -0.107516
  23 H :   -0.261639
  24 H :   -0.206270
  25 H :   -0.054333
  26 H :    0.044673
  27 H :   -0.262335
Sum of atomic charges:   -0.0000000

LOEWDIN ATOMIC CHARGES
----------------------
   0 C :    0.027983
   1 C :   -0.011365
   2 C :    0.065534
   3 H :    0.034262
   4 H :    0.035648
   5 C :    0.001416
   6 C :   -0.239788
   7 C :    0.183518
   8 N :    0.184120
   9 H :   -0.011107
  10 H :    0.002619
  11 H :   -0.138794
  12 H :   -0.072821
  13 F :   -0.053906
  14 O :   -0.111526
  15 C :   -0.013397
  16 C :   -0.007068
  17 H :    0.017990
  18 H :    0.007679
  19 C :   -0.020403
  20 H :    0.006313
  21 H :    0.023340
  22 H :   -0.007611
  23 H :    0.025356
  24 H :    0.021728
  25 H :    0.020028
  26 H :    0.008051
  27 H :    0.022200

  Mayer bond orders larger than 0.100000
B(  0-C ,  6-C ) :   1.1931 B(  0-C ,  7-C ) :   0.1634 B(  0-C ,  8-N ) :   0.1345
B(  0-C , 15-C ) :   1.0841 B(  0-C , 16-C ) :   0.1204 B(  0-C , 17-H ) :   0.2190
B(  0-C , 18-H ) :   0.2336 B(  0-C , 26-H ) :   0.7190 B(  0-C , 27-H ) :   0.7514
B(  1-C ,  2-C ) :   1.1416 B(  1-C ,  4-H ) :   0.1305 B(  1-C , 19-C ) :   1.2721
B(  1-C , 23-H ) :   0.1072 B(  1-C , 24-H ) :   0.6916 B(  1-C , 25-H ) :   0.6078
B(  2-C ,  3-H ) :   0.7585 B(  2-C ,  4-H ) :   0.6510 B(  2-C ,  5-C ) :   1.1781
B(  2-C , 19-C ) :   0.1328 B(  2-C , 24-H ) :   0.1483 B(  3-H ,  4-H ) :  -0.1009
B(  3-H ,  5-C ) :   0.2525 B(  4-H ,  5-C ) :   0.3130 B(  5-C , 13-F ) :   0.6063
B(  5-C , 14-O ) :   1.7970 B(  6-C ,  7-C ) :   1.8985 B(  6-C ,  8-N ) :   1.1350
B(  6-C , 11-H ) :   0.2550 B(  6-C , 12-H ) :   0.5347 B(  6-C , 15-C ) :   0.1863
B(  6-C , 20-H ) :   0.1032 B(  6-C , 26-H ) :   0.1999 B(  6-C , 27-H ) :   0.2366
B(  7-C ,  8-N ) :   0.4437 B(  7-C , 11-H ) :   0.1822 B(  7-C , 26-H ) :  -0.1608
B(  8-N ,  9-H ) :   1.1494 B(  8-N , 10-H ) :   1.1785 B(  9-H , 10-H ) :  -0.1675
B( 11-H , 12-H ) :   0.3049 B( 11-H , 13-F ) :   0.2623 B( 13-F , 14-O ) :   0.1308
B( 15-C , 16-C ) :   1.1905 B( 15-C , 17-H ) :   0.7823 B( 15-C , 18-H ) :   0.6105
B( 15-C , 20-H ) :   0.1849 B( 15-C , 21-H ) :   0.1151 B( 15-C , 26-H ) :   0.1758
B( 15-C , 27-H ) :   0.1032 B( 16-C , 18-H ) :   0.2541 B( 16-C , 19-C ) :   1.1636
B( 16-C , 20-H ) :   0.7802 B( 16-C , 21-H ) :   0.7551 B( 16-C , 22-H ) :   0.1295
B( 16-C , 23-H ) :   0.2489 B( 16-C , 26-H ) :  -0.1123 B( 17-H , 18-H ) :  -0.1079
B( 19-C , 20-H ) :   0.1552 B( 19-C , 21-H ) :   0.1186 B( 19-C , 22-H ) :   0.8073
B( 19-C , 23-H ) :   0.7283 B( 19-C , 24-H ) :   0.2209 B( 19-C , 25-H ) :   0.2563
B( 22-H , 26-H ) :   0.1382 B( 24-H , 25-H ) :  -0.1320

Dispersion correction           -0.051146776
FINAL SINGLE POINT ENERGY      -581.662065371185

DIPOLE MOMENT
-------------
                                X             Y             Z
Electronic contribution:     -3.69778      -1.62890     -10.23868
Nuclear contribution   :      3.32973       2.37270      11.37738
                        -----------------------------------------
Total Dipole Moment    :     -0.36806       0.74380       1.13870
                        -----------------------------------------
Magnitude (a.u.)       :      1.40902
Magnitude (Debye)      :      3.58145

Rotational constants in cm-1:     0.040902     0.025807     0.019036
Rotational constants in MHz :  1226.202138   773.670450   570.681201

                             ****ORCA TERMINATED NORMALLY****
TOTAL RUN TIME: 0 days 0 hours 2 minutes 8 seconds 772 msec
