                         Program Version 5.0.0 -  RELEASE  -
|  1> !wB97X-D3 RIJCOSX def2-SVPD def2/J TightSCF CPCM(Water)
|  2> *xyz -1 1
|  3> C         -0.96015       -0.52236       -0.48987
|  4> O          0.26170       -0.58031        0.13861
|  5> H         -0.85050       -0.82220       -1.51113
|  6> H         -1.33436        0.47929       -0.45044
|  7> H         -1.64624       -1.17908        0.00297
|  8> *
|  9>
| 10> %MaxCore 64000
| 11>
| 12> %pal nprocs 18
| 13> end
| 14>
| 15> %scf
| 16>   MaxIter 150
| 17> end
| 18>
| 19>
| 20>                          ****END OF INPUT****

CARTESIAN COORDINATES (ANGSTROEM)
---------------------------------
  C     -0.960150   -0.522360   -0.489870
  O      0.261700   -0.580310    0.138610
  H     -0.850500   -0.822200   -1.511130
  H     -1.334360    0.479290   -0.450440
  H     -1.646240   -1.179080    0.002970

 Total Charge           Charge          ....   -1
 Multiplicity           Mult            ....    1
 Number of Electrons    NEL             ....   18
 Basis Dimension        Dim             ....   67

ORBITAL ENERGIES
----------------

  NO   OCC          E(Eh)            E(eV)
   0   2.0000     -19.113399      -520.1020
   1   2.0000     -10.270318      -279.4696
   2   2.0000      -0.980363       -26.6770
   3   2.0000      -0.701395       -19.0859
   4   2.0000      -0.495177       -13.4744
   5   2.0000      -0.495125       -13.4730
   6   2.0000      -0.417583       -11.3630
   7   2.0000      -0.267111        -7.2685
   8   2.0000      -0.267065        -7.2672
   9   0.0000       0.109311         2.9745
  10   0.0000       0.153888         4.1875
  11   0.0000       0.165620         4.5067
  12   0.0000       0.165658         4.5078
  13   0.0000       0.207829         5.6553

MULLIKEN ATOMIC CHARGES
-----------------------
   0 C :    0.710220
   1 O :   -1.092015
   2 H :   -0.206282
   3 H :   -0.206148
   4 H :   -0.205774
Sum of atomic charges:   -1.0000000

LOEWDIN ATOMIC CHARGES
----------------------
   0 C :   -0.096594
   1 O :   -0.743145
   2 H :   -0.053402
   3 H :   -0.053431
   4 H :   -0.053428

  Mayer bond orders larger than 0.100000
B(  0-C ,  1-O ) :   1.2788 B(  0-C ,  2-H ) :   0.9181 B(  0-C ,  3-H ) :   0.9180
B(  0-C ,  4-H ) :   0.9178

Dispersion correction           -0.000091947
FINAL SINGLE POINT ENERGY      -115.103126873679

DIPOLE MOMENT
-------------
                                X             Y             Z
Electronic contribution:      1.13459      -0.05382       0.58305
Nuclear contribution   :     -2.56864       0.12183      -1.32123
                        -----------------------------------------
Total Dipole Moment    :     -1.43404       0.06801      -0.73818
                        -----------------------------------------
Magnitude (a.u.)       :      1.61432
Magnitude (Debye)      :      4.10327

Rotational constants in cm-1:     5.477744     0.932677     0.932677
Rotational constants in MHz : 164218.635293 27960.967920 27960.945417

                             ****ORCA TERMINATED NORMALLY****
TOTAL RUN TIME: 0 days 0 hours 0 minutes 3 seconds 768 msec
