                         Program Version 5.0.0 -  RELEASE  -
|  1> !wB97X-D3 RIJCOSX def2-SVPD def2/J TightSCF CPCM(Water)
|  2> *xyz 1 1
|  3> C          4.36645       -0.13321       -1.41606
|  4> C          3.05650       -0.32080       -0.70738
|  5> N          2.38983        0.71129       -0.24391
|  6> N          2.51600       -1.50772       -0.55023
|  7> H          2.96768       -2.32291       -0.95631
|  8> H          1.54987       -1.49063       -0.24988
|  9> H          2.74307        1.64947       -0.41280
| 10> H          1.44036        0.50278        0.03703
| 11> H          4.74975       -1.08632       -1.71533
| 12> H          5.06373        0.34075       -0.75722
| 13> H          4.21960        0.47966       -2.28077
| 14> *
| 15>
| 16> %MaxCore 64000
| 17>
| 18> %pal nprocs 18
| 19> end
| 20>
| 21> %scf
| 22>   MaxIter 150
| 23> end
| 24>
| 25>
| 26>                          ****END OF INPUT****

CARTESIAN COORDINATES (ANGSTROEM)
---------------------------------
  C      4.366450   -0.133210   -1.416060
  C      3.056500   -0.320800   -0.707380
  N      2.389830    0.711290   -0.243910
  N      2.516000   -1.507720   -0.550230
  H      2.967680   -2.322910   -0.956310
  H      1.549870   -1.490630   -0.249880
  H      2.743070    1.649470   -0.412800
  H      1.440360    0.502780    0.037030
  H      4.749750   -1.086320   -1.715330
  H      5.063730    0.340750   -0.757220
  H      4.219600    0.479660   -2.280770

 Total Charge           Charge          ....    1
 Multiplicity           Mult            ....    1
 Number of Electrons    NEL             ....   32
 Basis Dimension        Dim             ....  136

ORBITAL ENERGIES
----------------

  NO   OCC          E(Eh)            E(eV)
   0   2.0000     -14.499520      -394.5520
   1   2.0000     -14.497181      -394.4883
   2   2.0000     -10.437562      -284.0205
   3   2.0000     -10.312449      -280.6160
   4   2.0000      -1.139832       -31.0164
   5   2.0000      -1.029567       -28.0160
   6   2.0000      -0.885136       -24.0858
   7   2.0000      -0.755251       -20.5514
   8   2.0000      -0.698729       -19.0134
   9   2.0000      -0.684103       -18.6154
  10   2.0000      -0.617465       -16.8021
  11   2.0000      -0.584832       -15.9141
  12   2.0000      -0.536322       -14.5941
  13   2.0000      -0.522658       -14.2222
  14   2.0000      -0.496083       -13.4991
  15   2.0000      -0.404978       -11.0200
  16   0.0000       0.048756         1.3267
  17   0.0000       0.087885         2.3915
  18   0.0000       0.127722         3.4755
  19   0.0000       0.138414         3.7664
  20   0.0000       0.156378         4.2553

MULLIKEN ATOMIC CHARGES
-----------------------
   0 C :    0.458234
   1 C :    0.156851
   2 N :    0.005907
   3 N :   -0.090091
   4 H :    0.095205
   5 H :    0.035069
   6 H :    0.076633
   7 H :   -0.013376
   8 H :    0.118085
   9 H :    0.086159
  10 H :    0.071324
Sum of atomic charges:    1.0000000

LOEWDIN ATOMIC CHARGES
----------------------
   0 C :    0.227601
   1 C :   -0.063145
   2 N :    0.274021
   3 N :    0.278179
   4 H :    0.064443
   5 H :    0.053463
   6 H :    0.068452
   7 H :    0.052141
   8 H :    0.006307
   9 H :    0.018274
  10 H :    0.020264

  Mayer bond orders larger than 0.100000
B(  0-C ,  1-C ) :   1.3446 B(  0-C ,  8-H ) :   0.7740 B(  0-C ,  9-H ) :   0.7428
B(  0-C , 10-H ) :   0.8193 B(  1-C ,  2-N ) :   1.1912 B(  1-C ,  3-N ) :   1.0585
B(  1-C ,  5-H ) :  -0.1151 B(  1-C ,  8-H ) :   0.2432 B(  1-C ,  9-H ) :   0.2036
B(  1-C , 10-H ) :   0.1466 B(  2-N ,  3-N ) :   0.1998 B(  2-N ,  6-H ) :   1.0842
B(  2-N ,  7-H ) :   1.1763 B(  3-N ,  4-H ) :   1.0675 B(  3-N ,  5-H ) :   1.1924
B(  4-H ,  5-H ) :  -0.1424 B(  6-H ,  7-H ) :  -0.1316 B(  8-H ,  9-H ) :   0.1143
B(  8-H , 10-H ) :   0.1071

Dispersion correction           -0.001655572
FINAL SINGLE POINT ENERGY      -189.637263876800

DIPOLE MOMENT
-------------
                                X             Y             Z
Electronic contribution:     -1.93521      -0.28488       1.11989
Nuclear contribution   :      1.22976       0.25273      -1.15956
                        -----------------------------------------
Total Dipole Moment    :     -0.70545      -0.03215      -0.03967
                        -----------------------------------------
Magnitude (a.u.)       :      0.70729
Magnitude (Debye)      :      1.79780

Rotational constants in cm-1:     0.347067     0.291236     0.163306
Rotational constants in MHz : 10404.811357  8731.035118  4895.793931

                             ****ORCA TERMINATED NORMALLY****
TOTAL RUN TIME: 0 days 0 hours 0 minutes 7 seconds 49 msec
