                         Program Version 5.0.0 -  RELEASE  -
|  1> !wB97X-D3 RIJCOSX def2-SVPD def2/J TightSCF CPCM(Water)
|  2> *xyz 0 1
|  3> C         -0.96015       -0.52236       -0.48987
|  4> F          0.26170       -0.58031        0.13861
|  5> H         -0.85050       -0.82220       -1.51113
|  6> H         -1.33436        0.47929       -0.45044
|  7> H         -1.64624       -1.17908        0.00297
|  8> *
|  9>
| 10> %MaxCore 64000
| 11>
| 12> %pal nprocs 18
| 13> end
| 14>
| 15> %scf
| 16>   MaxIter 150
| 17> end
| 18>
| 19>
| 20>                          ****END OF INPUT****

CARTESIAN COORDINATES (ANGSTROEM)
---------------------------------
  C     -0.960150   -0.522360   -0.489870
  F      0.261700   -0.580310    0.138610
  H     -0.850500   -0.822200   -1.511130
  H     -1.334360    0.479290   -0.450440
  H     -1.646240   -1.179080    0.002970

 Total Charge           Charge          ....    0
 Multiplicity           Mult            ....    1
 Number of Electrons    NEL             ....   18
 Basis Dimension        Dim             ....   67

ORBITAL ENERGIES
----------------

  NO   OCC          E(Eh)            E(eV)
   0   2.0000     -24.791192      -674.6026
   1   2.0000     -10.350589      -281.6538
   2   2.0000      -1.300755       -35.3954
   3   2.0000      -0.808295       -21.9948
   4   2.0000      -0.600574       -16.3425
   5   2.0000      -0.592018       -16.1096
   6   2.0000      -0.592013       -16.1095
   7   2.0000      -0.449316       -12.2265
   8   2.0000      -0.449309       -12.2263
   9   0.0000       0.102528         2.7899
  10   0.0000       0.148200         4.0327
  11   0.0000       0.183951         5.0056
  12   0.0000       0.183966         5.0060
  13   0.0000       0.211402         5.7525

MULLIKEN ATOMIC CHARGES
-----------------------
   0 C :    0.735215
   1 F :   -0.524198
   2 H :   -0.070406
   3 H :   -0.070456
   4 H :   -0.070154
Sum of atomic charges:   -0.0000000

LOEWDIN ATOMIC CHARGES
----------------------
   0 C :    0.278539
   1 F :   -0.283422
   2 H :    0.001611
   3 H :    0.001620
   4 H :    0.001652

  Mayer bond orders larger than 0.100000
B(  0-C ,  1-F ) :   0.8107 B(  0-C ,  2-H ) :   0.9610 B(  0-C ,  3-H ) :   0.9610
B(  0-C ,  4-H ) :   0.9608

Dispersion correction           -0.000132016
FINAL SINGLE POINT ENERGY      -139.611231568730

DIPOLE MOMENT
-------------
                                X             Y             Z
Electronic contribution:      2.46226      -0.11691       1.26645
Nuclear contribution   :     -3.25854       0.15455      -1.67609
                        -----------------------------------------
Total Dipole Moment    :     -0.79627       0.03764      -0.40964
                        -----------------------------------------
Magnitude (a.u.)       :      0.89625
Magnitude (Debye)      :      2.27810

Rotational constants in cm-1:     5.477744     0.868130     0.868129
Rotational constants in MHz : 164218.635293 26025.869915 26025.850419

                             ****ORCA TERMINATED NORMALLY****
TOTAL RUN TIME: 0 days 0 hours 0 minutes 3 seconds 556 msec
