                         Program Version 5.0.0 -  RELEASE  -
|  1> !wB97X-D3 RIJCOSX def2-SVPD def2/J TightSCF CPCM(Water)
|  2> *xyz 0 1
|  3> C          4.36645       -0.13321       -1.41606
|  4> C          3.05650       -0.32080       -0.70738
|  5> C          2.38983        0.71129       -0.24391
|  6> N          2.51600       -1.50772       -0.55023
|  7> H          2.96768       -2.32291       -0.95631
|  8> H          1.54987       -1.49063       -0.24988
|  9> H          2.74307        1.64947       -0.41280
| 10> H          1.44036        0.50278        0.03703
| 11> H          4.74975       -1.08632       -1.71533
| 12> H          5.06373        0.34075       -0.75722
| 13> H          4.21960        0.47966       -2.28077
| 14> *
| 15>
| 16> %MaxCore 64000
| 17>
| 18> %pal nprocs 18
| 19> end
| 20>
| 21> %scf
| 22>   MaxIter 150
| 23> end
| 24>
| 25>
| 26>                          ****END OF INPUT****

CARTESIAN COORDINATES (ANGSTROEM)
---------------------------------
  C      4.366450   -0.133210   -1.416060
  C      3.056500   -0.320800   -0.707380
  C      2.389830    0.711290   -0.243910
  N      2.516000   -1.507720   -0.550230
  H      2.967680   -2.322910   -0.956310
  H      1.549870   -1.490630   -0.249880
  H      2.743070    1.649470   -0.412800
  H      1.440360    0.502780    0.037030
  H      4.749750   -1.086320   -1.715330
  H      5.063730    0.340750   -0.757220
  H      4.219600    0.479660   -2.280770

 Total Charge           Charge          ....    0
 Multiplicity           Mult            ....    1
 Number of Electrons    NEL             ....   32
 Basis Dimension        Dim             ....  136

ORBITAL ENERGIES
----------------

  NO   OCC          E(Eh)            E(eV)
   0   2.0000     -14.431934      -392.7129
   1   2.0000     -10.314423      -280.6697
   2   2.0000     -10.276660      -279.6421
   3   2.0000     -10.219057      -278.0747
   4   2.0000      -1.040039       -28.3009
   5   2.0000      -0.863246       -23.4901
   6   2.0000      -0.800575       -21.7848
   7   2.0000      -0.664657       -18.0862
   8   2.0000      -0.629844       -17.1389
   9   2.0000      -0.569673       -15.5016
  10   2.0000      -0.530875       -14.4458
  11   2.0000      -0.495397       -13.4804
  12   2.0000      -0.486749       -13.2451
  13   2.0000      -0.453548       -12.3417
  14   2.0000      -0.433736       -11.8026
  15   2.0000      -0.280074        -7.6212
  16   0.0000       0.097573         2.6551
  17   0.0000       0.117198         3.1891
  18   0.0000       0.132756         3.6125
  19   0.0000       0.139696         3.8013
  20   0.0000       0.169421         4.6102

MULLIKEN ATOMIC CHARGES
-----------------------
   0 C :    0.675832
   1 C :   -0.609556
   2 C :    0.389150
   3 N :    0.085637
   4 H :   -0.040281
   5 H :    0.005157
   6 H :   -0.211507
   7 H :   -0.319672
   8 H :   -0.029896
   9 H :    0.043370
  10 H :    0.011768
Sum of atomic charges:   -0.0000000

LOEWDIN ATOMIC CHARGES
----------------------
   0 C :    0.169633
   1 C :   -0.298623
   2 C :    0.126718
   3 N :    0.163180
   4 H :    0.019753
   5 H :    0.015606
   6 H :   -0.081630
   7 H :   -0.091092
   8 H :   -0.016941
   9 H :   -0.003924
  10 H :   -0.002680

  Mayer bond orders larger than 0.100000
B(  0-C ,  1-C ) :   1.2043 B(  0-C ,  8-H ) :   0.7301 B(  0-C ,  9-H ) :   0.7363
B(  0-C , 10-H ) :   0.8078 B(  1-C ,  2-C ) :   1.9182 B(  1-C ,  3-N ) :   1.1520
B(  1-C ,  6-H ) :   0.1279 B(  1-C ,  7-H ) :   0.2467 B(  1-C ,  8-H ) :   0.3014
B(  1-C ,  9-H ) :   0.2075 B(  1-C , 10-H ) :   0.1523 B(  2-C ,  3-N ) :   0.2340
B(  2-C ,  6-H ) :   0.8507 B(  2-C ,  7-H ) :   0.7908 B(  3-N ,  4-H ) :   1.1118
B(  3-N ,  5-H ) :   1.1083 B(  4-H ,  5-H ) :  -0.1273

Dispersion correction           -0.001655156
FINAL SINGLE POINT ENERGY      -173.085734312194

DIPOLE MOMENT
-------------
                                X             Y             Z
Electronic contribution:     -0.96870      -1.43213       0.50312
Nuclear contribution   :      1.07959       0.48266      -1.05101
                        -----------------------------------------
Total Dipole Moment    :      0.11089      -0.94947      -0.54789
                        -----------------------------------------
Magnitude (a.u.)       :      1.10180
Magnitude (Debye)      :      2.80056

Rotational constants in cm-1:     0.369235     0.294626     0.169175
Rotational constants in MHz : 11069.394850  8832.653024  5071.734673

                             ****ORCA TERMINATED NORMALLY****
TOTAL RUN TIME: 0 days 0 hours 0 minutes 7 seconds 750 msec
