                         Program Version 5.0.0 -  RELEASE  -
|  1> !wB97X-D3 RIJCOSX def2-SVPD def2/J TightSCF CPCM(Water)
|  2> *xyz 0 1
|  3> C          4.36645       -0.13321       -1.41606
|  4> C          3.05650       -0.32080       -0.70738
|  5> N          2.38983        0.71129       -0.24391
|  6> C          2.51600       -1.50772       -0.55023
|  7> H          2.96768       -2.32291       -0.95631
|  8> H          1.54987       -1.49063       -0.24988
|  9> H          2.74307        1.64947       -0.41280
| 10> H          1.44036        0.50278        0.03703
| 11> H          4.74975       -1.08632       -1.71533
| 12> H          5.06373        0.34075       -0.75722
| 13> H          4.21960        0.47966       -2.28077
| 14> *
| 15>
| 16> %MaxCore 64000
| 17>
| 18> %pal nprocs 18
| 19> end
| 20>
| 21> %scf
| 22>   MaxIter 150
| 23> end
| 24>
| 25>
| 26>                          ****END OF INPUT****

CARTESIAN COORDINATES (ANGSTROEM)
---------------------------------
  C      4.366450   -0.133210   -1.416060
  C      3.056500   -0.320800   -0.707380
  N      2.389830    0.711290   -0.243910
  C      2.516000   -1.507720   -0.550230
  H      2.967680   -2.322910   -0.956310
  H      1.549870   -1.490630   -0.249880
  H      2.743070    1.649470   -0.412800
  H      1.440360    0.502780    0.037030
  H      4.749750   -1.086320   -1.715330
  H      5.063730    0.340750   -0.757220
  H      4.219600    0.479660   -2.280770

 Total Charge           Charge          ....    0
 Multiplicity           Mult            ....    1
 Number of Electrons    NEL             ....   32
 Basis Dimension        Dim             ....  136

ORBITAL ENERGIES
----------------

  NO   OCC          E(Eh)            E(eV)
   0   2.0000     -14.430323      -392.6691
   1   2.0000     -10.314921      -280.6833
   2   2.0000     -10.276723      -279.6439
   3   2.0000     -10.222846      -278.1778
   4   2.0000      -1.040003       -28.2999
   5   2.0000      -0.862497       -23.4697
   6   2.0000      -0.802123       -21.8269
   7   2.0000      -0.664680       -18.0869
   8   2.0000      -0.629852       -17.1391
   9   2.0000      -0.570153       -15.5147
  10   2.0000      -0.532056       -14.4780
  11   2.0000      -0.495006       -13.4698
  12   2.0000      -0.488313       -13.2877
  13   2.0000      -0.453661       -12.3447
  14   2.0000      -0.432058       -11.7569
  15   2.0000      -0.283235        -7.7072
  16   0.0000       0.097035         2.6405
  17   0.0000       0.120621         3.2823
  18   0.0000       0.132850         3.6150
  19   0.0000       0.140624         3.8266
  20   0.0000       0.168842         4.5944

MULLIKEN ATOMIC CHARGES
-----------------------
   0 C :    0.700221
   1 C :   -0.728019
   2 N :    0.188387
   3 C :    0.381507
   4 H :   -0.156960
   5 H :   -0.338945
   6 H :   -0.077190
   7 H :   -0.049645
   8 H :    0.074706
   9 H :    0.006973
  10 H :   -0.001036
Sum of atomic charges:    0.0000000

LOEWDIN ATOMIC CHARGES
----------------------
   0 C :    0.168594
   1 C :   -0.307427
   2 N :    0.160504
   3 C :    0.137203
   4 H :   -0.086336
   5 H :   -0.088403
   6 H :    0.023598
   7 H :    0.014498
   8 H :   -0.011726
   9 H :   -0.006938
  10 H :   -0.003567

  Mayer bond orders larger than 0.100000
B(  0-C ,  1-C ) :   1.3811 B(  0-C ,  8-H ) :   0.7875 B(  0-C ,  9-H ) :   0.6903
B(  0-C , 10-H ) :   0.7118 B(  1-C ,  2-N ) :   1.2679 B(  1-C ,  3-C ) :   1.8605
B(  1-C ,  5-H ) :   0.2306 B(  1-C ,  8-H ) :   0.2266 B(  1-C ,  9-H ) :   0.2640
B(  1-C , 10-H ) :   0.2651 B(  2-N ,  3-C ) :   0.2257 B(  2-N ,  6-H ) :   1.1275
B(  2-N ,  7-H ) :   1.1026 B(  3-C ,  4-H ) :   0.9462 B(  3-C ,  5-H ) :   0.7845
B(  6-H ,  7-H ) :  -0.1072 B(  8-H ,  9-H ) :   0.1000 B(  8-H , 10-H ) :   0.1121

Dispersion correction           -0.001666998
FINAL SINGLE POINT ENERGY      -173.088607412183

DIPOLE MOMENT
-------------
                                X             Y             Z
Electronic contribution:     -1.13922       1.06680       0.86787
Nuclear contribution   :      1.10788      -0.01499      -1.11971
                        -----------------------------------------
Total Dipole Moment    :     -0.03134       1.05181      -0.25184
                        -----------------------------------------
Magnitude (a.u.)       :      1.08199
Magnitude (Debye)      :      2.75021

Rotational constants in cm-1:     0.367851     0.295709     0.169239
Rotational constants in MHz : 11027.892768  8865.123922  5073.656136

                             ****ORCA TERMINATED NORMALLY****
TOTAL RUN TIME: 0 days 0 hours 0 minutes 7 seconds 550 msec
