                         Program Version 5.0.0 -  RELEASE  -
|  1> !wB97X-D3 RIJCOSX def2-SVPD def2/J TightSCF CPCM(Water) xyzfile
|  2>
|  3> *xyzfile 0 1 D1.xyz
|  4>
|  5> %MaxCore 64000
|  6>
|  7> %pal nprocs 18
|  8> end
|  9>
| 10> %scf
| 11>   MaxIter 150
| 12> end
| 13>
| 14>
| 15>                          ****END OF INPUT****

CARTESIAN COORDINATES (ANGSTROEM)
---------------------------------
  C      4.366454   -0.133215   -1.416062
  C      4.508292   -0.931872   -2.724249
  H      4.753716   -1.972051   -2.488408
  C      3.294164   -0.918214   -3.656570
  H      5.385637   -0.536236   -3.242640
  H      2.483463   -1.477378   -3.185764
  H      3.553092   -1.478495   -4.560331
  C      2.772335    0.460100   -4.051448
  H      2.608762    1.065107   -3.155194
  C      1.465354    0.410537   -4.853644
  H      3.532940    0.988848   -4.635671
  C      0.326171   -0.375613   -4.192580
  H      1.666704   -0.022269   -5.839323
  H      1.138198    1.439246   -5.035449
  C     -0.017405    0.080588   -2.778406
  H      0.585573   -1.439385   -4.168057
  H     -0.560005   -0.311425   -4.831461
  H      0.902090    0.201296   -2.206729
  C     -0.903495   -0.873945   -1.987388
  H     -0.479549    1.074657   -2.811915
  H     -0.502554   -1.892096   -2.081204
  H     -1.917039   -0.895427   -2.406277
  C     -0.960148   -0.522365   -0.489867
  H     -1.690392   -1.208130   -0.021677
  H     -1.414490    0.486329   -0.406677
  F      0.261703   -0.580307    0.138611
  C      3.056503   -0.320797   -0.707384
  C      2.389825    0.711285   -0.243909
  N      2.515999   -1.507721   -0.550229
  H      2.967683   -2.322915   -0.956305
  H      1.549872   -1.490634   -0.249876
  H      2.743071    1.649471   -0.412802
  H      1.440364    0.502778    0.037031
  H      4.487835    0.932997   -1.611569
  H      5.169672   -0.414432   -0.729817

 Total Charge           Charge          ....    0
 Multiplicity           Mult            ....    1
 Number of Electrons    NEL             ....  104
 Basis Dimension        Dim             ....  439

ORBITAL ENERGIES
----------------

  NO   OCC          E(Eh)            E(eV)
   0   2.0000     -24.815643      -675.2680
   1   2.0000     -14.415627      -392.2692
   2   2.0000     -10.368942      -282.1532
   3   2.0000     -10.302281      -280.3393
   4   2.0000     -10.288574      -279.9663
   5   2.0000     -10.280359      -279.7428
   6   2.0000     -10.280108      -279.7360
   7   2.0000     -10.275719      -279.6165
   8   2.0000     -10.275329      -279.6059
   9   2.0000     -10.272919      -279.5403
  10   2.0000     -10.272612      -279.5320
  11   2.0000     -10.272024      -279.5160
  12   2.0000     -10.203881      -277.6617
  13   2.0000      -1.332808       -36.2676
  14   2.0000      -1.031103       -28.0577
  15   2.0000      -0.924583       -25.1592
  16   2.0000      -0.902404       -24.5557
  17   2.0000      -0.876725       -23.8569
  18   2.0000      -0.843186       -22.9443
  19   2.0000      -0.812993       -22.1227
  20   2.0000      -0.792157       -21.5557
  21   2.0000      -0.741139       -20.1674
  22   2.0000      -0.718299       -19.5459
  23   2.0000      -0.686948       -18.6928
  24   2.0000      -0.659375       -17.9425
  25   2.0000      -0.644061       -17.5258
  26   2.0000      -0.635283       -17.2869
  27   2.0000      -0.630438       -17.1551
  28   2.0000      -0.614940       -16.7334
  29   2.0000      -0.586831       -15.9685
  30   2.0000      -0.570489       -15.5238
  31   2.0000      -0.560144       -15.2423
  32   2.0000      -0.541886       -14.7455
  33   2.0000      -0.536997       -14.6124
  34   2.0000      -0.524398       -14.2696
  35   2.0000      -0.518235       -14.1019
  36   2.0000      -0.492816       -13.4102
  37   2.0000      -0.486999       -13.2519
  38   2.0000      -0.480237       -13.0679
  39   2.0000      -0.467191       -12.7129
  40   2.0000      -0.457903       -12.4602
  41   2.0000      -0.449612       -12.2346
  42   2.0000      -0.442659       -12.0454
  43   2.0000      -0.433661       -11.8005
  44   2.0000      -0.429277       -11.6812
  45   2.0000      -0.416694       -11.3388
  46   2.0000      -0.407086       -11.0774
  47   2.0000      -0.400852       -10.9077
  48   2.0000      -0.394373       -10.7314
  49   2.0000      -0.392084       -10.6691
  50   2.0000      -0.389345       -10.5946
  51   2.0000      -0.270675        -7.3654
  52   0.0000       0.094879         2.5818
  53   0.0000       0.104459         2.8425
  54   0.0000       0.106467         2.8971
  55   0.0000       0.109029         2.9668
  56   0.0000       0.119479         3.2512

MULLIKEN ATOMIC CHARGES
-----------------------
   0 C :    0.393336
   1 C :    0.444775
   2 H :    0.027829
   3 C :   -0.156154
   4 H :   -0.097004
   5 H :    0.009522
   6 H :   -0.177560
   7 C :   -0.105783
   8 H :    0.125536
   9 C :    0.655749
  10 H :   -0.337412
  11 C :    0.018450
  12 H :    0.003765
  13 H :    0.015252
  14 C :    0.402585
  15 H :    0.172562
  16 H :   -0.385580
  17 H :   -0.807350
  18 C :   -0.059951
  19 H :    0.024364
  20 H :    0.034963
  21 H :   -0.110488
  22 C :    0.996254
  23 H :   -0.046002
  24 H :    0.038288
  25 F :   -0.807488
  26 C :   -0.673141
  27 C :    0.736673
  28 N :    0.423219
  29 H :   -0.032983
  30 H :   -0.306376
  31 H :   -0.288140
  32 H :   -0.259029
  33 H :    0.397909
  34 H :   -0.270589
Sum of atomic charges:   -0.0000000

LOEWDIN ATOMIC CHARGES
----------------------
   0 C :    0.018195
   1 C :   -0.021719
   2 H :    0.019228
   3 C :   -0.029949
   4 H :    0.021573
   5 H :   -0.009381
   6 H :    0.028566
   7 C :   -0.030927
   8 H :    0.000847
   9 C :   -0.029031
  10 H :    0.025306
  11 C :   -0.035462
  12 H :    0.021985
  13 H :    0.022255
  14 C :   -0.029436
  15 H :    0.013032
  16 H :    0.022928
  17 H :   -0.031198
  18 C :   -0.010117
  19 H :    0.039078
  20 H :    0.031210
  21 H :    0.039917
  22 C :    0.175771
  23 H :    0.043221
  24 H :    0.050828
  25 F :   -0.238662
  26 C :   -0.249718
  27 C :    0.155484
  28 N :    0.201586
  29 H :    0.018304
  30 H :   -0.060613
  31 H :   -0.079370
  32 H :   -0.141188
  33 H :    0.020667
  34 H :    0.026788

  Mayer bond orders larger than 0.100000
B(  0-C ,  1-C ) :   1.2179 B(  0-C ,  2-H ) :   0.1480 B(  0-C ,  4-H ) :   0.2111
B(  0-C , 26-C ) :   1.2048 B(  0-C , 31-H ) :  -0.1279 B(  0-C , 33-H ) :   0.7427
B(  0-C , 34-H ) :   0.6507 B(  1-C ,  2-H ) :   0.6479 B(  1-C ,  3-C ) :   1.2644
B(  1-C ,  4-H ) :   0.7655 B(  1-C , 26-C ) :   0.1643 B(  1-C , 33-H ) :   0.1250
B(  2-H ,  3-C ) :   0.2727 B(  2-H ,  4-H ) :  -0.1382 B(  3-C ,  4-H ) :   0.1876
B(  3-C ,  5-H ) :   0.8620 B(  3-C ,  6-H ) :   0.8934 B(  3-C ,  7-C ) :   1.2586
B(  3-C ,  8-H ) :   0.1125 B(  3-C , 10-H ) :   0.1788 B(  5-H ,  7-C ) :   0.1159
B(  5-H , 15-H ) :   0.1540 B(  6-H ,  7-C ) :   0.1410 B(  7-C ,  8-H ) :   0.8549
B(  7-C ,  9-C ) :   1.1395 B(  7-C , 10-H ) :   0.9954 B(  7-C , 11-C ) :   0.1035
B(  7-C , 12-H ) :   0.1195 B(  7-C , 13-H ) :   0.2403 B(  8-H , 17-H ) :   0.1742
B(  9-C , 11-C ) :   1.1320 B(  9-C , 12-H ) :   0.7355 B(  9-C , 13-H ) :   0.6814
B( 11-C , 12-H ) :   0.1813 B( 11-C , 13-H ) :   0.1422 B( 11-C , 14-C ) :   1.1883
B( 11-C , 15-H ) :   0.8107 B( 11-C , 16-H ) :   1.0283 B( 11-C , 17-H ) :   0.1399
B( 11-C , 19-H ) :   0.1147 B( 12-H , 13-H ) :  -0.1044 B( 14-C , 15-H ) :   0.1391
B( 14-C , 16-H ) :   0.2309 B( 14-C , 17-H ) :   0.4841 B( 14-C , 18-C ) :   1.1709
B( 14-C , 19-H ) :   0.6864 B( 14-C , 20-H ) :   0.1175 B( 14-C , 21-H ) :   0.2256
B( 14-C , 27-C ) :   0.1739 B( 17-H , 18-C ) :   0.1316 B( 17-H , 19-H ) :   0.2563
B( 17-H , 26-C ) :   0.1199 B( 17-H , 27-C ) :  -0.1249 B( 17-H , 32-H ) :   0.1405
B( 18-C , 19-H ) :   0.1097 B( 18-C , 20-H ) :   0.9189 B( 18-C , 21-H ) :   0.8783
B( 18-C , 22-C ) :   1.1446 B( 18-C , 23-H ) :   0.1956 B( 18-C , 24-H ) :   0.1126
B( 18-C , 25-F ) :   0.1426 B( 22-C , 23-H ) :   0.7721 B( 22-C , 24-H ) :   0.8178
B( 22-C , 25-F ) :   0.6288 B( 24-H , 25-F ) :   0.1406 B( 25-F , 27-C ) :  -0.1108
B( 25-F , 30-H ) :   0.1554 B( 25-F , 32-H ) :   0.1543 B( 26-C , 27-C ) :   2.1773
B( 26-C , 28-N ) :   1.0017 B( 26-C , 31-H ) :   0.1883 B( 26-C , 32-H ) :   0.6053
B( 26-C , 34-H ) :   0.3879 B( 27-C , 28-N ) :   0.3608 B( 27-C , 31-H ) :   1.0004
B( 28-N , 29-H ) :   1.0737 B( 28-N , 30-H ) :   1.0625 B( 28-N , 31-H ) :   0.1249
B( 29-H , 30-H ) :  -0.2242 B( 31-H , 32-H ) :  -0.2062

Dispersion correction           -0.017828120
FINAL SINGLE POINT ENERGY      -586.435808392218

DIPOLE MOMENT
-------------
                                X             Y             Z
Electronic contribution:     -2.92165      -1.95688      10.10853
Nuclear contribution   :      1.82572       1.04089     -11.09065
                        -----------------------------------------
Total Dipole Moment    :     -1.09593      -0.91599      -0.98211
                        -----------------------------------------
Magnitude (a.u.)       :      1.73339
Magnitude (Debye)      :      4.40593

Rotational constants in cm-1:     0.028436     0.022359     0.014416
Rotational constants in MHz :   852.496561   670.291843   432.183951

                             ****ORCA TERMINATED NORMALLY****
TOTAL RUN TIME: 0 days 0 hours 1 minutes 17 seconds 326 msec
