                         Program Version 5.0.0 -  RELEASE  -
|  1> !PBE0 D3BJ RIJCOSX def2-TZVP def2/J TightSCF
|  2> *xyz -1 1
|  3> C          0.70466        1.44313       -4.50363
|  4> C          1.72854        1.42432       -5.63944
|  5> H          2.64672        1.95379       -5.38105
|  6> H          1.29992        1.93061       -6.50361
|  7> S          2.25263       -0.18811       -6.27184
|  8> O          3.56261       -0.44446       -5.63155
|  9> O          2.34494       -0.03374       -7.69650
| 10> O          1.26606       -1.15918       -5.80536
| 11> H         -0.17385        0.91270       -4.80656
| 12> H          0.44778        2.45562       -4.27173
| 13> H          1.12367        0.97423       -3.63791
| 14> *
| 15>
| 16> %MaxCore 64000
| 17>
| 18> %pal nprocs 4
| 19> end
| 20>
| 21> %scf
| 22>   MaxIter 150
| 23> end
| 24>
| 25>
| 26>                          ****END OF INPUT****

CARTESIAN COORDINATES (ANGSTROEM)
---------------------------------
  C      0.704660    1.443130   -4.503630
  C      1.728540    1.424320   -5.639440
  H      2.646720    1.953790   -5.381050
  H      1.299920    1.930610   -6.503610
  S      2.252630   -0.188110   -6.271840
  O      3.562610   -0.444460   -5.631550
  O      2.344940   -0.033740   -7.696500
  O      1.266060   -1.159180   -5.805360
  H     -0.173850    0.912700   -4.806560
  H      0.447780    2.455620   -4.271730
  H      1.123670    0.974230   -3.637910

 Total Charge           Charge          ....   -1
 Multiplicity           Mult            ....    1
 Number of Electrons    NEL             ....   58
 Basis Dimension        Dim             ....  222

ORBITAL ENERGIES
----------------

  NO   OCC          E(Eh)            E(eV)
   0   2.0000     -88.992980     -2421.6221
   1   2.0000     -18.978926      -516.4428
   2   2.0000     -18.972186      -516.2594
   3   2.0000     -18.962643      -515.9997
   4   2.0000     -10.078093      -274.2389
   5   2.0000     -10.074184      -274.1325
   6   2.0000      -7.938440      -216.0159
   7   2.0000      -5.875855      -159.8901
   8   2.0000      -5.874482      -159.8528
   9   2.0000      -5.874255      -159.8466
  10   2.0000      -0.942637       -25.6505
  11   2.0000      -0.812390       -22.1063
  12   2.0000      -0.789057       -21.4713
  13   2.0000      -0.651032       -17.7155
  14   2.0000      -0.522966       -14.2306
  15   2.0000      -0.392774       -10.6879
  16   2.0000      -0.328483        -8.9385
  17   2.0000      -0.322740        -8.7822
  18   2.0000      -0.284253        -7.7349
  19   2.0000      -0.266760        -7.2589
  20   2.0000      -0.265947        -7.2368
  21   2.0000      -0.235093        -6.3972
  22   2.0000      -0.226438        -6.1617
  23   2.0000      -0.157091        -4.2747
  24   2.0000      -0.155627        -4.2348
  25   2.0000      -0.121138        -3.2963
  26   2.0000      -0.114217        -3.1080
  27   2.0000      -0.103885        -2.8269
  28   2.0000      -0.068497        -1.8639
  29   0.0000       0.180720         4.9176
  30   0.0000       0.228194         6.2095
  31   0.0000       0.239956         6.5295
  32   0.0000       0.246056         6.6955
  33   0.0000       0.267232         7.2718

MULLIKEN ATOMIC CHARGES
-----------------------
   0 C :   -0.328252
   1 C :   -0.268873
   2 H :    0.096280
   3 H :    0.090586
   4 S :    0.807020
   5 O :   -0.587876
   6 O :   -0.539861
   7 O :   -0.563152
   8 H :    0.116123
   9 H :    0.072913
  10 H :    0.105091
Sum of atomic charges:   -1.0000000

LOEWDIN ATOMIC CHARGES
----------------------
   0 C :   -0.346666
   1 C :   -0.431626
   2 H :    0.119805
   3 H :    0.118803
   4 S :    0.400317
   5 O :   -0.428828
   6 O :   -0.367865
   7 O :   -0.393394
   8 H :    0.115256
   9 H :    0.100219
  10 H :    0.113979

  Mayer bond orders larger than 0.100000
B(  0-C ,  1-C ) :   0.9866 B(  0-C ,  8-H ) :   0.9709 B(  0-C ,  9-H ) :   0.9596
B(  0-C , 10-H ) :   0.9739 B(  1-C ,  2-H ) :   0.9588 B(  1-C ,  3-H ) :   0.9538
B(  1-C ,  4-S ) :   0.8734 B(  4-S ,  5-O ) :   1.7705 B(  4-S ,  6-O ) :   1.8235
B(  4-S ,  7-O ) :   1.7787

Dispersion correction           -0.008177682
FINAL SINGLE POINT ENERGY      -702.837842516046

DIPOLE MOMENT
-------------
                                X             Y             Z
Electronic contribution:      3.68000      -5.67647      -4.33159
Nuclear contribution   :     -4.50297       7.24642       5.01775
                        -----------------------------------------
Total Dipole Moment    :     -0.82297       1.56995       0.68616
                        -----------------------------------------
Magnitude (a.u.)       :      1.90075
Magnitude (Debye)      :      4.83131

Rotational constants in cm-1:     0.162459     0.081286     0.079601
Rotational constants in MHz :  4870.394399  2436.893583  2386.374948

                             ****ORCA TERMINATED NORMALLY****
TOTAL RUN TIME: 0 days 0 hours 0 minutes 32 seconds 17 msec
