                         Program Version 5.0.0 -  RELEASE  -
|  1> !PBE0 D3BJ RIJCOSX def2-TZVP def2/J TightSCF
|  2> *xyz 1 1
|  3> C          2.91632       -1.24259       -1.54313
|  4> C          3.46659       -1.59097       -2.88908
|  5> N          4.65227       -1.14316       -3.25969
|  6> N          2.75226       -2.29204       -3.72803
|  7> H          1.77836       -2.48960       -3.51274
|  8> H          2.94861       -2.20854       -4.71681
|  9> H          5.14672       -0.51251       -2.63385
| 10> H          4.78303       -1.00720       -4.25350
| 11> C          2.80408        0.29070       -1.35924
| 12> H          1.94047       -1.71653       -1.44116
| 13> H          3.55857       -1.66343       -0.76637
| 14> H          2.17393        0.69633       -2.12297
| 15> H          3.77707        0.73043       -1.42880
| 16> H          2.38369        0.50492       -0.39889
| 17> *
| 18>
| 19> %MaxCore 64000
| 20>
| 21> %pal nprocs 4
| 22> end
| 23>
| 24> %scf
| 25>   MaxIter 150
| 26> end
| 27>
| 28>
| 29>                          ****END OF INPUT****

CARTESIAN COORDINATES (ANGSTROEM)
---------------------------------
  C      2.916320   -1.242590   -1.543130
  C      3.466590   -1.590970   -2.889080
  N      4.652270   -1.143160   -3.259690
  N      2.752260   -2.292040   -3.728030
  H      1.778360   -2.489600   -3.512740
  H      2.948610   -2.208540   -4.716810
  H      5.146720   -0.512510   -2.633850
  H      4.783030   -1.007200   -4.253500
  C      2.804080    0.290700   -1.359240
  H      1.940470   -1.716530   -1.441160
  H      3.558570   -1.663430   -0.766370
  H      2.173930    0.696330   -2.122970
  H      3.777070    0.730430   -1.428800
  H      2.383690    0.504920   -0.398890

 Total Charge           Charge          ....    1
 Multiplicity           Mult            ....    1
 Number of Electrons    NEL             ....   40
 Basis Dimension        Dim             ....  209

ORBITAL ENERGIES
----------------

  NO   OCC          E(Eh)            E(eV)
   0   2.0000     -14.632028      -398.1577
   1   2.0000     -14.626663      -398.0117
   2   2.0000     -10.545295      -286.9521
   3   2.0000     -10.424055      -283.6530
   4   2.0000     -10.382065      -282.5103
   5   2.0000      -1.238971       -33.7141
   6   2.0000      -1.138014       -30.9669
   7   2.0000      -0.995091       -27.0778
   8   2.0000      -0.885111       -24.0851
   9   2.0000      -0.836232       -22.7550
  10   2.0000      -0.785774       -21.3820
  11   2.0000      -0.770014       -20.9531
  12   2.0000      -0.713711       -19.4211
  13   2.0000      -0.679455       -18.4889
  14   2.0000      -0.640063       -17.4170
  15   2.0000      -0.614160       -16.7121
  16   2.0000      -0.566701       -15.4207
  17   2.0000      -0.555923       -15.1274
  18   2.0000      -0.543131       -14.7793
  19   2.0000      -0.511416       -13.9163
  20   0.0000      -0.215223        -5.8565
  21   0.0000      -0.150939        -4.1072
  22   0.0000      -0.107422        -2.9231
  23   0.0000      -0.104993        -2.8570
  24   0.0000      -0.069687        -1.8963

MULLIKEN ATOMIC CHARGES
-----------------------
   0 C :   -0.227432
   1 C :    0.297177
   2 N :   -0.334829
   3 N :   -0.328125
   4 H :    0.302350
   5 H :    0.280294
   6 H :    0.298665
   7 H :    0.281599
   8 C :   -0.357734
   9 H :    0.143113
  10 H :    0.187535
  11 H :    0.150262
  12 H :    0.125905
  13 H :    0.181220
Sum of atomic charges:    1.0000000

LOEWDIN ATOMIC CHARGES
----------------------
   0 C :   -0.217919
   1 C :   -0.298930
   2 N :    0.108338
   3 N :    0.121186
   4 H :    0.211172
   5 H :    0.200793
   6 H :    0.208467
   7 H :    0.201382
   8 C :   -0.260022
   9 H :    0.159329
  10 H :    0.172988
  11 H :    0.130440
  12 H :    0.121522
  13 H :    0.141255

  Mayer bond orders larger than 0.100000
B(  0-C ,  1-C ) :   1.0186 B(  0-C ,  8-C ) :   0.9758 B(  0-C ,  9-H ) :   0.9543
B(  0-C , 10-H ) :   0.9276 B(  1-C ,  2-N ) :   1.4283 B(  1-C ,  3-N ) :   1.4880
B(  2-N ,  6-H ) :   0.8862 B(  2-N ,  7-H ) :   0.8851 B(  3-N ,  4-H ) :   0.8780
B(  3-N ,  5-H ) :   0.8858 B(  8-C , 11-H ) :   0.9589 B(  8-C , 12-H ) :   0.9669
B(  8-C , 13-H ) :   0.9556

Dispersion correction           -0.008578627
FINAL SINGLE POINT ENERGY      -228.846509661345

DIPOLE MOMENT
-------------
                                X             Y             Z
Electronic contribution:      1.30530      -2.84173      -2.77972
Nuclear contribution   :     -1.30215       2.77761       1.84194
                        -----------------------------------------
Total Dipole Moment    :      0.00315      -0.06413      -0.93779
                        -----------------------------------------
Magnitude (a.u.)       :      0.93998
Magnitude (Debye)      :      2.38925

Rotational constants in cm-1:     0.267442     0.127541     0.099068
Rotational constants in MHz :  8017.703171  3823.592522  2969.992494

                             ****ORCA TERMINATED NORMALLY****
TOTAL RUN TIME: 0 days 0 hours 0 minutes 27 seconds 765 msec
