                         Program Version 5.0.0 -  RELEASE  -
|  1> !PBE0 D3BJ RIJCOSX def2-TZVP def2/J TightSCF xyzfile
|  2>
|  3> *xyzfile 0 1 B.xyz
|  4>
|  5> %MaxCore 64000
|  6>
|  7> %pal nprocs 18
|  8> end
|  9>
| 10> %scf
| 11>   MaxIter 150
| 12> end
| 13>
| 14>
| 15>                          ****END OF INPUT****

CARTESIAN COORDINATES (ANGSTROEM)
---------------------------------
  C      2.916324   -1.242589   -1.543125
  C      0.704661    1.443129   -4.503630
  C      1.728539    1.424320   -5.639443
  H      2.646718    1.953794   -5.381054
  H      1.299916    1.930613   -6.503614
  S      2.252625   -0.188115   -6.271840
  C      3.466585   -1.590971   -2.889082
  N      4.652275   -1.143164   -3.259692
  N      2.752264   -2.292043   -3.728029
  H      1.778364   -2.489604   -3.512738
  H      2.948612   -2.208544   -4.716813
  H      5.146723   -0.512508   -2.633852
  H      4.783030   -1.007203   -4.253498
  O      3.562607   -0.444464   -5.631552
  O      2.344944   -0.033742   -7.696501
  C      2.804084    0.290698   -1.359243
  C      1.052550    0.695659   -3.214915
  H     -0.232483    1.032925   -4.884449
  H      0.511700    2.495794   -4.267966
  C      2.388380    1.093669   -2.597108
  H      3.763425    0.674718   -0.999889
  H      2.094788    0.461222   -0.545756
  O      1.266058   -1.159177   -5.805365
  H      3.167316    1.013242   -3.359430
  H      2.357690    2.149375   -2.310997
  H      1.039284   -0.368429   -3.449329
  H      0.250787    0.865605   -2.488283
  H      1.940472   -1.716529   -1.441161
  H      3.558569   -1.663433   -0.766371

 Total Charge           Charge          ....    0
 Multiplicity           Mult            ....    1
 Number of Electrons    NEL             ....  112
 Basis Dimension        Dim             ....  505

ORBITAL ENERGIES
----------------

  NO   OCC          E(Eh)            E(eV)
   0   2.0000     -89.152516     -2425.9633
   1   2.0000     -19.142884      -520.9043
   2   2.0000     -19.135441      -520.7018
   3   2.0000     -19.125761      -520.4384
   4   2.0000     -14.455758      -393.3612
   5   2.0000     -14.455144      -393.3445
   6   2.0000     -10.380108      -282.4571
   7   2.0000     -10.286322      -279.9051
   8   2.0000     -10.265320      -279.3336
   9   2.0000     -10.236124      -278.5391
  10   2.0000     -10.223026      -278.1827
  11   2.0000     -10.218806      -278.0678
  12   2.0000     -10.216083      -277.9938
  13   2.0000      -8.098422      -220.3693
  14   2.0000      -6.035501      -164.2343
  15   2.0000      -6.035147      -164.2247
  16   2.0000      -6.033728      -164.1861
  17   2.0000      -1.105566       -30.0840
  18   2.0000      -1.068837       -29.0845
  19   2.0000      -0.970278       -26.4026
  20   2.0000      -0.967053       -26.3149
  21   2.0000      -0.963361       -26.2144
  22   2.0000      -0.871034       -23.7020
  23   2.0000      -0.823484       -22.4081
  24   2.0000      -0.775417       -21.1002
  25   2.0000      -0.721399       -19.6303
  26   2.0000      -0.691652       -18.8208
  27   2.0000      -0.656106       -17.8536
  28   2.0000      -0.619059       -16.8455
  29   2.0000      -0.608774       -16.5656
  30   2.0000      -0.598083       -16.2747
  31   2.0000      -0.552027       -15.0214
  32   2.0000      -0.540332       -14.7032
  33   2.0000      -0.530590       -14.4381
  34   2.0000      -0.511104       -13.9078
  35   2.0000      -0.485004       -13.1976
  36   2.0000      -0.477878       -13.0037
  37   2.0000      -0.459215       -12.4959
  38   2.0000      -0.447856       -12.1868
  39   2.0000      -0.444544       -12.0967
  40   2.0000      -0.439555       -11.9609
  41   2.0000      -0.427835       -11.6420
  42   2.0000      -0.417988       -11.3740
  43   2.0000      -0.397890       -10.8271
  44   2.0000      -0.389239       -10.5917
  45   2.0000      -0.384981       -10.4759
  46   2.0000      -0.357889        -9.7387
  47   2.0000      -0.350700        -9.5430
  48   2.0000      -0.337910        -9.1950
  49   2.0000      -0.336657        -9.1609
  50   2.0000      -0.318550        -8.6682
  51   2.0000      -0.315001        -8.5716
  52   2.0000      -0.279124        -7.5954
  53   2.0000      -0.273161        -7.4331
  54   2.0000      -0.264245        -7.1905
  55   2.0000      -0.236087        -6.4243
  56   0.0000      -0.052957        -1.4410
  57   0.0000      -0.004323        -0.1176
  58   0.0000       0.024933         0.6785
  59   0.0000       0.043957         1.1961
  60   0.0000       0.054417         1.4808

MULLIKEN ATOMIC CHARGES
-----------------------
   0 C :   -0.225881
   1 C :   -0.140451
   2 C :   -0.322919
   3 H :    0.124580
   4 H :    0.151048
   5 S :    0.868636
   6 C :    0.216498
   7 N :   -0.343192
   8 N :   -0.288023
   9 H :    0.271773
  10 H :    0.285512
  11 H :    0.264155
  12 H :    0.307456
  13 O :   -0.643718
  14 O :   -0.485931
  15 C :   -0.279814
  16 C :   -0.217305
  17 H :    0.119410
  18 H :    0.097418
  19 C :   -0.165815
  20 H :    0.135797
  21 H :    0.125052
  22 O :   -0.566074
  23 H :    0.122103
  24 H :    0.113173
  25 H :    0.078364
  26 H :    0.099274
  27 H :    0.139668
  28 H :    0.159205
Sum of atomic charges:   -0.0000000

LOEWDIN ATOMIC CHARGES
----------------------
   0 C :   -0.212346
   1 C :   -0.289063
   2 C :   -0.388353
   3 H :    0.129164
   4 H :    0.140264
   5 S :    0.431071
   6 C :   -0.324424
   7 N :    0.089805
   8 N :    0.125405
   9 H :    0.194599
  10 H :    0.187952
  11 H :    0.191088
  12 H :    0.188441
  13 O :   -0.419876
  14 O :   -0.313399
  15 C :   -0.255787
  16 C :   -0.276294
  17 H :    0.147109
  18 H :    0.139277
  19 C :   -0.272317
  20 H :    0.138700
  21 H :    0.147270
  22 O :   -0.368046
  23 H :    0.142850
  24 H :    0.143107
  25 H :    0.133472
  26 H :    0.136811
  27 H :    0.154068
  28 H :    0.159451

  Mayer bond orders larger than 0.100000
B(  0-C ,  6-C ) :   1.0207 B(  0-C , 15-C ) :   0.9499 B(  0-C , 27-H ) :   0.9568
B(  0-C , 28-H ) :   0.9465 B(  1-C ,  2-C ) :   0.9895 B(  1-C , 16-C ) :   1.0175
B(  1-C , 17-H ) :   0.9511 B(  1-C , 18-H ) :   0.9476 B(  2-C ,  3-H ) :   0.9559
B(  2-C ,  4-H ) :   0.9460 B(  2-C ,  5-S ) :   0.8993 B(  5-S , 13-O ) :   1.5236
B(  5-S , 14-O ) :   1.9380 B(  5-S , 22-O ) :   1.6966 B(  6-C ,  7-N ) :   1.4170
B(  6-C ,  8-N ) :   1.5334 B(  7-N , 11-H ) :   0.9037 B(  7-N , 12-H ) :   0.8444
B(  8-N ,  9-H ) :   0.8914 B(  8-N , 10-H ) :   0.8395 B( 15-C , 19-C ) :   0.9782
B( 15-C , 20-H ) :   0.9746 B( 15-C , 21-H ) :   0.9505 B( 16-C , 19-C ) :   0.9784
B( 16-C , 25-H ) :   0.9460 B( 16-C , 26-H ) :   0.9491 B( 19-C , 23-H ) :   0.9554
B( 19-C , 24-H ) :   0.9478

Dispersion correction           -0.032333475
FINAL SINGLE POINT ENERGY     -1009.222502424469

DIPOLE MOMENT
-------------
                                X             Y             Z
Electronic contribution:      2.77789      -6.32013     -13.36326
Nuclear contribution   :     -1.90023       6.18953      17.82209
                        -----------------------------------------
Total Dipole Moment    :      0.87765      -0.13060       4.45883
                        -----------------------------------------
Magnitude (a.u.)       :      4.54626
Magnitude (Debye)      :     11.55568

Rotational constants in cm-1:     0.036337     0.018755     0.015005
Rotational constants in MHz :  1089.341704   562.266628   449.834770

                             ****ORCA TERMINATED NORMALLY****
TOTAL RUN TIME: 0 days 0 hours 0 minutes 58 seconds 853 msec
