                         Program Version 5.0.0 -  RELEASE  -
|  1> !PBE0 D3BJ RIJCOSX def2-TZVP def2/J TightSCF
|  2> *xyz 0 1
|  3> C          0.70466        1.44313       -4.50363
|  4> C          1.72854        1.42432       -5.63944
|  5> H          2.64672        1.95379       -5.38105
|  6> H          1.29992        1.93061       -6.50361
|  7> S          2.25263       -0.18811       -6.27184
|  8> F          3.56261       -0.44446       -5.63155
|  9> O          2.34494       -0.03374       -7.69650
| 10> O          1.26606       -1.15918       -5.80536
| 11> H         -0.17385        0.91270       -4.80656
| 12> H          0.44778        2.45562       -4.27173
| 13> H          1.12367        0.97423       -3.63791
| 14> *
| 15>
| 16> %MaxCore 64000
| 17>
| 18> %pal nprocs 4
| 19> end
| 20>
| 21> %scf
| 22>   MaxIter 150
| 23> end
| 24>
| 25>
| 26>                          ****END OF INPUT****

CARTESIAN COORDINATES (ANGSTROEM)
---------------------------------
  C      0.704660    1.443130   -4.503630
  C      1.728540    1.424320   -5.639440
  H      2.646720    1.953790   -5.381050
  H      1.299920    1.930610   -6.503610
  S      2.252630   -0.188110   -6.271840
  F      3.562610   -0.444460   -5.631550
  O      2.344940   -0.033740   -7.696500
  O      1.266060   -1.159180   -5.805360
  H     -0.173850    0.912700   -4.806560
  H      0.447780    2.455620   -4.271730
  H      1.123670    0.974230   -3.637910

 Total Charge           Charge          ....    0
 Multiplicity           Mult            ....    1
 Number of Electrons    NEL             ....   58
 Basis Dimension        Dim             ....  222

ORBITAL ENERGIES
----------------

  NO   OCC          E(Eh)            E(eV)
   0   2.0000     -89.259205     -2428.8664
   1   2.0000     -24.871907      -676.7990
   2   2.0000     -19.220065      -523.0046
   3   2.0000     -19.212754      -522.8056
   4   2.0000     -10.282838      -279.8102
   5   2.0000     -10.237974      -278.5894
   6   2.0000      -8.205282      -223.2771
   7   2.0000      -6.145646      -167.2315
   8   2.0000      -6.139659      -167.0686
   9   2.0000      -6.138842      -167.0464
  10   2.0000      -1.383766       -37.6542
  11   2.0000      -1.139332       -31.0028
  12   2.0000      -1.045974       -28.4624
  13   2.0000      -0.843109       -22.9422
  14   2.0000      -0.745082       -20.2747
  15   2.0000      -0.688722       -18.7411
  16   2.0000      -0.592346       -16.1186
  17   2.0000      -0.580766       -15.8035
  18   2.0000      -0.567493       -15.4423
  19   2.0000      -0.506178       -13.7738
  20   2.0000      -0.494777       -13.4636
  21   2.0000      -0.470240       -12.7959
  22   2.0000      -0.444914       -12.1067
  23   2.0000      -0.416184       -11.3249
  24   2.0000      -0.412434       -11.2229
  25   2.0000      -0.396355       -10.7854
  26   2.0000      -0.349743        -9.5170
  27   2.0000      -0.343764        -9.3543
  28   2.0000      -0.330698        -8.9987
  29   0.0000       0.026327         0.7164
  30   0.0000       0.038566         1.0494
  31   0.0000       0.062886         1.7112
  32   0.0000       0.080131         2.1805
  33   0.0000       0.086262         2.3473

MULLIKEN ATOMIC CHARGES
-----------------------
   0 C :   -0.339484
   1 C :   -0.280487
   2 H :    0.141979
   3 H :    0.165127
   4 S :    0.844981
   5 F :   -0.119136
   6 O :   -0.400679
   7 O :   -0.425969
   8 H :    0.151669
   9 H :    0.133883
  10 H :    0.128115
Sum of atomic charges:    0.0000000

LOEWDIN ATOMIC CHARGES
----------------------
   0 C :   -0.312108
   1 C :   -0.395869
   2 H :    0.135848
   3 H :    0.149091
   4 S :    0.532577
   5 F :    0.050461
   6 O :   -0.255334
   7 O :   -0.281460
   8 H :    0.128364
   9 H :    0.125367
  10 H :    0.123065

  Mayer bond orders larger than 0.100000
B(  0-C ,  1-C ) :   1.0008 B(  0-C ,  8-H ) :   0.9637 B(  0-C ,  9-H ) :   0.9531
B(  0-C , 10-H ) :   0.9681 B(  1-C ,  2-H ) :   0.9409 B(  1-C ,  3-H ) :   0.9375
B(  1-C ,  4-S ) :   0.9047 B(  4-S ,  5-F ) :   1.1137 B(  4-S ,  6-O ) :   1.9569
B(  4-S ,  7-O ) :   1.9189

Dispersion correction           -0.007800786
FINAL SINGLE POINT ENERGY      -727.363816751324

DIPOLE MOMENT
-------------
                                X             Y             Z
Electronic contribution:      6.31444      -6.50529      -3.71689
Nuclear contribution   :     -6.09914       7.80989       4.64238
                        -----------------------------------------
Total Dipole Moment    :      0.21530       1.30460       0.92550
                        -----------------------------------------
Magnitude (a.u.)       :      1.61396
Magnitude (Debye)      :      4.10237

Rotational constants in cm-1:     0.154372     0.078826     0.078033
Rotational constants in MHz :  4627.943144  2363.154585  2339.382767

                             ****ORCA TERMINATED NORMALLY****
TOTAL RUN TIME: 0 days 0 hours 0 minutes 26 seconds 160 msec
