                         Program Version 5.0.0 -  RELEASE  -
|  1> !PBE0 D3BJ RIJCOSX def2-TZVP def2/J TightSCF
|  2> *xyz 0 1
|  3> C          2.91632       -1.24259       -1.54313
|  4> C          3.46659       -1.59097       -2.88908
|  5> C          4.65227       -1.14316       -3.25969
|  6> N          2.75226       -2.29204       -3.72803
|  7> H          1.77836       -2.48960       -3.51274
|  8> H          2.94861       -2.20854       -4.71681
|  9> H          5.14672       -0.51251       -2.63385
| 10> H          4.78303       -1.00720       -4.25350
| 11> C          2.80408        0.29070       -1.35924
| 12> H          1.94047       -1.71653       -1.44116
| 13> H          3.55857       -1.66343       -0.76637
| 14> H          2.17393        0.69633       -2.12297
| 15> H          3.77707        0.73043       -1.42880
| 16> H          2.38369        0.50492       -0.39889
| 17> *
| 18>
| 19> %MaxCore 64000
| 20>
| 21> %pal nprocs 4
| 22> end
| 23>
| 24> %scf
| 25>   MaxIter 150
| 26> end
| 27>
| 28>
| 29>                          ****END OF INPUT****

CARTESIAN COORDINATES (ANGSTROEM)
---------------------------------
  C      2.916320   -1.242590   -1.543130
  C      3.466590   -1.590970   -2.889080
  C      4.652270   -1.143160   -3.259690
  N      2.752260   -2.292040   -3.728030
  H      1.778360   -2.489600   -3.512740
  H      2.948610   -2.208540   -4.716810
  H      5.146720   -0.512510   -2.633850
  H      4.783030   -1.007200   -4.253500
  C      2.804080    0.290700   -1.359240
  H      1.940470   -1.716530   -1.441160
  H      3.558570   -1.663430   -0.766370
  H      2.173930    0.696330   -2.122970
  H      3.777070    0.730430   -1.428800
  H      2.383690    0.504920   -0.398890

 Total Charge           Charge          ....    0
 Multiplicity           Mult            ....    1
 Number of Electrons    NEL             ....   40
 Basis Dimension        Dim             ....  209

ORBITAL ENERGIES
----------------

  NO   OCC          E(Eh)            E(eV)
   0   2.0000     -14.385081      -391.4380
   1   2.0000     -10.240658      -278.6625
   2   2.0000     -10.223884      -278.2060
   3   2.0000     -10.205718      -277.7117
   4   2.0000     -10.146055      -276.0882
   5   2.0000      -0.963852       -26.2278
   6   2.0000      -0.804774       -21.8990
   7   2.0000      -0.733874       -19.9697
   8   2.0000      -0.663390       -18.0518
   9   2.0000      -0.582119       -15.8403
  10   2.0000      -0.537377       -14.6228
  11   2.0000      -0.493863       -13.4387
  12   2.0000      -0.462785       -12.5930
  13   2.0000      -0.422845       -11.5062
  14   2.0000      -0.402625       -10.9560
  15   2.0000      -0.389197       -10.5906
  16   2.0000      -0.368552       -10.0288
  17   2.0000      -0.354963        -9.6590
  18   2.0000      -0.338432        -9.2092
  19   2.0000      -0.199254        -5.4220
  20   0.0000       0.034869         0.9488
  21   0.0000       0.040782         1.1097
  22   0.0000       0.077919         2.1203
  23   0.0000       0.082531         2.2458
  24   0.0000       0.099958         2.7200

MULLIKEN ATOMIC CHARGES
-----------------------
   0 C :   -0.183573
   1 C :    0.169374
   2 C :   -0.399261
   3 N :   -0.442630
   4 H :    0.227841
   5 H :    0.233056
   6 H :    0.090581
   7 H :    0.081487
   8 C :   -0.339323
   9 H :    0.084391
  10 H :    0.125116
  11 H :    0.115351
  12 H :    0.120757
  13 H :    0.116834
Sum of atomic charges:    0.0000000

LOEWDIN ATOMIC CHARGES
----------------------
   0 C :   -0.237282
   1 C :   -0.378820
   2 C :   -0.284669
   3 N :    0.008744
   4 H :    0.167835
   5 H :    0.174187
   6 H :    0.105279
   7 H :    0.101363
   8 C :   -0.289437
   9 H :    0.132867
  10 H :    0.149584
  11 H :    0.118115
  12 H :    0.118605
  13 H :    0.113630

  Mayer bond orders larger than 0.100000
B(  0-C ,  1-C ) :   0.9736 B(  0-C ,  8-C ) :   0.9900 B(  0-C ,  9-H ) :   0.9658
B(  0-C , 10-H ) :   0.9689 B(  1-C ,  2-C ) :   1.7626 B(  1-C ,  3-N ) :   1.2005
B(  2-C ,  6-H ) :   1.0016 B(  2-C ,  7-H ) :   0.9748 B(  3-N ,  4-H ) :   0.9164
B(  3-N ,  5-H ) :   0.9119 B(  8-C , 11-H ) :   0.9729 B(  8-C , 12-H ) :   0.9734
B(  8-C , 13-H ) :   0.9665

Dispersion correction           -0.008937022
FINAL SINGLE POINT ENERGY      -212.380023909859

DIPOLE MOMENT
-------------
                                X             Y             Z
Electronic contribution:      0.06490      -2.74470      -1.82901
Nuclear contribution   :     -0.99366       2.78648       1.68526
                        -----------------------------------------
Total Dipole Moment    :     -0.92876       0.04178      -0.14375
                        -----------------------------------------
Magnitude (a.u.)       :      0.94075
Magnitude (Debye)      :      2.39118

Rotational constants in cm-1:     0.282898     0.128664     0.101801
Rotational constants in MHz :  8481.061354  3857.240210  3051.924245

                             ****ORCA TERMINATED NORMALLY****
TOTAL RUN TIME: 0 days 0 hours 0 minutes 26 seconds 157 msec
