                         Program Version 5.0.0 -  RELEASE  -
|  1> !PBE0 D3BJ RIJCOSX def2-TZVP def2/J TightSCF
|  2> *xyz 0 1
|  3> C          0.70466        1.44313       -4.50363
|  4> C          1.72854        1.42432       -5.63944
|  5> H          2.64672        1.95379       -5.38105
|  6> H          1.29992        1.93061       -6.50361
|  7> S          2.25263       -0.18811       -6.27184
|  8> O          3.56261       -0.44446       -5.63155
|  9> F          2.34494       -0.03374       -7.69650
| 10> O          1.26606       -1.15918       -5.80536
| 11> H         -0.17385        0.91270       -4.80656
| 12> H          0.44778        2.45562       -4.27173
| 13> H          1.12367        0.97423       -3.63791
| 14> *
| 15>
| 16> %MaxCore 64000
| 17>
| 18> %pal nprocs 4
| 19> end
| 20>
| 21> %scf
| 22>   MaxIter 150
| 23> end
| 24>
| 25>
| 26>                          ****END OF INPUT****

CARTESIAN COORDINATES (ANGSTROEM)
---------------------------------
  C      0.704660    1.443130   -4.503630
  C      1.728540    1.424320   -5.639440
  H      2.646720    1.953790   -5.381050
  H      1.299920    1.930610   -6.503610
  S      2.252630   -0.188110   -6.271840
  O      3.562610   -0.444460   -5.631550
  F      2.344940   -0.033740   -7.696500
  O      1.266060   -1.159180   -5.805360
  H     -0.173850    0.912700   -4.806560
  H      0.447780    2.455620   -4.271730
  H      1.123670    0.974230   -3.637910

 Total Charge           Charge          ....    0
 Multiplicity           Mult            ....    1
 Number of Electrons    NEL             ....   58
 Basis Dimension        Dim             ....  222

ORBITAL ENERGIES
----------------

  NO   OCC          E(Eh)            E(eV)
   0   2.0000     -89.261438     -2428.9272
   1   2.0000     -24.895443      -677.4394
   2   2.0000     -19.212934      -522.8105
   3   2.0000     -19.204436      -522.5793
   4   2.0000     -10.283783      -279.8360
   5   2.0000     -10.238600      -278.6065
   6   2.0000      -8.207473      -223.3367
   7   2.0000      -6.147732      -167.2883
   8   2.0000      -6.141697      -167.1241
   9   2.0000      -6.141134      -167.1088
  10   2.0000      -1.421850       -38.6905
  11   2.0000      -1.124495       -30.5991
  12   2.0000      -1.025864       -27.9152
  13   2.0000      -0.843944       -22.9649
  14   2.0000      -0.760382       -20.6911
  15   2.0000      -0.696780       -18.9603
  16   2.0000      -0.609316       -16.5803
  17   2.0000      -0.607346       -16.5267
  18   2.0000      -0.571639       -15.5551
  19   2.0000      -0.506718       -13.7885
  20   2.0000      -0.495639       -13.4870
  21   2.0000      -0.458677       -12.4812
  22   2.0000      -0.442056       -12.0290
  23   2.0000      -0.418809       -11.3964
  24   2.0000      -0.402502       -10.9526
  25   2.0000      -0.394763       -10.7420
  26   2.0000      -0.342443        -9.3183
  27   2.0000      -0.332500        -9.0478
  28   2.0000      -0.314577        -8.5601
  29   0.0000       0.028172         0.7666
  30   0.0000       0.033313         0.9065
  31   0.0000       0.061135         1.6636
  32   0.0000       0.077435         2.1071
  33   0.0000       0.083770         2.2795

MULLIKEN ATOMIC CHARGES
-----------------------
   0 C :   -0.342141
   1 C :   -0.272102
   2 H :    0.163887
   3 H :    0.131845
   4 S :    0.839340
   5 O :   -0.437891
   6 F :   -0.086728
   7 O :   -0.417281
   8 H :    0.142482
   9 H :    0.134591
  10 H :    0.143998
Sum of atomic charges:   -0.0000000

LOEWDIN ATOMIC CHARGES
----------------------
   0 C :   -0.306039
   1 C :   -0.397562
   2 H :    0.144175
   3 H :    0.133942
   4 S :    0.524592
   5 O :   -0.308320
   6 F :    0.105911
   7 O :   -0.277662
   8 H :    0.126767
   9 H :    0.126120
  10 H :    0.128078

  Mayer bond orders larger than 0.100000
B(  0-C ,  1-C ) :   1.0063 B(  0-C ,  8-H ) :   0.9633 B(  0-C ,  9-H ) :   0.9524
B(  0-C , 10-H ) :   0.9670 B(  1-C ,  2-H ) :   0.9354 B(  1-C ,  3-H ) :   0.9369
B(  1-C ,  4-S ) :   0.9076 B(  4-S ,  5-O ) :   1.9067 B(  4-S ,  6-F ) :   1.1567
B(  4-S ,  7-O ) :   1.9214

Dispersion correction           -0.007812959
FINAL SINGLE POINT ENERGY      -727.344244579906

DIPOLE MOMENT
-------------
                                X             Y             Z
Electronic contribution:      4.21994      -5.80993      -7.22512
Nuclear contribution   :     -4.83029       7.38191       6.79413
                        -----------------------------------------
Total Dipole Moment    :     -0.61035       1.57198      -0.43099
                        -----------------------------------------
Magnitude (a.u.)       :      1.74051
Magnitude (Debye)      :      4.42404

Rotational constants in cm-1:     0.156575     0.079070     0.076729
Rotational constants in MHz :  4694.010604  2370.444114  2300.280155

                             ****ORCA TERMINATED NORMALLY****
TOTAL RUN TIME: 0 days 0 hours 0 minutes 25 seconds 381 msec
