                         Program Version 5.0.0 -  RELEASE  -
|  1> !PBE0 D3BJ RIJCOSX def2-TZVP def2/J TightSCF
|  2> *xyz 0 1
|  3> C          2.91632       -1.24259       -1.54313
|  4> C          3.46659       -1.59097       -2.88908
|  5> N          4.65227       -1.14316       -3.25969
|  6> C          2.75226       -2.29204       -3.72803
|  7> H          1.77836       -2.48960       -3.51274
|  8> H          2.94861       -2.20854       -4.71681
|  9> H          5.14672       -0.51251       -2.63385
| 10> H          4.78303       -1.00720       -4.25350
| 11> C          2.80408        0.29070       -1.35924
| 12> H          1.94047       -1.71653       -1.44116
| 13> H          3.55857       -1.66343       -0.76637
| 14> H          2.17393        0.69633       -2.12297
| 15> H          3.77707        0.73043       -1.42880
| 16> H          2.38369        0.50492       -0.39889
| 17> *
| 18>
| 19> %MaxCore 64000
| 20>
| 21> %pal nprocs 4
| 22> end
| 23>
| 24> %scf
| 25>   MaxIter 150
| 26> end
| 27>
| 28>
| 29>                          ****END OF INPUT****

CARTESIAN COORDINATES (ANGSTROEM)
---------------------------------
  C      2.916320   -1.242590   -1.543130
  C      3.466590   -1.590970   -2.889080
  N      4.652270   -1.143160   -3.259690
  C      2.752260   -2.292040   -3.728030
  H      1.778360   -2.489600   -3.512740
  H      2.948610   -2.208540   -4.716810
  H      5.146720   -0.512510   -2.633850
  H      4.783030   -1.007200   -4.253500
  C      2.804080    0.290700   -1.359240
  H      1.940470   -1.716530   -1.441160
  H      3.558570   -1.663430   -0.766370
  H      2.173930    0.696330   -2.122970
  H      3.777070    0.730430   -1.428800
  H      2.383690    0.504920   -0.398890

 Total Charge           Charge          ....    0
 Multiplicity           Mult            ....    1
 Number of Electrons    NEL             ....   40
 Basis Dimension        Dim             ....  209

ORBITAL ENERGIES
----------------

  NO   OCC          E(Eh)            E(eV)
   0   2.0000     -14.381472      -391.3397
   1   2.0000     -10.239296      -278.6254
   2   2.0000     -10.222231      -278.1610
   3   2.0000     -10.210812      -277.8503
   4   2.0000     -10.149935      -276.1938
   5   2.0000      -0.958712       -26.0879
   6   2.0000      -0.802384       -21.8340
   7   2.0000      -0.745303       -20.2807
   8   2.0000      -0.656035       -17.8516
   9   2.0000      -0.581736       -15.8298
  10   2.0000      -0.541641       -14.7388
  11   2.0000      -0.490493       -13.3470
  12   2.0000      -0.450652       -12.2629
  13   2.0000      -0.447379       -12.1738
  14   2.0000      -0.400406       -10.8956
  15   2.0000      -0.393231       -10.7004
  16   2.0000      -0.369009       -10.0412
  17   2.0000      -0.354173        -9.6375
  18   2.0000      -0.333055        -9.0629
  19   2.0000      -0.206432        -5.6173
  20   0.0000       0.032309         0.8792
  21   0.0000       0.043702         1.1892
  22   0.0000       0.082561         2.2466
  23   0.0000       0.086213         2.3460
  24   0.0000       0.097386         2.6500

MULLIKEN ATOMIC CHARGES
-----------------------
   0 C :   -0.188313
   1 C :    0.176603
   2 N :   -0.452959
   3 C :   -0.396179
   4 H :    0.097597
   5 H :    0.079873
   6 H :    0.228159
   7 H :    0.236646
   8 C :   -0.351476
   9 H :    0.112015
  10 H :    0.109617
  11 H :    0.126031
  12 H :    0.096245
  13 H :    0.126142
Sum of atomic charges:    0.0000000

LOEWDIN ATOMIC CHARGES
----------------------
   0 C :   -0.237808
   1 C :   -0.377649
   2 N :   -0.001438
   3 C :   -0.274098
   4 H :    0.107521
   5 H :    0.100894
   6 H :    0.168232
   7 H :    0.175829
   8 C :   -0.295947
   9 H :    0.147661
  10 H :    0.139480
  11 H :    0.120527
  12 H :    0.109372
  13 H :    0.117425

  Mayer bond orders larger than 0.100000
B(  0-C ,  1-C ) :   1.0074 B(  0-C ,  8-C ) :   0.9727 B(  0-C ,  9-H ) :   0.9648
B(  0-C , 10-H ) :   0.9607 B(  1-C ,  2-N ) :   1.1449 B(  1-C ,  3-C ) :   1.8252
B(  2-N ,  6-H ) :   0.9268 B(  2-N ,  7-H ) :   0.9137 B(  3-C ,  4-H ) :   0.9835
B(  3-C ,  5-H ) :   0.9798 B(  8-C , 11-H ) :   0.9722 B(  8-C , 12-H ) :   0.9740
B(  8-C , 13-H ) :   0.9697

Dispersion correction           -0.008917335
FINAL SINGLE POINT ENERGY      -212.383816298756

DIPOLE MOMENT
-------------
                                X             Y             Z
Electronic contribution:      1.75521      -1.71768      -1.41300
Nuclear contribution   :     -1.43372       2.52039       1.57679
                        -----------------------------------------
Total Dipole Moment    :      0.32150       0.80270       0.16379
                        -----------------------------------------
Magnitude (a.u.)       :      0.88007
Magnitude (Debye)      :      2.23695

Rotational constants in cm-1:     0.274962     0.131786     0.102554
Rotational constants in MHz :  8243.150005  3950.846092  3074.493018

                             ****ORCA TERMINATED NORMALLY****
TOTAL RUN TIME: 0 days 0 hours 0 minutes 20 seconds 763 msec
