                         Program Version 5.0.0 -  RELEASE  -
|  1> !PBE0 D3BJ RIJCOSX def2-TZVP def2/J TightSCF
|  2> *xyz 0 1
|  3> C          0.70466        1.44313       -4.50363
|  4> C          1.72854        1.42432       -5.63944
|  5> H          2.64672        1.95379       -5.38105
|  6> H          1.29992        1.93061       -6.50361
|  7> S          2.25263       -0.18811       -6.27184
|  8> O          3.56261       -0.44446       -5.63155
|  9> O          2.34494       -0.03374       -7.69650
| 10> F          1.26606       -1.15918       -5.80536
| 11> H         -0.17385        0.91270       -4.80656
| 12> H          0.44778        2.45562       -4.27173
| 13> H          1.12367        0.97423       -3.63791
| 14> *
| 15>
| 16> %MaxCore 64000
| 17>
| 18> %pal nprocs 4
| 19> end
| 20>
| 21> %scf
| 22>   MaxIter 150
| 23> end
| 24>
| 25>
| 26>                          ****END OF INPUT****

CARTESIAN COORDINATES (ANGSTROEM)
---------------------------------
  C      0.704660    1.443130   -4.503630
  C      1.728540    1.424320   -5.639440
  H      2.646720    1.953790   -5.381050
  H      1.299920    1.930610   -6.503610
  S      2.252630   -0.188110   -6.271840
  O      3.562610   -0.444460   -5.631550
  O      2.344940   -0.033740   -7.696500
  F      1.266060   -1.159180   -5.805360
  H     -0.173850    0.912700   -4.806560
  H      0.447780    2.455620   -4.271730
  H      1.123670    0.974230   -3.637910

 Total Charge           Charge          ....    0
 Multiplicity           Mult            ....    1
 Number of Electrons    NEL             ....   58
 Basis Dimension        Dim             ....  222

ORBITAL ENERGIES
----------------

  NO   OCC          E(Eh)            E(eV)
   0   2.0000     -89.259866     -2428.8844
   1   2.0000     -24.882820      -677.0960
   2   2.0000     -19.220018      -523.0033
   3   2.0000     -19.203949      -522.5660
   4   2.0000     -10.282737      -279.8075
   5   2.0000     -10.245721      -278.8002
   6   2.0000      -8.205953      -223.2953
   7   2.0000      -6.146392      -167.2518
   8   2.0000      -6.140072      -167.0799
   9   2.0000      -6.139627      -167.0678
  10   2.0000      -1.400400       -38.1068
  11   2.0000      -1.134889       -30.8819
  12   2.0000      -1.033951       -28.1352
  13   2.0000      -0.847121       -23.0513
  14   2.0000      -0.749025       -20.3820
  15   2.0000      -0.697675       -18.9847
  16   2.0000      -0.607507       -16.5311
  17   2.0000      -0.593305       -16.1446
  18   2.0000      -0.561535       -15.2802
  19   2.0000      -0.510507       -13.8916
  20   2.0000      -0.489386       -13.3169
  21   2.0000      -0.463856       -12.6222
  22   2.0000      -0.457924       -12.4608
  23   2.0000      -0.425633       -11.5821
  24   2.0000      -0.408625       -11.1193
  25   2.0000      -0.398556       -10.8452
  26   2.0000      -0.348193        -9.4748
  27   2.0000      -0.333651        -9.0791
  28   2.0000      -0.321095        -8.7374
  29   0.0000       0.013304         0.3620
  30   0.0000       0.052012         1.4153
  31   0.0000       0.068887         1.8745
  32   0.0000       0.074346         2.0231
  33   0.0000       0.082616         2.2481

MULLIKEN ATOMIC CHARGES
-----------------------
   0 C :   -0.367288
   1 C :   -0.266113
   2 H :    0.167937
   3 H :    0.155931
   4 S :    0.840916
   5 O :   -0.443815
   6 O :   -0.395643
   7 F :   -0.105343
   8 H :    0.132359
   9 H :    0.139175
  10 H :    0.141885
Sum of atomic charges:    0.0000000

LOEWDIN ATOMIC CHARGES
----------------------
   0 C :   -0.319571
   1 C :   -0.389327
   2 H :    0.149154
   3 H :    0.142970
   4 S :    0.529605
   5 O :   -0.311604
   6 O :   -0.253197
   7 F :    0.078931
   8 H :    0.120931
   9 H :    0.127613
  10 H :    0.124494

  Mayer bond orders larger than 0.100000
B(  0-C ,  1-C ) :   0.9986 B(  0-C ,  8-H ) :   0.9660 B(  0-C ,  9-H ) :   0.9570
B(  0-C , 10-H ) :   0.9660 B(  1-C ,  2-H ) :   0.9365 B(  1-C ,  3-H ) :   0.9377
B(  1-C ,  4-S ) :   0.9101 B(  4-S ,  5-O ) :   1.9045 B(  4-S ,  6-O ) :   1.9576
B(  4-S ,  7-F ) :   1.1289

Dispersion correction           -0.007766375
FINAL SINGLE POINT ENERGY      -727.354044310072

DIPOLE MOMENT
-------------
                                X             Y             Z
Electronic contribution:      2.38965      -7.68225      -4.01035
Nuclear contribution   :     -3.70606       8.55465       4.82350
                        -----------------------------------------
Total Dipole Moment    :     -1.31641       0.87240       0.81315
                        -----------------------------------------
Magnitude (a.u.)       :      1.77630
Magnitude (Debye)      :      4.51498

Rotational constants in cm-1:     0.153201     0.080978     0.077494
Rotational constants in MHz :  4592.852844  2427.650814  2323.207507

                             ****ORCA TERMINATED NORMALLY****
TOTAL RUN TIME: 0 days 0 hours 0 minutes 27 seconds 478 msec
