                         Program Version 5.0.0 -  RELEASE  -
|  1> !PBE0 D3BJ RIJCOSX def2-TZVP def2/J TightSCF xyzfile
|  2>
|  3> *xyzfile 0 1 D3.xyz
|  4>
|  5> %MaxCore 64000
|  6>
|  7> %pal nprocs 18
|  8> end
|  9>
| 10> %scf
| 11>   MaxIter 150
| 12> end
| 13>
| 14>
| 15>                          ****END OF INPUT****

CARTESIAN COORDINATES (ANGSTROEM)
---------------------------------
  C      2.916324   -1.242589   -1.543125
  C      0.704661    1.443129   -4.503630
  C      1.728539    1.424320   -5.639443
  H      2.646718    1.953794   -5.381054
  H      1.299916    1.930613   -6.503614
  S      2.252625   -0.188115   -6.271840
  C      3.466585   -1.590971   -2.889082
  C      4.652275   -1.143164   -3.259692
  N      2.752264   -2.292043   -3.728029
  H      1.778364   -2.489604   -3.512738
  H      2.948612   -2.208544   -4.716813
  H      5.146723   -0.512508   -2.633852
  H      4.783030   -1.007203   -4.253498
  O      3.562607   -0.444464   -5.631552
  F      2.344944   -0.033742   -7.696501
  C      2.804084    0.290698   -1.359243
  C      1.052550    0.695659   -3.214915
  H     -0.232483    1.032925   -4.884449
  H      0.511700    2.495794   -4.267966
  C      2.388380    1.093669   -2.597108
  H      3.763425    0.674718   -0.999889
  H      2.094788    0.461222   -0.545756
  O      1.266058   -1.159177   -5.805365
  H      3.167316    1.013242   -3.359430
  H      2.357690    2.149375   -2.310997
  H      1.039284   -0.368429   -3.449329
  H      0.250787    0.865605   -2.488283
  H      1.940472   -1.716529   -1.441161
  H      3.558569   -1.663433   -0.766371

 Total Charge           Charge          ....    0
 Multiplicity           Mult            ....    1
 Number of Electrons    NEL             ....  112
 Basis Dimension        Dim             ....  505

ORBITAL ENERGIES
----------------

  NO   OCC          E(Eh)            E(eV)
   0   2.0000     -89.273824     -2429.2643
   1   2.0000     -24.905317      -677.7081
   2   2.0000     -19.228119      -523.2237
   3   2.0000     -19.219307      -522.9839
   4   2.0000     -14.354056      -390.5937
   5   2.0000     -10.288496      -279.9642
   6   2.0000     -10.252063      -278.9728
   7   2.0000     -10.221745      -278.1478
   8   2.0000     -10.216648      -278.0091
   9   2.0000     -10.214083      -277.9393
  10   2.0000     -10.211693      -277.8743
  11   2.0000     -10.209387      -277.8115
  12   2.0000     -10.118692      -275.3436
  13   2.0000      -8.220294      -223.6856
  14   2.0000      -6.160481      -167.6352
  15   2.0000      -6.154370      -167.4689
  16   2.0000      -6.154066      -167.4606
  17   2.0000      -1.431905       -38.9641
  18   2.0000      -1.142135       -31.0791
  19   2.0000      -1.043787       -28.4029
  20   2.0000      -0.937748       -25.5174
  21   2.0000      -0.863119       -23.4867
  22   2.0000      -0.818895       -22.2833
  23   2.0000      -0.785703       -21.3801
  24   2.0000      -0.750223       -20.4146
  25   2.0000      -0.719825       -19.5874
  26   2.0000      -0.693749       -18.8779
  27   2.0000      -0.652550       -17.7568
  28   2.0000      -0.620831       -16.8937
  29   2.0000      -0.616090       -16.7647
  30   2.0000      -0.590749       -16.0751
  31   2.0000      -0.580284       -15.7903
  32   2.0000      -0.552535       -15.0352
  33   2.0000      -0.519258       -14.1297
  34   2.0000      -0.510480       -13.8909
  35   2.0000      -0.508221       -13.8294
  36   2.0000      -0.491356       -13.3705
  37   2.0000      -0.483112       -13.1461
  38   2.0000      -0.464102       -12.6289
  39   2.0000      -0.449908       -12.2426
  40   2.0000      -0.439933       -11.9712
  41   2.0000      -0.426236       -11.5985
  42   2.0000      -0.414317       -11.2741
  43   2.0000      -0.397510       -10.8168
  44   2.0000      -0.391496       -10.6531
  45   2.0000      -0.375634       -10.2215
  46   2.0000      -0.370412       -10.0794
  47   2.0000      -0.362508        -9.8644
  48   2.0000      -0.354673        -9.6511
  49   2.0000      -0.346789        -9.4366
  50   2.0000      -0.339289        -9.2325
  51   2.0000      -0.334042        -9.0897
  52   2.0000      -0.326259        -8.8780
  53   2.0000      -0.318068        -8.6551
  54   2.0000      -0.310490        -8.4489
  55   2.0000      -0.173682        -4.7261
  56   0.0000       0.017541         0.4773
  57   0.0000       0.022419         0.6101
  58   0.0000       0.048551         1.3211
  59   0.0000       0.052293         1.4230
  60   0.0000       0.057825         1.5735

MULLIKEN ATOMIC CHARGES
-----------------------
   0 C :   -0.207768
   1 C :   -0.152384
   2 C :   -0.325811
   3 H :    0.176755
   4 H :    0.158035
   5 S :    0.861896
   6 C :    0.102545
   7 C :   -0.405046
   8 N :   -0.389703
   9 H :    0.216668
  10 H :    0.230724
  11 H :    0.084689
  12 H :    0.118699
  13 O :   -0.440492
  14 F :   -0.083984
  15 C :   -0.242577
  16 C :   -0.237044
  17 H :    0.126202
  18 H :    0.119297
  19 C :   -0.139908
  20 H :    0.119468
  21 H :    0.093267
  22 O :   -0.436063
  23 H :    0.124967
  24 H :    0.094647
  25 H :    0.099600
  26 H :    0.104884
  27 H :    0.098888
  28 H :    0.129549
Sum of atomic charges:    0.0000000

LOEWDIN ATOMIC CHARGES
----------------------
   0 C :   -0.219432
   1 C :   -0.279397
   2 C :   -0.369930
   3 H :    0.148744
   4 H :    0.139102
   5 S :    0.539269
   6 C :   -0.392783
   7 C :   -0.291000
   8 N :    0.023134
   9 H :    0.159705
  10 H :    0.163338
  11 H :    0.101757
  12 H :    0.101048
  13 O :   -0.279472
  14 F :    0.110259
  15 C :   -0.255105
  16 C :   -0.270698
  17 H :    0.147005
  18 H :    0.149891
  19 C :   -0.272286
  20 H :    0.140144
  21 H :    0.134359
  22 O :   -0.272457
  23 H :    0.144585
  24 H :    0.134941
  25 H :    0.138443
  26 H :    0.140287
  27 H :    0.135118
  28 H :    0.151426

  Mayer bond orders larger than 0.100000
B(  0-C ,  6-C ) :   0.9620 B(  0-C , 15-C ) :   0.9814 B(  0-C , 27-H ) :   0.9625
B(  0-C , 28-H ) :   0.9638 B(  1-C ,  2-C ) :   0.9914 B(  1-C , 16-C ) :   1.0095
B(  1-C , 17-H ) :   0.9571 B(  1-C , 18-H ) :   0.9398 B(  2-C ,  3-H ) :   0.9359
B(  2-C ,  4-H ) :   0.9355 B(  2-C ,  5-S ) :   0.9118 B(  5-S , 13-O ) :   1.8314
B(  5-S , 14-F ) :   1.1693 B(  5-S , 22-O ) :   1.8747 B(  6-C ,  7-C ) :   1.7327
B(  6-C ,  8-N ) :   1.2323 B(  7-C , 11-H ) :   0.9940 B(  7-C , 12-H ) :   0.9815
B(  8-N ,  9-H ) :   0.9201 B(  8-N , 10-H ) :   0.9044 B( 15-C , 19-C ) :   1.0178
B( 15-C , 20-H ) :   0.9623 B( 15-C , 21-H ) :   0.9569 B( 16-C , 19-C ) :   0.9677
B( 16-C , 25-H ) :   0.9590 B( 16-C , 26-H ) :   0.9512 B( 19-C , 23-H ) :   0.9489
B( 19-C , 24-H ) :   0.9485

Dispersion correction           -0.032492879
FINAL SINGLE POINT ENERGY     -1017.086513131486

DIPOLE MOMENT
-------------
                                X             Y             Z
Electronic contribution:      0.04918      -4.19204     -22.54418
Nuclear contribution   :     -1.50273       5.82595      21.72909
                        -----------------------------------------
Total Dipole Moment    :     -1.45355       1.63391      -0.81510
                        -----------------------------------------
Magnitude (a.u.)       :      2.33385
Magnitude (Debye)      :      5.93217

Rotational constants in cm-1:     0.036883     0.018294     0.014745
Rotational constants in MHz :  1105.724679   548.429785   442.050481

                             ****ORCA TERMINATED NORMALLY****
TOTAL RUN TIME: 0 days 0 hours 0 minutes 55 seconds 515 msec
