                         Program Version 5.0.0 -  RELEASE  -
|  1> !PBE0 D3BJ RIJCOSX def2-TZVP def2/J TightSCF xyzfile
|  2>
|  3> *xyzfile 0 1 D4.xyz
|  4>
|  5> %MaxCore 64000
|  6>
|  7> %pal nprocs 18
|  8> end
|  9>
| 10> %scf
| 11>   MaxIter 150
| 12> end
| 13>
| 14>
| 15>                          ****END OF INPUT****

CARTESIAN COORDINATES (ANGSTROEM)
---------------------------------
  C      2.916324   -1.242589   -1.543125
  C      0.704661    1.443129   -4.503630
  C      1.728539    1.424320   -5.639443
  H      2.646718    1.953794   -5.381054
  H      1.299916    1.930613   -6.503614
  S      2.252625   -0.188115   -6.271840
  C      3.466585   -1.590971   -2.889082
  N      4.652275   -1.143164   -3.259692
  C      2.752264   -2.292043   -3.728029
  H      1.778364   -2.489604   -3.512738
  H      2.948612   -2.208544   -4.716813
  H      5.146723   -0.512508   -2.633852
  H      4.783030   -1.007203   -4.253498
  O      3.562607   -0.444464   -5.631552
  F      2.344944   -0.033742   -7.696501
  C      2.804084    0.290698   -1.359243
  C      1.052550    0.695659   -3.214915
  H     -0.232483    1.032925   -4.884449
  H      0.511700    2.495794   -4.267966
  C      2.388380    1.093669   -2.597108
  H      3.763425    0.674718   -0.999889
  H      2.094788    0.461222   -0.545756
  O      1.266058   -1.159177   -5.805365
  H      3.167316    1.013242   -3.359430
  H      2.357690    2.149375   -2.310997
  H      1.039284   -0.368429   -3.449329
  H      0.250787    0.865605   -2.488283
  H      1.940472   -1.716529   -1.441161
  H      3.558569   -1.663433   -0.766371

 Total Charge           Charge          ....    0
 Multiplicity           Mult            ....    1
 Number of Electrons    NEL             ....  112
 Basis Dimension        Dim             ....  505

ORBITAL ENERGIES
----------------

  NO   OCC          E(Eh)            E(eV)
   0   2.0000     -89.269653     -2429.1508
   1   2.0000     -24.901469      -677.6034
   2   2.0000     -19.219030      -522.9764
   3   2.0000     -19.215882      -522.8907
   4   2.0000     -14.352657      -390.5556
   5   2.0000     -10.285258      -279.8761
   6   2.0000     -10.248169      -278.8669
   7   2.0000     -10.217082      -278.0209
   8   2.0000     -10.215732      -277.9842
   9   2.0000     -10.214797      -277.9588
  10   2.0000     -10.213881      -277.9338
  11   2.0000     -10.207084      -277.7489
  12   2.0000     -10.122536      -275.4482
  13   2.0000      -8.215775      -223.5626
  14   2.0000      -6.155976      -167.5126
  15   2.0000      -6.149773      -167.3438
  16   2.0000      -6.149700      -167.3418
  17   2.0000      -1.427952       -38.8565
  18   2.0000      -1.135042       -30.8861
  19   2.0000      -1.037889       -28.2424
  20   2.0000      -0.933755       -25.4088
  21   2.0000      -0.859502       -23.3882
  22   2.0000      -0.817406       -22.2428
  23   2.0000      -0.780804       -21.2467
  24   2.0000      -0.750349       -20.4180
  25   2.0000      -0.726297       -19.7636
  26   2.0000      -0.691248       -18.8098
  27   2.0000      -0.645103       -17.5542
  28   2.0000      -0.617554       -16.8045
  29   2.0000      -0.611813       -16.6483
  30   2.0000      -0.587867       -15.9967
  31   2.0000      -0.579009       -15.7556
  32   2.0000      -0.550835       -14.9890
  33   2.0000      -0.521910       -14.2019
  34   2.0000      -0.510417       -13.8891
  35   2.0000      -0.506433       -13.7807
  36   2.0000      -0.484067       -13.1721
  37   2.0000      -0.469593       -12.7783
  38   2.0000      -0.464456       -12.6385
  39   2.0000      -0.453675       -12.3451
  40   2.0000      -0.439824       -11.9682
  41   2.0000      -0.420814       -11.4509
  42   2.0000      -0.412529       -11.2255
  43   2.0000      -0.395773       -10.7695
  44   2.0000      -0.389892       -10.6095
  45   2.0000      -0.381305       -10.3758
  46   2.0000      -0.369099       -10.0437
  47   2.0000      -0.361400        -9.8342
  48   2.0000      -0.351441        -9.5632
  49   2.0000      -0.339528        -9.2390
  50   2.0000      -0.334928        -9.1138
  51   2.0000      -0.328822        -8.9477
  52   2.0000      -0.325781        -8.8650
  53   2.0000      -0.315534        -8.5861
  54   2.0000      -0.306345        -8.3361
  55   2.0000      -0.180884        -4.9221
  56   0.0000       0.022084         0.6009
  57   0.0000       0.024862         0.6765
  58   0.0000       0.042949         1.1687
  59   0.0000       0.054032         1.4703
  60   0.0000       0.063020         1.7149

MULLIKEN ATOMIC CHARGES
-----------------------
   0 C :   -0.207169
   1 C :   -0.153187
   2 C :   -0.323318
   3 H :    0.168068
   4 H :    0.157870
   5 S :    0.875250
   6 C :    0.125820
   7 N :   -0.432113
   8 C :   -0.375342
   9 H :    0.086425
  10 H :    0.092179
  11 H :    0.220983
  12 H :    0.249976
  13 O :   -0.468082
  14 F :   -0.085006
  15 C :   -0.266767
  16 C :   -0.240116
  17 H :    0.126442
  18 H :    0.116233
  19 C :   -0.147616
  20 H :    0.115521
  21 H :    0.101461
  22 O :   -0.411232
  23 H :    0.102912
  24 H :    0.095021
  25 H :    0.138661
  26 H :    0.099679
  27 H :    0.120596
  28 H :    0.116848
Sum of atomic charges:    0.0000000

LOEWDIN ATOMIC CHARGES
----------------------
   0 C :   -0.220833
   1 C :   -0.279902
   2 C :   -0.371453
   3 H :    0.145738
   4 H :    0.138715
   5 S :    0.547224
   6 C :   -0.392905
   7 N :    0.000749
   8 C :   -0.275369
   9 H :    0.101522
  10 H :    0.096549
  11 H :    0.163637
  12 H :    0.168113
  13 O :   -0.297751
  14 F :    0.109481
  15 C :   -0.264168
  16 C :   -0.268914
  17 H :    0.147883
  18 H :    0.148470
  19 C :   -0.273502
  20 H :    0.134119
  21 H :    0.137522
  22 O :   -0.246362
  23 H :    0.137457
  24 H :    0.134896
  25 H :    0.149648
  26 H :    0.139351
  27 H :    0.148903
  28 H :    0.141184

  Mayer bond orders larger than 0.100000
B(  0-C ,  6-C ) :   0.9990 B(  0-C , 15-C ) :   0.9577 B(  0-C , 27-H ) :   0.9636
B(  0-C , 28-H ) :   0.9672 B(  1-C ,  2-C ) :   0.9902 B(  1-C , 16-C ) :   1.0041
B(  1-C , 17-H ) :   0.9564 B(  1-C , 18-H ) :   0.9395 B(  2-C ,  3-H ) :   0.9370
B(  2-C ,  4-H ) :   0.9367 B(  2-C ,  5-S ) :   0.9125 B(  5-S , 13-O ) :   1.8147
B(  5-S , 14-F ) :   1.1663 B(  5-S , 22-O ) :   1.9090 B(  6-C ,  7-N ) :   1.1629
B(  6-C ,  8-C ) :   1.7683 B(  7-N , 11-H ) :   0.9288 B(  7-N , 12-H ) :   0.9004
B(  8-C ,  9-H ) :   0.9929 B(  8-C , 10-H ) :   1.0000 B( 15-C , 19-C ) :   0.9952
B( 15-C , 20-H ) :   0.9730 B( 15-C , 21-H ) :   0.9548 B( 16-C , 19-C ) :   0.9608
B( 16-C , 25-H ) :   0.9614 B( 16-C , 26-H ) :   0.9504 B( 19-C , 23-H ) :   0.9536
B( 19-C , 24-H ) :   0.9509

Dispersion correction           -0.032541314
FINAL SINGLE POINT ENERGY     -1017.089211736031

DIPOLE MOMENT
-------------
                                X             Y             Z
Electronic contribution:      1.36649      -3.47197     -22.22484
Nuclear contribution   :     -1.74760       5.67788      21.66873
                        -----------------------------------------
Total Dipole Moment    :     -0.38111       2.20591      -0.55611
                        -----------------------------------------
Magnitude (a.u.)       :      2.30663
Magnitude (Debye)      :      5.86298

Rotational constants in cm-1:     0.036818     0.018222     0.014682
Rotational constants in MHz :  1103.783048   546.296792   440.157914

                             ****ORCA TERMINATED NORMALLY****
TOTAL RUN TIME: 0 days 0 hours 0 minutes 57 seconds 218 msec
