                         Program Version 5.0.0 -  RELEASE  -
|  1> !PBE0 D3BJ RIJCOSX def2-TZVP def2/J TightSCF xyzfile
|  2>
|  3> *xyzfile 0 1 D5.xyz
|  4>
|  5> %MaxCore 64000
|  6>
|  7> %pal nprocs 18
|  8> end
|  9>
| 10> %scf
| 11>   MaxIter 150
| 12> end
| 13>
| 14>
| 15>                          ****END OF INPUT****

CARTESIAN COORDINATES (ANGSTROEM)
---------------------------------
  C      2.916324   -1.242589   -1.543125
  C      0.704661    1.443129   -4.503630
  C      1.728539    1.424320   -5.639443
  H      2.646718    1.953794   -5.381054
  H      1.299916    1.930613   -6.503614
  S      2.252625   -0.188115   -6.271840
  C      3.466585   -1.590971   -2.889082
  C      4.652275   -1.143164   -3.259692
  N      2.752264   -2.292043   -3.728029
  H      1.778364   -2.489604   -3.512738
  H      2.948612   -2.208544   -4.716813
  H      5.146723   -0.512508   -2.633852
  H      4.783030   -1.007203   -4.253498
  O      3.562607   -0.444464   -5.631552
  O      2.344944   -0.033742   -7.696501
  C      2.804084    0.290698   -1.359243
  C      1.052550    0.695659   -3.214915
  H     -0.232483    1.032925   -4.884449
  H      0.511700    2.495794   -4.267966
  C      2.388380    1.093669   -2.597108
  H      3.763425    0.674718   -0.999889
  H      2.094788    0.461222   -0.545756
  F      1.266058   -1.159177   -5.805365
  H      3.167316    1.013242   -3.359430
  H      2.357690    2.149375   -2.310997
  H      1.039284   -0.368429   -3.449329
  H      0.250787    0.865605   -2.488283
  H      1.940472   -1.716529   -1.441161
  H      3.558569   -1.663433   -0.766371

 Total Charge           Charge          ....    0
 Multiplicity           Mult            ....    1
 Number of Electrons    NEL             ....  112
 Basis Dimension        Dim             ....  505

ORBITAL ENERGIES
----------------

  NO   OCC          E(Eh)            E(eV)
   0   2.0000     -89.269597     -2429.1492
   1   2.0000     -24.895240      -677.4339
   2   2.0000     -19.229185      -523.2527
   3   2.0000     -19.216226      -522.9001
   4   2.0000     -14.371981      -391.0815
   5   2.0000     -10.285960      -279.8952
   6   2.0000     -10.256902      -279.1045
   7   2.0000     -10.234121      -278.4846
   8   2.0000     -10.226800      -278.2854
   9   2.0000     -10.221804      -278.1494
  10   2.0000     -10.219844      -278.0961
  11   2.0000     -10.218600      -278.0622
  12   2.0000     -10.128615      -275.6136
  13   2.0000      -8.216139      -223.5725
  14   2.0000      -6.156599      -167.5296
  15   2.0000      -6.150043      -167.3512
  16   2.0000      -6.149823      -167.3452
  17   2.0000      -1.414145       -38.4808
  18   2.0000      -1.146159       -31.1886
  19   2.0000      -1.048680       -28.5360
  20   2.0000      -0.953550       -25.9474
  21   2.0000      -0.868387       -23.6300
  22   2.0000      -0.824749       -22.4426
  23   2.0000      -0.785938       -21.3865
  24   2.0000      -0.750001       -20.4086
  25   2.0000      -0.727149       -19.7867
  26   2.0000      -0.700355       -19.0576
  27   2.0000      -0.658163       -17.9095
  28   2.0000      -0.621037       -16.8993
  29   2.0000      -0.611737       -16.6462
  30   2.0000      -0.596836       -16.2407
  31   2.0000      -0.575346       -15.6559
  32   2.0000      -0.562111       -15.2958
  33   2.0000      -0.527337       -14.3496
  34   2.0000      -0.513412       -13.9707
  35   2.0000      -0.508886       -13.8475
  36   2.0000      -0.492581       -13.4038
  37   2.0000      -0.486079       -13.2269
  38   2.0000      -0.472022       -12.8444
  39   2.0000      -0.462397       -12.5825
  40   2.0000      -0.446292       -12.1442
  41   2.0000      -0.431698       -11.7471
  42   2.0000      -0.417294       -11.3551
  43   2.0000      -0.401741       -10.9319
  44   2.0000      -0.401107       -10.9147
  45   2.0000      -0.389703       -10.6044
  46   2.0000      -0.382811       -10.4168
  47   2.0000      -0.365687        -9.9508
  48   2.0000      -0.362182        -9.8555
  49   2.0000      -0.353001        -9.6057
  50   2.0000      -0.345068        -9.3898
  51   2.0000      -0.339845        -9.2476
  52   2.0000      -0.333481        -9.0745
  53   2.0000      -0.322225        -8.7682
  54   2.0000      -0.318745        -8.6735
  55   2.0000      -0.185870        -5.0578
  56   0.0000       0.006164         0.1677
  57   0.0000       0.033505         0.9117
  58   0.0000       0.039125         1.0646
  59   0.0000       0.048511         1.3201
  60   0.0000       0.054307         1.4778

MULLIKEN ATOMIC CHARGES
-----------------------
   0 C :   -0.205869
   1 C :   -0.196492
   2 C :   -0.302359
   3 H :    0.177464
   4 H :    0.175837
   5 S :    0.853955
   6 C :    0.097056
   7 C :   -0.383575
   8 N :   -0.415625
   9 H :    0.214880
  10 H :    0.222888
  11 H :    0.088408
  12 H :    0.127627
  13 O :   -0.442206
  14 O :   -0.396637
  15 C :   -0.248519
  16 C :   -0.239192
  17 H :    0.131148
  18 H :    0.120870
  19 C :   -0.128321
  20 H :    0.123348
  21 H :    0.096125
  22 F :   -0.111574
  23 H :    0.128812
  24 H :    0.101327
  25 H :    0.065517
  26 H :    0.112530
  27 H :    0.098203
  28 H :    0.134375
Sum of atomic charges:   -0.0000000

LOEWDIN ATOMIC CHARGES
----------------------
   0 C :   -0.219664
   1 C :   -0.291109
   2 C :   -0.360951
   3 H :    0.152770
   4 H :    0.147811
   5 S :    0.540349
   6 C :   -0.393998
   7 C :   -0.275741
   8 N :    0.010651
   9 H :    0.155881
  10 H :    0.158530
  11 H :    0.103444
  12 H :    0.103373
  13 O :   -0.278895
  14 O :   -0.245524
  15 C :   -0.254479
  16 C :   -0.275101
  17 H :    0.142588
  18 H :    0.149945
  19 C :   -0.270875
  20 H :    0.141392
  21 H :    0.135103
  22 F :    0.082874
  23 H :    0.146186
  24 H :    0.137306
  25 H :    0.128918
  26 H :    0.141812
  27 H :    0.134565
  28 H :    0.152838

  Mayer bond orders larger than 0.100000
B(  0-C ,  6-C ) :   0.9606 B(  0-C , 15-C ) :   0.9800 B(  0-C , 27-H ) :   0.9629
B(  0-C , 28-H ) :   0.9634 B(  1-C ,  2-C ) :   0.9929 B(  1-C , 16-C ) :   0.9870
B(  1-C , 17-H ) :   0.9683 B(  1-C , 18-H ) :   0.9395 B(  2-C ,  3-H ) :   0.9368
B(  2-C ,  4-H ) :   0.9363 B(  2-C ,  5-S ) :   0.9141 B(  5-S , 13-O ) :   1.8124
B(  5-S , 14-O ) :   1.9954 B(  5-S , 22-F ) :   1.1076 B(  6-C ,  7-C ) :   1.7537
B(  6-C ,  8-N ) :   1.1937 B(  7-C , 11-H ) :   0.9934 B(  7-C , 12-H ) :   0.9782
B(  8-N ,  9-H ) :   0.9213 B(  8-N , 10-H ) :   0.9030 B( 15-C , 19-C ) :   1.0134
B( 15-C , 20-H ) :   0.9620 B( 15-C , 21-H ) :   0.9575 B( 16-C , 19-C ) :   0.9476
B( 16-C , 25-H ) :   0.9722 B( 16-C , 26-H ) :   0.9504 B( 19-C , 23-H ) :   0.9486
B( 19-C , 24-H ) :   0.9479

Dispersion correction           -0.032227404
FINAL SINGLE POINT ENERGY     -1017.091503108707

DIPOLE MOMENT
-------------
                                X             Y             Z
Electronic contribution:     -1.72044      -6.09485     -19.04135
Nuclear contribution   :     -0.26930       7.11259      19.56706
                        -----------------------------------------
Total Dipole Moment    :     -1.98975       1.01774       0.52571
                        -----------------------------------------
Magnitude (a.u.)       :      2.29592
Magnitude (Debye)      :      5.83577

Rotational constants in cm-1:     0.036519     0.018683     0.015073
Rotational constants in MHz :  1094.801738   560.111127   451.890222

                             ****ORCA TERMINATED NORMALLY****
TOTAL RUN TIME: 0 days 0 hours 0 minutes 57 seconds 983 msec
