                         Program Version 5.0.0 -  RELEASE  -
|  1> !PBE0 D3BJ RIJCOSX def2-TZVP def2/J TightSCF xyzfile
|  2>
|  3> *xyzfile 0 1 D6.xyz
|  4>
|  5> %MaxCore 64000
|  6>
|  7> %pal nprocs 18
|  8> end
|  9>
| 10> %scf
| 11>   MaxIter 150
| 12> end
| 13>
| 14>
| 15>                          ****END OF INPUT****

CARTESIAN COORDINATES (ANGSTROEM)
---------------------------------
  C      2.916324   -1.242589   -1.543125
  C      0.704661    1.443129   -4.503630
  C      1.728539    1.424320   -5.639443
  H      2.646718    1.953794   -5.381054
  H      1.299916    1.930613   -6.503614
  S      2.252625   -0.188115   -6.271840
  C      3.466585   -1.590971   -2.889082
  N      4.652275   -1.143164   -3.259692
  C      2.752264   -2.292043   -3.728029
  H      1.778364   -2.489604   -3.512738
  H      2.948612   -2.208544   -4.716813
  H      5.146723   -0.512508   -2.633852
  H      4.783030   -1.007203   -4.253498
  O      3.562607   -0.444464   -5.631552
  O      2.344944   -0.033742   -7.696501
  C      2.804084    0.290698   -1.359243
  C      1.052550    0.695659   -3.214915
  H     -0.232483    1.032925   -4.884449
  H      0.511700    2.495794   -4.267966
  C      2.388380    1.093669   -2.597108
  H      3.763425    0.674718   -0.999889
  H      2.094788    0.461222   -0.545756
  F      1.266058   -1.159177   -5.805365
  H      3.167316    1.013242   -3.359430
  H      2.357690    2.149375   -2.310997
  H      1.039284   -0.368429   -3.449329
  H      0.250787    0.865605   -2.488283
  H      1.940472   -1.716529   -1.441161
  H      3.558569   -1.663433   -0.766371

 Total Charge           Charge          ....    0
 Multiplicity           Mult            ....    1
 Number of Electrons    NEL             ....  112
 Basis Dimension        Dim             ....  505

ORBITAL ENERGIES
----------------

  NO   OCC          E(Eh)            E(eV)
   0   2.0000     -89.266613     -2429.0680
   1   2.0000     -24.884378      -677.1384
   2   2.0000     -19.225419      -523.1503
   3   2.0000     -19.212310      -522.7935
   4   2.0000     -14.362397      -390.8207
   5   2.0000     -10.283084      -279.8169
   6   2.0000     -10.253148      -279.0023
   7   2.0000     -10.228854      -278.3413
   8   2.0000     -10.227984      -278.3176
   9   2.0000     -10.225903      -278.2610
  10   2.0000     -10.223286      -278.1898
  11   2.0000     -10.217636      -278.0360
  12   2.0000     -10.138653      -275.8868
  13   2.0000      -8.212668      -223.4781
  14   2.0000      -6.153006      -167.4318
  15   2.0000      -6.146798      -167.2629
  16   2.0000      -6.146437      -167.2531
  17   2.0000      -1.403007       -38.1777
  18   2.0000      -1.141939       -31.0737
  19   2.0000      -1.044924       -28.4338
  20   2.0000      -0.944237       -25.6940
  21   2.0000      -0.865073       -23.5398
  22   2.0000      -0.823193       -22.4002
  23   2.0000      -0.780585       -21.2408
  24   2.0000      -0.753156       -20.4944
  25   2.0000      -0.729067       -19.8389
  26   2.0000      -0.698302       -19.0018
  27   2.0000      -0.650414       -17.6987
  28   2.0000      -0.615348       -16.7445
  29   2.0000      -0.600963       -16.3530
  30   2.0000      -0.591767       -16.1028
  31   2.0000      -0.577318       -15.7096
  32   2.0000      -0.557906       -15.1814
  33   2.0000      -0.524362       -14.2686
  34   2.0000      -0.509788       -13.8720
  35   2.0000      -0.506261       -13.7761
  36   2.0000      -0.489476       -13.3193
  37   2.0000      -0.480302       -13.0697
  38   2.0000      -0.471516       -12.8306
  39   2.0000      -0.456333       -12.4175
  40   2.0000      -0.452418       -12.3109
  41   2.0000      -0.428936       -11.6719
  42   2.0000      -0.418027       -11.3751
  43   2.0000      -0.407366       -11.0850
  44   2.0000      -0.397404       -10.8139
  45   2.0000      -0.394794       -10.7429
  46   2.0000      -0.377731       -10.2786
  47   2.0000      -0.371793       -10.1170
  48   2.0000      -0.361308        -9.8317
  49   2.0000      -0.347489        -9.4557
  50   2.0000      -0.342856        -9.3296
  51   2.0000      -0.335581        -9.1316
  52   2.0000      -0.334746        -9.1089
  53   2.0000      -0.318095        -8.6558
  54   2.0000      -0.317699        -8.6450
  55   2.0000      -0.195078        -5.3083
  56   0.0000       0.011224         0.3054
  57   0.0000       0.033437         0.9099
  58   0.0000       0.041639         1.1330
  59   0.0000       0.052443         1.4271
  60   0.0000       0.057724         1.5708

MULLIKEN ATOMIC CHARGES
-----------------------
   0 C :   -0.202653
   1 C :   -0.196582
   2 C :   -0.302316
   3 H :    0.169718
   4 H :    0.175939
   5 S :    0.884011
   6 C :    0.136166
   7 N :   -0.422501
   8 C :   -0.419326
   9 H :    0.091596
  10 H :    0.086957
  11 H :    0.223975
  12 H :    0.258110
  13 O :   -0.471503
  14 O :   -0.400688
  15 C :   -0.272817
  16 C :   -0.242005
  17 H :    0.131746
  18 H :    0.117965
  19 C :   -0.141825
  20 H :    0.119959
  21 H :    0.104727
  22 F :   -0.098163
  23 H :    0.108514
  24 H :    0.101575
  25 H :    0.109125
  26 H :    0.106922
  27 H :    0.120846
  28 H :    0.122528
Sum of atomic charges:   -0.0000000

LOEWDIN ATOMIC CHARGES
----------------------
   0 C :   -0.218631
   1 C :   -0.291359
   2 C :   -0.361931
   3 H :    0.150082
   4 H :    0.147506
   5 S :    0.554424
   6 C :   -0.386957
   7 N :    0.009045
   8 C :   -0.292151
   9 H :    0.098229
  10 H :    0.091776
  11 H :    0.165632
  12 H :    0.170881
  13 O :   -0.297275
  14 O :   -0.247049
  15 C :   -0.262875
  16 C :   -0.273609
  17 H :    0.143601
  18 H :    0.148515
  19 C :   -0.272143
  20 H :    0.135609
  21 H :    0.138506
  22 F :    0.099805
  23 H :    0.139198
  24 H :    0.137289
  25 H :    0.140989
  26 H :    0.140741
  27 H :    0.148739
  28 H :    0.143412

  Mayer bond orders larger than 0.100000
B(  0-C ,  6-C ) :   0.9958 B(  0-C , 15-C ) :   0.9574 B(  0-C , 27-H ) :   0.9644
B(  0-C , 28-H ) :   0.9648 B(  1-C ,  2-C ) :   0.9912 B(  1-C , 16-C ) :   0.9816
B(  1-C , 17-H ) :   0.9675 B(  1-C , 18-H ) :   0.9396 B(  2-C ,  3-H ) :   0.9385
B(  2-C ,  4-H ) :   0.9373 B(  2-C ,  5-S ) :   0.9172 B(  5-S , 13-O ) :   1.7915
B(  5-S , 14-O ) :   1.9935 B(  5-S , 22-F ) :   1.1330 B(  6-C ,  7-N ) :   1.1847
B(  6-C ,  8-C ) :   1.7505 B(  7-N , 11-H ) :   0.9265 B(  7-N , 12-H ) :   0.8953
B(  8-C ,  9-H ) :   0.9977 B(  8-C , 10-H ) :   0.9969 B( 15-C , 19-C ) :   0.9914
B( 15-C , 20-H ) :   0.9726 B( 15-C , 21-H ) :   0.9551 B( 16-C , 19-C ) :   0.9437
B( 16-C , 25-H ) :   0.9766 B( 16-C , 26-H ) :   0.9499 B( 19-C , 23-H ) :   0.9540
B( 19-C , 24-H ) :   0.9503

Dispersion correction           -0.032271020
FINAL SINGLE POINT ENERGY     -1017.100960040219

DIPOLE MOMENT
-------------
                                X             Y             Z
Electronic contribution:     -0.40565      -5.35363     -18.68797
Nuclear contribution   :     -0.51418       6.96452      19.50670
                        -----------------------------------------
Total Dipole Moment    :     -0.91983       1.61089       0.81874
                        -----------------------------------------
Magnitude (a.u.)       :      2.02765
Magnitude (Debye)      :      5.15389

Rotational constants in cm-1:     0.036455     0.018603     0.015008
Rotational constants in MHz :  1092.895336   557.693628   449.926016

                             ****ORCA TERMINATED NORMALLY****
TOTAL RUN TIME: 0 days 0 hours 0 minutes 48 seconds 728 msec
