                         Program Version 5.0.0 -  RELEASE  -
|  1> !PBE D3BJ RIJCOSX def2-SVP def2/J TightSCF
|  2> *xyz -1 1
|  3> C          0.96805        1.63064       -3.71575
|  4> C         -0.50835        1.72268       -4.12430
|  5> S         -1.32861        0.14674       -4.43578
|  6> H         -0.59151        2.29496       -5.04722
|  7> H         -1.11411        2.23561       -3.37436
|  8> O         -2.57135        0.47573       -5.06834
|  9> O         -1.51496       -0.40051       -3.06342
| 10> O         -0.37793       -0.62756       -5.20114
| 11> H          1.51840        1.12197       -4.47946
| 12> H          1.05062        1.08971       -2.79625
| 13> H          1.36450        2.61606       -3.58668
| 14> *
| 15> %MaxCore 64000
| 16>
| 17> %pal nprocs 4
| 18> end
| 19>
| 20> %scf
| 21>   MaxIter 150
| 22> end
| 23>
| 24>
| 25>                          ****END OF INPUT****

CARTESIAN COORDINATES (ANGSTROEM)
---------------------------------
  C      0.968050    1.630640   -3.715750
  C     -0.508350    1.722680   -4.124300
  S     -1.328610    0.146740   -4.435780
  H     -0.591510    2.294960   -5.047220
  H     -1.114110    2.235610   -3.374360
  O     -2.571350    0.475730   -5.068340
  O     -1.514960   -0.400510   -3.063420
  O     -0.377930   -0.627560   -5.201140
  H      1.518400    1.121970   -4.479460
  H      1.050620    1.089710   -2.796250
  H      1.364500    2.616060   -3.586680

 Total Charge           Charge          ....   -1
 Multiplicity           Mult            ....    1
 Number of Electrons    NEL             ....   58
 Basis Dimension        Dim             ....  113

ORBITAL ENERGIES
----------------

  NO   OCC          E(Eh)            E(eV)
   0   2.0000     -88.008900     -2394.8439
   1   2.0000     -18.508697      -503.6473
   2   2.0000     -18.505695      -503.5656
   3   2.0000     -18.487615      -503.0736
   4   2.0000      -9.739761      -265.0324
   5   2.0000      -9.732324      -264.8300
   6   2.0000      -7.620513      -207.3647
   7   2.0000      -5.647055      -153.6642
   8   2.0000      -5.646761      -153.6562
   9   2.0000      -5.646586      -153.6514
  10   2.0000      -0.809210       -22.0197
  11   2.0000      -0.677280       -18.4297
  12   2.0000      -0.645266       -17.5586
  13   2.0000      -0.535643       -14.5756
  14   2.0000      -0.419764       -11.4224
  15   2.0000      -0.296662        -8.0726
  16   2.0000      -0.250085        -6.8051
  17   2.0000      -0.237656        -6.4669
  18   2.0000      -0.205750        -5.5988
  19   2.0000      -0.184490        -5.0202
  20   2.0000      -0.181798        -4.9470
  21   2.0000      -0.162102        -4.4110
  22   2.0000      -0.149337        -4.0637
  23   2.0000      -0.068979        -1.8770
  24   2.0000      -0.068221        -1.8564
  25   2.0000      -0.040818        -1.1107
  26   2.0000      -0.034995        -0.9523
  27   2.0000      -0.016759        -0.4560
  28   2.0000       0.016208         0.4410
  29   0.0000       0.186647         5.0789
  30   0.0000       0.236446         6.4340
  31   0.0000       0.241508         6.5718
  32   0.0000       0.247693         6.7401
  33   0.0000       0.274352         7.4655

MULLIKEN ATOMIC CHARGES
-----------------------
   0 C :    0.023416
   1 C :   -0.104570
   2 S :    0.738081
   3 H :   -0.015757
   4 H :   -0.003660
   5 O :   -0.510631
   6 O :   -0.574976
   7 O :   -0.523077
   8 H :    0.004184
   9 H :    0.001846
  10 H :   -0.034854
Sum of atomic charges:   -1.0000000

LOEWDIN ATOMIC CHARGES
----------------------
   0 C :   -0.081460
   1 C :   -0.200514
   2 S :    1.024634
   3 H :   -0.001065
   4 H :    0.005776
   5 O :   -0.567290
   6 O :   -0.631047
   7 O :   -0.578884
   8 H :    0.014560
   9 H :    0.014458
  10 H :    0.000832

  Mayer bond orders larger than 0.100000
B(  0-C ,  1-C ) :   1.0715 B(  0-C ,  8-H ) :   0.9601 B(  0-C ,  9-H ) :   0.9612
B(  0-C , 10-H ) :   0.9535 B(  1-C ,  2-S ) :   0.8643 B(  1-C ,  3-H ) :   0.9288
B(  1-C ,  4-H ) :   0.9349 B(  2-S ,  5-O ) :   1.6614 B(  2-S ,  6-O ) :   1.5918
B(  2-S ,  7-O ) :   1.6374

Dispersion correction           -0.009650386
FINAL SINGLE POINT ENERGY      -702.222374695132

DIPOLE MOMENT
-------------
                                X             Y             Z
Electronic contribution:     -5.78470      -5.55953      -1.99121
Nuclear contribution   :      6.64523       6.80157       2.07300
                        -----------------------------------------
Total Dipole Moment    :      0.86053       1.24204       0.08179
                        -----------------------------------------
Magnitude (a.u.)       :      1.51323
Magnitude (Debye)      :      3.84633

Rotational constants in cm-1:     0.163070     0.082807     0.081541
Rotational constants in MHz :  4888.719902  2482.497026  2444.541148

                             ****ORCA TERMINATED NORMALLY****
TOTAL RUN TIME: 0 days 0 hours 0 minutes 8 seconds 209 msec
