                         Program Version 5.0.0 -  RELEASE  -
|  1> !PBE D3BJ RIJCOSX def2-SVP def2/J TightSCF
|  2> *xyz 1 1
|  3> C          1.36401        0.46874       -2.81376
|  4> N          0.42884        0.32140       -1.65531
|  5> C          0.96805        1.63064       -3.71575
|  6> H          0.74858       -0.40054       -1.00134
|  7> H         -0.46105        0.02333       -2.07773
|  8> H          0.31026        1.20137       -1.13495
|  9> H          1.29485       -0.46874       -3.36468
| 10> H          2.37622        0.59740       -2.43149
| 11> H          1.65923        1.70213       -4.52942
| 12> H          0.98421        2.54058       -3.15304
| 13> H         -0.01744        1.46536       -4.09838
| 14> *
| 15> %MaxCore 64000
| 16>
| 17> %pal nprocs 4
| 18> end
| 19>
| 20> %scf
| 21>   MaxIter 150
| 22> end
| 23>
| 24>
| 25>                          ****END OF INPUT****

CARTESIAN COORDINATES (ANGSTROEM)
---------------------------------
  C      1.364010    0.468740   -2.813760
  N      0.428840    0.321400   -1.655310
  C      0.968050    1.630640   -3.715750
  H      0.748580   -0.400540   -1.001340
  H     -0.461050    0.023330   -2.077730
  H      0.310260    1.201370   -1.134950
  H      1.294850   -0.468740   -3.364680
  H      2.376220    0.597400   -2.431490
  H      1.659230    1.702130   -4.529420
  H      0.984210    2.540580   -3.153040
  H     -0.017440    1.465360   -4.098380

 Total Charge           Charge          ....    1
 Multiplicity           Mult            ....    1
 Number of Electrons    NEL             ....   26
 Basis Dimension        Dim             ....   82

ORBITAL ENERGIES
----------------

  NO   OCC          E(Eh)            E(eV)
   0   2.0000     -14.336134      -390.1061
   1   2.0000     -10.149265      -276.1755
   2   2.0000     -10.072981      -274.0998
   3   2.0000      -1.130140       -30.7527
   4   2.0000      -0.891287       -24.2531
   5   2.0000      -0.780092       -21.2274
   6   2.0000      -0.754431       -20.5291
   7   2.0000      -0.737611       -20.0714
   8   2.0000      -0.647764       -17.6266
   9   2.0000      -0.596208       -16.2236
  10   2.0000      -0.540876       -14.7180
  11   2.0000      -0.524308       -14.2671
  12   2.0000      -0.508542       -13.8381
  13   0.0000      -0.208808        -5.6820
  14   0.0000      -0.151260        -4.1160
  15   0.0000      -0.147197        -4.0054
  16   0.0000      -0.115379        -3.1396
  17   0.0000      -0.086292        -2.3481

MULLIKEN ATOMIC CHARGES
-----------------------
   0 C :   -0.070937
   1 N :    0.030428
   2 C :   -0.040901
   3 H :    0.213530
   4 H :    0.211013
   5 H :    0.209655
   6 H :    0.104182
   7 H :    0.110081
   8 H :    0.102680
   9 H :    0.067259
  10 H :    0.063009
Sum of atomic charges:    1.0000000

LOEWDIN ATOMIC CHARGES
----------------------
   0 C :    0.043017
   1 N :    0.302972
   2 C :   -0.046017
   3 H :    0.145675
   4 H :    0.145301
   5 H :    0.142594
   6 H :    0.056278
   7 H :    0.056787
   8 H :    0.068596
   9 H :    0.042961
  10 H :    0.041836

  Mayer bond orders larger than 0.100000
B(  0-C ,  1-N ) :   0.9406 B(  0-C ,  2-C ) :   1.1194 B(  0-C ,  6-H ) :   0.9448
B(  0-C ,  7-H ) :   0.9451 B(  1-N ,  3-H ) :   0.9305 B(  1-N ,  4-H ) :   0.9376
B(  1-N ,  5-H ) :   0.9309 B(  2-C ,  8-H ) :   0.9494 B(  2-C ,  9-H ) :   0.9637
B(  2-C , 10-H ) :   0.9640

Dispersion correction           -0.006168329
FINAL SINGLE POINT ENERGY      -135.247184936475

DIPOLE MOMENT
-------------
                                X             Y             Z
Electronic contribution:     -0.37365      -0.95718       1.60795
Nuclear contribution   :     -0.20470       0.31427      -0.31587
                        -----------------------------------------
Total Dipole Moment    :     -0.57835      -0.64291       1.29208
                        -----------------------------------------
Magnitude (a.u.)       :      1.55477
Magnitude (Debye)      :      3.95190

Rotational constants in cm-1:     1.011480     0.279280     0.248378
Rotational constants in MHz : 30323.408050  8372.602834  7446.185305

                             ****ORCA TERMINATED NORMALLY****
TOTAL RUN TIME: 0 days 0 hours 0 minutes 5 seconds 865 msec
