                         Program Version 5.0.0 -  RELEASE  -
|  1> !PBE D3BJ RIJCOSX def2-TZVP def2/J TightSCF xyzfile
|  2>
|  3> *xyzfile 0 1 B.xyz
|  4>
|  5> %MaxCore 64000
|  6>
|  7> %pal nprocs 18
|  8> end
|  9>
| 10> %scf
| 11>   MaxIter 150
| 12> end
| 13>
| 14>
| 15>                          ****END OF INPUT****

CARTESIAN COORDINATES (ANGSTROEM)
---------------------------------
  C      1.364014    0.468742   -2.813764
  N      0.428844    0.321402   -1.655312
  C      0.968045    1.630639   -3.715749
  C     -0.508347    1.722679   -4.124300
  S     -1.328608    0.146737   -4.435781
  H     -0.591511    2.294958   -5.047219
  H     -1.114114    2.235610   -3.374362
  H      0.748578   -0.400542   -1.001345
  H     -0.461053    0.023332   -2.077731
  H      0.310258    1.201375   -1.134948
  O     -2.571347    0.475733   -5.068341
  O     -1.514963   -0.400512   -3.063420
  H      1.294847   -0.468742   -3.364684
  H      2.376216    0.597400   -2.431495
  H      1.578688    1.520652   -4.612733
  H      1.266653    2.575988   -3.250448
  O     -0.377928   -0.627558   -5.201141

 Total Charge           Charge          ....    0
 Multiplicity           Mult            ....    1
 Number of Electrons    NEL             ....   74
 Basis Dimension        Dim             ....  308

ORBITAL ENERGIES
----------------

  NO   OCC          E(Eh)            E(eV)
   0   2.0000     -88.173750     -2399.3297
   1   2.0000     -18.702050      -508.9086
   2   2.0000     -18.685863      -508.4682
   3   2.0000     -18.683789      -508.4117
   4   2.0000     -14.114645      -384.0790
   5   2.0000      -9.969464      -271.2829
   6   2.0000      -9.921709      -269.9834
   7   2.0000      -9.898404      -269.3493
   8   2.0000      -7.769034      -211.4062
   9   2.0000      -5.790374      -157.5641
  10   2.0000      -5.789250      -157.5335
  11   2.0000      -5.787816      -157.4945
  12   2.0000      -1.000111       -27.2144
  13   2.0000      -0.948825       -25.8188
  14   2.0000      -0.867787       -23.6137
  15   2.0000      -0.865962       -23.5640
  16   2.0000      -0.751609       -20.4523
  17   2.0000      -0.669710       -18.2237
  18   2.0000      -0.591618       -16.0987
  19   2.0000      -0.566889       -15.4258
  20   2.0000      -0.559092       -15.2137
  21   2.0000      -0.488695       -13.2981
  22   2.0000      -0.471795       -12.8382
  23   2.0000      -0.437568       -11.9068
  24   2.0000      -0.420275       -11.4363
  25   2.0000      -0.406739       -11.0679
  26   2.0000      -0.376376       -10.2417
  27   2.0000      -0.367771       -10.0076
  28   2.0000      -0.356021        -9.6878
  29   2.0000      -0.344776        -9.3818
  30   2.0000      -0.330591        -8.9958
  31   2.0000      -0.272010        -7.4018
  32   2.0000      -0.263618        -7.1734
  33   2.0000      -0.238692        -6.4951
  34   2.0000      -0.227122        -6.1803
  35   2.0000      -0.223357        -6.0778
  36   2.0000      -0.187730        -5.1084
  37   0.0000      -0.059227        -1.6117
  38   0.0000      -0.010792        -0.2937
  39   0.0000       0.005571         0.1516
  40   0.0000       0.036140         0.9834
  41   0.0000       0.042770         1.1638

MULLIKEN ATOMIC CHARGES
-----------------------
   0 C :   -0.225660
   1 N :   -0.252219
   2 C :   -0.196150
   3 C :   -0.317901
   4 S :    0.697343
   5 H :    0.136786
   6 H :    0.115195
   7 H :    0.273875
   8 H :    0.285192
   9 H :    0.262652
  10 O :   -0.413640
  11 O :   -0.504519
  12 H :    0.194413
  13 H :    0.140592
  14 H :    0.131421
  15 H :    0.114355
  16 O :   -0.441736
Sum of atomic charges:   -0.0000000

LOEWDIN ATOMIC CHARGES
----------------------
   0 C :   -0.283872
   1 N :    0.146806
   2 C :   -0.296925
   3 C :   -0.404235
   4 S :    0.379200
   5 H :    0.141903
   6 H :    0.127971
   7 H :    0.195190
   8 H :    0.133319
   9 H :    0.194281
  10 O :   -0.274460
  11 O :   -0.341469
  12 H :    0.153638
  13 H :    0.134330
  14 H :    0.160366
  15 H :    0.139131
  16 O :   -0.305174

  Mayer bond orders larger than 0.100000
B(  0-C ,  1-N ) :   0.8939 B(  0-C ,  2-C ) :   1.0143 B(  0-C , 12-H ) :   0.9350
B(  0-C , 13-H ) :   0.9485 B(  1-N ,  7-H ) :   0.8983 B(  1-N ,  8-H ) :   0.7144
B(  1-N ,  9-H ) :   0.8959 B(  2-C ,  3-C ) :   0.9824 B(  2-C , 14-H ) :   0.9389
B(  2-C , 15-H ) :   0.9431 B(  3-C ,  4-S ) :   0.8846 B(  3-C ,  5-H ) :   0.9426
B(  3-C ,  6-H ) :   0.9460 B(  4-S , 10-O ) :   1.9654 B(  4-S , 11-O ) :   1.4832
B(  4-S , 16-O ) :   1.8166 B(  8-H , 11-O ) :   0.2808

Dispersion correction           -0.018213013
FINAL SINGLE POINT ENERGY      -797.915640426360

DIPOLE MOMENT
-------------
                                X             Y             Z
Electronic contribution:     -7.04532      -4.24959      -4.39023
Nuclear contribution   :      9.95459       5.57517       7.68169
                        -----------------------------------------
Total Dipole Moment    :      2.90927       1.32558       3.29146
                        -----------------------------------------
Magnitude (a.u.)       :      4.58854
Magnitude (Debye)      :     11.66314

Rotational constants in cm-1:     0.102119     0.045768     0.041299
Rotational constants in MHz :  3061.441288  1372.093000  1238.124534

                             ****ORCA TERMINATED NORMALLY****
TOTAL RUN TIME: 0 days 0 hours 0 minutes 7 seconds 79 msec
