                         Program Version 5.0.0 -  RELEASE  -
|  1> !PBE D3BJ RIJCOSX def2-SVP def2/J TightSCF
|  2> *xyz 0 1
|  3> C          0.96805        1.63064       -3.71575
|  4> C         -0.50835        1.72268       -4.12430
|  5> S         -1.32861        0.14674       -4.43578
|  6> H         -0.59151        2.29496       -5.04722
|  7> H         -1.11411        2.23561       -3.37436
|  8> F         -2.57135        0.47573       -5.06834
|  9> O         -1.51496       -0.40051       -3.06342
| 10> O         -0.37793       -0.62756       -5.20114
| 11> H          1.51840        1.12197       -4.47946
| 12> H          1.05062        1.08971       -2.79625
| 13> H          1.36450        2.61606       -3.58668
| 14> *
| 15> %MaxCore 64000
| 16>
| 17> %pal nprocs 4
| 18> end
| 19>
| 20> %scf
| 21>   MaxIter 150
| 22> end
| 23>
| 24>
| 25>                          ****END OF INPUT****

CARTESIAN COORDINATES (ANGSTROEM)
---------------------------------
  C      0.968050    1.630640   -3.715750
  C     -0.508350    1.722680   -4.124300
  S     -1.328610    0.146740   -4.435780
  H     -0.591510    2.294960   -5.047220
  H     -1.114110    2.235610   -3.374360
  F     -2.571350    0.475730   -5.068340
  O     -1.514960   -0.400510   -3.063420
  O     -0.377930   -0.627560   -5.201140
  H      1.518400    1.121970   -4.479460
  H      1.050620    1.089710   -2.796250
  H      1.364500    2.616060   -3.586680

 Total Charge           Charge          ....    0
 Multiplicity           Mult            ....    1
 Number of Electrons    NEL             ....   58
 Basis Dimension        Dim             ....  113

ORBITAL ENERGIES
----------------

  NO   OCC          E(Eh)            E(eV)
   0   2.0000     -88.281332     -2402.2572
   1   2.0000     -24.374068      -663.2521
   2   2.0000     -18.756498      -510.3903
   3   2.0000     -18.739846      -509.9371
   4   2.0000      -9.944733      -270.6100
   5   2.0000      -9.910065      -269.6666
   6   2.0000      -7.895425      -214.8455
   7   2.0000      -5.926166      -161.2592
   8   2.0000      -5.919473      -161.0770
   9   2.0000      -5.918100      -161.0397
  10   2.0000      -1.267709       -34.4961
  11   2.0000      -1.001868       -27.2622
  12   2.0000      -0.898651       -24.4535
  13   2.0000      -0.734767       -19.9940
  14   2.0000      -0.659258       -17.9393
  15   2.0000      -0.603784       -16.4298
  16   2.0000      -0.519519       -14.1368
  17   2.0000      -0.516045       -14.0423
  18   2.0000      -0.484714       -13.1897
  19   2.0000      -0.435308       -11.8453
  20   2.0000      -0.418771       -11.3953
  21   2.0000      -0.378950       -10.3118
  22   2.0000      -0.375838       -10.2271
  23   2.0000      -0.356972        -9.7137
  24   2.0000      -0.337332        -9.1793
  25   2.0000      -0.322030        -8.7629
  26   2.0000      -0.274335        -7.4650
  27   2.0000      -0.257620        -7.0102
  28   2.0000      -0.240617        -6.5475
  29   0.0000       0.002470         0.0672
  30   0.0000       0.024462         0.6657
  31   0.0000       0.045357         1.2342
  32   0.0000       0.061648         1.6775
  33   0.0000       0.075703         2.0600

MULLIKEN ATOMIC CHARGES
-----------------------
   0 C :    0.007674
   1 C :   -0.144212
   2 S :    0.820820
   3 H :    0.052557
   4 H :    0.067261
   5 F :   -0.121553
   6 O :   -0.436685
   7 O :   -0.388424
   8 H :    0.050198
   9 H :    0.051585
  10 H :    0.040779
Sum of atomic charges:    0.0000000

LOEWDIN ATOMIC CHARGES
----------------------
   0 C :   -0.053332
   1 C :   -0.164326
   2 S :    1.079550
   3 H :    0.027245
   4 H :    0.035569
   5 F :   -0.086974
   6 O :   -0.497827
   7 O :   -0.449057
   8 H :    0.034989
   9 H :    0.036336
  10 H :    0.037828

  Mayer bond orders larger than 0.100000
B(  0-C ,  1-C ) :   1.0899 B(  0-C ,  8-H ) :   0.9641 B(  0-C ,  9-H ) :   0.9678
B(  0-C , 10-H ) :   0.9565 B(  1-C ,  2-S ) :   0.9044 B(  1-C ,  3-H ) :   0.9220
B(  1-C ,  4-H ) :   0.9250 B(  2-S ,  5-F ) :   1.0583 B(  2-S ,  6-O ) :   1.7458
B(  2-S ,  7-O ) :   1.7862

Dispersion correction           -0.009242084
FINAL SINGLE POINT ENERGY      -726.710280563385

DIPOLE MOMENT
-------------
                                X             Y             Z
Electronic contribution:     -8.39193      -5.29573      -3.24775
Nuclear contribution   :      8.31000       6.74109       2.87442
                        -----------------------------------------
Total Dipole Moment    :     -0.08192       1.44536      -0.37333
                        -----------------------------------------
Magnitude (a.u.)       :      1.49504
Magnitude (Debye)      :      3.80010

Rotational constants in cm-1:     0.158705     0.080192     0.078179
Rotational constants in MHz :  4757.865601  2404.095079  2343.752507

                             ****ORCA TERMINATED NORMALLY****
TOTAL RUN TIME: 0 days 0 hours 0 minutes 7 seconds 853 msec
