                         Program Version 5.0.0 -  RELEASE  -
|  1> !PBE D3BJ RIJCOSX def2-SVP def2/J TightSCF
|  2> *xyz 0 1
|  3> C          1.36401        0.46874       -2.81376
|  4> C          0.42884        0.32140       -1.65531
|  5> C          0.96805        1.63064       -3.71575
|  6> H          0.74858       -0.40054       -1.00134
|  7> H         -0.46105        0.02333       -2.07773
|  8> H          0.31026        1.20137       -1.13495
|  9> H          1.29485       -0.46874       -3.36468
| 10> H          2.37622        0.59740       -2.43149
| 11> H          1.65923        1.70213       -4.52942
| 12> H          0.98421        2.54058       -3.15304
| 13> H         -0.01744        1.46536       -4.09838
| 14> *
| 15> %MaxCore 64000
| 16>
| 17> %pal nprocs 4
| 18> end
| 19>
| 20> %scf
| 21>   MaxIter 150
| 22> end
| 23>
| 24>
| 25>                          ****END OF INPUT****

CARTESIAN COORDINATES (ANGSTROEM)
---------------------------------
  C      1.364010    0.468740   -2.813760
  C      0.428840    0.321400   -1.655310
  C      0.968050    1.630640   -3.715750
  H      0.748580   -0.400540   -1.001340
  H     -0.461050    0.023330   -2.077730
  H      0.310260    1.201370   -1.134950
  H      1.294850   -0.468740   -3.364680
  H      2.376220    0.597400   -2.431490
  H      1.659230    1.702130   -4.529420
  H      0.984210    2.540580   -3.153040
  H     -0.017440    1.465360   -4.098380

 Total Charge           Charge          ....    0
 Multiplicity           Mult            ....    1
 Number of Electrons    NEL             ....   26
 Basis Dimension        Dim             ....   82

ORBITAL ENERGIES
----------------

  NO   OCC          E(Eh)            E(eV)
   0   2.0000      -9.881431      -268.8874
   1   2.0000      -9.873737      -268.6780
   2   2.0000      -9.858197      -268.2552
   3   2.0000      -0.709746       -19.3132
   4   2.0000      -0.614233       -16.7141
   5   2.0000      -0.516124       -14.0444
   6   2.0000      -0.417811       -11.3692
   7   2.0000      -0.393494       -10.7075
   8   2.0000      -0.354285        -9.6406
   9   2.0000      -0.341698        -9.2981
  10   2.0000      -0.293626        -7.9900
  11   2.0000      -0.288299        -7.8450
  12   2.0000      -0.283543        -7.7156
  13   0.0000       0.043124         1.1735
  14   0.0000       0.090536         2.4636
  15   0.0000       0.092155         2.5077
  16   0.0000       0.097635         2.6568
  17   0.0000       0.123737         3.3671

MULLIKEN ATOMIC CHARGES
-----------------------
   0 C :   -0.098718
   1 C :    0.054137
   2 C :   -0.006098
   3 H :   -0.004890
   4 H :   -0.005770
   5 H :   -0.004766
   6 H :    0.012352
   7 H :    0.013034
   8 H :    0.015626
   9 H :    0.013694
  10 H :    0.011398
Sum of atomic charges:    0.0000000

LOEWDIN ATOMIC CHARGES
----------------------
   0 C :   -0.044334
   1 C :   -0.048452
   2 C :   -0.059269
   3 H :    0.015939
   4 H :    0.016703
   5 H :    0.013236
   6 H :    0.022000
   7 H :    0.018806
   8 H :    0.023053
   9 H :    0.021276
  10 H :    0.021041

  Mayer bond orders larger than 0.100000
B(  0-C ,  1-C ) :   1.1195 B(  0-C ,  2-C ) :   1.1191 B(  0-C ,  6-H ) :   0.9488
B(  0-C ,  7-H ) :   0.9491 B(  1-C ,  3-H ) :   0.9575 B(  1-C ,  4-H ) :   0.9676
B(  1-C ,  5-H ) :   0.9672 B(  2-C ,  8-H ) :   0.9639 B(  2-C ,  9-H ) :   0.9695
B(  2-C , 10-H ) :   0.9698

Dispersion correction           -0.006166229
FINAL SINGLE POINT ENERGY      -118.855279143476

DIPOLE MOMENT
-------------
                                X             Y             Z
Electronic contribution:      0.35647      -0.17708      -0.01950
Nuclear contribution   :     -0.35842       0.15752       0.02695
                        -----------------------------------------
Total Dipole Moment    :     -0.00195      -0.01956       0.00745
                        -----------------------------------------
Magnitude (a.u.)       :      0.02103
Magnitude (Debye)      :      0.05344

Rotational constants in cm-1:     1.019891     0.293671     0.260247
Rotational constants in MHz : 30575.551403  8804.039097  7802.009261

                             ****ORCA TERMINATED NORMALLY****
TOTAL RUN TIME: 0 days 0 hours 0 minutes 5 seconds 946 msec
