                         Program Version 5.0.0 -  RELEASE  -
|  1> !PBE D3BJ RIJCOSX def2-SVP def2/J TightSCF
|  2> *xyz 0 1
|  3> C          0.96805        1.63064       -3.71575
|  4> C         -0.50835        1.72268       -4.12430
|  5> S         -1.32861        0.14674       -4.43578
|  6> H         -0.59151        2.29496       -5.04722
|  7> H         -1.11411        2.23561       -3.37436
|  8> O         -2.57135        0.47573       -5.06834
|  9> F         -1.51496       -0.40051       -3.06342
| 10> O         -0.37793       -0.62756       -5.20114
| 11> H          1.51840        1.12197       -4.47946
| 12> H          1.05062        1.08971       -2.79625
| 13> H          1.36450        2.61606       -3.58668
| 14> *
| 15> %MaxCore 64000
| 16>
| 17> %pal nprocs 4
| 18> end
| 19>
| 20> %scf
| 21>   MaxIter 150
| 22> end
| 23>
| 24>
| 25>                          ****END OF INPUT****

CARTESIAN COORDINATES (ANGSTROEM)
---------------------------------
  C      0.968050    1.630640   -3.715750
  C     -0.508350    1.722680   -4.124300
  S     -1.328610    0.146740   -4.435780
  H     -0.591510    2.294960   -5.047220
  H     -1.114110    2.235610   -3.374360
  O     -2.571350    0.475730   -5.068340
  F     -1.514960   -0.400510   -3.063420
  O     -0.377930   -0.627560   -5.201140
  H      1.518400    1.121970   -4.479460
  H      1.050620    1.089710   -2.796250
  H      1.364500    2.616060   -3.586680

 Total Charge           Charge          ....    0
 Multiplicity           Mult            ....    1
 Number of Electrons    NEL             ....   58
 Basis Dimension        Dim             ....  113

ORBITAL ENERGIES
----------------

  NO   OCC          E(Eh)            E(eV)
   0   2.0000     -88.279198     -2402.1991
   1   2.0000     -24.345386      -662.4716
   2   2.0000     -18.760373      -510.4957
   3   2.0000     -18.757597      -510.4202
   4   2.0000      -9.943771      -270.5838
   5   2.0000      -9.911533      -269.7065
   6   2.0000      -7.893308      -214.7878
   7   2.0000      -5.923694      -161.1919
   8   2.0000      -5.917749      -161.0301
   9   2.0000      -5.916232      -160.9889
  10   2.0000      -1.220359       -33.2076
  11   2.0000      -1.017070       -27.6759
  12   2.0000      -0.926233       -25.2041
  13   2.0000      -0.736688       -20.0463
  14   2.0000      -0.641231       -17.4488
  15   2.0000      -0.595881       -16.2147
  16   2.0000      -0.508161       -13.8278
  17   2.0000      -0.483167       -13.1476
  18   2.0000      -0.474790       -12.9197
  19   2.0000      -0.434670       -11.8280
  20   2.0000      -0.415118       -11.2959
  21   2.0000      -0.394021       -10.7219
  22   2.0000      -0.377404       -10.2697
  23   2.0000      -0.354506        -9.6466
  24   2.0000      -0.348767        -9.4904
  25   2.0000      -0.327008        -8.8983
  26   2.0000      -0.283437        -7.7127
  27   2.0000      -0.276618        -7.5271
  28   2.0000      -0.262132        -7.1330
  29   0.0000       0.001726         0.0470
  30   0.0000       0.033245         0.9047
  31   0.0000       0.045632         1.2417
  32   0.0000       0.064188         1.7466
  33   0.0000       0.075518         2.0550

MULLIKEN ATOMIC CHARGES
-----------------------
   0 C :   -0.003812
   1 C :   -0.156215
   2 S :    0.835050
   3 H :    0.085778
   4 H :    0.063610
   5 O :   -0.377896
   6 F :   -0.180648
   7 O :   -0.393097
   8 H :    0.053819
   9 H :    0.033753
  10 H :    0.039658
Sum of atomic charges:    0.0000000

LOEWDIN ATOMIC CHARGES
----------------------
   0 C :   -0.066242
   1 C :   -0.166304
   2 S :    1.089428
   3 H :    0.048198
   4 H :    0.033106
   5 O :   -0.439988
   6 F :   -0.145840
   7 O :   -0.451830
   8 H :    0.034638
   9 H :    0.028184
  10 H :    0.036650

  Mayer bond orders larger than 0.100000
B(  0-C ,  1-C ) :   1.0676 B(  0-C ,  8-H ) :   0.9643 B(  0-C ,  9-H ) :   0.9705
B(  0-C , 10-H ) :   0.9553 B(  1-C ,  2-S ) :   0.9009 B(  1-C ,  3-H ) :   0.9316
B(  1-C ,  4-H ) :   0.9273 B(  2-S ,  5-O ) :   1.8129 B(  2-S ,  6-F ) :   0.9914
B(  2-S ,  7-O ) :   1.7937

Dispersion correction           -0.009203297
FINAL SINGLE POINT ENERGY      -726.735856131638

DIPOLE MOMENT
-------------
                                X             Y             Z
Electronic contribution:     -6.64273      -6.75836       0.10214
Nuclear contribution   :      7.20921       7.65416       0.78523
                        -----------------------------------------
Total Dipole Moment    :      0.56648       0.89580       0.88737
                        -----------------------------------------
Magnitude (a.u.)       :      1.38232
Magnitude (Debye)      :      3.51357

Rotational constants in cm-1:     0.153780     0.081282     0.079816
Rotational constants in MHz :  4610.199589  2436.778679  2392.820729

                             ****ORCA TERMINATED NORMALLY****
TOTAL RUN TIME: 0 days 0 hours 0 minutes 7 seconds 448 msec
