                         Program Version 5.0.0 -  RELEASE  -
|  1> !PBE D3BJ RIJCOSX def2-SVP def2/J TightSCF
|  2> *xyz 0 1
|  3> C          0.96805        1.63064       -3.71575
|  4> C         -0.50835        1.72268       -4.12430
|  5> S         -1.32861        0.14674       -4.43578
|  6> H         -0.59151        2.29496       -5.04722
|  7> H         -1.11411        2.23561       -3.37436
|  8> O         -2.57135        0.47573       -5.06834
|  9> O         -1.51496       -0.40051       -3.06342
| 10> F         -0.37793       -0.62756       -5.20114
| 11> H          1.51840        1.12197       -4.47946
| 12> H          1.05062        1.08971       -2.79625
| 13> H          1.36450        2.61606       -3.58668
| 14> *
| 15> %MaxCore 64000
| 16>
| 17> %pal nprocs 4
| 18> end
| 19>
| 20> %scf
| 21>   MaxIter 150
| 22> end
| 23>
| 24>
| 25>                          ****END OF INPUT****

CARTESIAN COORDINATES (ANGSTROEM)
---------------------------------
  C      0.968050    1.630640   -3.715750
  C     -0.508350    1.722680   -4.124300
  S     -1.328610    0.146740   -4.435780
  H     -0.591510    2.294960   -5.047220
  H     -1.114110    2.235610   -3.374360
  O     -2.571350    0.475730   -5.068340
  O     -1.514960   -0.400510   -3.063420
  F     -0.377930   -0.627560   -5.201140
  H      1.518400    1.121970   -4.479460
  H      1.050620    1.089710   -2.796250
  H      1.364500    2.616060   -3.586680

 Total Charge           Charge          ....    0
 Multiplicity           Mult            ....    1
 Number of Electrons    NEL             ....   58
 Basis Dimension        Dim             ....  113

ORBITAL ENERGIES
----------------

  NO   OCC          E(Eh)            E(eV)
   0   2.0000     -88.280630     -2402.2381
   1   2.0000     -24.368409      -663.0981
   2   2.0000     -18.760176      -510.4903
   3   2.0000     -18.740374      -509.9515
   4   2.0000      -9.944455      -270.6024
   5   2.0000      -9.914980      -269.8003
   6   2.0000      -7.894775      -214.8277
   7   2.0000      -5.925552      -161.2425
   8   2.0000      -5.918858      -161.0603
   9   2.0000      -5.917449      -161.0220
  10   2.0000      -1.257230       -34.2110
  11   2.0000      -1.007839       -27.4247
  12   2.0000      -0.901789       -24.5389
  13   2.0000      -0.738705       -20.1012
  14   2.0000      -0.652614       -17.7585
  15   2.0000      -0.606141       -16.4939
  16   2.0000      -0.525725       -14.3057
  17   2.0000      -0.508334       -13.8325
  18   2.0000      -0.475728       -12.9452
  19   2.0000      -0.436478       -11.8772
  20   2.0000      -0.415390       -11.3033
  21   2.0000      -0.393758       -10.7147
  22   2.0000      -0.376915       -10.2564
  23   2.0000      -0.359762        -9.7896
  24   2.0000      -0.344625        -9.3777
  25   2.0000      -0.323496        -8.8028
  26   2.0000      -0.278619        -7.5816
  27   2.0000      -0.258071        -7.0225
  28   2.0000      -0.243856        -6.6357
  29   0.0000      -0.003081        -0.0838
  30   0.0000       0.034275         0.9327
  31   0.0000       0.040072         1.0904
  32   0.0000       0.066300         1.8041
  33   0.0000       0.076172         2.0728

MULLIKEN ATOMIC CHARGES
-----------------------
   0 C :   -0.011061
   1 C :   -0.147225
   2 S :    0.822995
   3 H :    0.061474
   4 H :    0.093063
   5 O :   -0.371819
   6 O :   -0.436657
   7 F :   -0.136127
   8 H :    0.031329
   9 H :    0.049877
  10 H :    0.044150
Sum of atomic charges:    0.0000000

LOEWDIN ATOMIC CHARGES
----------------------
   0 C :   -0.069019
   1 C :   -0.161364
   2 S :    1.082264
   3 H :    0.031346
   4 H :    0.052368
   5 O :   -0.435498
   6 O :   -0.497867
   7 F :   -0.099647
   8 H :    0.025782
   9 H :    0.033181
  10 H :    0.038454

  Mayer bond orders larger than 0.100000
B(  0-C ,  1-C ) :   1.0647 B(  0-C ,  8-H ) :   0.9694 B(  0-C ,  9-H ) :   0.9665
B(  0-C , 10-H ) :   0.9565 B(  1-C ,  2-S ) :   0.9071 B(  1-C ,  3-H ) :   0.9265
B(  1-C ,  4-H ) :   0.9307 B(  2-S ,  5-O ) :   1.8075 B(  2-S ,  6-O ) :   1.7468
B(  2-S ,  7-F ) :   1.0384

Dispersion correction           -0.009186893
FINAL SINGLE POINT ENERGY      -726.715295342908

DIPOLE MOMENT
-------------
                                X             Y             Z
Electronic contribution:     -4.74844      -7.11880      -3.45294
Nuclear contribution   :      6.02439       7.89075       3.01280
                        -----------------------------------------
Total Dipole Moment    :      1.27595       0.77195      -0.44014
                        -----------------------------------------
Magnitude (a.u.)       :      1.55489
Magnitude (Debye)      :      3.95222

Rotational constants in cm-1:     0.153652     0.082400     0.079295
Rotational constants in MHz :  4606.361242  2470.285703  2377.214112

                             ****ORCA TERMINATED NORMALLY****
TOTAL RUN TIME: 0 days 0 hours 0 minutes 7 seconds 342 msec
