                         Program Version 5.0.0 -  RELEASE  -
|  1> !PBE D3BJ RIJCOSX def2-TZVP def2/J TightSCF xyzfile
|  2>
|  3> *xyzfile 0 1 D2.xyz
|  4>
|  5> %MaxCore 64000
|  6>
|  7> %pal nprocs 18
|  8> end
|  9>
| 10> %scf
| 11>   MaxIter 150
| 12> end
| 13>
| 14>
| 15>                          ****END OF INPUT****

CARTESIAN COORDINATES (ANGSTROEM)
---------------------------------
  C      1.364014    0.468742   -2.813764
  C      0.428844    0.321402   -1.655312
  C      0.968045    1.630639   -3.715749
  C     -0.508347    1.722679   -4.124300
  S     -1.328608    0.146737   -4.435781
  H     -0.591511    2.294958   -5.047219
  H     -1.114114    2.235610   -3.374362
  H      0.748578   -0.400542   -1.001345
  H     -0.461053    0.023332   -2.077731
  H      0.310258    1.201375   -1.134948
  O     -2.571347    0.475733   -5.068341
  F     -1.514963   -0.400512   -3.063420
  H      1.294847   -0.468742   -3.364684
  H      2.376216    0.597400   -2.431495
  H      1.578688    1.520652   -4.612733
  H      1.266653    2.575988   -3.250448
  O     -0.377928   -0.627558   -5.201141

 Total Charge           Charge          ....    0
 Multiplicity           Mult            ....    1
 Number of Electrons    NEL             ....   74
 Basis Dimension        Dim             ....  308

ORBITAL ENERGIES
----------------

  NO   OCC          E(Eh)            E(eV)
   0   2.0000     -88.267374     -2401.8774
   1   2.0000     -24.356529      -662.7749
   2   2.0000     -18.766253      -510.6557
   3   2.0000     -18.763602      -510.5836
   4   2.0000      -9.935165      -270.3496
   5   2.0000      -9.902019      -269.4476
   6   2.0000      -9.880092      -268.8510
   7   2.0000      -9.838563      -267.7209
   8   2.0000      -7.863478      -213.9761
   9   2.0000      -5.888040      -160.2217
  10   2.0000      -5.881285      -160.0379
  11   2.0000      -5.880805      -160.0248
  12   2.0000      -1.252901       -34.0932
  13   2.0000      -1.029910       -28.0253
  14   2.0000      -0.942741       -25.6533
  15   2.0000      -0.761722       -20.7275
  16   2.0000      -0.707030       -19.2393
  17   2.0000      -0.647022       -17.6064
  18   2.0000      -0.627162       -17.0659
  19   2.0000      -0.538664       -14.6578
  20   2.0000      -0.523744       -14.2518
  21   2.0000      -0.504564       -13.7299
  22   2.0000      -0.490331       -13.3426
  23   2.0000      -0.445830       -12.1316
  24   2.0000      -0.430113       -11.7040
  25   2.0000      -0.423610       -11.5270
  26   2.0000      -0.406428       -11.0595
  27   2.0000      -0.383101       -10.4247
  28   2.0000      -0.367869       -10.0102
  29   2.0000      -0.356645        -9.7048
  30   2.0000      -0.346291        -9.4231
  31   2.0000      -0.312153        -8.4941
  32   2.0000      -0.304297        -8.2803
  33   2.0000      -0.298675        -8.1273
  34   2.0000      -0.290174        -7.8960
  35   2.0000      -0.283562        -7.7161
  36   2.0000      -0.273029        -7.4295
  37   0.0000      -0.014555        -0.3961
  38   0.0000       0.005455         0.1484
  39   0.0000       0.017566         0.4780
  40   0.0000       0.035711         0.9717
  41   0.0000       0.048154         1.3103

MULLIKEN ATOMIC CHARGES
-----------------------
   0 C :   -0.230760
   1 C :   -0.363005
   2 C :   -0.164470
   3 C :   -0.293356
   4 S :    0.705795
   5 H :    0.162440
   6 H :    0.144027
   7 H :    0.116442
   8 H :    0.125361
   9 H :    0.097417
  10 O :   -0.345667
  11 F :   -0.060956
  12 H :    0.133570
  13 H :    0.099210
  14 H :    0.115731
  15 H :    0.109194
  16 O :   -0.350975
Sum of atomic charges:   -0.0000000

LOEWDIN ATOMIC CHARGES
----------------------
   0 C :   -0.310713
   1 C :   -0.320884
   2 C :   -0.286584
   3 C :   -0.371869
   4 S :    0.483504
   5 H :    0.151207
   6 H :    0.140584
   7 H :    0.110021
   8 H :    0.086428
   9 H :    0.107250
  10 O :   -0.222285
  11 F :    0.090812
  12 H :    0.142040
  13 H :    0.136986
  14 H :    0.147190
  15 H :    0.144927
  16 O :   -0.228615

  Mayer bond orders larger than 0.100000
B(  0-C ,  1-C ) :   0.9879 B(  0-C ,  2-C ) :   1.0018 B(  0-C , 12-H ) :   0.9636
B(  0-C , 13-H ) :   0.9493 B(  1-C ,  7-H ) :   0.9668 B(  1-C ,  8-H ) :   0.9731
B(  1-C ,  9-H ) :   0.9674 B(  2-C ,  3-C ) :   0.9783 B(  2-C , 14-H ) :   0.9518
B(  2-C , 15-H ) :   0.9361 B(  3-C ,  4-S ) :   0.9090 B(  3-C ,  5-H ) :   0.9351
B(  3-C ,  6-H ) :   0.9323 B(  4-S , 10-O ) :   2.0079 B(  4-S , 11-F ) :   1.0851
B(  4-S , 16-O ) :   1.9373

Dispersion correction           -0.017587837
FINAL SINGLE POINT ENERGY      -805.833800560174

DIPOLE MOMENT
-------------
                                X             Y             Z
Electronic contribution:    -10.56103      -5.63351      -6.22416
Nuclear contribution   :     11.08796       6.45140       7.05645
                        -----------------------------------------
Total Dipole Moment    :      0.52693       0.81789       0.83230
                        -----------------------------------------
Magnitude (a.u.)       :      1.28036
Magnitude (Debye)      :      3.25442

Rotational constants in cm-1:     0.100113     0.046890     0.041843
Rotational constants in MHz :  3001.313402  1405.711946  1254.411771

                             ****ORCA TERMINATED NORMALLY****
TOTAL RUN TIME: 0 days 0 hours 0 minutes 7 seconds 416 msec
