                         Program Version 5.0.0 -  RELEASE  -
|  1> !PBE D3BJ RIJCOSX def2-TZVP def2/J TightSCF xyzfile
|  2>
|  3> *xyzfile 0 1 D3.xyz
|  4>
|  5> %MaxCore 64000
|  6>
|  7> %pal nprocs 18
|  8> end
|  9>
| 10> %scf
| 11>   MaxIter 150
| 12> end
| 13>
| 14>
| 15>                          ****END OF INPUT****

CARTESIAN COORDINATES (ANGSTROEM)
---------------------------------
  C      1.364014    0.468742   -2.813764
  C      0.428844    0.321402   -1.655312
  C      0.968045    1.630639   -3.715749
  C     -0.508347    1.722679   -4.124300
  S     -1.328608    0.146737   -4.435781
  H     -0.591511    2.294958   -5.047219
  H     -1.114114    2.235610   -3.374362
  H      0.748578   -0.400542   -1.001345
  H     -0.461053    0.023332   -2.077731
  H      0.310258    1.201375   -1.134948
  O     -2.571347    0.475733   -5.068341
  O     -1.514963   -0.400512   -3.063420
  H      1.294847   -0.468742   -3.364684
  H      2.376216    0.597400   -2.431495
  H      1.578688    1.520652   -4.612733
  H      1.266653    2.575988   -3.250448
  F     -0.377928   -0.627558   -5.201141

 Total Charge           Charge          ....    0
 Multiplicity           Mult            ....    1
 Number of Electrons    NEL             ....   74
 Basis Dimension        Dim             ....  308

ORBITAL ENERGIES
----------------

  NO   OCC          E(Eh)            E(eV)
   0   2.0000     -88.272733     -2402.0232
   1   2.0000     -24.376115      -663.3078
   2   2.0000     -18.768041      -510.7044
   3   2.0000     -18.753632      -510.3123
   4   2.0000      -9.936826      -270.3948
   5   2.0000      -9.904494      -269.5150
   6   2.0000      -9.877886      -268.7909
   7   2.0000      -9.813817      -267.0475
   8   2.0000      -7.868547      -214.1140
   9   2.0000      -5.892989      -160.3564
  10   2.0000      -5.886442      -160.1782
  11   2.0000      -5.885898      -160.1634
  12   2.0000      -1.279137       -34.8071
  13   2.0000      -1.024177       -27.8693
  14   2.0000      -0.931179       -25.3387
  15   2.0000      -0.760527       -20.6950
  16   2.0000      -0.701756       -19.0958
  17   2.0000      -0.654913       -17.8211
  18   2.0000      -0.613467       -16.6933
  19   2.0000      -0.550245       -14.9729
  20   2.0000      -0.526159       -14.3175
  21   2.0000      -0.520279       -14.1575
  22   2.0000      -0.487045       -13.2532
  23   2.0000      -0.447316       -12.1721
  24   2.0000      -0.444075       -12.0839
  25   2.0000      -0.418705       -11.3935
  26   2.0000      -0.406474       -11.0607
  27   2.0000      -0.380883       -10.3644
  28   2.0000      -0.364474        -9.9178
  29   2.0000      -0.352785        -9.5998
  30   2.0000      -0.342788        -9.3277
  31   2.0000      -0.320006        -8.7078
  32   2.0000      -0.302599        -8.2341
  33   2.0000      -0.291833        -7.9412
  34   2.0000      -0.286242        -7.7890
  35   2.0000      -0.277841        -7.5604
  36   2.0000      -0.230751        -6.2791
  37   0.0000      -0.021841        -0.5943
  38   0.0000       0.007954         0.2164
  39   0.0000       0.018615         0.5065
  40   0.0000       0.032720         0.8903
  41   0.0000       0.038699         1.0530

MULLIKEN ATOMIC CHARGES
-----------------------
   0 C :   -0.207153
   1 C :   -0.359019
   2 C :   -0.212857
   3 C :   -0.271531
   4 S :    0.706980
   5 H :    0.150743
   6 H :    0.159754
   7 H :    0.098416
   8 H :    0.177676
   9 H :    0.080643
  10 O :   -0.334890
  11 O :   -0.357545
  12 H :    0.096388
  13 H :    0.098382
  14 H :    0.112656
  15 H :    0.113768
  16 F :   -0.052411
Sum of atomic charges:    0.0000000

LOEWDIN ATOMIC CHARGES
----------------------
   0 C :   -0.313407
   1 C :   -0.321702
   2 C :   -0.292271
   3 C :   -0.368694
   4 S :    0.481860
   5 H :    0.141511
   6 H :    0.153719
   7 H :    0.106338
   8 H :    0.084890
   9 H :    0.103242
  10 O :   -0.217543
  11 O :   -0.236312
  12 H :    0.132987
  13 H :    0.136667
  14 H :    0.141243
  15 H :    0.147181
  16 F :    0.120293

  Mayer bond orders larger than 0.100000
B(  0-C ,  1-C ) :   0.9763 B(  0-C ,  2-C ) :   1.0012 B(  0-C , 12-H ) :   0.9702
B(  0-C , 13-H ) :   0.9483 B(  1-C ,  7-H ) :   0.9599 B(  1-C ,  8-H ) :   0.9317
B(  1-C ,  9-H ) :   0.9640 B(  2-C ,  3-C ) :   0.9851 B(  2-C , 14-H ) :   0.9587
B(  2-C , 15-H ) :   0.9349 B(  3-C ,  4-S ) :   0.9171 B(  3-C ,  5-H ) :   0.9339
B(  3-C ,  6-H ) :   0.9304 B(  4-S , 10-O ) :   2.0085 B(  4-S , 11-O ) :   1.8101
B(  4-S , 16-F ) :   1.1638 B(  8-H , 11-O ) :   0.1161

Dispersion correction           -0.017648302
FINAL SINGLE POINT ENERGY      -805.817417842477

DIPOLE MOMENT
-------------
                                X             Y             Z
Electronic contribution:     -8.74838      -6.02872      -9.90092
Nuclear contribution   :      9.83476       6.70164       9.41257
                        -----------------------------------------
Total Dipole Moment    :      1.08639       0.67292      -0.48834
                        -----------------------------------------
Magnitude (a.u.)       :      1.36804
Magnitude (Debye)      :      3.47728

Rotational constants in cm-1:     0.099832     0.045916     0.042219
Rotational constants in MHz :  2992.874960  1376.530174  1265.693813

                             ****ORCA TERMINATED NORMALLY****
TOTAL RUN TIME: 0 days 0 hours 0 minutes 8 seconds 692 msec
