                         Program Version 5.0.0 -  RELEASE  -
|  1> !M062X D3Zero RIJCOSX def2-SVPD def2/J TightSCF
|  2> *xyz -1 1
|  3> C         -0.87096        0.24804       -2.66280
|  4> C         -0.47749        0.60819       -4.10105
|  5> H          0.20677        1.45830       -4.11875
|  6> H         -1.36844        0.92942       -4.64785
|  7> C          0.18467       -0.50664       -4.91676
|  8> O         -0.15869       -1.70109       -4.65798
|  9> O          1.05594       -0.17441       -5.74037
| 10> H         -1.54056       -0.58646       -2.67455
| 11> H         -1.35339        1.08600       -2.20455
| 12> H          0.00660       -0.00662       -2.10609
| 13> *
| 14>
| 15> %MaxCore 64000
| 16>
| 17> %pal nprocs 4
| 18> end
| 19>
| 20> %scf
| 21>   MaxIter 150
| 22> end
| 23>
| 24>
| 25>                          ****END OF INPUT****

CARTESIAN COORDINATES (ANGSTROEM)
---------------------------------
  C     -0.870960    0.248040   -2.662800
  C     -0.477490    0.608190   -4.101050
  H      0.206770    1.458300   -4.118750
  H     -1.368440    0.929420   -4.647850
  C      0.184670   -0.506640   -4.916760
  O     -0.158690   -1.701090   -4.657980
  O      1.055940   -0.174410   -5.740370
  H     -1.540560   -0.586460   -2.674550
  H     -1.353390    1.086000   -2.204550
  H      0.006600   -0.006620   -2.106090

 Total Charge           Charge          ....   -1
 Multiplicity           Mult            ....    1
 Number of Electrons    NEL             ....   40
 Basis Dimension        Dim             ....  146

ORBITAL ENERGIES
----------------

  NO   OCC          E(Eh)            E(eV)
   0   2.0000     -19.373779      -527.1873
   1   2.0000     -19.370036      -527.0855
   2   2.0000     -10.438529      -284.0468
   3   2.0000     -10.387120      -282.6479
   4   2.0000     -10.376952      -282.3712
   5   2.0000      -0.929399       -25.2902
   6   2.0000      -0.827905       -22.5284
   7   2.0000      -0.692510       -18.8442
   8   2.0000      -0.556169       -15.1341
   9   2.0000      -0.391872       -10.6634
  10   2.0000      -0.363608        -9.8943
  11   2.0000      -0.334356        -9.0983
  12   2.0000      -0.301204        -8.1962
  13   2.0000      -0.284375        -7.7382
  14   2.0000      -0.279849        -7.6151
  15   2.0000      -0.246553        -6.7091
  16   2.0000      -0.227845        -6.2000
  17   2.0000      -0.111364        -3.0304
  18   2.0000      -0.110763        -3.0140
  19   2.0000      -0.102881        -2.7995
  20   0.0000       0.172173         4.6851
  21   0.0000       0.208764         5.6807
  22   0.0000       0.215899         5.8749
  23   0.0000       0.239805         6.5254
  24   0.0000       0.262470         7.1422

MULLIKEN ATOMIC CHARGES
-----------------------
   0 C :    0.633779
   1 C :   -0.353249
   2 H :   -0.072251
   3 H :   -0.032028
   4 C :    0.557260
   5 O :   -0.795017
   6 O :   -0.733751
   7 H :   -0.052176
   8 H :   -0.093373
   9 H :   -0.059194
Sum of atomic charges:   -1.0000000

LOEWDIN ATOMIC CHARGES
----------------------
   0 C :    0.097460
   1 C :   -0.039000
   2 H :    0.000419
   3 H :    0.010328
   4 C :   -0.291222
   5 O :   -0.344365
   6 O :   -0.334768
   7 H :   -0.029638
   8 H :   -0.044896
   9 H :   -0.024317

  Mayer bond orders larger than 0.100000
B(  0-C ,  1-C ) :   1.2707 B(  0-C ,  7-H ) :   0.8201 B(  0-C ,  8-H ) :   0.8026
B(  0-C ,  9-H ) :   0.8372 B(  1-C ,  2-H ) :   0.9615 B(  1-C ,  3-H ) :   0.9038
B(  1-C ,  4-C ) :   0.9944 B(  1-C ,  7-H ) :   0.2194 B(  1-C ,  8-H ) :   0.2124
B(  1-C ,  9-H ) :   0.1761 B(  2-H ,  4-C ) :   0.1762 B(  4-C ,  5-O ) :   1.4022
B(  4-C ,  6-O ) :   1.4165

Dispersion correction           -0.000090013
FINAL SINGLE POINT ENERGY      -267.533536265150

DIPOLE MOMENT
-------------
                                X             Y             Z
Electronic contribution:      2.61262      -2.88042      -4.53292
Nuclear contribution   :     -3.54611       4.15440       5.90446
                        -----------------------------------------
Total Dipole Moment    :     -0.93349       1.27398       1.37154
                        -----------------------------------------
Magnitude (a.u.)       :      2.09178
Magnitude (Debye)      :      5.31688

Rotational constants in cm-1:     0.332789     0.132085     0.101080
Rotational constants in MHz :  9976.755824  3959.803182  3030.288811

                             ****ORCA TERMINATED NORMALLY****
TOTAL RUN TIME: 0 days 0 hours 0 minutes 19 seconds 909 msec
