                         Program Version 5.0.0 -  RELEASE  -
|  1> !M062X D3Zero RIJCOSX def2-SVPD def2/J TightSCF
|  2> *xyz 1 1
|  3> C          2.48645       -2.67712       -2.56345
|  4> C          3.03764       -2.36672       -3.92351
|  5> N          2.28036       -2.45441       -4.96769
|  6> N          4.32174       -2.01793       -4.01664
|  7> H          4.87994       -1.91167       -3.17382
|  8> H          4.71015       -1.67088       -4.88356
|  9> H          1.27042       -2.41265       -4.86614
| 10> H          2.58183       -2.05528       -5.84688
| 11> C          2.49799       -1.46946       -1.61030
| 12> H          1.47259       -3.05153       -2.69437
| 13> H          3.08320       -3.49064       -2.14147
| 14> H          1.91240       -0.67831       -2.02991
| 15> H          3.50450       -1.13364       -1.47227
| 16> H          2.08509       -1.75655       -0.66585
| 17> *
| 18>
| 19> %MaxCore 64000
| 20>
| 21> %pal nprocs 4
| 22> end
| 23>
| 24> %scf
| 25>   MaxIter 150
| 26> end
| 27>
| 28>
| 29>                          ****END OF INPUT****

CARTESIAN COORDINATES (ANGSTROEM)
---------------------------------
  C      2.486450   -2.677120   -2.563450
  C      3.037640   -2.366720   -3.923510
  N      2.280360   -2.454410   -4.967690
  N      4.321740   -2.017930   -4.016640
  H      4.879940   -1.911670   -3.173820
  H      4.710150   -1.670880   -4.883560
  H      1.270420   -2.412650   -4.866140
  H      2.581830   -2.055280   -5.846880
  C      2.497990   -1.469460   -1.610300
  H      1.472590   -3.051530   -2.694370
  H      3.083200   -3.490640   -2.141470
  H      1.912400   -0.678310   -2.029910
  H      3.504500   -1.133640   -1.472270
  H      2.085090   -1.756550   -0.665850

 Total Charge           Charge          ....    1
 Multiplicity           Mult            ....    1
 Number of Electrons    NEL             ....   40
 Basis Dimension        Dim             ....  172

ORBITAL ENERGIES
----------------

  NO   OCC          E(Eh)            E(eV)
   0   2.0000     -15.013657      -408.5424
   1   2.0000     -15.007847      -408.3843
   2   2.0000     -10.880866      -296.0834
   3   2.0000     -10.750610      -292.5390
   4   2.0000     -10.710057      -291.4355
   5   2.0000      -1.310111       -35.6499
   6   2.0000      -1.205400       -32.8006
   7   2.0000      -1.059752       -28.8373
   8   2.0000      -0.948819       -25.8187
   9   2.0000      -0.896620       -24.3983
  10   2.0000      -0.852173       -23.1888
  11   2.0000      -0.826502       -22.4903
  12   2.0000      -0.773267       -21.0417
  13   2.0000      -0.726349       -19.7650
  14   2.0000      -0.692415       -18.8416
  15   2.0000      -0.678964       -18.4756
  16   2.0000      -0.612317       -16.6620
  17   2.0000      -0.602014       -16.3816
  18   2.0000      -0.591860       -16.1053
  19   2.0000      -0.559400       -15.2220
  20   0.0000      -0.176461        -4.8017
  21   0.0000      -0.137276        -3.7355
  22   0.0000      -0.095381        -2.5954
  23   0.0000      -0.094269        -2.5652
  24   0.0000      -0.063580        -1.7301

MULLIKEN ATOMIC CHARGES
-----------------------
   0 C :   -0.314253
   1 C :    0.650363
   2 N :    0.063333
   3 N :    0.029870
   4 H :    0.031523
   5 H :   -0.133498
   6 H :    0.027527
   7 H :   -0.084286
   8 C :    0.660896
   9 H :    0.049948
  10 H :    0.067710
  11 H :   -0.047269
  12 H :   -0.051304
  13 H :    0.049441
Sum of atomic charges:    1.0000000

LOEWDIN ATOMIC CHARGES
----------------------
   0 C :    0.013951
   1 C :   -0.041269
   2 N :    0.275880
   3 N :    0.280900
   4 H :    0.049709
   5 H :    0.046542
   6 H :    0.061625
   7 H :    0.052883
   8 C :    0.174695
   9 H :    0.035797
  10 H :    0.054494
  11 H :    0.000240
  12 H :   -0.014817
  13 H :    0.009371

  Mayer bond orders larger than 0.100000
B(  0-C ,  1-C ) :   1.2001 B(  0-C ,  8-C ) :   1.2622 B(  0-C ,  9-H ) :   0.8748
B(  0-C , 10-H ) :   0.8774 B(  0-C , 11-H ) :   0.1557 B(  0-C , 12-H ) :   0.1880
B(  0-C , 13-H ) :   0.1482 B(  1-C ,  2-N ) :   1.0833 B(  1-C ,  3-N ) :   1.0713
B(  1-C ,  5-H ) :  -0.1609 B(  1-C ,  7-H ) :  -0.1235 B(  1-C ,  9-H ) :   0.1897
B(  1-C , 10-H ) :   0.1116 B(  2-N ,  3-N ) :   0.1382 B(  2-N ,  6-H ) :   1.0638
B(  2-N ,  7-H ) :   1.1975 B(  3-N ,  4-H ) :   1.0950 B(  3-N ,  5-H ) :   1.2895
B(  4-H ,  5-H ) :  -0.1865 B(  6-H ,  7-H ) :  -0.1390 B(  8-C , 11-H ) :   0.8434
B(  8-C , 12-H ) :   0.7950 B(  8-C , 13-H ) :   0.8539

Dispersion correction           -0.000199988
FINAL SINGLE POINT ENERGY      -228.754387214116

DIPOLE MOMENT
-------------
                                X             Y             Z
Electronic contribution:      1.05128      -1.07148      -3.90752
Nuclear contribution   :     -0.84604       1.34287       2.92710
                        -----------------------------------------
Total Dipole Moment    :      0.20524       0.27139      -0.98042
                        -----------------------------------------
Magnitude (a.u.)       :      1.03779
Magnitude (Debye)      :      2.63784

Rotational constants in cm-1:     0.265816     0.126189     0.097583
Rotational constants in MHz :  7968.948902  3783.040103  2925.457702

                             ****ORCA TERMINATED NORMALLY****
TOTAL RUN TIME: 0 days 0 hours 0 minutes 26 seconds 927 msec
