                         Program Version 5.0.0 -  RELEASE  -
|  1> !M062X D3Zero RIJCOSX def2-SVPD def2/J TightSCF xyzfile
|  2>
|  3> *xyzfile 0 1 B.xyz
|  4>
|  5> %MaxCore 64000
|  6>
|  7> %pal nprocs 4
|  8> end
|  9>
| 10> %scf
| 11>   MaxIter 150
| 12> end
| 13>
| 14>
| 15>                          ****END OF INPUT****

CARTESIAN COORDINATES (ANGSTROEM)
---------------------------------
  C      2.486452   -2.677121   -2.563447
  C     -0.870963    0.248043   -2.662804
  C     -0.477492    0.608191   -4.101052
  H      0.206773    1.458299   -4.118748
  H     -1.368442    0.929419   -4.647855
  C      0.184673   -0.506640   -4.916760
  C      3.037640   -2.366715   -3.923509
  N      2.280360   -2.454408   -4.967692
  N      4.321736   -2.017932   -4.016641
  H      4.879940   -1.911668   -3.173823
  H      4.710148   -1.670882   -4.883561
  H      1.270423   -2.412650   -4.866143
  H      2.581829   -2.055282   -5.846878
  O     -0.158685   -1.701088   -4.657981
  O      1.055938   -0.174410   -5.740373
  C      2.497991   -1.469464   -1.610303
  C      1.582841   -0.321986   -2.042619
  H      2.193083   -1.833912   -0.625420
  H      3.523356   -1.103982   -1.490392
  C      0.100160   -0.673551   -1.915815
  H      1.822311   -0.040361   -3.072834
  H      1.813180    0.557019   -1.433266
  H     -0.063284   -1.679120   -2.301112
  H     -0.168820   -0.691680   -0.853831
  H     -1.001048    1.181040   -2.104071
  H     -1.844645   -0.246592   -2.663281
  H      1.472592   -3.051527   -2.694366
  H      3.083201   -3.490638   -2.141472

 Total Charge           Charge          ....    0
 Multiplicity           Mult            ....    1
 Number of Electrons    NEL             ....   94
 Basis Dimension        Dim             ....  374

ORBITAL ENERGIES
----------------

  NO   OCC          E(Eh)            E(eV)
   0   2.0000     -19.551012      -532.0101
   1   2.0000     -19.544034      -531.8202
   2   2.0000     -14.847389      -404.0180
   3   2.0000     -14.811092      -403.0303
   4   2.0000     -10.706379      -291.3354
   5   2.0000     -10.607210      -288.6368
   6   2.0000     -10.596835      -288.3545
   7   2.0000     -10.579143      -287.8731
   8   2.0000     -10.548516      -287.0397
   9   2.0000     -10.529866      -286.5322
  10   2.0000     -10.525203      -286.4053
  11   2.0000     -10.512185      -286.0511
  12   2.0000      -1.135631       -30.9021
  13   2.0000      -1.109192       -30.1826
  14   2.0000      -1.029151       -28.0046
  15   2.0000      -1.007335       -27.4110
  16   2.0000      -0.924039       -25.1444
  17   2.0000      -0.868501       -23.6331
  18   2.0000      -0.821063       -22.3423
  19   2.0000      -0.762335       -20.7442
  20   2.0000      -0.742174       -20.1956
  21   2.0000      -0.696585       -18.9550
  22   2.0000      -0.685227       -18.6460
  23   2.0000      -0.656541       -17.8654
  24   2.0000      -0.632945       -17.2233
  25   2.0000      -0.598741       -16.2926
  26   2.0000      -0.574129       -15.6228
  27   2.0000      -0.551998       -15.0206
  28   2.0000      -0.531193       -14.4545
  29   2.0000      -0.524382       -14.2692
  30   2.0000      -0.518986       -14.1223
  31   2.0000      -0.493432       -13.4270
  32   2.0000      -0.481819       -13.1110
  33   2.0000      -0.478433       -13.0188
  34   2.0000      -0.464424       -12.6376
  35   2.0000      -0.450954       -12.2711
  36   2.0000      -0.440070       -11.9749
  37   2.0000      -0.422673       -11.5015
  38   2.0000      -0.415618       -11.3095
  39   2.0000      -0.400129       -10.8881
  40   2.0000      -0.385303       -10.4846
  41   2.0000      -0.375955       -10.2303
  42   2.0000      -0.367119        -9.9898
  43   2.0000      -0.357545        -9.7293
  44   2.0000      -0.292611        -7.9624
  45   2.0000      -0.283723        -7.7205
  46   2.0000      -0.274540        -7.4706
  47   0.0000      -0.009873        -0.2686
  48   0.0000       0.003031         0.0825
  49   0.0000       0.036378         0.9899
  50   0.0000       0.047914         1.3038
  51   0.0000       0.055119         1.4999

MULLIKEN ATOMIC CHARGES
-----------------------
   0 C :    0.257906
   1 C :    0.519406
   2 C :    0.309653
   3 H :    0.213553
   4 H :   -0.320551
   5 C :    0.318575
   6 C :    0.642443
   7 N :    0.300291
   8 N :   -0.000002
   9 H :   -0.011874
  10 H :   -0.140807
  11 H :   -0.252982
  12 H :   -0.024857
  13 O :   -0.839038
  14 O :   -0.656511
  15 C :    0.309683
  16 C :    0.231562
  17 H :   -0.076095
  18 H :   -0.126704
  19 C :    0.048079
  20 H :   -0.167631
  21 H :   -0.228781
  22 H :    0.051566
  23 H :   -0.236465
  24 H :   -0.149664
  25 H :    0.043298
  26 H :    0.079032
  27 H :   -0.093085
Sum of atomic charges:    0.0000000

LOEWDIN ATOMIC CHARGES
----------------------
   0 C :    0.058167
   1 C :   -0.017701
   2 C :    0.033221
   3 H :    0.018861
   4 H :    0.028788
   5 C :   -0.228686
   6 C :   -0.043454
   7 N :    0.308510
   8 N :    0.247817
   9 H :    0.025662
  10 H :    0.030864
  11 H :   -0.093287
  12 H :    0.036006
  13 O :   -0.271721
  14 O :   -0.275251
  15 C :   -0.013150
  16 C :   -0.008505
  17 H :    0.030911
  18 H :    0.010076
  19 C :   -0.027596
  20 H :    0.009186
  21 H :    0.028464
  22 H :   -0.011367
  23 H :    0.021742
  24 H :    0.015975
  25 H :    0.023759
  26 H :    0.025238
  27 H :    0.037473

  Mayer bond orders larger than 0.100000
B(  0-C ,  6-C ) :   1.1019 B(  0-C ,  7-N ) :   0.1035 B(  0-C , 15-C ) :   1.1423
B(  0-C , 16-C ) :   0.1094 B(  0-C , 17-H ) :   0.1422 B(  0-C , 18-H ) :   0.1347
B(  0-C , 26-H ) :   0.7336 B(  0-C , 27-H ) :   0.7621 B(  1-C ,  2-C ) :   1.1563
B(  1-C , 19-C ) :   1.3046 B(  1-C , 24-H ) :   0.7858 B(  1-C , 25-H ) :   0.6647
B(  2-C ,  3-H ) :   0.7436 B(  2-C ,  4-H ) :   0.7769 B(  2-C ,  5-C ) :   1.1456
B(  2-C , 19-C ) :   0.1158 B(  2-C , 24-H ) :   0.1344 B(  3-H ,  4-H ) :  -0.1184
B(  3-H ,  5-C ) :   0.2820 B(  4-H ,  5-C ) :   0.2825 B(  5-C , 13-O ) :   1.1364
B(  5-C , 14-O ) :   1.4338 B(  6-C ,  7-N ) :   1.2008 B(  6-C ,  8-N ) :   0.9243
B(  6-C ,  9-H ) :  -0.1130 B(  6-C , 10-H ) :  -0.1127 B(  6-C , 12-H ) :  -0.1469
B(  6-C , 26-H ) :   0.2147 B(  6-C , 27-H ) :   0.1608 B(  7-N ,  8-N ) :   0.1946
B(  7-N , 11-H ) :   1.0518 B(  7-N , 12-H ) :   1.0853 B(  8-N ,  9-H ) :   1.1597
B(  8-N , 10-H ) :   1.2620 B(  9-H , 10-H ) :  -0.1928 B( 11-H , 12-H ) :  -0.1496
B( 11-H , 13-O ) :   0.2745 B( 15-C , 16-C ) :   1.1890 B( 15-C , 17-H ) :   0.8927
B( 15-C , 18-H ) :   0.7112 B( 15-C , 20-H ) :   0.1519 B( 15-C , 26-H ) :   0.1423
B( 15-C , 27-H ) :   0.1068 B( 16-C , 18-H ) :   0.1990 B( 16-C , 19-C ) :   1.1721
B( 16-C , 20-H ) :   0.8409 B( 16-C , 21-H ) :   0.8961 B( 16-C , 22-H ) :   0.1116
B( 16-C , 23-H ) :   0.2503 B( 17-H , 18-H ) :  -0.1386 B( 19-C , 20-H ) :   0.1307
B( 19-C , 22-H ) :   0.8553 B( 19-C , 23-H ) :   0.8291 B( 19-C , 24-H ) :   0.2074
B( 19-C , 25-H ) :   0.2195 B( 22-H , 26-H ) :   0.1298 B( 24-H , 25-H ) :  -0.1435

Dispersion correction           -0.001393253
FINAL SINGLE POINT ENERGY      -573.814061375169

DIPOLE MOMENT
-------------
                                X             Y             Z
Electronic contribution:      1.73745      -2.91832      -8.77702
Nuclear contribution   :      1.39386       1.90489      10.36520
                        -----------------------------------------
Total Dipole Moment    :      3.13131      -1.01342       1.58819
                        -----------------------------------------
Magnitude (a.u.)       :      3.65437
Magnitude (Debye)      :      9.28868

Rotational constants in cm-1:     0.041165     0.025922     0.019001
Rotational constants in MHz :  1234.086888   777.109255   569.639629

                             ****ORCA TERMINATED NORMALLY****
TOTAL RUN TIME: 0 days 0 hours 2 minutes 17 seconds 341 msec
