                         Program Version 5.0.0 -  RELEASE  -
|  1> !M062X D3Zero RIJCOSX def2-SVPD def2/J TightSCF
|  2> *xyz 0 1
|  3> C         -0.87096        0.24804       -2.66280
|  4> C         -0.47749        0.60819       -4.10105
|  5> H          0.20677        1.45830       -4.11875
|  6> H         -1.36844        0.92942       -4.64785
|  7> C          0.18467       -0.50664       -4.91676
|  8> F         -0.15869       -1.70109       -4.65798
|  9> O          1.05594       -0.17441       -5.74037
| 10> H         -1.54056       -0.58646       -2.67455
| 11> H         -1.35339        1.08600       -2.20455
| 12> H          0.00660       -0.00662       -2.10609
| 13> *
| 14>
| 15> %MaxCore 64000
| 16>
| 17> %pal nprocs 4
| 18> end
| 19>
| 20> %scf
| 21>   MaxIter 150
| 22> end
| 23>
| 24>
| 25>                          ****END OF INPUT****

CARTESIAN COORDINATES (ANGSTROEM)
---------------------------------
  C     -0.870960    0.248040   -2.662800
  C     -0.477490    0.608190   -4.101050
  H      0.206770    1.458300   -4.118750
  H     -1.368440    0.929420   -4.647850
  C      0.184670   -0.506640   -4.916760
  F     -0.158690   -1.701090   -4.657980
  O      1.055940   -0.174410   -5.740370
  H     -1.540560   -0.586460   -2.674550
  H     -1.353390    1.086000   -2.204550
  H      0.006600   -0.006620   -2.106090

 Total Charge           Charge          ....    0
 Multiplicity           Mult            ....    1
 Number of Electrons    NEL             ....   40
 Basis Dimension        Dim             ....  146

ORBITAL ENERGIES
----------------

  NO   OCC          E(Eh)            E(eV)
   0   2.0000     -25.325455      -689.1407
   1   2.0000     -19.651165      -534.7354
   2   2.0000     -10.739088      -292.2254
   3   2.0000     -10.585554      -288.0476
   4   2.0000     -10.561128      -287.3829
   5   2.0000      -1.436571       -39.0911
   6   2.0000      -1.151898       -31.3447
   7   2.0000      -0.895055       -24.3557
   8   2.0000      -0.775736       -21.1088
   9   2.0000      -0.732652       -19.9365
  10   2.0000      -0.641496       -17.4560
  11   2.0000      -0.635129       -17.2828
  12   2.0000      -0.580727       -15.8024
  13   2.0000      -0.540971       -14.7206
  14   2.0000      -0.509548       -13.8655
  15   2.0000      -0.476644       -12.9702
  16   2.0000      -0.459202       -12.4955
  17   2.0000      -0.445086       -12.1114
  18   2.0000      -0.418400       -11.3852
  19   2.0000      -0.371586       -10.1114
  20   0.0000       0.013317         0.3624
  21   0.0000       0.026733         0.7274
  22   0.0000       0.060630         1.6498
  23   0.0000       0.067085         1.8255
  24   0.0000       0.090095         2.4516

MULLIKEN ATOMIC CHARGES
-----------------------
   0 C :    0.603071
   1 C :   -0.460584
   2 H :   -0.005158
   3 H :    0.063408
   4 C :    0.820283
   5 F :   -0.433927
   6 O :   -0.513633
   7 H :   -0.016126
   8 H :   -0.038969
   9 H :   -0.018365
Sum of atomic charges:   -0.0000000

LOEWDIN ATOMIC CHARGES
----------------------
   0 C :    0.133825
   1 C :    0.011043
   2 H :    0.034890
   3 H :    0.040611
   4 C :    0.013295
   5 F :   -0.057285
   6 O :   -0.139569
   7 H :   -0.014543
   8 H :   -0.012919
   9 H :   -0.009348

  Mayer bond orders larger than 0.100000
B(  0-C ,  1-C ) :   1.3083 B(  0-C ,  7-H ) :   0.8242 B(  0-C ,  8-H ) :   0.8186
B(  0-C ,  9-H ) :   0.8479 B(  1-C ,  2-H ) :   0.9858 B(  1-C ,  3-H ) :   0.8862
B(  1-C ,  4-C ) :   1.0458 B(  1-C ,  7-H ) :   0.1820 B(  1-C ,  8-H ) :   0.2041
B(  1-C ,  9-H ) :   0.1612 B(  2-H ,  4-C ) :   0.1291 B(  4-C ,  5-F ) :   0.6821
B(  4-C ,  6-O ) :   1.7888

Dispersion correction           -0.000096223
FINAL SINGLE POINT ENERGY      -292.068355060941

DIPOLE MOMENT
-------------
                                X             Y             Z
Electronic contribution:      2.59613      -5.32815      -5.27523
Nuclear contribution   :     -3.42837       5.66737       6.17046
                        -----------------------------------------
Total Dipole Moment    :     -0.83224       0.33923       0.89523
                        -----------------------------------------
Magnitude (a.u.)       :      1.26852
Magnitude (Debye)      :      3.22431

Rotational constants in cm-1:     0.304660     0.130969     0.097716
Rotational constants in MHz :  9133.464515  3926.366384  2929.457090

                             ****ORCA TERMINATED NORMALLY****
TOTAL RUN TIME: 0 days 0 hours 0 minutes 21 seconds 656 msec
