                         Program Version 5.0.0 -  RELEASE  -
|  1> !M062X D3Zero RIJCOSX def2-SVPD def2/J TightSCF
|  2> *xyz 0 1
|  3> C          2.48645       -2.67712       -2.56345
|  4> C          3.03764       -2.36672       -3.92351
|  5> C          2.28036       -2.45441       -4.96769
|  6> N          4.32174       -2.01793       -4.01664
|  7> H          4.87994       -1.91167       -3.17382
|  8> H          4.71015       -1.67088       -4.88356
|  9> H          1.27042       -2.41265       -4.86614
| 10> H          2.58183       -2.05528       -5.84688
| 11> C          2.49799       -1.46946       -1.61030
| 12> H          1.47259       -3.05153       -2.69437
| 13> H          3.08320       -3.49064       -2.14147
| 14> H          1.91240       -0.67831       -2.02991
| 15> H          3.50450       -1.13364       -1.47227
| 16> H          2.08509       -1.75655       -0.66585
| 17> *
| 18>
| 19> %MaxCore 64000
| 20>
| 21> %pal nprocs 4
| 22> end
| 23>
| 24> %scf
| 25>   MaxIter 150
| 26> end
| 27>
| 28>
| 29>                          ****END OF INPUT****

CARTESIAN COORDINATES (ANGSTROEM)
---------------------------------
  C      2.486450   -2.677120   -2.563450
  C      3.037640   -2.366720   -3.923510
  C      2.280360   -2.454410   -4.967690
  N      4.321740   -2.017930   -4.016640
  H      4.879940   -1.911670   -3.173820
  H      4.710150   -1.670880   -4.883560
  H      1.270420   -2.412650   -4.866140
  H      2.581830   -2.055280   -5.846880
  C      2.497990   -1.469460   -1.610300
  H      1.472590   -3.051530   -2.694370
  H      3.083200   -3.490640   -2.141470
  H      1.912400   -0.678310   -2.029910
  H      3.504500   -1.133640   -1.472270
  H      2.085090   -1.756550   -0.665850

 Total Charge           Charge          ....    0
 Multiplicity           Mult            ....    1
 Number of Electrons    NEL             ....   40
 Basis Dimension        Dim             ....  172

ORBITAL ENERGIES
----------------

  NO   OCC          E(Eh)            E(eV)
   0   2.0000     -14.762384      -401.7049
   1   2.0000     -10.571965      -287.6778
   2   2.0000     -10.549875      -287.0767
   3   2.0000     -10.540415      -286.8193
   4   2.0000     -10.482208      -285.2354
   5   2.0000      -1.022527       -27.8244
   6   2.0000      -0.868901       -23.6440
   7   2.0000      -0.812342       -22.1049
   8   2.0000      -0.716541       -19.4981
   9   2.0000      -0.642935       -17.4952
  10   2.0000      -0.598426       -16.2840
  11   2.0000      -0.549326       -14.9479
  12   2.0000      -0.505019       -13.7423
  13   2.0000      -0.499755       -13.5990
  14   2.0000      -0.454336       -12.3631
  15   2.0000      -0.448893       -12.2150
  16   2.0000      -0.416618       -11.3367
  17   2.0000      -0.396676       -10.7941
  18   2.0000      -0.389085       -10.5875
  19   2.0000      -0.251356        -6.8398
  20   0.0000       0.035237         0.9588
  21   0.0000       0.064386         1.7520
  22   0.0000       0.071982         1.9587
  23   0.0000       0.078800         2.1443
  24   0.0000       0.090748         2.4694

MULLIKEN ATOMIC CHARGES
-----------------------
   0 C :   -0.215148
   1 C :   -0.135438
   2 C :    0.353271
   3 N :    0.136863
   4 H :   -0.133020
   5 H :   -0.181680
   6 H :   -0.015355
   7 H :   -0.402909
   8 C :    0.678459
   9 H :    0.109691
  10 H :   -0.040471
  11 H :   -0.046089
  12 H :   -0.067980
  13 H :   -0.040194
Sum of atomic charges:   -0.0000000

LOEWDIN ATOMIC CHARGES
----------------------
   0 C :   -0.029865
   1 C :   -0.266223
   2 C :    0.164795
   3 N :    0.166972
   4 H :   -0.002494
   5 H :    0.006642
   6 H :   -0.075794
   7 H :   -0.082556
   8 C :    0.135310
   9 H :    0.020289
  10 H :    0.025271
  11 H :   -0.012023
  12 H :   -0.031462
  13 H :   -0.018862

  Mayer bond orders larger than 0.100000
B(  0-C ,  1-C ) :   1.2603 B(  0-C ,  8-C ) :   1.2314 B(  0-C ,  9-H ) :   0.8607
B(  0-C , 10-H ) :   0.9018 B(  0-C , 11-H ) :   0.1471 B(  0-C , 12-H ) :   0.2152
B(  0-C , 13-H ) :   0.1844 B(  1-C ,  2-C ) :   2.0507 B(  1-C ,  3-N ) :   1.1376
B(  1-C ,  6-H ) :   0.1102 B(  1-C ,  7-H ) :   0.2550 B(  1-C ,  9-H ) :   0.1475
B(  1-C , 10-H ) :   0.1685 B(  2-C ,  3-N ) :   0.2400 B(  2-C ,  6-H ) :   0.8607
B(  2-C ,  7-H ) :   0.6714 B(  3-N ,  4-H ) :   1.1606 B(  3-N ,  5-H ) :   1.2104
B(  4-H ,  5-H ) :  -0.1616 B(  6-H ,  7-H ) :   0.1192 B(  8-C , 11-H ) :   0.8438
B(  8-C , 12-H ) :   0.7785 B(  8-C , 13-H ) :   0.8347

Dispersion correction           -0.000196499
FINAL SINGLE POINT ENERGY      -212.300476137939

DIPOLE MOMENT
-------------
                                X             Y             Z
Electronic contribution:      1.51818      -0.88395      -2.13816
Nuclear contribution   :     -0.99743       1.27863       2.57190
                        -----------------------------------------
Total Dipole Moment    :      0.52075       0.39467       0.43374
                        -----------------------------------------
Magnitude (a.u.)       :      0.78427
Magnitude (Debye)      :      1.99345

Rotational constants in cm-1:     0.274050     0.130114     0.100964
Rotational constants in MHz :  8215.815505  3900.722919  3026.834930

                             ****ORCA TERMINATED NORMALLY****
TOTAL RUN TIME: 0 days 0 hours 0 minutes 25 seconds 655 msec
