                         Program Version 5.0.0 -  RELEASE  -
|  1> !M062X D3Zero RIJCOSX def2-SVPD def2/J TightSCF
|  2> *xyz 0 1
|  3> C         -0.87096        0.24804       -2.66280
|  4> C         -0.47749        0.60819       -4.10105
|  5> H          0.20677        1.45830       -4.11875
|  6> H         -1.36844        0.92942       -4.64785
|  7> C          0.18467       -0.50664       -4.91676
|  8> O         -0.15869       -1.70109       -4.65798
|  9> F          1.05594       -0.17441       -5.74037
| 10> H         -1.54056       -0.58646       -2.67455
| 11> H         -1.35339        1.08600       -2.20455
| 12> H          0.00660       -0.00662       -2.10609
| 13> *
| 14>
| 15> %MaxCore 64000
| 16>
| 17> %pal nprocs 4
| 18> end
| 19>
| 20> %scf
| 21>   MaxIter 150
| 22> end
| 23>
| 24>
| 25>                          ****END OF INPUT****

CARTESIAN COORDINATES (ANGSTROEM)
---------------------------------
  C     -0.870960    0.248040   -2.662800
  C     -0.477490    0.608190   -4.101050
  H      0.206770    1.458300   -4.118750
  H     -1.368440    0.929420   -4.647850
  C      0.184670   -0.506640   -4.916760
  O     -0.158690   -1.701090   -4.657980
  F      1.055940   -0.174410   -5.740370
  H     -1.540560   -0.586460   -2.674550
  H     -1.353390    1.086000   -2.204550
  H      0.006600   -0.006620   -2.106090

 Total Charge           Charge          ....    0
 Multiplicity           Mult            ....    1
 Number of Electrons    NEL             ....   40
 Basis Dimension        Dim             ....  146

ORBITAL ENERGIES
----------------

  NO   OCC          E(Eh)            E(eV)
   0   2.0000     -25.334785      -689.3946
   1   2.0000     -19.647918      -534.6470
   2   2.0000     -10.741467      -292.2902
   3   2.0000     -10.586804      -288.0816
   4   2.0000     -10.555257      -287.2231
   5   2.0000      -1.455964       -39.6188
   6   2.0000      -1.135952       -30.9108
   7   2.0000      -0.891307       -24.2537
   8   2.0000      -0.788071       -21.4445
   9   2.0000      -0.731239       -19.8980
  10   2.0000      -0.651556       -17.7297
  11   2.0000      -0.635386       -17.2897
  12   2.0000      -0.591440       -16.0939
  13   2.0000      -0.539435       -14.6788
  14   2.0000      -0.508896       -13.8478
  15   2.0000      -0.463321       -12.6076
  16   2.0000      -0.445984       -12.1358
  17   2.0000      -0.441147       -12.0042
  18   2.0000      -0.414281       -11.2732
  19   2.0000      -0.370357       -10.0779
  20   0.0000       0.010727         0.2919
  21   0.0000       0.028818         0.7842
  22   0.0000       0.056862         1.5473
  23   0.0000       0.070738         1.9249
  24   0.0000       0.090134         2.4527

MULLIKEN ATOMIC CHARGES
-----------------------
   0 C :    0.600644
   1 C :   -0.468210
   2 H :    0.010203
   3 H :    0.067281
   4 C :    0.818035
   5 O :   -0.563074
   6 F :   -0.389763
   7 H :   -0.013463
   8 H :   -0.040535
   9 H :   -0.021118
Sum of atomic charges:    0.0000000

LOEWDIN ATOMIC CHARGES
----------------------
   0 C :    0.143713
   1 C :    0.002047
   2 H :    0.024607
   3 H :    0.040519
   4 C :    0.013095
   5 O :   -0.151092
   6 F :   -0.042578
   7 H :   -0.010035
   8 H :   -0.013161
   9 H :   -0.007116

  Mayer bond orders larger than 0.100000
B(  0-C ,  1-C ) :   1.3416 B(  0-C ,  7-H ) :   0.8257 B(  0-C ,  8-H ) :   0.8139
B(  0-C ,  9-H ) :   0.8432 B(  1-C ,  2-H ) :   0.9438 B(  1-C ,  3-H ) :   0.8875
B(  1-C ,  4-C ) :   1.0862 B(  1-C ,  7-H ) :   0.1981 B(  1-C ,  8-H ) :   0.1994
B(  1-C ,  9-H ) :   0.1707 B(  2-H ,  4-C ) :   0.1129 B(  4-C ,  5-O ) :   1.7793
B(  4-C ,  6-F ) :   0.7029

Dispersion correction           -0.000089599
FINAL SINGLE POINT ENERGY      -292.061599043061

DIPOLE MOMENT
-------------
                                X             Y             Z
Electronic contribution:      4.62666      -2.80929      -7.09404
Nuclear contribution   :     -4.75269       4.00281       7.35060
                        -----------------------------------------
Total Dipole Moment    :     -0.12604       1.19352       0.25656
                        -----------------------------------------
Magnitude (a.u.)       :      1.22728
Magnitude (Debye)      :      3.11949

Rotational constants in cm-1:     0.323805     0.124913     0.096140
Rotational constants in MHz :  9707.430323  3744.789513  2882.191141

                             ****ORCA TERMINATED NORMALLY****
TOTAL RUN TIME: 0 days 0 hours 0 minutes 20 seconds 826 msec
