                         Program Version 5.0.0 -  RELEASE  -
|  1> !M062X D3Zero RIJCOSX def2-SVPD def2/J TightSCF
|  2> *xyz 0 1
|  3> C          2.48645       -2.67712       -2.56345
|  4> C          3.03764       -2.36672       -3.92351
|  5> N          2.28036       -2.45441       -4.96769
|  6> C          4.32174       -2.01793       -4.01664
|  7> H          4.87994       -1.91167       -3.17382
|  8> H          4.71015       -1.67088       -4.88356
|  9> H          1.27042       -2.41265       -4.86614
| 10> H          2.58183       -2.05528       -5.84688
| 11> C          2.49799       -1.46946       -1.61030
| 12> H          1.47259       -3.05153       -2.69437
| 13> H          3.08320       -3.49064       -2.14147
| 14> H          1.91240       -0.67831       -2.02991
| 15> H          3.50450       -1.13364       -1.47227
| 16> H          2.08509       -1.75655       -0.66585
| 17> *
| 18>
| 19> %MaxCore 64000
| 20>
| 21> %pal nprocs 4
| 22> end
| 23>
| 24> %scf
| 25>   MaxIter 150
| 26> end
| 27>
| 28>
| 29>                          ****END OF INPUT****

CARTESIAN COORDINATES (ANGSTROEM)
---------------------------------
  C      2.486450   -2.677120   -2.563450
  C      3.037640   -2.366720   -3.923510
  N      2.280360   -2.454410   -4.967690
  C      4.321740   -2.017930   -4.016640
  H      4.879940   -1.911670   -3.173820
  H      4.710150   -1.670880   -4.883560
  H      1.270420   -2.412650   -4.866140
  H      2.581830   -2.055280   -5.846880
  C      2.497990   -1.469460   -1.610300
  H      1.472590   -3.051530   -2.694370
  H      3.083200   -3.490640   -2.141470
  H      1.912400   -0.678310   -2.029910
  H      3.504500   -1.133640   -1.472270
  H      2.085090   -1.756550   -0.665850

 Total Charge           Charge          ....    0
 Multiplicity           Mult            ....    1
 Number of Electrons    NEL             ....   40
 Basis Dimension        Dim             ....  172

ORBITAL ENERGIES
----------------

  NO   OCC          E(Eh)            E(eV)
   0   2.0000     -14.766472      -401.8161
   1   2.0000     -10.572166      -287.6833
   2   2.0000     -10.550470      -287.0929
   3   2.0000     -10.536642      -286.7166
   4   2.0000     -10.482893      -285.2540
   5   2.0000      -1.038497       -28.2589
   6   2.0000      -0.870434       -23.6857
   7   2.0000      -0.795422       -21.6445
   8   2.0000      -0.722129       -19.6501
   9   2.0000      -0.646758       -17.5992
  10   2.0000      -0.595330       -16.1998
  11   2.0000      -0.554025       -15.0758
  12   2.0000      -0.514805       -14.0086
  13   2.0000      -0.475070       -12.9273
  14   2.0000      -0.462257       -12.5787
  15   2.0000      -0.444772       -12.1029
  16   2.0000      -0.414779       -11.2867
  17   2.0000      -0.399753       -10.8778
  18   2.0000      -0.397363       -10.8128
  19   2.0000      -0.241004        -6.5581
  20   0.0000       0.036827         1.0021
  21   0.0000       0.060843         1.6556
  22   0.0000       0.072000         1.9592
  23   0.0000       0.076066         2.0699
  24   0.0000       0.090809         2.4710

MULLIKEN ATOMIC CHARGES
-----------------------
   0 C :   -0.036588
   1 C :   -0.043348
   2 N :    0.087665
   3 C :    0.394157
   4 H :   -0.199268
   5 H :   -0.487382
   6 H :   -0.060378
   7 H :   -0.107667
   8 C :    0.657227
   9 H :   -0.074566
  10 H :    0.035978
  11 H :   -0.085143
  12 H :   -0.097633
  13 H :    0.016945
Sum of atomic charges:   -0.0000000

LOEWDIN ATOMIC CHARGES
----------------------
   0 C :   -0.029687
   1 C :   -0.267696
   2 N :    0.155225
   3 C :    0.182115
   4 H :   -0.084595
   5 H :   -0.090650
   6 H :    0.006744
   7 H :    0.012986
   8 C :    0.137555
   9 H :    0.008885
  10 H :    0.029432
  11 H :   -0.015094
  12 H :   -0.025499
  13 H :   -0.019722

  Mayer bond orders larger than 0.100000
B(  0-C ,  1-C ) :   1.1254 B(  0-C ,  3-C ) :   0.1135 B(  0-C ,  8-C ) :   1.2733
B(  0-C ,  9-H ) :   0.7923 B(  0-C , 10-H ) :   0.8331 B(  0-C , 11-H ) :   0.1753
B(  0-C , 12-H ) :   0.1898 B(  0-C , 13-H ) :   0.1571 B(  1-C ,  2-N ) :   1.0225
B(  1-C ,  3-C ) :   1.7437 B(  1-C ,  4-H ) :   0.1092 B(  1-C ,  5-H ) :   0.1231
B(  1-C ,  9-H ) :   0.2345 B(  1-C , 10-H ) :   0.1301 B(  2-N ,  3-C ) :   0.2395
B(  2-N ,  6-H ) :   1.0152 B(  2-N ,  7-H ) :   1.1364 B(  3-C ,  4-H ) :   0.8137
B(  3-C ,  5-H ) :   0.8516 B(  4-H ,  5-H ) :  -0.1689 B(  6-H ,  7-H ) :  -0.1243
B(  8-C , 11-H ) :   0.8395 B(  8-C , 12-H ) :   0.8390 B(  8-C , 13-H ) :   0.8127

Dispersion correction           -0.000196929
FINAL SINGLE POINT ENERGY      -212.300881148874

DIPOLE MOMENT
-------------
                                X             Y             Z
Electronic contribution:     -0.24305      -1.19381      -2.96735
Nuclear contribution   :     -0.52463       1.37972       2.79217
                        -----------------------------------------
Total Dipole Moment    :     -0.76768       0.18591      -0.17517
                        -----------------------------------------
Magnitude (a.u.)       :      0.80906
Magnitude (Debye)      :      2.05647

Rotational constants in cm-1:     0.281086     0.127387     0.100311
Rotational constants in MHz :  8426.743103  3818.969834  3007.238026

                             ****ORCA TERMINATED NORMALLY****
TOTAL RUN TIME: 0 days 0 hours 0 minutes 27 seconds 38 msec
