                         Program Version 5.0.0 -  RELEASE  -
|  1> !M062X D3Zero RIJCOSX def2-SVPD def2/J TightSCF xyzfile
|  2>
|  3> *xyzfile 0 1 D2.xyz
|  4>
|  5> %MaxCore 64000
|  6>
|  7> %pal nprocs 4
|  8> end
|  9>
| 10> %scf
| 11>   MaxIter 150
| 12> end
| 13>
| 14>
| 15>                          ****END OF INPUT****

CARTESIAN COORDINATES (ANGSTROEM)
---------------------------------
  C      2.486452   -2.677121   -2.563447
  C     -0.870963    0.248043   -2.662804
  C     -0.477492    0.608191   -4.101052
  H      0.206773    1.458299   -4.118748
  H     -1.368442    0.929419   -4.647855
  C      0.184673   -0.506640   -4.916760
  C      3.037640   -2.366715   -3.923509
  N      2.280360   -2.454408   -4.967692
  C      4.321736   -2.017932   -4.016641
  H      4.879940   -1.911668   -3.173823
  H      4.710148   -1.670882   -4.883561
  H      1.270423   -2.412650   -4.866143
  H      2.581829   -2.055282   -5.846878
  F     -0.158685   -1.701088   -4.657981
  O      1.055938   -0.174410   -5.740373
  C      2.497991   -1.469464   -1.610303
  C      1.582841   -0.321986   -2.042619
  H      2.193083   -1.833912   -0.625420
  H      3.523356   -1.103982   -1.490392
  C      0.100160   -0.673551   -1.915815
  H      1.822311   -0.040361   -3.072834
  H      1.813180    0.557019   -1.433266
  H     -0.063284   -1.679120   -2.301112
  H     -0.168820   -0.691680   -0.853831
  H     -1.001048    1.181040   -2.104071
  H     -1.844645   -0.246592   -2.663281
  H      1.472592   -3.051527   -2.694366
  H      3.083201   -3.490638   -2.141472

 Total Charge           Charge          ....    0
 Multiplicity           Mult            ....    1
 Number of Electrons    NEL             ....   94
 Basis Dimension        Dim             ....  374

ORBITAL ENERGIES
----------------

  NO   OCC          E(Eh)            E(eV)
   0   2.0000     -25.354801      -689.9392
   1   2.0000     -19.667682      -535.1848
   2   2.0000     -14.740032      -401.0967
   3   2.0000     -10.756202      -292.6911
   4   2.0000     -10.591755      -288.2163
   5   2.0000     -10.572990      -287.7057
   6   2.0000     -10.561114      -287.3825
   7   2.0000     -10.558649      -287.3155
   8   2.0000     -10.551592      -287.1234
   9   2.0000     -10.548157      -287.0299
  10   2.0000     -10.545031      -286.9449
  11   2.0000     -10.470170      -284.9078
  12   2.0000      -1.470094       -40.0033
  13   2.0000      -1.170028       -31.8381
  14   2.0000      -1.022242       -27.8166
  15   2.0000      -0.928351       -25.2617
  16   2.0000      -0.885981       -24.1088
  17   2.0000      -0.843571       -22.9547
  18   2.0000      -0.797636       -21.7048
  19   2.0000      -0.780446       -21.2370
  20   2.0000      -0.753647       -20.5078
  21   2.0000      -0.709230       -19.2991
  22   2.0000      -0.684560       -18.6278
  23   2.0000      -0.670195       -18.2369
  24   2.0000      -0.656301       -17.8588
  25   2.0000      -0.618586       -16.8326
  26   2.0000      -0.591091       -16.0844
  27   2.0000      -0.573071       -15.5941
  28   2.0000      -0.556540       -15.1442
  29   2.0000      -0.550202       -14.9718
  30   2.0000      -0.543811       -14.7979
  31   2.0000      -0.517660       -14.0863
  32   2.0000      -0.501425       -13.6445
  33   2.0000      -0.490507       -13.3474
  34   2.0000      -0.477135       -12.9835
  35   2.0000      -0.462219       -12.5776
  36   2.0000      -0.453870       -12.3504
  37   2.0000      -0.444670       -12.1001
  38   2.0000      -0.431808       -11.7501
  39   2.0000      -0.420213       -11.4346
  40   2.0000      -0.408355       -11.1119
  41   2.0000      -0.403739       -10.9863
  42   2.0000      -0.392384       -10.6773
  43   2.0000      -0.383446       -10.4341
  44   2.0000      -0.375533       -10.2188
  45   2.0000      -0.371362       -10.1053
  46   2.0000      -0.226048        -6.1511
  47   0.0000      -0.004356        -0.1185
  48   0.0000       0.021593         0.5876
  49   0.0000       0.046376         1.2620
  50   0.0000       0.048410         1.3173
  51   0.0000       0.051746         1.4081

MULLIKEN ATOMIC CHARGES
-----------------------
   0 C :    0.641196
   1 C :    0.526998
   2 C :    0.203064
   3 H :    0.265554
   4 H :   -0.273907
   5 C :    0.594491
   6 C :   -0.126641
   7 N :    0.319702
   8 C :    0.340855
   9 H :   -0.145791
  10 H :   -0.386387
  11 H :   -0.408101
  12 H :    0.010091
  13 F :   -0.558081
  14 O :   -0.483270
  15 C :    0.256520
  16 C :    0.221874
  17 H :   -0.099207
  18 H :   -0.080884
  19 C :    0.073722
  20 H :   -0.165152
  21 H :   -0.253379
  22 H :   -0.002090
  23 H :   -0.226413
  24 H :   -0.113703
  25 H :    0.031420
  26 H :   -0.086656
  27 H :   -0.075825
Sum of atomic charges:    0.0000000

LOEWDIN ATOMIC CHARGES
----------------------
   0 C :    0.024983
   1 C :   -0.016308
   2 C :    0.063800
   3 H :    0.041134
   4 H :    0.040898
   5 C :    0.017346
   6 C :   -0.246661
   7 N :    0.189542
   8 C :    0.181883
   9 H :   -0.089019
  10 H :   -0.089696
  11 H :   -0.078364
  12 H :    0.015163
  13 F :   -0.059823
  14 O :   -0.123352
  15 C :   -0.013296
  16 C :   -0.011636
  17 H :    0.022599
  18 H :    0.018075
  19 C :   -0.028072
  20 H :    0.006153
  21 H :    0.028433
  22 H :   -0.008128
  23 H :    0.029905
  24 H :    0.027605
  25 H :    0.024249
  26 H :    0.000946
  27 H :    0.031641

  Mayer bond orders larger than 0.100000
B(  0-C ,  6-C ) :   0.9500 B(  0-C ,  7-N ) :   0.1153 B(  0-C , 10-H ) :   0.1457
B(  0-C , 15-C ) :   1.1429 B(  0-C , 17-H ) :   0.1309 B(  0-C , 18-H ) :   0.1629
B(  0-C , 26-H ) :   0.5587 B(  0-C , 27-H ) :   0.7605 B(  1-C ,  2-C ) :   1.1575
B(  1-C ,  4-H ) :   0.1077 B(  1-C , 19-C ) :   1.2874 B(  1-C , 24-H ) :   0.7814
B(  1-C , 25-H ) :   0.6788 B(  2-C ,  3-H ) :   0.7542 B(  2-C ,  4-H ) :   0.7915
B(  2-C ,  5-C ) :   1.1996 B(  2-C , 19-C ) :   0.1011 B(  2-C , 24-H ) :   0.1185
B(  3-H ,  4-H ) :  -0.1108 B(  3-H ,  5-C ) :   0.2141 B(  4-H ,  5-C ) :   0.2923
B(  5-C , 13-F ) :   0.4838 B(  5-C , 14-O ) :   1.7470 B(  6-C ,  7-N ) :   1.0256
B(  6-C ,  8-C ) :   1.7894 B(  6-C ,  9-H ) :   0.1403 B(  6-C , 10-H ) :   0.1965
B(  6-C , 26-H ) :   0.2746 B(  6-C , 27-H ) :   0.1411 B(  7-N ,  8-C ) :   0.2731
B(  7-N , 11-H ) :   0.9290 B(  7-N , 12-H ) :   0.9592 B(  8-C ,  9-H ) :   0.8459
B(  8-C , 10-H ) :   0.6811 B( 11-H , 12-H ) :  -0.1528 B( 11-H , 13-F ) :   0.1468
B( 11-H , 26-H ) :   0.1262 B( 15-C , 16-C ) :   1.2114 B( 15-C , 17-H ) :   0.8802
B( 15-C , 18-H ) :   0.7305 B( 15-C , 20-H ) :   0.1589 B( 15-C , 26-H ) :   0.1933
B( 15-C , 27-H ) :   0.1218 B( 16-C , 17-H ) :   0.1134 B( 16-C , 18-H ) :   0.2193
B( 16-C , 19-C ) :   1.1642 B( 16-C , 20-H ) :   0.8370 B( 16-C , 21-H ) :   0.9217
B( 16-C , 23-H ) :   0.2276 B( 16-C , 26-H ) :  -0.1049 B( 17-H , 18-H ) :  -0.1717
B( 19-C , 20-H ) :   0.1245 B( 19-C , 21-H ) :   0.1014 B( 19-C , 22-H ) :   0.8636
B( 19-C , 23-H ) :   0.8487 B( 19-C , 24-H ) :   0.1965 B( 19-C , 25-H ) :   0.2184
B( 22-H , 26-H ) :   0.1339 B( 24-H , 25-H ) :  -0.1384

Dispersion correction           -0.001378231
FINAL SINGLE POINT ENERGY      -581.704397498262

DIPOLE MOMENT
-------------
                                X             Y             Z
Electronic contribution:     -5.32647      -1.78324     -10.85342
Nuclear contribution   :      3.65024       2.44123      11.52670
                        -----------------------------------------
Total Dipole Moment    :     -1.67623       0.65799       0.67328
                        -----------------------------------------
Magnitude (a.u.)       :      1.92250
Magnitude (Debye)      :      4.88660

Rotational constants in cm-1:     0.040600     0.026409     0.019262
Rotational constants in MHz :  1217.142957   791.712481   577.449390

                             ****ORCA TERMINATED NORMALLY****
TOTAL RUN TIME: 0 days 0 hours 2 minutes 16 seconds 894 msec
