                         Program Version 5.0.0 -  RELEASE  -
|  1> !M062X D3Zero RIJCOSX def2-SVPD def2/J TightSCF xyzfile
|  2>
|  3> *xyzfile 0 1 D3.xyz
|  4>
|  5> %MaxCore 64000
|  6>
|  7> %pal nprocs 4
|  8> end
|  9>
| 10> %scf
| 11>   MaxIter 150
| 12> end
| 13>
| 14>
| 15>                          ****END OF INPUT****

CARTESIAN COORDINATES (ANGSTROEM)
---------------------------------
  C      2.486452   -2.677121   -2.563447
  C     -0.870963    0.248043   -2.662804
  C     -0.477492    0.608191   -4.101052
  H      0.206773    1.458299   -4.118748
  H     -1.368442    0.929419   -4.647855
  C      0.184673   -0.506640   -4.916760
  C      3.037640   -2.366715   -3.923509
  C      2.280360   -2.454408   -4.967692
  N      4.321736   -2.017932   -4.016641
  H      4.879940   -1.911668   -3.173823
  H      4.710148   -1.670882   -4.883561
  H      1.270423   -2.412650   -4.866143
  H      2.581829   -2.055282   -5.846878
  O     -0.158685   -1.701088   -4.657981
  F      1.055938   -0.174410   -5.740373
  C      2.497991   -1.469464   -1.610303
  C      1.582841   -0.321986   -2.042619
  H      2.193083   -1.833912   -0.625420
  H      3.523356   -1.103982   -1.490392
  C      0.100160   -0.673551   -1.915815
  H      1.822311   -0.040361   -3.072834
  H      1.813180    0.557019   -1.433266
  H     -0.063284   -1.679120   -2.301112
  H     -0.168820   -0.691680   -0.853831
  H     -1.001048    1.181040   -2.104071
  H     -1.844645   -0.246592   -2.663281
  H      1.472592   -3.051527   -2.694366
  H      3.083201   -3.490638   -2.141472

 Total Charge           Charge          ....    0
 Multiplicity           Mult            ....    1
 Number of Electrons    NEL             ....   94
 Basis Dimension        Dim             ....  374

ORBITAL ENERGIES
----------------

  NO   OCC          E(Eh)            E(eV)
   0   2.0000     -25.334164      -689.3777
   1   2.0000     -19.646470      -534.6076
   2   2.0000     -14.750078      -401.3700
   3   2.0000     -10.743095      -292.3345
   4   2.0000     -10.583228      -287.9843
   5   2.0000     -10.562719      -287.4262
   6   2.0000     -10.554986      -287.2158
   7   2.0000     -10.547655      -287.0163
   8   2.0000     -10.547353      -287.0081
   9   2.0000     -10.544602      -286.9332
  10   2.0000     -10.538913      -286.7784
  11   2.0000     -10.454005      -284.4679
  12   2.0000      -1.454994       -39.5924
  13   2.0000      -1.144464       -31.1424
  14   2.0000      -1.009910       -27.4810
  15   2.0000      -0.915085       -24.9007
  16   2.0000      -0.881002       -23.9733
  17   2.0000      -0.830813       -22.6076
  18   2.0000      -0.807892       -21.9839
  19   2.0000      -0.769290       -20.9334
  20   2.0000      -0.742105       -20.1937
  21   2.0000      -0.696827       -18.9616
  22   2.0000      -0.655551       -17.8384
  23   2.0000      -0.654004       -17.7964
  24   2.0000      -0.634922       -17.2771
  25   2.0000      -0.620972       -16.8975
  26   2.0000      -0.597669       -16.2634
  27   2.0000      -0.582448       -15.8492
  28   2.0000      -0.550717       -14.9858
  29   2.0000      -0.542529       -14.7630
  30   2.0000      -0.525033       -14.2869
  31   2.0000      -0.509759       -13.8713
  32   2.0000      -0.503191       -13.6925
  33   2.0000      -0.472722       -12.8634
  34   2.0000      -0.470408       -12.8005
  35   2.0000      -0.462902       -12.5962
  36   2.0000      -0.442904       -12.0520
  37   2.0000      -0.431825       -11.7506
  38   2.0000      -0.422039       -11.4843
  39   2.0000      -0.419867       -11.4252
  40   2.0000      -0.399246       -10.8640
  41   2.0000      -0.392319       -10.6756
  42   2.0000      -0.377841       -10.2816
  43   2.0000      -0.372284       -10.1304
  44   2.0000      -0.370714       -10.0876
  45   2.0000      -0.339105        -9.2275
  46   2.0000      -0.235559        -6.4099
  47   0.0000       0.007538         0.2051
  48   0.0000       0.030040         0.8174
  49   0.0000       0.044220         1.2033
  50   0.0000       0.049125         1.3368
  51   0.0000       0.057415         1.5623

MULLIKEN ATOMIC CHARGES
-----------------------
   0 C :    0.285194
   1 C :    0.534913
   2 C :    0.233814
   3 H :    0.229708
   4 H :   -0.281604
   5 C :    0.563887
   6 C :   -0.207651
   7 C :    1.078791
   8 N :    0.125572
   9 H :   -0.083457
  10 H :   -0.169180
  11 H :   -0.472318
  12 H :   -0.389141
  13 O :   -0.738656
  14 F :   -0.427570
  15 C :    0.334377
  16 C :    0.208072
  17 H :   -0.112328
  18 H :   -0.112138
  19 C :    0.024612
  20 H :   -0.108637
  21 H :   -0.225995
  22 H :    0.012803
  23 H :   -0.235277
  24 H :   -0.110499
  25 H :    0.068197
  26 H :    0.161524
  27 H :   -0.187014
Sum of atomic charges:    0.0000000

LOEWDIN ATOMIC CHARGES
----------------------
   0 C :    0.027863
   1 C :   -0.005816
   2 C :    0.054853
   3 H :    0.028773
   4 H :    0.039640
   5 C :    0.038761
   6 C :   -0.245522
   7 C :    0.183424
   8 N :    0.165673
   9 H :   -0.007478
  10 H :    0.003711
  11 H :   -0.167315
  12 H :   -0.069919
  13 O :   -0.144291
  14 F :   -0.027259
  15 C :   -0.018806
  16 C :   -0.015250
  17 H :    0.022719
  18 H :    0.009774
  19 C :   -0.022524
  20 H :    0.004486
  21 H :    0.025065
  22 H :   -0.005802
  23 H :    0.028399
  24 H :    0.025900
  25 H :    0.028869
  26 H :    0.015590
  27 H :    0.026483

  Mayer bond orders larger than 0.100000
B(  0-C ,  6-C ) :   1.2016 B(  0-C ,  7-C ) :   0.1293 B(  0-C ,  8-N ) :   0.1217
B(  0-C , 15-C ) :   1.1090 B(  0-C , 16-C ) :   0.1152 B(  0-C , 17-H ) :   0.1843
B(  0-C , 18-H ) :   0.2032 B(  0-C , 26-H ) :   0.7140 B(  0-C , 27-H ) :   0.8623
B(  1-C ,  2-C ) :   1.1916 B(  1-C ,  4-H ) :   0.1184 B(  1-C , 19-C ) :   1.3094
B(  1-C , 24-H ) :   0.7656 B(  1-C , 25-H ) :   0.6608 B(  2-C ,  3-H ) :   0.7808
B(  2-C ,  4-H ) :   0.7418 B(  2-C ,  5-C ) :   1.2112 B(  2-C , 19-C ) :   0.1127
B(  2-C , 24-H ) :   0.1306 B(  3-H ,  4-H ) :  -0.1141 B(  3-H ,  5-C ) :   0.1558
B(  4-H ,  5-C ) :   0.3124 B(  5-C , 11-H ) :   0.1031 B(  5-C , 13-O ) :   1.6263
B(  5-C , 14-F ) :   0.5666 B(  6-C ,  7-C ) :   2.0198 B(  6-C ,  8-N ) :   1.0254
B(  6-C , 11-H ) :   0.2268 B(  6-C , 12-H ) :   0.5220 B(  6-C , 15-C ) :   0.1392
B(  6-C , 20-H ) :   0.1027 B(  6-C , 26-H ) :   0.1736 B(  6-C , 27-H ) :   0.2188
B(  7-C ,  8-N ) :   0.4265 B(  7-C , 11-H ) :   0.4132 B(  7-C , 26-H ) :  -0.1409
B(  8-N ,  9-H ) :   1.1521 B(  8-N , 10-H ) :   1.1818 B(  9-H , 10-H ) :  -0.1778
B( 11-H , 12-H ) :   0.2292 B( 11-H , 13-O ) :   0.1380 B( 15-C , 16-C ) :   1.1924
B( 15-C , 17-H ) :   0.8756 B( 15-C , 18-H ) :   0.6962 B( 15-C , 20-H ) :   0.1485
B( 15-C , 26-H ) :   0.1551 B( 16-C , 18-H ) :   0.2175 B( 16-C , 19-C ) :   1.1830
B( 16-C , 20-H ) :   0.8485 B( 16-C , 21-H ) :   0.8891 B( 16-C , 23-H ) :   0.2365
B( 16-C , 26-H ) :  -0.1128 B( 17-H , 18-H ) :  -0.1297 B( 19-C , 20-H ) :   0.1113
B( 19-C , 21-H ) :   0.1009 B( 19-C , 22-H ) :   0.8771 B( 19-C , 23-H ) :   0.8406
B( 19-C , 24-H ) :   0.2067 B( 19-C , 25-H ) :   0.2237 B( 22-H , 26-H ) :   0.1377
B( 24-H , 25-H ) :  -0.1420

Dispersion correction           -0.001370931
FINAL SINGLE POINT ENERGY      -581.686995148061

DIPOLE MOMENT
-------------
                                X             Y             Z
Electronic contribution:     -1.76393       0.91538     -12.08086
Nuclear contribution   :      1.88979       0.56282      12.66056
                        -----------------------------------------
Total Dipole Moment    :      0.12586       1.47820       0.57970
                        -----------------------------------------
Magnitude (a.u.)       :      1.59279
Magnitude (Debye)      :      4.04855

Rotational constants in cm-1:     0.040271     0.025954     0.018866
Rotational constants in MHz :  1207.302496   778.083475   565.600538

                             ****ORCA TERMINATED NORMALLY****
TOTAL RUN TIME: 0 days 0 hours 2 minutes 17 seconds 324 msec
