                         Program Version 5.0.0 -  RELEASE  -
|  1> !M062X D3Zero RIJCOSX def2-SVPD def2/J TightSCF xyzfile
|  2>
|  3> *xyzfile 0 1 D4.xyz
|  4>
|  5> %MaxCore 64000
|  6>
|  7> %pal nprocs 4
|  8> end
|  9>
| 10> %scf
| 11>   MaxIter 150
| 12> end
| 13>
| 14>
| 15>                          ****END OF INPUT****

CARTESIAN COORDINATES (ANGSTROEM)
---------------------------------
  C      2.486452   -2.677121   -2.563447
  C     -0.870963    0.248043   -2.662804
  C     -0.477492    0.608191   -4.101052
  H      0.206773    1.458299   -4.118748
  H     -1.368442    0.929419   -4.647855
  C      0.184673   -0.506640   -4.916760
  C      3.037640   -2.366715   -3.923509
  N      2.280360   -2.454408   -4.967692
  C      4.321736   -2.017932   -4.016641
  H      4.879940   -1.911668   -3.173823
  H      4.710148   -1.670882   -4.883561
  H      1.270423   -2.412650   -4.866143
  H      2.581829   -2.055282   -5.846878
  O     -0.158685   -1.701088   -4.657981
  F      1.055938   -0.174410   -5.740373
  C      2.497991   -1.469464   -1.610303
  C      1.582841   -0.321986   -2.042619
  H      2.193083   -1.833912   -0.625420
  H      3.523356   -1.103982   -1.490392
  C      0.100160   -0.673551   -1.915815
  H      1.822311   -0.040361   -3.072834
  H      1.813180    0.557019   -1.433266
  H     -0.063284   -1.679120   -2.301112
  H     -0.168820   -0.691680   -0.853831
  H     -1.001048    1.181040   -2.104071
  H     -1.844645   -0.246592   -2.663281
  H      1.472592   -3.051527   -2.694366
  H      3.083201   -3.490638   -2.141472

 Total Charge           Charge          ....    0
 Multiplicity           Mult            ....    1
 Number of Electrons    NEL             ....   94
 Basis Dimension        Dim             ....  374

ORBITAL ENERGIES
----------------

  NO   OCC          E(Eh)            E(eV)
   0   2.0000     -25.356133      -689.9755
   1   2.0000     -19.672965      -535.3286
   2   2.0000     -14.730976      -400.8502
   3   2.0000     -10.766550      -292.9727
   4   2.0000     -10.596111      -288.3348
   5   2.0000     -10.571035      -287.6525
   6   2.0000     -10.558006      -287.2979
   7   2.0000     -10.550291      -287.0880
   8   2.0000     -10.549983      -287.0796
   9   2.0000     -10.544752      -286.9373
  10   2.0000     -10.539082      -286.7830
  11   2.0000     -10.467717      -284.8411
  12   2.0000      -1.476824       -40.1864
  13   2.0000      -1.170292       -31.8453
  14   2.0000      -1.016240       -27.6533
  15   2.0000      -0.924190       -25.1485
  16   2.0000      -0.883865       -24.0512
  17   2.0000      -0.842006       -22.9121
  18   2.0000      -0.801082       -21.7986
  19   2.0000      -0.774486       -21.0748
  20   2.0000      -0.751194       -20.4410
  21   2.0000      -0.705913       -19.2089
  22   2.0000      -0.674408       -18.3516
  23   2.0000      -0.664883       -18.0924
  24   2.0000      -0.645446       -17.5635
  25   2.0000      -0.634256       -17.2590
  26   2.0000      -0.605234       -16.4693
  27   2.0000      -0.572505       -15.5787
  28   2.0000      -0.556241       -15.1361
  29   2.0000      -0.549831       -14.9617
  30   2.0000      -0.543608       -14.7923
  31   2.0000      -0.517667       -14.0864
  32   2.0000      -0.494964       -13.4687
  33   2.0000      -0.484377       -13.1806
  34   2.0000      -0.474178       -12.9030
  35   2.0000      -0.461868       -12.5681
  36   2.0000      -0.447522       -12.1777
  37   2.0000      -0.441654       -12.0180
  38   2.0000      -0.426608       -11.6086
  39   2.0000      -0.422812       -11.5053
  40   2.0000      -0.403130       -10.9697
  41   2.0000      -0.401153       -10.9159
  42   2.0000      -0.389058       -10.5868
  43   2.0000      -0.382436       -10.4066
  44   2.0000      -0.375284       -10.2120
  45   2.0000      -0.364188        -9.9101
  46   2.0000      -0.223315        -6.0767
  47   0.0000      -0.013039        -0.3548
  48   0.0000       0.021507         0.5852
  49   0.0000       0.042823         1.1653
  50   0.0000       0.051240         1.3943
  51   0.0000       0.052707         1.4342

MULLIKEN ATOMIC CHARGES
-----------------------
   0 C :    0.635154
   1 C :    0.527477
   2 C :    0.174465
   3 H :    0.268137
   4 H :   -0.261300
   5 C :    0.696358
   6 C :   -0.147220
   7 N :    0.283472
   8 C :    0.348233
   9 H :   -0.151988
  10 H :   -0.391014
  11 H :   -0.366958
  12 H :   -0.010832
  13 O :   -0.708562
  14 F :   -0.400370
  15 C :    0.242263
  16 C :    0.160078
  17 H :   -0.095707
  18 H :   -0.087657
  19 C :    0.052283
  20 H :   -0.115813
  21 H :   -0.263494
  22 H :    0.046163
  23 H :   -0.250282
  24 H :   -0.106975
  25 H :    0.064860
  26 H :   -0.071280
  27 H :   -0.069490
Sum of atomic charges:    0.0000000

LOEWDIN ATOMIC CHARGES
----------------------
   0 C :    0.028709
   1 C :   -0.004534
   2 C :    0.057728
   3 H :    0.032496
   4 H :    0.042294
   5 C :    0.043177
   6 C :   -0.248657
   7 N :    0.185386
   8 C :    0.175422
   9 H :   -0.090917
  10 H :   -0.094300
  11 H :   -0.113985
  12 H :    0.014215
  13 O :   -0.135235
  14 F :   -0.024573
  15 C :   -0.013006
  16 C :   -0.014893
  17 H :    0.023292
  18 H :    0.016571
  19 C :   -0.024170
  20 H :    0.003023
  21 H :    0.026645
  22 H :   -0.008320
  23 H :    0.029700
  24 H :    0.028009
  25 H :    0.029322
  26 H :    0.005318
  27 H :    0.031283

  Mayer bond orders larger than 0.100000
B(  0-C ,  6-C ) :   0.9595 B(  0-C ,  7-N ) :   0.1116 B(  0-C , 10-H ) :   0.1475
B(  0-C , 15-C ) :   1.1416 B(  0-C , 16-C ) :   0.1207 B(  0-C , 17-H ) :   0.1270
B(  0-C , 18-H ) :   0.1609 B(  0-C , 26-H ) :   0.5729 B(  0-C , 27-H ) :   0.7525
B(  1-C ,  2-C ) :   1.1970 B(  1-C ,  4-H ) :   0.1304 B(  1-C , 19-C ) :   1.2993
B(  1-C , 24-H ) :   0.7674 B(  1-C , 25-H ) :   0.6675 B(  2-C ,  3-H ) :   0.7584
B(  2-C ,  4-H ) :   0.7685 B(  2-C ,  5-C ) :   1.2358 B(  2-C , 19-C ) :   0.1117
B(  2-C , 24-H ) :   0.1341 B(  3-H ,  4-H ) :  -0.1165 B(  3-H ,  5-C ) :   0.1624
B(  4-H ,  5-C ) :   0.2931 B(  5-C , 13-O ) :   1.5411 B(  5-C , 14-F ) :   0.5759
B(  6-C ,  7-N ) :   1.0538 B(  6-C ,  8-C ) :   1.7793 B(  6-C ,  9-H ) :   0.1554
B(  6-C , 10-H ) :   0.1932 B(  6-C , 26-H ) :   0.2724 B(  6-C , 27-H ) :   0.1378
B(  7-N ,  8-C ) :   0.2674 B(  7-N , 11-H ) :   0.9117 B(  7-N , 12-H ) :   0.9703
B(  8-C ,  9-H ) :   0.8368 B(  8-C , 10-H ) :   0.6854 B( 11-H , 12-H ) :  -0.1574
B( 11-H , 13-O ) :   0.1633 B( 11-H , 26-H ) :   0.1215 B( 15-C , 16-C ) :   1.2145
B( 15-C , 17-H ) :   0.8758 B( 15-C , 18-H ) :   0.7332 B( 15-C , 20-H ) :   0.1599
B( 15-C , 26-H ) :   0.1949 B( 15-C , 27-H ) :   0.1252 B( 16-C , 17-H ) :   0.1155
B( 16-C , 18-H ) :   0.2217 B( 16-C , 19-C ) :   1.1733 B( 16-C , 20-H ) :   0.8352
B( 16-C , 21-H ) :   0.9410 B( 16-C , 23-H ) :   0.2333 B( 16-C , 26-H ) :  -0.1080
B( 17-H , 18-H ) :  -0.1729 B( 19-C , 20-H ) :   0.1086 B( 19-C , 22-H ) :   0.8801
B( 19-C , 23-H ) :   0.8520 B( 19-C , 24-H ) :   0.2015 B( 19-C , 25-H ) :   0.2216
B( 22-H , 26-H ) :   0.1266 B( 24-H , 25-H ) :  -0.1399

Dispersion correction           -0.001368300
FINAL SINGLE POINT ENERGY      -581.705445058138

DIPOLE MOMENT
-------------
                                X             Y             Z
Electronic contribution:     -3.43328       0.80364     -12.71161
Nuclear contribution   :      2.21030       0.63135      12.80988
                        -----------------------------------------
Total Dipole Moment    :     -1.22298       1.43499       0.09828
                        -----------------------------------------
Magnitude (a.u.)       :      1.88800
Magnitude (Debye)      :      4.79891

Rotational constants in cm-1:     0.039980     0.026547     0.019089
Rotational constants in MHz :  1198.568620   795.867393   572.288555

                             ****ORCA TERMINATED NORMALLY****
TOTAL RUN TIME: 0 days 0 hours 2 minutes 18 seconds 830 msec
