                         Program Version 5.0.0 -  RELEASE  -
|  1> !BLYP D3BJ RIJCOSX def2-TZVPD def2/J TightSCF
|  2> *xyz -1 1
|  3> C         -0.05517        1.61942       -3.78858
|  4> C          1.22302        2.46987       -3.75691
|  5> H          1.11470        3.25807       -4.53300
|  6> H          1.23773        3.01124       -2.79216
|  7> O          2.35381        1.71203       -3.93448
|  8> H         -0.10198        1.08015       -4.71156
|  9> H         -0.91014        2.25726       -3.70441
| 10> H         -0.04403        0.92826       -2.97183
| 11> *
| 12>
| 13> %MaxCore 64000
| 14>
| 15> %pal nprocs 4
| 16> end
| 17>
| 18> %scf
| 19>   MaxIter 150
| 20> end
| 21>
| 22>
| 23>                          ****END OF INPUT****

CARTESIAN COORDINATES (ANGSTROEM)
---------------------------------
  C     -0.055170    1.619420   -3.788580
  C      1.223020    2.469870   -3.756910
  H      1.114700    3.258070   -4.533000
  H      1.237730    3.011240   -2.792160
  O      2.353810    1.712030   -3.934480
  H     -0.101980    1.080150   -4.711560
  H     -0.910140    2.257260   -3.704410
  H     -0.044030    0.928260   -2.971830

 Total Charge           Charge          ....   -1
 Multiplicity           Mult            ....    1
 Number of Electrons    NEL             ....   26
 Basis Dimension        Dim             ....  159

ORBITAL ENERGIES
----------------

  NO   OCC          E(Eh)            E(eV)
   0   2.0000     -18.457333      -502.2496
   1   2.0000      -9.722809      -264.5711
   2   2.0000      -9.697229      -263.8750
   3   2.0000      -0.600434       -16.3386
   4   2.0000      -0.453873       -12.3505
   5   2.0000      -0.313381        -8.5275
   6   2.0000      -0.202270        -5.5041
   7   2.0000      -0.180276        -4.9056
   8   2.0000      -0.130962        -3.5637
   9   2.0000      -0.115309        -3.1377
  10   2.0000      -0.073553        -2.0015
  11   2.0000       0.062652         1.7049
  12   2.0000       0.066134         1.7996
  13   0.0000       0.140764         3.8304
  14   0.0000       0.164047         4.4639
  15   0.0000       0.188534         5.1303
  16   0.0000       0.193885         5.2759
  17   0.0000       0.214121         5.8265

MULLIKEN ATOMIC CHARGES
-----------------------
   0 C :   -1.220788
   1 C :   -0.239803
   2 H :    0.210903
   3 H :    0.209884
   4 O :   -0.924037
   5 H :    0.275505
   6 H :    0.414714
   7 H :    0.273623
Sum of atomic charges:   -1.0000000

LOEWDIN ATOMIC CHARGES
----------------------
   0 C :   -0.176986
   1 C :   -0.617801
   2 H :    0.047071
   3 H :    0.046132
   4 O :   -0.380787
   5 H :    0.033588
   6 H :    0.016271
   7 H :    0.032512

  Mayer bond orders larger than 0.100000
B(  0-C ,  1-C ) :   0.7278 B(  0-C ,  4-O ) :   0.6369 B(  0-C ,  5-H ) :   0.9839
B(  0-C ,  6-H ) :   0.9035 B(  0-C ,  7-H ) :   0.9815 B(  1-C ,  2-H ) :   1.0500
B(  1-C ,  3-H ) :   1.0522 B(  1-C ,  4-O ) :   0.7846 B(  2-H ,  3-H ) :   0.1159
B(  4-O ,  6-H ) :  -0.1306

Dispersion correction           -0.007748558
FINAL SINGLE POINT ENERGY      -154.441132838367

DIPOLE MOMENT
-------------
                                X             Y             Z
Electronic contribution:      3.03549      -0.55255      -0.27158
Nuclear contribution   :     -4.28298       0.81046       0.39340
                        -----------------------------------------
Total Dipole Moment    :     -1.24749       0.25792       0.12182
                        -----------------------------------------
Magnitude (a.u.)       :      1.27968
Magnitude (Debye)      :      3.25270

Rotational constants in cm-1:     1.266793     0.328147     0.288309
Rotational constants in MHz : 37977.512300  9837.594308  8643.275638

                             ****ORCA TERMINATED NORMALLY****
TOTAL RUN TIME: 0 days 0 hours 0 minutes 10 seconds 437 msec
