                         Program Version 5.0.0 -  RELEASE  -
|  1> !BLYP D3BJ RIJCOSX def2-TZVPD def2/J TightSCF
|  2> *xyz 1 1
|  3> C          1.63556       -1.67040       -5.29211
|  4> C          0.33848       -1.50091       -4.50540
|  5> N          2.48451       -0.50741       -5.14039
|  6> H          1.39834       -1.82924       -6.35259
|  7> H          2.15586       -2.56540       -4.93209
|  8> C          3.45115       -0.14953       -5.95259
|  9> N          3.92267        1.08956       -5.85071
| 10> N          3.96616       -1.00618       -6.86788
| 11> H          3.52139       -1.90647       -6.99527
| 12> H          4.44482       -0.62347       -7.67035
| 13> H          2.25200        0.24080       -4.49879
| 14> H          3.46428        1.64078       -5.13639
| 15> H          4.83447        1.31375       -6.22465
| 16> H         -0.17658       -0.62881       -4.85045
| 17> H          0.56384       -1.39374       -3.46490
| 18> H         -0.28102       -2.36136       -4.64938
| 19> *
| 20>
| 21> %MaxCore 64000
| 22>
| 23> %pal nprocs 4
| 24> end
| 25>
| 26> %scf
| 27>   MaxIter 150
| 28> end
| 29>
| 30>
| 31>                          ****END OF INPUT****

CARTESIAN COORDINATES (ANGSTROEM)
---------------------------------
  C      1.635560   -1.670400   -5.292110
  C      0.338480   -1.500910   -4.505400
  N      2.484510   -0.507410   -5.140390
  H      1.398340   -1.829240   -6.352590
  H      2.155860   -2.565400   -4.932090
  C      3.451150   -0.149530   -5.952590
  N      3.922670    1.089560   -5.850710
  N      3.966160   -1.006180   -6.867880
  H      3.521390   -1.906470   -6.995270
  H      4.444820   -0.623470   -7.670350
  H      2.252000    0.240800   -4.498790
  H      3.464280    1.640780   -5.136390
  H      4.834470    1.313750   -6.224650
  H     -0.176580   -0.628810   -4.850450
  H      0.563840   -1.393740   -3.464900
  H     -0.281020   -2.361360   -4.649380

 Total Charge           Charge          ....    1
 Multiplicity           Mult            ....    1
 Number of Electrons    NEL             ....   48
 Basis Dimension        Dim             ....  312

ORBITAL ENERGIES
----------------

  NO   OCC          E(Eh)            E(eV)
   0   2.0000     -14.231237      -387.2516
   1   2.0000     -14.226752      -387.1296
   2   2.0000     -14.225399      -387.0928
   3   2.0000     -10.226835      -278.2863
   4   2.0000     -10.113943      -275.2144
   5   2.0000     -10.043686      -273.3026
   6   2.0000      -1.125315       -30.6214
   7   2.0000      -1.020765       -27.7764
   8   2.0000      -1.008591       -27.4452
   9   2.0000      -0.859996       -23.4017
  10   2.0000      -0.766626       -20.8610
  11   2.0000      -0.749080       -20.3835
  12   2.0000      -0.716997       -19.5105
  13   2.0000      -0.687150       -18.6983
  14   2.0000      -0.637496       -17.3472
  15   2.0000      -0.631908       -17.1951
  16   2.0000      -0.606466       -16.5028
  17   2.0000      -0.590801       -16.0765
  18   2.0000      -0.550397       -14.9771
  19   2.0000      -0.500555       -13.6208
  20   2.0000      -0.486094       -13.2273
  21   2.0000      -0.475778       -12.9466
  22   2.0000      -0.432667       -11.7735
  23   2.0000      -0.412218       -11.2170
  24   0.0000      -0.201062        -5.4712
  25   0.0000      -0.186549        -5.0762
  26   0.0000      -0.155580        -4.2335
  27   0.0000      -0.139103        -3.7852
  28   0.0000      -0.122754        -3.3403

MULLIKEN ATOMIC CHARGES
-----------------------
   0 C :   -0.304626
   1 C :   -1.449851
   2 N :   -0.052059
   3 H :    0.351595
   4 H :    0.327873
   5 C :    0.589415
   6 N :   -0.255602
   7 N :   -0.308611
   8 H :    0.226686
   9 H :    0.201462
  10 H :    0.143313
  11 H :    0.176984
  12 H :    0.206286
  13 H :    0.403331
  14 H :    0.377664
  15 H :    0.366141
Sum of atomic charges:    1.0000000

LOEWDIN ATOMIC CHARGES
----------------------
   0 C :   -0.212544
   1 C :   -0.049593
   2 N :    0.092282
   3 H :    0.126788
   4 H :    0.130230
   5 C :   -0.447099
   6 N :    0.216625
   7 N :    0.228096
   8 H :    0.116560
   9 H :    0.131451
  10 H :    0.160641
  11 H :    0.131699
  12 H :    0.138008
  13 H :    0.076960
  14 H :    0.077297
  15 H :    0.082600

  Mayer bond orders larger than 0.100000
B(  0-C ,  1-C ) :   0.5726 B(  0-C ,  2-N ) :   0.8988 B(  0-C ,  3-H ) :   0.8155
B(  0-C ,  4-H ) :   0.8442 B(  1-C , 13-H ) :   0.9038 B(  1-C , 14-H ) :   0.9198
B(  1-C , 15-H ) :   0.9407 B(  2-N ,  5-C ) :   1.2311 B(  2-N , 10-H ) :   0.9863
B(  5-C ,  6-N ) :   1.1198 B(  5-C ,  7-N ) :   1.1641 B(  6-N , 11-H ) :   0.9725
B(  6-N , 12-H ) :   0.9743 B(  7-N ,  8-H ) :   0.9322 B(  7-N ,  9-H ) :   0.9820

Dispersion correction           -0.024363920
FINAL SINGLE POINT ENERGY      -284.406099564482

DIPOLE MOMENT
-------------
                                X             Y             Z
Electronic contribution:      4.68519       2.45629      -1.69297
Nuclear contribution   :     -3.96322      -1.85512       1.24891
                        -----------------------------------------
Total Dipole Moment    :      0.72197       0.60117      -0.44406
                        -----------------------------------------
Magnitude (a.u.)       :      1.03915
Magnitude (Debye)      :      2.64132

Rotational constants in cm-1:     0.261404     0.067000     0.054949
Rotational constants in MHz :  7836.702504  2008.609425  1647.329138

                             ****ORCA TERMINATED NORMALLY****
TOTAL RUN TIME: 0 days 0 hours 0 minutes 18 seconds 402 msec
