                         Program Version 5.0.0 -  RELEASE  -
|  1> !BLYP D3BJ RIJCOSX def2-TZVPD def2/J TightSCF xyzfile
|  2>
|  3> *xyzfile 0 1 B.xyz
|  4>
|  5> %MaxCore 64000
|  6>
|  7> %pal nprocs 4
|  8> end
|  9>
| 10> %scf
| 11>   MaxIter 150
| 12> end
| 13>
| 14>
| 15>                          ****END OF INPUT****

CARTESIAN COORDINATES (ANGSTROEM)
---------------------------------
  C      1.635557   -1.670396   -5.292109
  C      0.338484   -1.500907   -4.505398
  N      2.484511   -0.507410   -5.140392
  C     -0.684873   -0.528026   -5.099889
  C     -0.290406    0.951335   -5.153423
  H      0.607991    1.070692   -5.764412
  C     -0.055168    1.619420   -3.788577
  H     -1.080912    1.483775   -5.689436
  H      0.045006    0.862302   -3.003015
  H     -0.922936    2.230329   -3.517028
  C      1.223022    2.469865   -3.756911
  H      1.114701    3.258074   -4.532999
  H      1.237732    3.011242   -2.792157
  O      2.353815    1.712032   -3.934477
  H      1.398337   -1.829239   -6.352591
  H      2.155864   -2.565398   -4.932091
  C      3.451149   -0.149530   -5.952589
  N      3.922667    1.089559   -5.850711
  N      3.966162   -1.006183   -6.867880
  H      3.521391   -1.906467   -6.995270
  H      4.444824   -0.623472   -7.670348
  H      2.251995    0.240804   -4.498792
  H      3.464277    1.640782   -5.136392
  H      4.834470    1.313745   -6.224653
  H     -0.937999   -0.869056   -6.110838
  H     -1.604638   -0.622496   -4.513132
  H      0.594887   -1.211578   -3.482312
  H     -0.126530   -2.487656   -4.434176

 Total Charge           Charge          ....    0
 Multiplicity           Mult            ....    1
 Number of Electrons    NEL             ....   88
 Basis Dimension        Dim             ....  563

ORBITAL ENERGIES
----------------

  NO   OCC          E(Eh)            E(eV)
   0   2.0000     -18.646861      -507.4069
   1   2.0000     -14.061171      -382.6239
   2   2.0000     -14.021259      -381.5378
   3   2.0000     -14.018947      -381.4750
   4   2.0000     -10.039052      -273.1765
   5   2.0000      -9.955487      -270.9026
   6   2.0000      -9.907434      -269.5950
   7   2.0000      -9.894743      -269.2496
   8   2.0000      -9.883981      -268.9568
   9   2.0000      -9.876901      -268.7642
  10   2.0000      -9.859634      -268.2943
  11   2.0000      -0.937784       -25.5184
  12   2.0000      -0.841470       -22.8976
  13   2.0000      -0.822219       -22.3737
  14   2.0000      -0.795985       -21.6598
  15   2.0000      -0.719915       -19.5899
  16   2.0000      -0.670100       -18.2343
  17   2.0000      -0.618234       -16.8230
  18   2.0000      -0.586891       -15.9701
  19   2.0000      -0.560521       -15.2526
  20   2.0000      -0.537538       -14.6272
  21   2.0000      -0.517314       -14.0768
  22   2.0000      -0.502248       -13.6669
  23   2.0000      -0.466564       -12.6959
  24   2.0000      -0.455692       -12.4000
  25   2.0000      -0.441917       -12.0252
  26   2.0000      -0.433477       -11.7955
  27   2.0000      -0.424647       -11.5552
  28   2.0000      -0.387108       -10.5337
  29   2.0000      -0.375138       -10.2080
  30   2.0000      -0.365465        -9.9448
  31   2.0000      -0.361678        -9.8418
  32   2.0000      -0.336193        -9.1483
  33   2.0000      -0.319955        -8.7064
  34   2.0000      -0.312770        -8.5109
  35   2.0000      -0.292690        -7.9645
  36   2.0000      -0.276700        -7.5294
  37   2.0000      -0.266551        -7.2532
  38   2.0000      -0.260599        -7.0913
  39   2.0000      -0.254184        -6.9167
  40   2.0000      -0.248167        -6.7530
  41   2.0000      -0.222840        -6.0638
  42   2.0000      -0.137133        -3.7316
  43   2.0000      -0.129132        -3.5139
  44   0.0000      -0.041658        -1.1336
  45   0.0000      -0.021697        -0.5904
  46   0.0000      -0.012277        -0.3341
  47   0.0000       0.002899         0.0789
  48   0.0000       0.012706         0.3457

MULLIKEN ATOMIC CHARGES
-----------------------
   0 C :   -0.760277
   1 C :   -0.618963
   2 N :   -0.167164
   3 C :   -0.513813
   4 C :   -0.524019
   5 H :    0.246319
   6 C :   -0.453213
   7 H :    0.307200
   8 H :    0.167825
   9 H :    0.320764
  10 C :   -0.448555
  11 H :    0.236270
  12 H :    0.242753
  13 O :   -1.024964
  14 H :    0.357398
  15 H :    0.345249
  16 C :    0.434350
  17 N :   -0.284864
  18 N :   -0.344673
  19 H :    0.197434
  20 H :    0.165496
  21 H :    0.592212
  22 H :    0.398213
  23 H :    0.114122
  24 H :    0.268673
  25 H :    0.208753
  26 H :    0.283415
  27 H :    0.254061
Sum of atomic charges:    0.0000000

LOEWDIN ATOMIC CHARGES
----------------------
   0 C :   -0.178461
   1 C :   -0.184167
   2 N :    0.094714
   3 C :   -0.202306
   4 C :   -0.207361
   5 H :    0.097212
   6 C :   -0.194231
   7 H :    0.102964
   8 H :    0.096264
   9 H :    0.099657
  10 C :   -0.404309
  11 H :    0.097556
  12 H :    0.091023
  13 O :   -0.291895
  14 H :    0.116184
  15 H :    0.116651
  16 C :   -0.466635
  17 N :    0.193973
  18 N :    0.184524
  19 H :    0.094383
  20 H :    0.106858
  21 H :    0.053907
  22 H :    0.044594
  23 H :    0.113093
  24 H :    0.102616
  25 H :    0.107295
  26 H :    0.108736
  27 H :    0.107159

  Mayer bond orders larger than 0.100000
B(  0-C ,  1-C ) :   0.8934 B(  0-C ,  2-N ) :   0.9712 B(  0-C , 14-H ) :   0.8537
B(  0-C , 15-H ) :   0.8325 B(  0-C , 16-C ) :  -0.1745 B(  1-C ,  3-C ) :   0.8204
B(  1-C , 26-H ) :   0.9112 B(  1-C , 27-H ) :   1.0038 B(  2-N , 16-C ) :   1.3657
B(  2-N , 21-H ) :   0.6282 B(  3-C ,  4-C ) :   0.7711 B(  3-C ,  6-C ) :   0.1624
B(  3-C , 24-H ) :   0.9504 B(  3-C , 25-H ) :   1.0026 B(  4-C ,  5-H ) :   1.0540
B(  4-C ,  6-C ) :   0.6283 B(  4-C ,  7-H ) :   0.9120 B(  4-C , 10-C ) :   0.1811
B(  6-C ,  8-H ) :   0.9961 B(  6-C ,  9-H ) :   0.9809 B(  6-C , 10-C ) :   0.7431
B( 10-C , 11-H ) :   1.0216 B( 10-C , 12-H ) :   0.9546 B( 10-C , 13-O ) :   0.9170
B( 13-O , 22-H ) :   0.1526 B( 16-C , 17-N ) :   1.2585 B( 16-C , 18-N ) :   1.0652
B( 17-N , 22-H ) :   0.6898 B( 17-N , 23-H ) :   1.0414 B( 18-N , 19-H ) :   0.9592
B( 18-N , 20-H ) :   1.0078

Dispersion correction           -0.057937194
FINAL SINGLE POINT ENERGY      -516.470684553893

DIPOLE MOMENT
-------------
                                X             Y             Z
Electronic contribution:      8.34788      -0.86980      -2.15546
Nuclear contribution   :     -7.46499      -1.05836       0.01518
                        -----------------------------------------
Total Dipole Moment    :      0.88289      -1.92816      -2.14028
                        -----------------------------------------
Magnitude (a.u.)       :      3.01299
Magnitude (Debye)      :      7.65842

Rotational constants in cm-1:     0.044680     0.028958     0.019773
Rotational constants in MHz :  1339.486245   868.136755   592.791310

                             ****ORCA TERMINATED NORMALLY****
TOTAL RUN TIME: 0 days 0 hours 0 minutes 58 seconds 968 msec
