                         Program Version 5.0.0 -  RELEASE  -
|  1> !BLYP D3BJ RIJCOSX def2-TZVPD def2/J TightSCF
|  2> *xyz 0 1
|  3> C         -0.05517        1.61942       -3.78858
|  4> C          1.22302        2.46987       -3.75691
|  5> H          1.11470        3.25807       -4.53300
|  6> H          1.23773        3.01124       -2.79216
|  7> F          2.35381        1.71203       -3.93448
|  8> H         -0.10198        1.08015       -4.71156
|  9> H         -0.91014        2.25726       -3.70441
| 10> H         -0.04403        0.92826       -2.97183
| 11> *
| 12>
| 13> %MaxCore 64000
| 14>
| 15> %pal nprocs 4
| 16> end
| 17>
| 18> %scf
| 19>   MaxIter 150
| 20> end
| 21>
| 22>
| 23>                          ****END OF INPUT****

CARTESIAN COORDINATES (ANGSTROEM)
---------------------------------
  C     -0.055170    1.619420   -3.788580
  C      1.223020    2.469870   -3.756910
  H      1.114700    3.258070   -4.533000
  H      1.237730    3.011240   -2.792160
  F      2.353810    1.712030   -3.934480
  H     -0.101980    1.080150   -4.711560
  H     -0.910140    2.257260   -3.704410
  H     -0.044030    0.928260   -2.971830

 Total Charge           Charge          ....    0
 Multiplicity           Mult            ....    1
 Number of Electrons    NEL             ....   26
 Basis Dimension        Dim             ....  159

ORBITAL ENERGIES
----------------

  NO   OCC          E(Eh)            E(eV)
   0   2.0000     -24.273141      -660.5058
   1   2.0000      -9.981349      -271.6063
   2   2.0000      -9.899181      -269.3704
   3   2.0000      -1.091290       -29.6955
   4   2.0000      -0.687573       -18.7098
   5   2.0000      -0.564176       -15.3520
   6   2.0000      -0.451281       -12.2800
   7   2.0000      -0.436909       -11.8889
   8   2.0000      -0.399100       -10.8601
   9   2.0000      -0.353360        -9.6154
  10   2.0000      -0.351625        -9.5682
  11   2.0000      -0.286014        -7.7828
  12   2.0000      -0.282757        -7.6942
  13   0.0000      -0.006721        -0.1829
  14   0.0000       0.020683         0.5628
  15   0.0000       0.033547         0.9129
  16   0.0000       0.039292         1.0692
  17   0.0000       0.063835         1.7370

MULLIKEN ATOMIC CHARGES
-----------------------
   0 C :   -0.951066
   1 C :   -0.078290
   2 H :    0.221242
   3 H :    0.221079
   4 F :   -0.302478
   5 H :    0.285746
   6 H :    0.322526
   7 H :    0.281241
Sum of atomic charges:   -0.0000000

LOEWDIN ATOMIC CHARGES
----------------------
   0 C :   -0.077098
   1 C :   -0.295916
   2 H :    0.108587
   3 H :    0.106684
   4 F :   -0.029047
   5 H :    0.061903
   6 H :    0.063784
   7 H :    0.061103

  Mayer bond orders larger than 0.100000
B(  0-C ,  1-C ) :   0.7339 B(  0-C ,  5-H ) :   0.9557 B(  0-C ,  6-H ) :   0.9260
B(  0-C ,  7-H ) :   0.9565 B(  1-C ,  2-H ) :   0.9648 B(  1-C ,  3-H ) :   0.9669
B(  1-C ,  4-F ) :   0.8194

Dispersion correction           -0.007138537
FINAL SINGLE POINT ENERGY      -179.084314407747

DIPOLE MOMENT
-------------
                                X             Y             Z
Electronic contribution:      5.05197      -0.75636      -0.43653
Nuclear contribution   :     -5.66833       1.07099       0.52006
                        -----------------------------------------
Total Dipole Moment    :     -0.61636       0.31463       0.08353
                        -----------------------------------------
Magnitude (a.u.)       :      0.69704
Magnitude (Debye)      :      1.77174

Rotational constants in cm-1:     1.245689     0.305293     0.269541
Rotational constants in MHz : 37344.801915  9152.442838  8080.640229

                             ****ORCA TERMINATED NORMALLY****
TOTAL RUN TIME: 0 days 0 hours 0 minutes 8 seconds 593 msec
