                         Program Version 5.0.0 -  RELEASE  -
|  1> !BLYP D3BJ RIJCOSX def2-TZVPD def2/J TightSCF
|  2> *xyz 0 1
|  3> C          1.63556       -1.67040       -5.29211
|  4> C          0.33848       -1.50091       -4.50540
|  5> C          2.48451       -0.50741       -5.14039
|  6> H          1.39834       -1.82924       -6.35259
|  7> H          2.15586       -2.56540       -4.93209
|  8> C          3.45115       -0.14953       -5.95259
|  9> N          3.92267        1.08956       -5.85071
| 10> N          3.96616       -1.00618       -6.86788
| 11> H          3.52139       -1.90647       -6.99527
| 12> H          4.44482       -0.62347       -7.67035
| 13> H          2.25200        0.24080       -4.49879
| 14> H          3.46428        1.64078       -5.13639
| 15> H          4.83447        1.31375       -6.22465
| 16> H         -0.17658       -0.62881       -4.85045
| 17> H          0.56384       -1.39374       -3.46490
| 18> H         -0.28102       -2.36136       -4.64938
| 19> *
| 20>
| 21> %MaxCore 64000
| 22>
| 23> %pal nprocs 4
| 24> end
| 25>
| 26> %scf
| 27>   MaxIter 150
| 28> end
| 29>
| 30>
| 31>                          ****END OF INPUT****

CARTESIAN COORDINATES (ANGSTROEM)
---------------------------------
  C      1.635560   -1.670400   -5.292110
  C      0.338480   -1.500910   -4.505400
  C      2.484510   -0.507410   -5.140390
  H      1.398340   -1.829240   -6.352590
  H      2.155860   -2.565400   -4.932090
  C      3.451150   -0.149530   -5.952590
  N      3.922670    1.089560   -5.850710
  N      3.966160   -1.006180   -6.867880
  H      3.521390   -1.906470   -6.995270
  H      4.444820   -0.623470   -7.670350
  H      2.252000    0.240800   -4.498790
  H      3.464280    1.640780   -5.136390
  H      4.834470    1.313750   -6.224650
  H     -0.176580   -0.628810   -4.850450
  H      0.563840   -1.393740   -3.464900
  H     -0.281020   -2.361360   -4.649380

 Total Charge           Charge          ....    0
 Multiplicity           Mult            ....    1
 Number of Electrons    NEL             ....   48
 Basis Dimension        Dim             ....  312

ORBITAL ENERGIES
----------------

  NO   OCC          E(Eh)            E(eV)
   0   2.0000     -14.007569      -381.1653
   1   2.0000     -14.002633      -381.0310
   2   2.0000      -9.938701      -270.4458
   3   2.0000      -9.882048      -268.9042
   4   2.0000      -9.872236      -268.6372
   5   2.0000      -9.829119      -267.4639
   6   2.0000      -0.868481       -23.6326
   7   2.0000      -0.788209       -21.4483
   8   2.0000      -0.696455       -18.9515
   9   2.0000      -0.624405       -16.9909
  10   2.0000      -0.546235       -14.8638
  11   2.0000      -0.519933       -14.1481
  12   2.0000      -0.478254       -13.0139
  13   2.0000      -0.457005       -12.4357
  14   2.0000      -0.416935       -11.3454
  15   2.0000      -0.388392       -10.5687
  16   2.0000      -0.377359       -10.2685
  17   2.0000      -0.345140        -9.3917
  18   2.0000      -0.328513        -8.9393
  19   2.0000      -0.296441        -8.0666
  20   2.0000      -0.287524        -7.8239
  21   2.0000      -0.285787        -7.7767
  22   2.0000      -0.218650        -5.9498
  23   2.0000      -0.130494        -3.5509
  24   0.0000      -0.018742        -0.5100
  25   0.0000       0.005561         0.1513
  26   0.0000       0.012259         0.3336
  27   0.0000       0.031734         0.8635
  28   0.0000       0.034985         0.9520

MULLIKEN ATOMIC CHARGES
-----------------------
   0 C :   -0.139263
   1 C :   -1.464403
   2 C :   -0.418594
   3 H :    0.237817
   4 H :    0.211834
   5 C :    0.306270
   6 N :   -0.316936
   7 N :   -0.364453
   8 H :    0.174648
   9 H :    0.140641
  10 H :    0.289294
  11 H :    0.143116
  12 H :    0.137043
  13 H :    0.369508
  14 H :    0.335300
  15 H :    0.358180
Sum of atomic charges:    0.0000000

LOEWDIN ATOMIC CHARGES
----------------------
   0 C :   -0.288517
   1 C :   -0.105192
   2 C :   -0.145118
   3 H :    0.103117
   4 H :    0.104123
   5 C :   -0.548087
   6 N :    0.115865
   7 N :    0.143407
   8 H :    0.087912
   9 H :    0.088350
  10 H :    0.066153
  11 H :    0.101905
  12 H :    0.092261
  13 H :    0.063971
  14 H :    0.063414
  15 H :    0.056435

  Mayer bond orders larger than 0.100000
B(  0-C ,  1-C ) :   0.4598 B(  0-C ,  2-C ) :   0.5900 B(  0-C ,  3-H ) :   0.8619
B(  0-C ,  4-H ) :   0.9559 B(  0-C ,  5-C ) :   0.2180 B(  1-C ,  2-C ) :   0.1430
B(  1-C , 13-H ) :   0.9379 B(  1-C , 14-H ) :   0.9750 B(  1-C , 15-H ) :   0.9296
B(  2-C ,  5-C ) :   1.1392 B(  2-C , 10-H ) :   1.0227 B(  5-C ,  6-N ) :   1.1040
B(  5-C ,  7-N ) :   0.9474 B(  5-C , 10-H ) :  -0.2450 B(  6-N , 11-H ) :   0.9837
B(  6-N , 12-H ) :   1.0503 B(  7-N ,  8-H ) :   0.9560 B(  7-N ,  9-H ) :   1.0394

Dispersion correction           -0.025483976
FINAL SINGLE POINT ENERGY      -267.913395819122

DIPOLE MOMENT
-------------
                                X             Y             Z
Electronic contribution:      4.51418       2.15509      -1.87977
Nuclear contribution   :     -3.99655      -1.83277       1.34879
                        -----------------------------------------
Total Dipole Moment    :      0.51764       0.32232      -0.53098
                        -----------------------------------------
Magnitude (a.u.)       :      0.80856
Magnitude (Debye)      :      2.05521

Rotational constants in cm-1:     0.262971     0.067064     0.055026
Rotational constants in MHz :  7883.664566  2010.513309  1649.636654

                             ****ORCA TERMINATED NORMALLY****
TOTAL RUN TIME: 0 days 0 hours 0 minutes 18 seconds 399 msec
