                         Program Version 5.0.0 -  RELEASE  -
|  1> !BLYP D3BJ RIJCOSX def2-TZVPD def2/J TightSCF
|  2> *xyz 0 1
|  3> C          1.63556       -1.67040       -5.29211
|  4> C          0.33848       -1.50091       -4.50540
|  5> N          2.48451       -0.50741       -5.14039
|  6> H          1.39834       -1.82924       -6.35259
|  7> H          2.15586       -2.56540       -4.93209
|  8> C          3.45115       -0.14953       -5.95259
|  9> C          3.92267        1.08956       -5.85071
| 10> N          3.96616       -1.00618       -6.86788
| 11> H          3.52139       -1.90647       -6.99527
| 12> H          4.44482       -0.62347       -7.67035
| 13> H          2.25200        0.24080       -4.49879
| 14> H          3.46428        1.64078       -5.13639
| 15> H          4.83447        1.31375       -6.22465
| 16> H         -0.17658       -0.62881       -4.85045
| 17> H          0.56384       -1.39374       -3.46490
| 18> H         -0.28102       -2.36136       -4.64938
| 19> *
| 20>
| 21> %MaxCore 64000
| 22>
| 23> %pal nprocs 4
| 24> end
| 25>
| 26> %scf
| 27>   MaxIter 150
| 28> end
| 29>
| 30>
| 31>                          ****END OF INPUT****

CARTESIAN COORDINATES (ANGSTROEM)
---------------------------------
  C      1.635560   -1.670400   -5.292110
  C      0.338480   -1.500910   -4.505400
  N      2.484510   -0.507410   -5.140390
  H      1.398340   -1.829240   -6.352590
  H      2.155860   -2.565400   -4.932090
  C      3.451150   -0.149530   -5.952590
  C      3.922670    1.089560   -5.850710
  N      3.966160   -1.006180   -6.867880
  H      3.521390   -1.906470   -6.995270
  H      4.444820   -0.623470   -7.670350
  H      2.252000    0.240800   -4.498790
  H      3.464280    1.640780   -5.136390
  H      4.834470    1.313750   -6.224650
  H     -0.176580   -0.628810   -4.850450
  H      0.563840   -1.393740   -3.464900
  H     -0.281020   -2.361360   -4.649380

 Total Charge           Charge          ....    0
 Multiplicity           Mult            ....    1
 Number of Electrons    NEL             ....   48
 Basis Dimension        Dim             ....  312

ORBITAL ENERGIES
----------------

  NO   OCC          E(Eh)            E(eV)
   0   2.0000     -14.006788      -381.1441
   1   2.0000     -14.005361      -381.1053
   2   2.0000      -9.946306      -270.6527
   3   2.0000      -9.942034      -270.5365
   4   2.0000      -9.904187      -269.5066
   5   2.0000      -9.815307      -267.0881
   6   2.0000      -0.879846       -23.9418
   7   2.0000      -0.799757       -21.7625
   8   2.0000      -0.701081       -19.0774
   9   2.0000      -0.628710       -17.1081
  10   2.0000      -0.563009       -15.3203
  11   2.0000      -0.535165       -14.5626
  12   2.0000      -0.478526       -13.0213
  13   2.0000      -0.443437       -12.0665
  14   2.0000      -0.427088       -11.6217
  15   2.0000      -0.413169       -11.2429
  16   2.0000      -0.369460       -10.0535
  17   2.0000      -0.347119        -9.4456
  18   2.0000      -0.332909        -9.0589
  19   2.0000      -0.331583        -9.0228
  20   2.0000      -0.329046        -8.9538
  21   2.0000      -0.302317        -8.2265
  22   2.0000      -0.213980        -5.8227
  23   2.0000      -0.127014        -3.4562
  24   0.0000      -0.017934        -0.4880
  25   0.0000       0.000147         0.0040
  26   0.0000       0.008625         0.2347
  27   0.0000       0.030141         0.8202
  28   0.0000       0.037916         1.0317

MULLIKEN ATOMIC CHARGES
-----------------------
   0 C :   -0.237150
   1 C :   -1.415029
   2 N :   -0.090312
   3 H :    0.318553
   4 H :    0.255368
   5 C :    0.602633
   6 C :   -1.195753
   7 N :   -0.353784
   8 H :    0.169712
   9 H :    0.174071
  10 H :    0.101756
  11 H :    0.297399
  12 H :    0.308074
  13 H :    0.366481
  14 H :    0.341360
  15 H :    0.356621
Sum of atomic charges:   -0.0000000

LOEWDIN ATOMIC CHARGES
----------------------
   0 C :   -0.251938
   1 C :   -0.080105
   2 N :    0.023691
   3 H :    0.110265
   4 H :    0.109517
   5 C :   -0.566279
   6 C :   -0.000338
   7 N :    0.136476
   8 H :    0.079211
   9 H :    0.101382
  10 H :    0.137757
  11 H :    0.001978
  12 H :    0.002874
  13 H :    0.066995
  14 H :    0.064907
  15 H :    0.063608

  Mayer bond orders larger than 0.100000
B(  0-C ,  1-C ) :   0.5210 B(  0-C ,  2-N ) :   0.8529 B(  0-C ,  3-H ) :   0.8551
B(  0-C ,  4-H ) :   0.9107 B(  1-C , 13-H ) :   0.9516 B(  1-C , 14-H ) :   0.9505
B(  1-C , 15-H ) :   0.9359 B(  2-N ,  5-C ) :   1.0838 B(  2-N , 10-H ) :   0.9584
B(  5-C ,  6-C ) :   1.0659 B(  5-C ,  7-N ) :   1.0230 B(  6-C , 11-H ) :   0.9837
B(  6-C , 12-H ) :   1.0395 B(  7-N ,  8-H ) :   0.9842 B(  7-N ,  9-H ) :   0.9925

Dispersion correction           -0.025175891
FINAL SINGLE POINT ENERGY      -267.903215768333

DIPOLE MOMENT
-------------
                                X             Y             Z
Electronic contribution:      2.97258       0.56266      -1.27195
Nuclear contribution   :     -3.69145      -1.49398       1.19810
                        -----------------------------------------
Total Dipole Moment    :     -0.71887      -0.93132      -0.07385
                        -----------------------------------------
Magnitude (a.u.)       :      1.17881
Magnitude (Debye)      :      2.99629

Rotational constants in cm-1:     0.270790     0.068966     0.056679
Rotational constants in MHz :  8118.084803  2067.559423  1699.196934

                             ****ORCA TERMINATED NORMALLY****
TOTAL RUN TIME: 0 days 0 hours 0 minutes 19 seconds 548 msec
