                         Program Version 5.0.0 -  RELEASE  -
|  1> !BLYP D3BJ RIJCOSX def2-TZVPD def2/J TightSCF
|  2> *xyz 0 1
|  3> C          1.63556       -1.67040       -5.29211
|  4> C          0.33848       -1.50091       -4.50540
|  5> N          2.48451       -0.50741       -5.14039
|  6> H          1.39834       -1.82924       -6.35259
|  7> H          2.15586       -2.56540       -4.93209
|  8> C          3.45115       -0.14953       -5.95259
|  9> N          3.92267        1.08956       -5.85071
| 10> C          3.96616       -1.00618       -6.86788
| 11> H          3.52139       -1.90647       -6.99527
| 12> H          4.44482       -0.62347       -7.67035
| 13> H          2.25200        0.24080       -4.49879
| 14> H          3.46428        1.64078       -5.13639
| 15> H          4.83447        1.31375       -6.22465
| 16> H         -0.17658       -0.62881       -4.85045
| 17> H          0.56384       -1.39374       -3.46490
| 18> H         -0.28102       -2.36136       -4.64938
| 19> *
| 20>
| 21> %MaxCore 64000
| 22>
| 23> %pal nprocs 4
| 24> end
| 25>
| 26> %scf
| 27>   MaxIter 150
| 28> end
| 29>
| 30>
| 31>                          ****END OF INPUT****

CARTESIAN COORDINATES (ANGSTROEM)
---------------------------------
  C      1.635560   -1.670400   -5.292110
  C      0.338480   -1.500910   -4.505400
  N      2.484510   -0.507410   -5.140390
  H      1.398340   -1.829240   -6.352590
  H      2.155860   -2.565400   -4.932090
  C      3.451150   -0.149530   -5.952590
  N      3.922670    1.089560   -5.850710
  C      3.966160   -1.006180   -6.867880
  H      3.521390   -1.906470   -6.995270
  H      4.444820   -0.623470   -7.670350
  H      2.252000    0.240800   -4.498790
  H      3.464280    1.640780   -5.136390
  H      4.834470    1.313750   -6.224650
  H     -0.176580   -0.628810   -4.850450
  H      0.563840   -1.393740   -3.464900
  H     -0.281020   -2.361360   -4.649380

 Total Charge           Charge          ....    0
 Multiplicity           Mult            ....    1
 Number of Electrons    NEL             ....   48
 Basis Dimension        Dim             ....  312

ORBITAL ENERGIES
----------------

  NO   OCC          E(Eh)            E(eV)
   0   2.0000     -14.013153      -381.3173
   1   2.0000     -14.007561      -381.1651
   2   2.0000      -9.943663      -270.5808
   3   2.0000      -9.939986      -270.4808
   4   2.0000      -9.900479      -269.4057
   5   2.0000      -9.817853      -267.1574
   6   2.0000      -0.888127       -24.1672
   7   2.0000      -0.804485       -21.8912
   8   2.0000      -0.688449       -18.7336
   9   2.0000      -0.629421       -17.1274
  10   2.0000      -0.579258       -15.7624
  11   2.0000      -0.508647       -13.8410
  12   2.0000      -0.479991       -13.0612
  13   2.0000      -0.469704       -12.7813
  14   2.0000      -0.421718       -11.4755
  15   2.0000      -0.416071       -11.3219
  16   2.0000      -0.352546        -9.5933
  17   2.0000      -0.348288        -9.4774
  18   2.0000      -0.344257        -9.3677
  19   2.0000      -0.324959        -8.8426
  20   2.0000      -0.316987        -8.6256
  21   2.0000      -0.304013        -8.2726
  22   2.0000      -0.208846        -5.6830
  23   2.0000      -0.132377        -3.6022
  24   0.0000      -0.021026        -0.5721
  25   0.0000      -0.002859        -0.0778
  26   0.0000       0.012982         0.3533
  27   0.0000       0.030761         0.8371
  28   0.0000       0.034255         0.9321

MULLIKEN ATOMIC CHARGES
-----------------------
   0 C :   -0.310523
   1 C :   -1.362387
   2 N :   -0.110280
   3 H :    0.313387
   4 H :    0.304534
   5 C :    0.581218
   6 N :   -0.299080
   7 C :   -1.204786
   8 H :    0.372447
   9 H :    0.260889
  10 H :    0.114183
  11 H :    0.114524
  12 H :    0.167209
  13 H :    0.364398
  14 H :    0.339227
  15 H :    0.355039
Sum of atomic charges:    0.0000000

LOEWDIN ATOMIC CHARGES
----------------------
   0 C :   -0.243316
   1 C :   -0.081975
   2 N :    0.023327
   3 H :    0.115653
   4 H :    0.116219
   5 C :   -0.576380
   6 N :    0.126768
   7 C :    0.014508
   8 H :   -0.013070
   9 H :   -0.001685
  10 H :    0.130702
  11 H :    0.090849
  12 H :    0.107798
  13 H :    0.064218
  14 H :    0.062240
  15 H :    0.064142

  Mayer bond orders larger than 0.100000
B(  0-C ,  1-C ) :   0.4798 B(  0-C ,  2-N ) :   0.9082 B(  0-C ,  3-H ) :   0.8947
B(  0-C ,  4-H ) :   0.8837 B(  0-C ,  7-C ) :   0.1223 B(  1-C , 13-H ) :   0.9524
B(  1-C , 14-H ) :   0.9494 B(  1-C , 15-H ) :   0.9377 B(  2-N ,  5-C ) :   1.0159
B(  2-N , 10-H ) :   1.0166 B(  5-C ,  6-N ) :   0.9755 B(  5-C ,  7-C ) :   1.2877
B(  6-N , 11-H ) :   1.0366 B(  6-N , 12-H ) :   1.0012 B(  7-C ,  8-H ) :   0.8652
B(  7-C ,  9-H ) :   1.1329

Dispersion correction           -0.025289959
FINAL SINGLE POINT ENERGY      -267.904179464197

DIPOLE MOMENT
-------------
                                X             Y             Z
Electronic contribution:      3.03403       2.59759      -0.22626
Nuclear contribution   :     -3.68222      -1.93858       0.98231
                        -----------------------------------------
Total Dipole Moment    :     -0.64819       0.65901       0.75605
                        -----------------------------------------
Magnitude (a.u.)       :      1.19418
Magnitude (Debye)      :      3.03536

Rotational constants in cm-1:     0.275407     0.068040     0.056255
Rotational constants in MHz :  8256.498401  2039.796466  1686.484500

                             ****ORCA TERMINATED NORMALLY****
TOTAL RUN TIME: 0 days 0 hours 0 minutes 20 seconds 832 msec
