                         Program Version 5.0.0 -  RELEASE  -
|  1> !BLYP D3BJ RIJCOSX def2-TZVPD def2/J TightSCF xyzfile
|  2>
|  3> *xyzfile 0 1 D1.xyz
|  4>
|  5> %MaxCore 64000
|  6>
|  7> %pal nprocs 4
|  8> end
|  9>
| 10> %scf
| 11>   MaxIter 150
| 12> end
| 13>
| 14>
| 15>                          ****END OF INPUT****

CARTESIAN COORDINATES (ANGSTROEM)
---------------------------------
  C      1.635557   -1.670396   -5.292109
  C      0.338484   -1.500907   -4.505398
  C      2.484511   -0.507410   -5.140392
  C     -0.684873   -0.528026   -5.099889
  C     -0.290406    0.951335   -5.153423
  H      0.607991    1.070692   -5.764412
  C     -0.055168    1.619420   -3.788577
  H     -1.080912    1.483775   -5.689436
  H      0.045006    0.862302   -3.003015
  H     -0.922936    2.230329   -3.517028
  C      1.223022    2.469865   -3.756911
  H      1.114701    3.258074   -4.532999
  H      1.237732    3.011242   -2.792157
  F      2.353815    1.712032   -3.934477
  H      1.398337   -1.829239   -6.352591
  H      2.155864   -2.565398   -4.932091
  C      3.451149   -0.149530   -5.952589
  N      3.922667    1.089559   -5.850711
  N      3.966162   -1.006183   -6.867880
  H      3.521391   -1.906467   -6.995270
  H      4.444824   -0.623472   -7.670348
  H      2.251995    0.240804   -4.498792
  H      3.464277    1.640782   -5.136392
  H      4.834470    1.313745   -6.224653
  H     -0.937999   -0.869056   -6.110838
  H     -1.604638   -0.622496   -4.513132
  H      0.594887   -1.211578   -3.482312
  H     -0.126530   -2.487656   -4.434176

 Total Charge           Charge          ....    0
 Multiplicity           Mult            ....    1
 Number of Electrons    NEL             ....   88
 Basis Dimension        Dim             ....  563

ORBITAL ENERGIES
----------------

  NO   OCC          E(Eh)            E(eV)
   0   2.0000     -24.299466      -661.2221
   1   2.0000     -13.993380      -380.7792
   2   2.0000     -13.978168      -380.3653
   3   2.0000      -9.990569      -271.8572
   4   2.0000      -9.920827      -269.9594
   5   2.0000      -9.910313      -269.6733
   6   2.0000      -9.893301      -269.2104
   7   2.0000      -9.890521      -269.1348
   8   2.0000      -9.880932      -268.8738
   9   2.0000      -9.871422      -268.6151
  10   2.0000      -9.802291      -266.7339
  11   2.0000      -1.127796       -30.6889
  12   2.0000      -0.851342       -23.1662
  13   2.0000      -0.771912       -21.0048
  14   2.0000      -0.727353       -19.7923
  15   2.0000      -0.696312       -18.9476
  16   2.0000      -0.650590       -17.7035
  17   2.0000      -0.618620       -16.8335
  18   2.0000      -0.572235       -15.5713
  19   2.0000      -0.541468       -14.7341
  20   2.0000      -0.516983       -14.0678
  21   2.0000      -0.492908       -13.4127
  22   2.0000      -0.475827       -12.9479
  23   2.0000      -0.465497       -12.6668
  24   2.0000      -0.448215       -12.1965
  25   2.0000      -0.444484       -12.0950
  26   2.0000      -0.426915       -11.6169
  27   2.0000      -0.404738       -11.0135
  28   2.0000      -0.388469       -10.5708
  29   2.0000      -0.386278       -10.5112
  30   2.0000      -0.366029        -9.9601
  31   2.0000      -0.350732        -9.5439
  32   2.0000      -0.339370        -9.2347
  33   2.0000      -0.328307        -8.9337
  34   2.0000      -0.314580        -8.5602
  35   2.0000      -0.309310        -8.4168
  36   2.0000      -0.303451        -8.2573
  37   2.0000      -0.291437        -7.9304
  38   2.0000      -0.275187        -7.4882
  39   2.0000      -0.266707        -7.2575
  40   2.0000      -0.260451        -7.0872
  41   2.0000      -0.248244        -6.7551
  42   2.0000      -0.202617        -5.5135
  43   2.0000      -0.113459        -3.0874
  44   0.0000      -0.012292        -0.3345
  45   0.0000      -0.005373        -0.1462
  46   0.0000       0.004244         0.1155
  47   0.0000       0.012580         0.3423
  48   0.0000       0.019734         0.5370

MULLIKEN ATOMIC CHARGES
-----------------------
   0 C :   -0.391752
   1 C :   -0.671761
   2 C :   -0.743637
   3 C :   -0.605417
   4 C :   -0.530602
   5 H :    0.410276
   6 C :   -0.509161
   7 H :    0.309728
   8 H :    0.243445
   9 H :    0.319634
  10 C :   -0.345864
  11 H :    0.256874
  12 H :    0.264104
  13 F :   -0.460743
  14 H :    0.226890
  15 H :    0.291740
  16 C :   -0.673010
  17 N :   -0.379625
  18 N :   -0.369925
  19 H :    0.176639
  20 H :    0.135663
  21 H :    1.656413
  22 H :    0.369562
  23 H :    0.049312
  24 H :    0.277228
  25 H :    0.209783
  26 H :    0.214025
  27 H :    0.270181
Sum of atomic charges:   -0.0000000

LOEWDIN ATOMIC CHARGES
----------------------
   0 C :   -0.223870
   1 C :   -0.207486
   2 C :   -0.137551
   3 C :   -0.196974
   4 C :   -0.201678
   5 H :    0.102336
   6 C :   -0.166908
   7 H :    0.104098
   8 H :    0.105188
   9 H :    0.113115
  10 C :   -0.199809
  11 H :    0.126558
  12 H :    0.116686
  13 F :   -0.058275
  14 H :    0.107121
  15 H :    0.105684
  16 C :   -0.533017
  17 N :    0.126492
  18 N :    0.142120
  19 H :    0.084865
  20 H :    0.084328
  21 H :    0.032952
  22 H :    0.066653
  23 H :    0.092404
  24 H :    0.107388
  25 H :    0.104335
  26 H :    0.101783
  27 H :    0.101463

  Mayer bond orders larger than 0.100000
B(  0-C ,  1-C ) :   0.9074 B(  0-C , 14-H ) :   0.8758 B(  0-C , 15-H ) :   1.0493
B(  1-C ,  2-C ) :   0.2419 B(  1-C ,  3-C ) :   0.8458 B(  1-C , 26-H ) :   0.9368
B(  1-C , 27-H ) :   1.0030 B(  2-C ,  6-C ) :   0.1080 B(  2-C , 13-F ) :   0.3565
B(  2-C , 14-H ) :  -0.2041 B(  2-C , 15-H ) :  -0.1844 B(  2-C , 16-C ) :   2.3492
B(  2-C , 17-N ) :  -0.1128 B(  2-C , 21-H ) :  -0.5768 B(  3-C ,  4-C ) :   0.7994
B(  3-C ,  6-C ) :   0.2132 B(  3-C , 24-H ) :   0.9476 B(  3-C , 25-H ) :   1.0118
B(  4-C ,  5-H ) :   0.9489 B(  4-C ,  6-C ) :   0.5449 B(  4-C ,  7-H ) :   0.9050
B(  4-C , 10-C ) :   0.1967 B(  6-C ,  8-H ) :   0.9868 B(  6-C ,  9-H ) :   0.9487
B(  6-C , 10-C ) :   0.7548 B( 10-C , 11-H ) :   0.9801 B( 10-C , 12-H ) :   0.9323
B( 10-C , 13-F ) :   0.8040 B( 13-F , 16-C ) :   0.1409 B( 13-F , 21-H ) :  -0.6207
B( 16-C , 17-N ) :   1.1616 B( 16-C , 18-N ) :   0.9102 B( 16-C , 21-H ) :  -0.9818
B( 17-N , 22-H ) :   0.7751 B( 17-N , 23-H ) :   1.1349 B( 18-N , 19-H ) :   0.9679
B( 18-N , 20-H ) :   1.0401

Dispersion correction           -0.057987834
FINAL SINGLE POINT ENERGY      -524.388227529525

DIPOLE MOMENT
-------------
                                X             Y             Z
Electronic contribution:      7.85171       3.81396       1.17645
Nuclear contribution   :     -8.11591      -2.99033      -1.35383
                        -----------------------------------------
Total Dipole Moment    :     -0.26420       0.82363      -0.17738
                        -----------------------------------------
Magnitude (a.u.)       :      0.88297
Magnitude (Debye)      :      2.24433

Rotational constants in cm-1:     0.043530     0.028984     0.019589
Rotational constants in MHz :  1305.007140   868.923804   587.262638

                             ****ORCA TERMINATED NORMALLY****
TOTAL RUN TIME: 0 days 0 hours 1 minutes 2 seconds 173 msec
