                         Program Version 5.0.0 -  RELEASE  -
|  1> !BLYP D3BJ RIJCOSX def2-TZVPD def2/J TightSCF xyzfile
|  2>
|  3> *xyzfile 0 1 D2.xyz
|  4>
|  5> %MaxCore 64000
|  6>
|  7> %pal nprocs 4
|  8> end
|  9>
| 10> %scf
| 11>   MaxIter 150
| 12> end
| 13>
| 14>
| 15>                          ****END OF INPUT****

CARTESIAN COORDINATES (ANGSTROEM)
---------------------------------
  C      1.635557   -1.670396   -5.292109
  C      0.338484   -1.500907   -4.505398
  N      2.484511   -0.507410   -5.140392
  C     -0.684873   -0.528026   -5.099889
  C     -0.290406    0.951335   -5.153423
  H      0.607991    1.070692   -5.764412
  C     -0.055168    1.619420   -3.788577
  H     -1.080912    1.483775   -5.689436
  H      0.045006    0.862302   -3.003015
  H     -0.922936    2.230329   -3.517028
  C      1.223022    2.469865   -3.756911
  H      1.114701    3.258074   -4.532999
  H      1.237732    3.011242   -2.792157
  F      2.353815    1.712032   -3.934477
  H      1.398337   -1.829239   -6.352591
  H      2.155864   -2.565398   -4.932091
  C      3.451149   -0.149530   -5.952589
  C      3.922667    1.089559   -5.850711
  N      3.966162   -1.006183   -6.867880
  H      3.521391   -1.906467   -6.995270
  H      4.444824   -0.623472   -7.670348
  H      2.251995    0.240804   -4.498792
  H      3.464277    1.640782   -5.136392
  H      4.834470    1.313745   -6.224653
  H     -0.937999   -0.869056   -6.110838
  H     -1.604638   -0.622496   -4.513132
  H      0.594887   -1.211578   -3.482312
  H     -0.126530   -2.487656   -4.434176

 Total Charge           Charge          ....    0
 Multiplicity           Mult            ....    1
 Number of Electrons    NEL             ....   88
 Basis Dimension        Dim             ....  563

ORBITAL ENERGIES
----------------

  NO   OCC          E(Eh)            E(eV)
   0   2.0000     -24.300589      -661.2526
   1   2.0000     -13.991091      -380.7169
   2   2.0000     -13.980118      -380.4184
   3   2.0000      -9.992024      -271.8968
   4   2.0000      -9.932914      -270.2883
   5   2.0000      -9.924676      -270.0642
   6   2.0000      -9.918632      -269.8997
   7   2.0000      -9.907883      -269.6072
   8   2.0000      -9.907542      -269.5979
   9   2.0000      -9.905562      -269.5440
  10   2.0000      -9.791148      -266.4307
  11   2.0000      -1.128421       -30.7059
  12   2.0000      -0.862879       -23.4801
  13   2.0000      -0.785654       -21.3787
  14   2.0000      -0.737581       -20.0706
  15   2.0000      -0.698975       -19.0201
  16   2.0000      -0.662020       -18.0145
  17   2.0000      -0.612566       -16.6688
  18   2.0000      -0.582682       -15.8556
  19   2.0000      -0.556140       -15.1334
  20   2.0000      -0.522586       -14.2203
  21   2.0000      -0.506735       -13.7890
  22   2.0000      -0.484402       -13.1813
  23   2.0000      -0.459494       -12.5035
  24   2.0000      -0.451296       -12.2804
  25   2.0000      -0.443744       -12.0749
  26   2.0000      -0.432316       -11.7639
  27   2.0000      -0.417319       -11.3558
  28   2.0000      -0.399356       -10.8670
  29   2.0000      -0.390252       -10.6193
  30   2.0000      -0.372302       -10.1309
  31   2.0000      -0.358733        -9.7616
  32   2.0000      -0.350712        -9.5433
  33   2.0000      -0.331519        -9.0211
  34   2.0000      -0.324904        -8.8411
  35   2.0000      -0.316926        -8.6240
  36   2.0000      -0.305580        -8.3153
  37   2.0000      -0.302072        -8.2198
  38   2.0000      -0.288990        -7.8638
  39   2.0000      -0.281646        -7.6640
  40   2.0000      -0.277275        -7.5450
  41   2.0000      -0.274458        -7.4684
  42   2.0000      -0.196894        -5.3578
  43   2.0000      -0.110689        -3.0120
  44   0.0000      -0.015981        -0.4349
  45   0.0000      -0.006770        -0.1842
  46   0.0000       0.002202         0.0599
  47   0.0000       0.005145         0.1400
  48   0.0000       0.019845         0.5400

MULLIKEN ATOMIC CHARGES
-----------------------
   0 C :   -0.672956
   1 C :   -0.666240
   2 N :   -0.264225
   3 C :   -0.472841
   4 C :   -0.652296
   5 H :    0.384644
   6 C :   -0.494327
   7 H :    0.297341
   8 H :    0.239824
   9 H :    0.304123
  10 C :   -0.337736
  11 H :    0.257593
  12 H :    0.264408
  13 F :   -0.466079
  14 H :    0.355669
  15 H :    0.324906
  16 C :    0.524953
  17 C :   -1.442347
  18 N :   -0.389926
  19 H :    0.172676
  20 H :    0.167349
  21 H :    0.547008
  22 H :    0.717993
  23 H :    0.313264
  24 H :    0.286185
  25 H :    0.204879
  26 H :    0.254857
  27 H :    0.241302
Sum of atomic charges:   -0.0000000

LOEWDIN ATOMIC CHARGES
----------------------
   0 C :   -0.194640
   1 C :   -0.189774
   2 N :    0.038364
   3 C :   -0.197782
   4 C :   -0.200049
   5 H :    0.102876
   6 C :   -0.168186
   7 H :    0.107263
   8 H :    0.103359
   9 H :    0.114122
  10 C :   -0.198398
  11 H :    0.129513
  12 H :    0.118269
  13 F :   -0.056845
  14 H :    0.114021
  15 H :    0.110748
  16 C :   -0.550636
  17 C :    0.009854
  18 N :    0.135372
  19 H :    0.076475
  20 H :    0.098174
  21 H :    0.084349
  22 H :   -0.016559
  23 H :    0.005719
  24 H :    0.108316
  25 H :    0.106719
  26 H :    0.102770
  27 H :    0.106584

  Mayer bond orders larger than 0.100000
B(  0-C ,  1-C ) :   0.8776 B(  0-C ,  2-N ) :   0.9955 B(  0-C , 14-H ) :   0.8418
B(  0-C , 15-H ) :   0.8414 B(  0-C , 16-C ) :  -0.1590 B(  1-C ,  3-C ) :   0.8152
B(  1-C , 26-H ) :   0.9223 B(  1-C , 27-H ) :   1.0218 B(  2-N , 16-C ) :   1.0662
B(  2-N , 21-H ) :   0.6634 B(  3-C ,  4-C ) :   0.7992 B(  3-C ,  6-C ) :   0.1633
B(  3-C , 24-H ) :   0.9384 B(  3-C , 25-H ) :   1.0063 B(  4-C ,  5-H ) :   0.9369
B(  4-C ,  6-C ) :   0.5876 B(  4-C ,  7-H ) :   0.9306 B(  4-C , 10-C ) :   0.1766
B(  6-C ,  8-H ) :   0.9975 B(  6-C ,  9-H ) :   0.9602 B(  6-C , 10-C ) :   0.7689
B( 10-C , 11-H ) :   0.9796 B( 10-C , 12-H ) :   0.9315 B( 10-C , 13-F ) :   0.7909
B( 13-F , 17-C ) :   0.1416 B( 13-F , 22-H ) :  -0.1194 B( 16-C , 17-C ) :   1.2292
B( 16-C , 18-N ) :   0.9444 B( 16-C , 22-H ) :  -0.1317 B( 16-C , 23-H ) :  -0.1047
B( 17-C , 18-N ) :   0.1345 B( 17-C , 22-H ) :   0.5647 B( 17-C , 23-H ) :   1.1129
B( 18-N , 19-H ) :   0.9920 B( 18-N , 20-H ) :   1.0015

Dispersion correction           -0.057460723
FINAL SINGLE POINT ENERGY      -524.380333162737

DIPOLE MOMENT
-------------
                                X             Y             Z
Electronic contribution:      6.39520       2.43654       1.73160
Nuclear contribution   :     -7.85451      -2.70006      -1.48294
                        -----------------------------------------
Total Dipole Moment    :     -1.45931      -0.26352       0.24866
                        -----------------------------------------
Magnitude (a.u.)       :      1.50362
Magnitude (Debye)      :      3.82189

Rotational constants in cm-1:     0.044065     0.029250     0.019826
Rotational constants in MHz :  1321.026981   876.903192   594.367265

                             ****ORCA TERMINATED NORMALLY****
TOTAL RUN TIME: 0 days 0 hours 1 minutes 2 seconds 88 msec
