                         Program Version 5.0.0 -  RELEASE  -
|  1> !BLYP D3BJ RIJCOSX def2-TZVPD def2/J TightSCF xyzfile
|  2>
|  3> *xyzfile 0 1 D3.xyz
|  4>
|  5> %MaxCore 64000
|  6>
|  7> %pal nprocs 4
|  8> end
|  9>
| 10> %scf
| 11>   MaxIter 150
| 12> end
| 13>
| 14>
| 15>                          ****END OF INPUT****

CARTESIAN COORDINATES (ANGSTROEM)
---------------------------------
  C      1.635557   -1.670396   -5.292109
  C      0.338484   -1.500907   -4.505398
  N      2.484511   -0.507410   -5.140392
  C     -0.684873   -0.528026   -5.099889
  C     -0.290406    0.951335   -5.153423
  H      0.607991    1.070692   -5.764412
  C     -0.055168    1.619420   -3.788577
  H     -1.080912    1.483775   -5.689436
  H      0.045006    0.862302   -3.003015
  H     -0.922936    2.230329   -3.517028
  C      1.223022    2.469865   -3.756911
  H      1.114701    3.258074   -4.532999
  H      1.237732    3.011242   -2.792157
  F      2.353815    1.712032   -3.934477
  H      1.398337   -1.829239   -6.352591
  H      2.155864   -2.565398   -4.932091
  C      3.451149   -0.149530   -5.952589
  N      3.922667    1.089559   -5.850711
  C      3.966162   -1.006183   -6.867880
  H      3.521391   -1.906467   -6.995270
  H      4.444824   -0.623472   -7.670348
  H      2.251995    0.240804   -4.498792
  H      3.464277    1.640782   -5.136392
  H      4.834470    1.313745   -6.224653
  H     -0.937999   -0.869056   -6.110838
  H     -1.604638   -0.622496   -4.513132
  H      0.594887   -1.211578   -3.482312
  H     -0.126530   -2.487656   -4.434176

 Total Charge           Charge          ....    0
 Multiplicity           Mult            ....    1
 Number of Electrons    NEL             ....   88
 Basis Dimension        Dim             ....  563

ORBITAL ENERGIES
----------------

  NO   OCC          E(Eh)            E(eV)
   0   2.0000     -24.328027      -661.9993
   1   2.0000     -13.983437      -380.5087
   2   2.0000     -13.979904      -380.4125
   3   2.0000     -10.009002      -272.3588
   4   2.0000      -9.928344      -270.1640
   5   2.0000      -9.925956      -270.0990
   6   2.0000      -9.924814      -270.0679
   7   2.0000      -9.911535      -269.7066
   8   2.0000      -9.908579      -269.6261
   9   2.0000      -9.905518      -269.5428
  10   2.0000      -9.800984      -266.6983
  11   2.0000      -1.154845       -31.4249
  12   2.0000      -0.867404       -23.6033
  13   2.0000      -0.785567       -21.3764
  14   2.0000      -0.742728       -20.2106
  15   2.0000      -0.702511       -19.1163
  16   2.0000      -0.655806       -17.8454
  17   2.0000      -0.620385       -16.8815
  18   2.0000      -0.591076       -16.0840
  19   2.0000      -0.568386       -15.4666
  20   2.0000      -0.517249       -14.0751
  21   2.0000      -0.509753       -13.8711
  22   2.0000      -0.497644       -13.5416
  23   2.0000      -0.471634       -12.8338
  24   2.0000      -0.469379       -12.7724
  25   2.0000      -0.441304       -12.0085
  26   2.0000      -0.435448       -11.8491
  27   2.0000      -0.420597       -11.4450
  28   2.0000      -0.409940       -11.1550
  29   2.0000      -0.386435       -10.5154
  30   2.0000      -0.376704       -10.2506
  31   2.0000      -0.366592        -9.9755
  32   2.0000      -0.352056        -9.5799
  33   2.0000      -0.331519        -9.0211
  34   2.0000      -0.328848        -8.9484
  35   2.0000      -0.317552        -8.6410
  36   2.0000      -0.312652        -8.5077
  37   2.0000      -0.307745        -8.3742
  38   2.0000      -0.297498        -8.0953
  39   2.0000      -0.290683        -7.9099
  40   2.0000      -0.282655        -7.6914
  41   2.0000      -0.277539        -7.5522
  42   2.0000      -0.187636        -5.1058
  43   2.0000      -0.115133        -3.1329
  44   0.0000      -0.021145        -0.5754
  45   0.0000      -0.005734        -0.1560
  46   0.0000      -0.000501        -0.0136
  47   0.0000       0.002361         0.0643
  48   0.0000       0.012906         0.3512

MULLIKEN ATOMIC CHARGES
-----------------------
   0 C :   -0.786588
   1 C :   -0.628812
   2 N :   -0.242377
   3 C :   -0.491976
   4 C :   -0.614897
   5 H :    0.351620
   6 C :   -0.500957
   7 H :    0.296456
   8 H :    0.243559
   9 H :    0.311953
  10 C :   -0.308720
  11 H :    0.268756
  12 H :    0.264373
  13 F :   -0.477926
  14 H :    0.355330
  15 H :    0.383613
  16 C :    0.351716
  17 N :   -0.340881
  18 C :   -1.265001
  19 H :    0.440869
  20 H :    0.277624
  21 H :    0.626938
  22 H :    0.382996
  23 H :    0.095565
  24 H :    0.293205
  25 H :    0.207316
  26 H :    0.262802
  27 H :    0.243444
Sum of atomic charges:   -0.0000000

LOEWDIN ATOMIC CHARGES
----------------------
   0 C :   -0.187191
   1 C :   -0.189402
   2 N :    0.037592
   3 C :   -0.196599
   4 C :   -0.200704
   5 H :    0.103024
   6 C :   -0.166814
   7 H :    0.107516
   8 H :    0.104803
   9 H :    0.116046
  10 C :   -0.195035
  11 H :    0.130055
  12 H :    0.120325
  13 F :   -0.048264
  14 H :    0.118569
  15 H :    0.117136
  16 C :   -0.566552
  17 N :    0.133615
  18 C :    0.011981
  19 H :   -0.016926
  20 H :   -0.006251
  21 H :    0.080703
  22 H :    0.059358
  23 H :    0.107673
  24 H :    0.110149
  25 H :    0.106714
  26 H :    0.100812
  27 H :    0.107668

  Mayer bond orders larger than 0.100000
B(  0-C ,  1-C ) :   0.8110 B(  0-C ,  2-N ) :   1.0880 B(  0-C , 14-H ) :   0.8994
B(  0-C , 15-H ) :   0.8032 B(  0-C , 18-C ) :   0.2261 B(  1-C ,  3-C ) :   0.8025
B(  1-C , 26-H ) :   0.9193 B(  1-C , 27-H ) :   1.0276 B(  2-N , 16-C ) :   1.1229
B(  2-N , 21-H ) :   0.6013 B(  3-C ,  4-C ) :   0.8188 B(  3-C ,  6-C ) :   0.1597
B(  3-C , 24-H ) :   0.9339 B(  3-C , 25-H ) :   1.0083 B(  4-C ,  5-H ) :   0.9728
B(  4-C ,  6-C ) :   0.5824 B(  4-C ,  7-H ) :   0.9353 B(  4-C , 10-C ) :   0.1851
B(  6-C ,  8-H ) :   0.9997 B(  6-C ,  9-H ) :   0.9548 B(  6-C , 10-C ) :   0.7748
B( 10-C , 11-H ) :   0.9694 B( 10-C , 12-H ) :   0.9274 B( 10-C , 13-F ) :   0.7669
B( 13-F , 21-H ) :  -0.1060 B( 16-C , 17-N ) :   1.0635 B( 16-C , 18-C ) :   1.2511
B( 16-C , 20-H ) :  -0.1267 B( 17-N , 22-H ) :   0.7810 B( 17-N , 23-H ) :   1.0608
B( 18-C , 19-H ) :   0.8171 B( 18-C , 20-H ) :   1.1641

Dispersion correction           -0.057369429
FINAL SINGLE POINT ENERGY      -524.391566892700

DIPOLE MOMENT
-------------
                                X             Y             Z
Electronic contribution:      6.29105       4.42265       2.80414
Nuclear contribution   :     -7.84660      -3.08098      -1.66782
                        -----------------------------------------
Total Dipole Moment    :     -1.55555       1.34166       1.13632
                        -----------------------------------------
Magnitude (a.u.)       :      2.34756
Magnitude (Debye)      :      5.96701

Rotational constants in cm-1:     0.043547     0.029898     0.020008
Rotational constants in MHz :  1305.520367   896.323854   599.829375

                             ****ORCA TERMINATED NORMALLY****
TOTAL RUN TIME: 0 days 0 hours 1 minutes 0 seconds 935 msec
