                         Program Version 5.0.0 -  RELEASE  -
|  1> !DLPNO-CCSD(T) aug-cc-pVTZ aug-cc-pVTZ/C TightSCF TightPNO RIJCOSX def2/J
|  2> *xyz -1 1
|  3> C          2.49670       -1.84416       -5.73570
|  4> O          2.45973       -0.50920       -5.50576
|  5> H          2.07863       -2.36209       -4.89793
|  6> H          3.51118       -2.15388       -5.87645
|  7> H          1.92949       -2.07059       -6.61428
|  8> *
|  9>
| 10> %MaxCore 64000
| 11>
| 12> %pal nprocs 8
| 13> end
| 14>
| 15> %scf
| 16>   MaxIter 150
| 17> end
| 18>
| 19>
| 20>                          ****END OF INPUT****

CARTESIAN COORDINATES (ANGSTROEM)
---------------------------------
  C      2.496700   -1.844160   -5.735700
  O      2.459730   -0.509200   -5.505760
  H      2.078630   -2.362090   -4.897930
  H      3.511180   -2.153880   -5.876450
  H      1.929490   -2.070590   -6.614280

 Total Charge           Charge          ....   -1
 Multiplicity           Mult            ....    1
 Number of Electrons    NEL             ....   18
 Basis Dimension        Dim             ....  161

ORBITAL ENERGIES
----------------

  NO   OCC          E(Eh)            E(eV)
   0   2.0000     -20.184419      -549.2460
   1   2.0000     -11.003383      -299.4173
   2   2.0000      -0.980827       -26.6896
   3   2.0000      -0.630377       -17.1534
   4   2.0000      -0.358291        -9.7496
   5   2.0000      -0.358263        -9.7488
   6   2.0000      -0.252844        -6.8802
   7   2.0000      -0.095370        -2.5952
   8   2.0000      -0.095352        -2.5947
   9   0.0000       0.144993         3.9455
  10   0.0000       0.154821         4.2129
  11   0.0000       0.154822         4.2129
  12   0.0000       0.215830         5.8730
  13   0.0000       0.262346         7.1388

MULLIKEN ATOMIC CHARGES
-----------------------
   0 C :   -0.677474
   1 O :   -1.049034
   2 H :    0.249486
   3 H :    0.239744
   4 H :    0.237277
Sum of atomic charges:   -1.0000000

LOEWDIN ATOMIC CHARGES
----------------------
   0 C :   -0.154241
   1 O :    0.054235
   2 H :   -0.299950
   3 H :   -0.300005
   4 H :   -0.300039

  Mayer bond orders larger than 0.100000
B(  0-C ,  1-O ) :   1.1037 B(  0-C ,  2-H ) :   0.9320 B(  0-C ,  3-H ) :   0.9410
B(  0-C ,  4-H ) :   0.9437

E(0)                                       ...   -114.448444610
E(0)                                       ...   -114.448444610
E(CORR)(strong-pairs)                      ...     -0.462753135
E(CORR)(weak-pairs)                        ...     -0.000192470
E(CORR)(corrected)                         ...     -0.462945605
E(TOT)                                     ...   -114.911390216
E(CCSD(T))                                 ...   -114.929398658
FINAL SINGLE POINT ENERGY      -114.929398658202

DIPOLE MOMENT
-------------
                                X             Y             Z
Electronic contribution:     -0.04977       1.79551       0.30910
Nuclear contribution   :      0.07809      -2.81948      -0.48564
                        -----------------------------------------
Total Dipole Moment    :      0.02831      -1.02397      -0.17654
                        -----------------------------------------
Magnitude (a.u.)       :      1.03947
Magnitude (Debye)      :      2.64211

Rotational constants in cm-1:     5.477724     0.956378     0.956377
Rotational constants in MHz : 164218.041992 28671.483536 28671.460928

                             ****ORCA TERMINATED NORMALLY****
TOTAL RUN TIME: 0 days 0 hours 1 minutes 5 seconds 439 msec
