                         Program Version 5.0.0 -  RELEASE  -
|  1> !DLPNO-CCSD(T) aug-cc-pVTZ aug-cc-pVTZ/C TightSCF TightPNO RIJCOSX def2/J
|  2> *xyz 1 1
|  3> C          4.99986       -1.59613       -5.92488
|  4> N          5.28156       -1.97413       -4.53576
|  5> C          4.79250       -1.36132       -3.45730
|  6> N          3.93990       -0.37492       -3.55736
|  7> N          5.25986       -1.75422       -2.23913
|  8> H          5.92282       -2.52145       -2.18672
|  9> H          4.65468       -1.64040       -1.44202
| 10> H          5.70914       -2.87560       -4.38702
| 11> H          3.33010       -0.31764       -4.36125
| 12> H          3.69849        0.11447       -2.70833
| 13> H          5.52133       -2.25562       -6.58673
| 14> H          5.32493       -0.59081       -6.09388
| 15> H          3.94785       -1.66624       -6.10727
| 16> *
| 17>
| 18> %MaxCore 64000
| 19>
| 20> %pal nprocs 2
| 21> end
| 22>
| 23> %scf
| 24>   MaxIter 150
| 25> end
| 26>
| 27>
| 28>                          ****END OF INPUT****

CARTESIAN COORDINATES (ANGSTROEM)
---------------------------------
  C      4.999860   -1.596130   -5.924880
  N      5.281560   -1.974130   -4.535760
  C      4.792500   -1.361320   -3.457300
  N      3.939900   -0.374920   -3.557360
  N      5.259860   -1.754220   -2.239130
  H      5.922820   -2.521450   -2.186720
  H      4.654680   -1.640400   -1.442020
  H      5.709140   -2.875600   -4.387020
  H      3.330100   -0.317640   -4.361250
  H      3.698490    0.114470   -2.708330
  H      5.521330   -2.255620   -6.586730
  H      5.324930   -0.590810   -6.093880
  H      3.947850   -1.666240   -6.107270

 Total Charge           Charge          ....    1
 Multiplicity           Mult            ....    1
 Number of Electrons    NEL             ....   40
 Basis Dimension        Dim             ....  414

ORBITAL ENERGIES
----------------

  NO   OCC          E(Eh)            E(eV)
   0   2.0000     -15.796284      -429.8387
   1   2.0000     -15.789661      -429.6585
   2   2.0000     -15.784730      -429.5243
   3   2.0000     -11.593654      -315.4794
   4   2.0000     -11.430558      -311.0413
   5   2.0000      -1.544794       -42.0360
   6   2.0000      -1.409562       -38.3561
   7   2.0000      -1.390452       -37.8361
   8   2.0000      -1.149837       -31.2886
   9   2.0000      -1.044263       -28.4158
  10   2.0000      -0.980296       -26.6752
  11   2.0000      -0.935057       -25.4442
  12   2.0000      -0.876080       -23.8393
  13   2.0000      -0.866810       -23.5871
  14   2.0000      -0.821493       -22.3539
  15   2.0000      -0.792750       -21.5718
  16   2.0000      -0.749456       -20.3937
  17   2.0000      -0.736328       -20.0365
  18   2.0000      -0.630450       -17.1554
  19   2.0000      -0.596512       -16.2319
  20   0.0000      -0.097164        -2.6440
  21   0.0000      -0.076927        -2.0933
  22   0.0000      -0.071351        -1.9416
  23   0.0000      -0.061786        -1.6813
  24   0.0000      -0.049177        -1.3382

MULLIKEN ATOMIC CHARGES
-----------------------
   0 C :   -0.826474
   1 N :   -0.015940
   2 C :    0.503643
   3 N :   -0.231204
   4 N :   -0.376689
   5 H :    0.169133
   6 H :    0.156010
   7 H :    0.154212
   8 H :    0.190705
   9 H :    0.171883
  10 H :    0.396135
  11 H :    0.383454
  12 H :    0.325132
Sum of atomic charges:    1.0000000

LOEWDIN ATOMIC CHARGES
----------------------
   0 C :    0.585796
   1 N :    0.615918
   2 C :   -0.363247
   3 N :    0.939650
   4 N :    0.938423
   5 H :   -0.247453
   6 H :   -0.259709
   7 H :   -0.250538
   8 H :   -0.245402
   9 H :   -0.235172
  10 H :   -0.148561
  11 H :   -0.159978
  12 H :   -0.169729

  Mayer bond orders larger than 0.100000
B(  0-C ,  1-N ) :   0.8419 B(  0-C ,  2-C ) :  -0.1206 B(  0-C , 10-H ) :   0.8752
B(  0-C , 11-H ) :   0.8685 B(  0-C , 12-H ) :   0.9180 B(  1-N ,  2-C ) :   1.0381
B(  1-N ,  7-H ) :   1.0127 B(  2-C ,  3-N ) :   1.0868 B(  2-C ,  4-N ) :   0.9988
B(  3-N ,  8-H ) :   1.0326 B(  3-N ,  9-H ) :   1.0073 B(  4-N ,  5-H ) :   1.0172
B(  4-N ,  6-H ) :   1.0649

E(0)                                       ...   -243.654572785
E(0)                                       ...   -243.654572785
E(CORR)(strong-pairs)                      ...     -0.995785455
E(CORR)(weak-pairs)                        ...     -0.000981139
E(CORR)(corrected)                         ...     -0.996766595
E(TOT)                                     ...   -244.651339380
E(CCSD(T))                                 ...   -244.691224357
FINAL SINGLE POINT ENERGY      -244.691224357385

DIPOLE MOMENT
-------------
                                X             Y             Z
Electronic contribution:      0.13129       0.11302       2.69022
Nuclear contribution   :     -0.59263      -0.40751      -2.24260
                        -----------------------------------------
Total Dipole Moment    :     -0.46134      -0.29449       0.44763
                        -----------------------------------------
Magnitude (a.u.)       :      0.70706
Magnitude (Debye)      :      1.79720

Rotational constants in cm-1:     0.316984     0.131419     0.095004
Rotational constants in MHz :  9502.926758  3939.829875  2848.138998

                             ****ORCA TERMINATED NORMALLY****
TOTAL RUN TIME: 0 days 1 hours 59 minutes 57 seconds 966 msec
