                         Program Version 5.0.0 -  RELEASE  -
|  1> !DLPNO-CCSD(T) aug-cc-pVTZ aug-cc-pVTZ/C TightSCF TightPNO RIJCOSX def2/J
|  2>
|  3> *xyzfile 0 1 B.xyz
|  4>
|  5> %MaxCore 64000
|  6>
|  7> %pal nprocs 18
|  8> end
|  9>
| 10> %scf
| 11>   MaxIter 150
| 12> end
| 13>
| 14>
| 15>                          ****END OF INPUT****

CARTESIAN COORDINATES (ANGSTROEM)
---------------------------------
  C      4.999862   -1.596133   -5.924876
  N      5.281560   -1.974132   -4.535764
  C      3.766779   -2.266110   -6.511752
  C      2.496702   -1.844161   -5.735704
  H      1.626416   -2.217434   -6.308950
  H      2.481824   -2.456069   -4.793414
  O      2.459729   -0.509204   -5.505757
  C      4.792500   -1.361316   -3.457295
  N      3.939898   -0.374925   -3.557359
  N      5.259860   -1.754224   -2.239133
  H      5.922824   -2.521451   -2.186720
  H      4.654678   -1.640404   -1.442016
  H      5.709139   -2.875599   -4.387021
  H      3.330101   -0.317639   -4.361247
  H      3.698494    0.114468   -2.708333
  H      4.843333   -0.517930   -5.943019
  H      5.901695   -1.822503   -6.496467
  H      3.886191   -3.357076   -6.533604
  H      3.685602   -1.922168   -7.547128

 Total Charge           Charge          ....    0
 Multiplicity           Mult            ....    1
 Number of Electrons    NEL             ....   64
 Basis Dimension        Dim             ....  621

ORBITAL ENERGIES
----------------

  NO   OCC          E(Eh)            E(eV)
   0   2.0000     -20.391420      -554.8788
   1   2.0000     -15.631097      -425.3438
   2   2.0000     -15.617790      -424.9817
   3   2.0000     -15.575567      -423.8327
   4   2.0000     -11.413912      -310.5883
   5   2.0000     -11.259684      -306.3916
   6   2.0000     -11.206442      -304.9428
   7   2.0000     -11.190464      -304.5080
   8   2.0000      -1.368528       -37.2395
   9   2.0000      -1.236826       -33.6557
  10   2.0000      -1.224538       -33.3214
  11   2.0000      -1.195126       -32.5210
  12   2.0000      -1.018705       -27.7204
  13   2.0000      -0.910373       -24.7725
  14   2.0000      -0.848971       -23.1017
  15   2.0000      -0.803738       -21.8708
  16   2.0000      -0.781021       -21.2527
  17   2.0000      -0.740721       -20.1560
  18   2.0000      -0.696516       -18.9532
  19   2.0000      -0.684117       -18.6158
  20   2.0000      -0.635054       -17.2807
  21   2.0000      -0.627728       -17.0814
  22   2.0000      -0.598775       -16.2935
  23   2.0000      -0.561773       -15.2866
  24   2.0000      -0.514220       -13.9926
  25   2.0000      -0.494276       -13.4499
  26   2.0000      -0.479590       -13.0503
  27   2.0000      -0.454700       -12.3730
  28   2.0000      -0.442802       -12.0492
  29   2.0000      -0.410310       -11.1651
  30   2.0000      -0.310297        -8.4436
  31   2.0000      -0.306448        -8.3389
  32   0.0000       0.006528         0.1776
  33   0.0000       0.023785         0.6472
  34   0.0000       0.035398         0.9632
  35   0.0000       0.040184         1.0935
  36   0.0000       0.048166         1.3107

MULLIKEN ATOMIC CHARGES
-----------------------
   0 C :   -0.278921
   1 N :   -0.052473
   2 C :   -0.582968
   3 C :   -0.209440
   4 H :    0.329042
   5 H :    0.193162
   6 O :   -1.021287
   7 C :    0.494876
   8 N :   -0.239500
   9 N :   -0.517516
  10 H :    0.115743
  11 H :    0.120765
  12 H :    0.047430
  13 H :    0.296604
  14 H :    0.080400
  15 H :    0.322367
  16 H :    0.365292
  17 H :    0.286766
  18 H :    0.249656
Sum of atomic charges:    0.0000000

LOEWDIN ATOMIC CHARGES
----------------------
   0 C :    0.214869
   1 N :    0.612224
   2 C :    0.266309
   3 C :   -0.210547
   4 H :   -0.183551
   5 H :   -0.180023
   6 O :    0.451687
   7 C :   -0.378990
   8 N :    0.926011
   9 N :    0.907690
  10 H :   -0.269826
  11 H :   -0.276061
  12 H :   -0.257887
  13 H :   -0.765785
  14 H :   -0.235770
  15 H :   -0.168723
  16 H :   -0.139753
  17 H :   -0.156723
  18 H :   -0.155152

  Mayer bond orders larger than 0.100000
B(  0-C ,  1-N ) :   0.8766 B(  0-C ,  2-C ) :   0.8211 B(  0-C ,  7-C ) :  -0.1295
B(  0-C , 15-H ) :   0.9723 B(  0-C , 16-H ) :   0.8868 B(  1-N ,  7-C ) :   0.9358
B(  1-N ,  9-N ) :  -0.1384 B(  1-N , 12-H ) :   1.1048 B(  2-C ,  3-C ) :   0.8665
B(  2-C , 17-H ) :   0.9204 B(  2-C , 18-H ) :   0.9414 B(  3-C ,  4-H ) :   0.9488
B(  3-C ,  5-H ) :   1.0272 B(  3-C ,  6-O ) :   0.9752 B(  6-O , 13-H ) :   0.2935
B(  7-C ,  8-N ) :   1.0698 B(  7-C ,  9-N ) :   0.8814 B(  7-C , 13-H ) :  -0.1254
B(  8-N ,  9-N ) :  -0.1306 B(  8-N , 13-H ) :   0.7698 B(  8-N , 14-H ) :   1.0751
B(  9-N , 10-H ) :   1.0603 B(  9-N , 11-H ) :   1.1034

E(0)                                       ...   -396.184167865
E(0)                                       ...   -396.184167865
E(CORR)(strong-pairs)                      ...     -1.624185367
E(CORR)(weak-pairs)                        ...     -0.002106170
E(CORR)(corrected)                         ...     -1.626291537
E(TOT)                                     ...   -397.810459402
E(CCSD(T))                                 ...   -397.879560225
FINAL SINGLE POINT ENERGY      -397.879560224905

DIPOLE MOMENT
-------------
                                X             Y             Z
Electronic contribution:      2.01845       1.85667       3.79862
Nuclear contribution   :      0.51577      -3.31768      -1.36804
                        -----------------------------------------
Total Dipole Moment    :      2.53422      -1.46101       2.43058
                        -----------------------------------------
Magnitude (a.u.)       :      3.80323
Magnitude (Debye)      :      9.66704

Rotational constants in cm-1:     0.111492     0.050787     0.040163
Rotational constants in MHz :  3342.457536  1522.560798  1204.057148

                             ****ORCA TERMINATED NORMALLY****
TOTAL RUN TIME: 0 days 0 hours 49 minutes 30 seconds 195 msec
