                         Program Version 5.0.0 -  RELEASE  -
|  1> !DLPNO-CCSD(T) aug-cc-pVTZ aug-cc-pVTZ/C TightSCF TightPNO RIJCOSX def2/J
|  2> *xyz 0 1
|  3> C          2.49670       -1.84416       -5.73570
|  4> F          2.45973       -0.50920       -5.50576
|  5> H          2.07863       -2.36209       -4.89793
|  6> H          3.51118       -2.15388       -5.87645
|  7> H          1.92949       -2.07059       -6.61428
|  8> *
|  9>
| 10> %MaxCore 64000
| 11>
| 12> %pal nprocs 8
| 13> end
| 14>
| 15> %scf
| 16>   MaxIter 150
| 17> end
| 18>
| 19>
| 20>                          ****END OF INPUT****

CARTESIAN COORDINATES (ANGSTROEM)
---------------------------------
  C      2.496700   -1.844160   -5.735700
  F      2.459730   -0.509200   -5.505760
  H      2.078630   -2.362090   -4.897930
  H      3.511180   -2.153880   -5.876450
  H      1.929490   -2.070590   -6.614280

 Total Charge           Charge          ....    0
 Multiplicity           Mult            ....    1
 Number of Electrons    NEL             ....   18
 Basis Dimension        Dim             ....  161

ORBITAL ENERGIES
----------------

  NO   OCC          E(Eh)            E(eV)
   0   2.0000     -26.281080      -715.1445
   1   2.0000     -11.295852      -307.3758
   2   2.0000      -1.599512       -43.5249
   3   2.0000      -0.961332       -26.1592
   4   2.0000      -0.704879       -19.1807
   5   2.0000      -0.704833       -19.1795
   6   2.0000      -0.686010       -18.6673
   7   2.0000      -0.530447       -14.4342
   8   2.0000      -0.530414       -14.4333
   9   0.0000       0.029613         0.8058
  10   0.0000       0.047294         1.2869
  11   0.0000       0.047295         1.2870
  12   0.0000       0.074988         2.0405
  13   0.0000       0.123963         3.3732

MULLIKEN ATOMIC CHARGES
-----------------------
   0 C :   -0.496218
   1 F :   -0.419577
   2 H :    0.310605
   3 H :    0.304398
   4 H :    0.300792
Sum of atomic charges:   -0.0000000

LOEWDIN ATOMIC CHARGES
----------------------
   0 C :    0.201601
   1 F :    0.446013
   2 H :   -0.215848
   3 H :   -0.215884
   4 H :   -0.215882

  Mayer bond orders larger than 0.100000
B(  0-C ,  1-F ) :   0.6786 B(  0-C ,  2-H ) :   0.9066 B(  0-C ,  3-H ) :   0.9130
B(  0-C ,  4-H ) :   0.9166

E(0)                                       ...   -139.097739122
E(0)                                       ...   -139.097739122
E(CORR)(strong-pairs)                      ...     -0.457957001
E(CORR)(weak-pairs)                        ...     -0.000191945
E(CORR)(corrected)                         ...     -0.458148946
E(TOT)                                     ...   -139.555888068
E(CCSD(T))                                 ...   -139.569420016
FINAL SINGLE POINT ENERGY      -139.569420016066

DIPOLE MOMENT
-------------
                                X             Y             Z
Electronic contribution:     -0.07829       2.82632       0.48658
Nuclear contribution   :      0.09898      -3.57380      -0.61557
                        -----------------------------------------
Total Dipole Moment    :      0.02069      -0.74748      -0.12899
                        -----------------------------------------
Magnitude (a.u.)       :      0.75881
Magnitude (Debye)      :      1.92875

Rotational constants in cm-1:     5.477724     0.890368     0.890367
Rotational constants in MHz : 164218.041992 26692.553985 26692.534390

                             ****ORCA TERMINATED NORMALLY****
TOTAL RUN TIME: 0 days 0 hours 0 minutes 38 seconds 426 msec
