                         Program Version 5.0.0 -  RELEASE  -
|  1> !DLPNO-CCSD(T) aug-cc-pVTZ aug-cc-pVTZ/C TightSCF TightPNO RIJCOSX def2/J
|  2> *xyz 0 1
|  3> C          4.99986       -1.59613       -5.92488
|  4> C          5.28156       -1.97413       -4.53576
|  5> C          4.79250       -1.36132       -3.45730
|  6> N          3.93990       -0.37492       -3.55736
|  7> N          5.25986       -1.75422       -2.23913
|  8> H          5.92282       -2.52145       -2.18672
|  9> H          4.65468       -1.64040       -1.44202
| 10> H          5.70914       -2.87560       -4.38702
| 11> H          3.33010       -0.31764       -4.36125
| 12> H          3.69849        0.11447       -2.70833
| 13> H          5.52133       -2.25562       -6.58673
| 14> H          5.32493       -0.59081       -6.09388
| 15> H          3.94785       -1.66624       -6.10727
| 16> *
| 17>
| 18> %MaxCore 64000
| 19>
| 20> %pal nprocs 2
| 21> end
| 22>
| 23> %scf
| 24>   MaxIter 150
| 25> end
| 26>
| 27>
| 28>                          ****END OF INPUT****

CARTESIAN COORDINATES (ANGSTROEM)
---------------------------------
  C      4.999860   -1.596130   -5.924880
  C      5.281560   -1.974130   -4.535760
  C      4.792500   -1.361320   -3.457300
  N      3.939900   -0.374920   -3.557360
  N      5.259860   -1.754220   -2.239130
  H      5.922820   -2.521450   -2.186720
  H      4.654680   -1.640400   -1.442020
  H      5.709140   -2.875600   -4.387020
  H      3.330100   -0.317640   -4.361250
  H      3.698490    0.114470   -2.708330
  H      5.521330   -2.255620   -6.586730
  H      5.324930   -0.590810   -6.093880
  H      3.947850   -1.666240   -6.107270

 Total Charge           Charge          ....    0
 Multiplicity           Mult            ....    1
 Number of Electrons    NEL             ....   40
 Basis Dimension        Dim             ....  414

ORBITAL ENERGIES
----------------

  NO   OCC          E(Eh)            E(eV)
   0   2.0000     -15.566183      -423.5774
   1   2.0000     -15.556648      -423.3179
   2   2.0000     -11.280466      -306.9571
   3   2.0000     -11.184554      -304.3472
   4   2.0000     -11.142280      -303.1968
   5   2.0000      -1.278939       -34.8017
   6   2.0000      -1.164202       -31.6795
   7   2.0000      -1.020380       -27.7659
   8   2.0000      -0.893879       -24.3237
   9   2.0000      -0.783212       -21.3123
  10   2.0000      -0.726334       -19.7646
  11   2.0000      -0.683544       -18.6002
  12   2.0000      -0.645197       -17.5567
  13   2.0000      -0.595539       -16.2054
  14   2.0000      -0.567129       -15.4324
  15   2.0000      -0.529531       -14.4093
  16   2.0000      -0.510145       -13.8818
  17   2.0000      -0.486041       -13.2258
  18   2.0000      -0.414882       -11.2895
  19   2.0000      -0.259313        -7.0563
  20   0.0000       0.024431         0.6648
  21   0.0000       0.035977         0.9790
  22   0.0000       0.040262         1.0956
  23   0.0000       0.050874         1.3843
  24   0.0000       0.054814         1.4916

MULLIKEN ATOMIC CHARGES
-----------------------
   0 C :   -0.812263
   1 C :   -0.423134
   2 C :    0.614592
   3 N :   -0.404997
   4 N :   -0.521900
   5 H :    0.100076
   6 H :    0.089658
   7 H :    0.338984
   8 H :    0.122996
   9 H :    0.121973
  10 H :    0.222765
  11 H :    0.297936
  12 H :    0.253315
Sum of atomic charges:    0.0000000

LOEWDIN ATOMIC CHARGES
----------------------
   0 C :    0.535386
   1 C :    0.193464
   2 C :   -0.435348
   3 N :    0.857723
   4 N :    0.849753
   5 H :   -0.280346
   6 H :   -0.303091
   7 H :   -0.290534
   8 H :   -0.274141
   9 H :   -0.276173
  10 H :   -0.185841
  11 H :   -0.191378
  12 H :   -0.199474

  Mayer bond orders larger than 0.100000
B(  0-C ,  1-C ) :   0.8060 B(  0-C , 10-H ) :   1.1009 B(  0-C , 11-H ) :   0.9320
B(  0-C , 12-H ) :   0.9162 B(  1-C ,  2-C ) :   1.2769 B(  1-C ,  3-N ) :  -0.1468
B(  1-C ,  4-N ) :  -0.1745 B(  1-C ,  7-H ) :   0.9038 B(  2-C ,  3-N ) :   0.8137
B(  2-C ,  4-N ) :   0.8222 B(  3-N ,  4-N ) :  -0.1570 B(  3-N ,  8-H ) :   1.1136
B(  3-N ,  9-H ) :   1.0450 B(  4-N ,  5-H ) :   1.0856 B(  4-N ,  6-H ) :   1.1132

E(0)                                       ...   -227.206950861
E(0)                                       ...   -227.206950861
E(CORR)(strong-pairs)                      ...     -0.978935556
E(CORR)(weak-pairs)                        ...     -0.000963871
E(CORR)(corrected)                         ...     -0.979899427
E(TOT)                                     ...   -228.186850288
E(CCSD(T))                                 ...   -228.226990761
FINAL SINGLE POINT ENERGY      -228.226990761402

DIPOLE MOMENT
-------------
                                X             Y             Z
Electronic contribution:     -0.18162       0.60331       3.11334
Nuclear contribution   :     -0.50372      -0.52081      -2.36443
                        -----------------------------------------
Total Dipole Moment    :     -0.68534       0.08250       0.74891
                        -----------------------------------------
Magnitude (a.u.)       :      1.01851
Magnitude (Debye)      :      2.58885

Rotational constants in cm-1:     0.322219     0.132365     0.095965
Rotational constants in MHz :  9659.878542  3968.206057  2876.950547

                             ****ORCA TERMINATED NORMALLY****
TOTAL RUN TIME: 0 days 2 hours 12 minutes 46 seconds 899 msec
