                         Program Version 5.0.0 -  RELEASE  -
|  1> !DLPNO-CCSD(T) aug-cc-pVTZ aug-cc-pVTZ/C TightSCF TightPNO RIJCOSX def2/J
|  2> *xyz 0 1
|  3> C          4.99986       -1.59613       -5.92488
|  4> N          5.28156       -1.97413       -4.53576
|  5> C          4.79250       -1.36132       -3.45730
|  6> C          3.93990       -0.37492       -3.55736
|  7> N          5.25986       -1.75422       -2.23913
|  8> H          5.92282       -2.52145       -2.18672
|  9> H          4.65468       -1.64040       -1.44202
| 10> H          5.70914       -2.87560       -4.38702
| 11> H          3.33010       -0.31764       -4.36125
| 12> H          3.69849        0.11447       -2.70833
| 13> H          5.52133       -2.25562       -6.58673
| 14> H          5.32493       -0.59081       -6.09388
| 15> H          3.94785       -1.66624       -6.10727
| 16> *
| 17>
| 18> %MaxCore 64000
| 19>
| 20> %pal nprocs 2
| 21> end
| 22>
| 23> %scf
| 24>   MaxIter 150
| 25> end
| 26>
| 27>
| 28>                          ****END OF INPUT****

CARTESIAN COORDINATES (ANGSTROEM)
---------------------------------
  C      4.999860   -1.596130   -5.924880
  N      5.281560   -1.974130   -4.535760
  C      4.792500   -1.361320   -3.457300
  C      3.939900   -0.374920   -3.557360
  N      5.259860   -1.754220   -2.239130
  H      5.922820   -2.521450   -2.186720
  H      4.654680   -1.640400   -1.442020
  H      5.709140   -2.875600   -4.387020
  H      3.330100   -0.317640   -4.361250
  H      3.698490    0.114470   -2.708330
  H      5.521330   -2.255620   -6.586730
  H      5.324930   -0.590810   -6.093880
  H      3.947850   -1.666240   -6.107270

 Total Charge           Charge          ....    0
 Multiplicity           Mult            ....    1
 Number of Electrons    NEL             ....   40
 Basis Dimension        Dim             ....  414

ORBITAL ENERGIES
----------------

  NO   OCC          E(Eh)            E(eV)
   0   2.0000     -15.561998      -423.4635
   1   2.0000     -15.559040      -423.3830
   2   2.0000     -11.284820      -307.0756
   3   2.0000     -11.250671      -306.1463
   4   2.0000     -11.131926      -302.9151
   5   2.0000      -1.278319       -34.7848
   6   2.0000      -1.172063       -31.8935
   7   2.0000      -0.988945       -26.9106
   8   2.0000      -0.941085       -25.6082
   9   2.0000      -0.768158       -20.9026
  10   2.0000      -0.722726       -19.6664
  11   2.0000      -0.690336       -18.7850
  12   2.0000      -0.625999       -17.0343
  13   2.0000      -0.597355       -16.2549
  14   2.0000      -0.581219       -15.8158
  15   2.0000      -0.541667       -14.7395
  16   2.0000      -0.539788       -14.6884
  17   2.0000      -0.509990       -13.8775
  18   2.0000      -0.394740       -10.7414
  19   2.0000      -0.276984        -7.5371
  20   0.0000       0.024518         0.6672
  21   0.0000       0.035032         0.9533
  22   0.0000       0.041426         1.1273
  23   0.0000       0.050804         1.3824
  24   0.0000       0.055609         1.5132

MULLIKEN ATOMIC CHARGES
-----------------------
   0 C :   -0.939561
   1 N :   -0.076174
   2 C :    0.519794
   3 C :   -1.236008
   4 N :   -0.473542
   5 H :    0.115721
   6 H :    0.094021
   7 H :    0.124138
   8 H :    0.495542
   9 H :    0.303036
  10 H :    0.382649
  11 H :    0.372632
  12 H :    0.317751
Sum of atomic charges:    0.0000000

LOEWDIN ATOMIC CHARGES
----------------------
   0 C :    0.529642
   1 N :    0.552688
   2 C :   -0.454814
   3 C :    0.532411
   4 N :    0.859036
   5 H :   -0.289582
   6 H :   -0.289453
   7 H :   -0.286201
   8 H :   -0.310858
   9 H :   -0.305480
  10 H :   -0.175682
  11 H :   -0.176030
  12 H :   -0.185678

  Mayer bond orders larger than 0.100000
B(  0-C ,  1-N ) :   0.9340 B(  0-C ,  2-C ) :  -0.1002 B(  0-C , 10-H ) :   0.8814
B(  0-C , 11-H ) :   0.8838 B(  0-C , 12-H ) :   0.9417 B(  1-N ,  2-C ) :   0.8738
B(  1-N ,  3-C ) :  -0.2145 B(  1-N ,  4-N ) :  -0.1425 B(  1-N ,  7-H ) :   1.0173
B(  2-C ,  3-C ) :   1.1853 B(  2-C ,  4-N ) :   0.7524 B(  3-C ,  4-N ) :  -0.1020
B(  3-C ,  8-H ) :   0.7746 B(  3-C ,  9-H ) :   1.0283 B(  4-N ,  5-H ) :   1.0447
B(  4-N ,  6-H ) :   1.1334

E(0)                                       ...   -227.201572918
E(0)                                       ...   -227.201572918
E(CORR)(strong-pairs)                      ...     -0.975924756
E(CORR)(weak-pairs)                        ...     -0.000975111
E(CORR)(corrected)                         ...     -0.976899867
E(TOT)                                     ...   -228.178472785
E(CCSD(T))                                 ...   -228.218407886
FINAL SINGLE POINT ENERGY      -228.218407886092

DIPOLE MOMENT
-------------
                                X             Y             Z
Electronic contribution:      1.10836      -0.91079       2.10163
Nuclear contribution   :     -0.77547      -0.19690      -2.16626
                        -----------------------------------------
Total Dipole Moment    :      0.33290      -1.10769      -0.06463
                        -----------------------------------------
Magnitude (a.u.)       :      1.15843
Magnitude (Debye)      :      2.94450

Rotational constants in cm-1:     0.340409     0.131955     0.097296
Rotational constants in MHz : 10205.195281  3955.909122  2916.861706

                             ****ORCA TERMINATED NORMALLY****
TOTAL RUN TIME: 0 days 2 hours 10 minutes 52 seconds 208 msec
