                         Program Version 5.0.0 -  RELEASE  -
|  1> !DLPNO-CCSD(T) aug-cc-pVTZ aug-cc-pVTZ/C TightSCF TightPNO RIJCOSX def2/J
|  2> *xyz 0 1
|  3> C          4.99986       -1.59613       -5.92488
|  4> N          5.28156       -1.97413       -4.53576
|  5> C          4.79250       -1.36132       -3.45730
|  6> N          3.93990       -0.37492       -3.55736
|  7> C          5.25986       -1.75422       -2.23913
|  8> H          5.92282       -2.52145       -2.18672
|  9> H          4.65468       -1.64040       -1.44202
| 10> H          5.70914       -2.87560       -4.38702
| 11> H          3.33010       -0.31764       -4.36125
| 12> H          3.69849        0.11447       -2.70833
| 13> H          5.52133       -2.25562       -6.58673
| 14> H          5.32493       -0.59081       -6.09388
| 15> H          3.94785       -1.66624       -6.10727
| 16> *
| 17>
| 18> %MaxCore 64000
| 19>
| 20> %pal nprocs 2
| 21> end
| 22>
| 23> %scf
| 24>   MaxIter 150
| 25> end
| 26>
| 27>
| 28>                          ****END OF INPUT****

CARTESIAN COORDINATES (ANGSTROEM)
---------------------------------
  C      4.999860   -1.596130   -5.924880
  N      5.281560   -1.974130   -4.535760
  C      4.792500   -1.361320   -3.457300
  N      3.939900   -0.374920   -3.557360
  C      5.259860   -1.754220   -2.239130
  H      5.922820   -2.521450   -2.186720
  H      4.654680   -1.640400   -1.442020
  H      5.709140   -2.875600   -4.387020
  H      3.330100   -0.317640   -4.361250
  H      3.698490    0.114470   -2.708330
  H      5.521330   -2.255620   -6.586730
  H      5.324930   -0.590810   -6.093880
  H      3.947850   -1.666240   -6.107270

 Total Charge           Charge          ....    0
 Multiplicity           Mult            ....    1
 Number of Electrons    NEL             ....   40
 Basis Dimension        Dim             ....  414

ORBITAL ENERGIES
----------------

  NO   OCC          E(Eh)            E(eV)
   0   2.0000     -15.568888      -423.6510
   1   2.0000     -15.562740      -423.4837
   2   2.0000     -11.293267      -307.3054
   3   2.0000     -11.260459      -306.4127
   4   2.0000     -11.125715      -302.7461
   5   2.0000      -1.292496       -35.1706
   6   2.0000      -1.187328       -32.3089
   7   2.0000      -0.998578       -27.1727
   8   2.0000      -0.909553       -24.7502
   9   2.0000      -0.808183       -21.9918
  10   2.0000      -0.730323       -19.8731
  11   2.0000      -0.671331       -18.2678
  12   2.0000      -0.650678       -17.7059
  13   2.0000      -0.622916       -16.9504
  14   2.0000      -0.563068       -15.3219
  15   2.0000      -0.551869       -15.0171
  16   2.0000      -0.537360       -14.6223
  17   2.0000      -0.506820       -13.7913
  18   2.0000      -0.403041       -10.9673
  19   2.0000      -0.259523        -7.0620
  20   0.0000       0.024221         0.6591
  21   0.0000       0.033863         0.9215
  22   0.0000       0.042282         1.1505
  23   0.0000       0.044788         1.2187
  24   0.0000       0.055334         1.5057

MULLIKEN ATOMIC CHARGES
-----------------------
   0 C :   -0.913835
   1 N :   -0.023700
   2 C :    0.398961
   3 N :   -0.339410
   4 C :   -1.241392
   5 H :    0.344747
   6 H :    0.390425
   7 H :    0.095305
   8 H :    0.154719
   9 H :    0.093447
  10 H :    0.374676
  11 H :    0.361842
  12 H :    0.304214
Sum of atomic charges:   -0.0000000

LOEWDIN ATOMIC CHARGES
----------------------
   0 C :    0.530985
   1 N :    0.561439
   2 C :   -0.463811
   3 N :    0.854744
   4 C :    0.540379
   5 H :   -0.321157
   6 H :   -0.334363
   7 H :   -0.275262
   8 H :   -0.284644
   9 H :   -0.266622
  10 H :   -0.173329
  11 H :   -0.178998
  12 H :   -0.189361

  Mayer bond orders larger than 0.100000
B(  0-C ,  1-N ) :   0.9009 B(  0-C ,  2-C ) :  -0.1152 B(  0-C , 10-H ) :   0.8952
B(  0-C , 11-H ) :   0.8826 B(  0-C , 12-H ) :   0.9443 B(  1-N ,  2-C ) :   0.7990
B(  1-N ,  3-N ) :  -0.1546 B(  1-N ,  4-C ) :  -0.1805 B(  1-N ,  7-H ) :   1.0754
B(  2-C ,  3-N ) :   0.9776 B(  2-C ,  4-C ) :   1.0692 B(  3-N ,  4-C ) :  -0.1940
B(  3-N ,  8-H ) :   1.0351 B(  3-N ,  9-H ) :   1.1048 B(  4-C ,  5-H ) :   0.9586
B(  4-C ,  6-H ) :   0.9058

E(0)                                       ...   -227.193674929
E(0)                                       ...   -227.193674929
E(CORR)(strong-pairs)                      ...     -0.975871444
E(CORR)(weak-pairs)                        ...     -0.000970508
E(CORR)(corrected)                         ...     -0.976841952
E(TOT)                                     ...   -228.170516881
E(CCSD(T))                                 ...   -228.210705737
FINAL SINGLE POINT ENERGY      -228.210705736872

DIPOLE MOMENT
-------------
                                X             Y             Z
Electronic contribution:     -0.22357       0.48976       0.67521
Nuclear contribution   :     -0.50812      -0.47627      -1.89926
                        -----------------------------------------
Total Dipole Moment    :     -0.73169       0.01350      -1.22405
                        -----------------------------------------
Magnitude (a.u.)       :      1.42613
Magnitude (Debye)      :      3.62493

Rotational constants in cm-1:     0.323645     0.137193     0.098606
Rotational constants in MHz :  9702.637007  4112.943433  2956.125886

                             ****ORCA TERMINATED NORMALLY****
TOTAL RUN TIME: 0 days 2 hours 13 minutes 25 seconds 996 msec
