                         Program Version 5.0.0 -  RELEASE  -
|  1> !DLPNO-CCSD(T) aug-cc-pVTZ aug-cc-pVTZ/C TightSCF TightPNO RIJCOSX def2/J
|  2>
|  3> *xyzfile 0 1 D1.xyz
|  4>
|  5> %MaxCore 64000
|  6>
|  7> %pal nprocs 18
|  8> end
|  9>
| 10> %scf
| 11>   MaxIter 150
| 12> end
| 13>
| 14>
| 15>                          ****END OF INPUT****

CARTESIAN COORDINATES (ANGSTROEM)
---------------------------------
  C      4.999862   -1.596133   -5.924876
  C      5.281560   -1.974132   -4.535764
  C      3.766779   -2.266110   -6.511752
  C      2.496702   -1.844161   -5.735704
  H      1.626416   -2.217434   -6.308950
  H      2.481824   -2.456069   -4.793414
  F      2.459729   -0.509204   -5.505757
  C      4.792500   -1.361316   -3.457295
  N      3.939898   -0.374925   -3.557359
  N      5.259860   -1.754224   -2.239133
  H      5.922824   -2.521451   -2.186720
  H      4.654678   -1.640404   -1.442016
  H      5.709139   -2.875599   -4.387021
  H      3.330101   -0.317639   -4.361247
  H      3.698494    0.114468   -2.708333
  H      4.843333   -0.517930   -5.943019
  H      5.901695   -1.822503   -6.496467
  H      3.886191   -3.357076   -6.533604
  H      3.685602   -1.922168   -7.547128

 Total Charge           Charge          ....    0
 Multiplicity           Mult            ....    1
 Number of Electrons    NEL             ....   64
 Basis Dimension        Dim             ....  621

ORBITAL ENERGIES
----------------

  NO   OCC          E(Eh)            E(eV)
   0   2.0000     -26.317667      -716.1401
   1   2.0000     -15.552706      -423.2106
   2   2.0000     -15.535576      -422.7445
   3   2.0000     -11.314281      -307.8772
   4   2.0000     -11.276526      -306.8499
   5   2.0000     -11.219460      -305.2970
   6   2.0000     -11.196603      -304.6751
   7   2.0000     -11.135955      -303.0247
   8   2.0000      -1.646253       -44.7968
   9   2.0000      -1.268537       -34.5186
  10   2.0000      -1.155574       -31.4448
  11   2.0000      -1.072661       -29.1886
  12   2.0000      -0.985892       -26.8275
  13   2.0000      -0.915157       -24.9027
  14   2.0000      -0.821151       -22.3446
  15   2.0000      -0.800092       -21.7716
  16   2.0000      -0.747078       -20.3290
  17   2.0000      -0.730058       -19.8659
  18   2.0000      -0.706812       -19.2333
  19   2.0000      -0.687275       -18.7017
  20   2.0000      -0.677637       -18.4394
  21   2.0000      -0.622624       -16.9425
  22   2.0000      -0.594907       -16.1882
  23   2.0000      -0.580516       -15.7966
  24   2.0000      -0.552509       -15.0345
  25   2.0000      -0.533068       -14.5055
  26   2.0000      -0.507302       -13.8044
  27   2.0000      -0.482137       -13.1196
  28   2.0000      -0.468588       -12.7509
  29   2.0000      -0.457897       -12.4600
  30   2.0000      -0.401219       -10.9177
  31   2.0000      -0.257112        -6.9964
  32   0.0000       0.025981         0.7070
  33   0.0000       0.034021         0.9258
  34   0.0000       0.037202         1.0123
  35   0.0000       0.041185         1.1207
  36   0.0000       0.051170         1.3924

MULLIKEN ATOMIC CHARGES
-----------------------
   0 C :   -0.131028
   1 C :   -0.156033
   2 C :   -0.597812
   3 C :   -0.205784
   4 H :    0.378874
   5 H :    0.297484
   6 F :   -0.522361
   7 C :    0.506185
   8 N :   -0.463498
   9 N :   -0.666926
  10 H :    0.072305
  11 H :    0.089155
  12 H :   -0.022311
  13 H :    0.343597
  14 H :    0.071573
  15 H :    0.105923
  16 H :    0.356319
  17 H :    0.305456
  18 H :    0.238884
Sum of atomic charges:    0.0000000

LOEWDIN ATOMIC CHARGES
----------------------
   0 C :    0.217840
   1 C :    0.201802
   2 C :    0.287881
   3 C :   -0.023130
   4 H :   -0.153031
   5 H :   -0.137805
   6 F :    0.699168
   7 C :   -0.420734
   8 N :    0.875028
   9 N :    0.857120
  10 H :   -0.280973
  11 H :   -0.301510
  12 H :   -0.278957
  13 H :   -0.669909
  14 H :   -0.259958
  15 H :   -0.174334
  16 H :   -0.145035
  17 H :   -0.133990
  18 H :   -0.159475

  Mayer bond orders larger than 0.100000
B(  0-C ,  1-C ) :   0.5892 B(  0-C ,  2-C ) :   0.8187 B(  0-C ,  7-C ) :   0.2026
B(  0-C , 15-H ) :   1.0420 B(  0-C , 16-H ) :   0.9815 B(  1-C ,  2-C ) :   0.1238
B(  1-C ,  7-C ) :   1.0313 B(  1-C ,  8-N ) :  -0.1863 B(  1-C ,  9-N ) :  -0.2374
B(  1-C , 12-H ) :   1.2932 B(  1-C , 16-H ) :  -0.1466 B(  2-C ,  3-C ) :   0.9181
B(  2-C ,  6-F ) :   0.1441 B(  2-C , 17-H ) :   0.9048 B(  2-C , 18-H ) :   0.9749
B(  3-C ,  4-H ) :   0.8819 B(  3-C ,  5-H ) :   0.9693 B(  3-C ,  6-F ) :   0.5869
B(  7-C ,  8-N ) :   0.8053 B(  7-C ,  9-N ) :   0.7504 B(  7-C , 11-H ) :  -0.1571
B(  7-C , 15-H ) :   0.1240 B(  8-N ,  9-N ) :  -0.1686 B(  8-N , 13-H ) :   0.9245
B(  8-N , 14-H ) :   1.1248 B(  9-N , 10-H ) :   1.1046 B(  9-N , 11-H ) :   1.1288

E(0)                                       ...   -404.171268806
E(0)                                       ...   -404.171268806
E(CORR)(strong-pairs)                      ...     -1.600050498
E(CORR)(weak-pairs)                        ...     -0.002005149
E(CORR)(corrected)                         ...     -1.602055647
E(TOT)                                     ...   -405.773324453
E(CCSD(T))                                 ...   -405.837559934
FINAL SINGLE POINT ENERGY      -405.837559933907

DIPOLE MOMENT
-------------
                                X             Y             Z
Electronic contribution:     -3.38030       3.92754       0.80376
Nuclear contribution   :      2.63975      -4.51113      -0.34926
                        -----------------------------------------
Total Dipole Moment    :     -0.74056      -0.58359       0.45450
                        -----------------------------------------
Magnitude (a.u.)       :      1.04670
Magnitude (Debye)      :      2.66050

Rotational constants in cm-1:     0.109429     0.049838     0.039337
Rotational constants in MHz :  3280.611039  1494.113088  1179.280063

                             ****ORCA TERMINATED NORMALLY****
TOTAL RUN TIME: 0 days 1 hours 3 minutes 11 seconds 464 msec
