                         Program Version 5.0.0 -  RELEASE  -
|  1> !DLPNO-CCSD(T) aug-cc-pVTZ aug-cc-pVTZ/C TightSCF TightPNO RIJCOSX def2/J
|  2>
|  3> *xyzfile 0 1 D2.xyz
|  4>
|  5> %MaxCore 64000
|  6>
|  7> %pal nprocs 18
|  8> end
|  9>
| 10> %scf
| 11>   MaxIter 150
| 12> end
| 13>
| 14>
| 15>                          ****END OF INPUT****

CARTESIAN COORDINATES (ANGSTROEM)
---------------------------------
  C      4.999862   -1.596133   -5.924876
  N      5.281560   -1.974132   -4.535764
  C      3.766779   -2.266110   -6.511752
  C      2.496702   -1.844161   -5.735704
  H      1.626416   -2.217434   -6.308950
  H      2.481824   -2.456069   -4.793414
  F      2.459729   -0.509204   -5.505757
  C      4.792500   -1.361316   -3.457295
  C      3.939898   -0.374925   -3.557359
  N      5.259860   -1.754224   -2.239133
  H      5.922824   -2.521451   -2.186720
  H      4.654678   -1.640404   -1.442016
  H      5.709139   -2.875599   -4.387021
  H      3.330101   -0.317639   -4.361247
  H      3.698494    0.114468   -2.708333
  H      4.843333   -0.517930   -5.943019
  H      5.901695   -1.822503   -6.496467
  H      3.886191   -3.357076   -6.533604
  H      3.685602   -1.922168   -7.547128

 Total Charge           Charge          ....    0
 Multiplicity           Mult            ....    1
 Number of Electrons    NEL             ....   64
 Basis Dimension        Dim             ....  621

ORBITAL ENERGIES
----------------

  NO   OCC          E(Eh)            E(eV)
   0   2.0000     -26.294729      -715.5160
   1   2.0000     -15.556087      -423.3026
   2   2.0000     -15.550135      -423.1407
   3   2.0000     -11.314036      -307.8706
   4   2.0000     -11.270762      -306.6930
   5   2.0000     -11.260378      -306.4105
   6   2.0000     -11.235732      -305.7398
   7   2.0000     -11.102005      -302.1009
   8   2.0000      -1.625593       -44.2346
   9   2.0000      -1.273279       -34.6477
  10   2.0000      -1.170087       -31.8397
  11   2.0000      -1.056217       -28.7411
  12   2.0000      -0.973407       -26.4878
  13   2.0000      -0.938320       -25.5330
  14   2.0000      -0.833248       -22.6738
  15   2.0000      -0.777398       -21.1541
  16   2.0000      -0.746251       -20.3065
  17   2.0000      -0.716528       -19.4977
  18   2.0000      -0.708038       -19.2667
  19   2.0000      -0.678668       -18.4675
  20   2.0000      -0.676897       -18.4193
  21   2.0000      -0.624378       -16.9902
  22   2.0000      -0.596791       -16.2395
  23   2.0000      -0.579181       -15.7603
  24   2.0000      -0.548881       -14.9358
  25   2.0000      -0.537239       -14.6190
  26   2.0000      -0.508770       -13.8443
  27   2.0000      -0.490616       -13.3503
  28   2.0000      -0.484428       -13.1820
  29   2.0000      -0.469563       -12.7775
  30   2.0000      -0.389352       -10.5948
  31   2.0000      -0.261639        -7.1195
  32   0.0000       0.022809         0.6207
  33   0.0000       0.032558         0.8860
  34   0.0000       0.035233         0.9588
  35   0.0000       0.041383         1.1261
  36   0.0000       0.051530         1.4022

MULLIKEN ATOMIC CHARGES
-----------------------
   0 C :   -0.347380
   1 N :   -0.164653
   2 C :   -0.611063
   3 C :   -0.219088
   4 H :    0.361824
   5 H :    0.337641
   6 F :   -0.515027
   7 C :    0.592020
   8 C :   -1.181437
   9 N :   -0.622167
  10 H :    0.061367
  11 H :    0.061999
  12 H :    0.060902
  13 H :    0.708882
  14 H :    0.231000
  15 H :    0.324387
  16 H :    0.365177
  17 H :    0.299114
  18 H :    0.256502
Sum of atomic charges:    0.0000000

LOEWDIN ATOMIC CHARGES
----------------------
   0 C :    0.212059
   1 N :    0.570182
   2 C :    0.299505
   3 C :   -0.025776
   4 H :   -0.153025
   5 H :   -0.137435
   6 F :    0.689459
   7 C :   -0.439128
   8 C :    0.537744
   9 N :    0.858686
  10 H :   -0.292536
  11 H :   -0.290766
  12 H :   -0.275577
  13 H :   -0.674565
  14 H :   -0.283104
  15 H :   -0.165118
  16 H :   -0.136693
  17 H :   -0.138155
  18 H :   -0.155757

  Mayer bond orders larger than 0.100000
B(  0-C ,  1-N ) :   0.9823 B(  0-C ,  2-C ) :   0.8272 B(  0-C ,  7-C ) :  -0.1351
B(  0-C , 15-H ) :   0.9747 B(  0-C , 16-H ) :   0.8997 B(  1-N ,  7-C ) :   0.8168
B(  1-N ,  8-C ) :  -0.1649 B(  1-N ,  9-N ) :  -0.1900 B(  1-N , 12-H ) :   1.0910
B(  2-C ,  3-C ) :   0.9538 B(  2-C ,  6-F ) :   0.1288 B(  2-C , 17-H ) :   0.9007
B(  2-C , 18-H ) :   0.9385 B(  3-C ,  4-H ) :   0.9046 B(  3-C ,  5-H ) :   0.9323
B(  3-C ,  6-F ) :   0.6814 B(  6-F , 13-H ) :  -0.1814 B(  7-C ,  8-C ) :   1.2981
B(  7-C ,  9-N ) :   0.5809 B(  7-C , 13-H ) :  -0.1038 B(  8-C ,  9-N ) :  -0.1081
B(  8-C , 13-H ) :   0.6789 B(  8-C , 14-H ) :   1.1028 B(  9-N , 10-H ) :   1.1313
B(  9-N , 11-H ) :   1.1676

E(0)                                       ...   -404.140772578
E(0)                                       ...   -404.140772578
E(CORR)(strong-pairs)                      ...     -1.599416387
E(CORR)(weak-pairs)                        ...     -0.002017685
E(CORR)(corrected)                         ...     -1.601434073
E(TOT)                                     ...   -405.742206650
E(CCSD(T))                                 ...   -405.806413139
FINAL SINGLE POINT ENERGY      -405.806413138740

DIPOLE MOMENT
-------------
                                X             Y             Z
Electronic contribution:     -2.29253       2.59985      -0.19156
Nuclear contribution   :      2.43398      -4.26587      -0.19921
                        -----------------------------------------
Total Dipole Moment    :      0.14146      -1.66603      -0.39077
                        -----------------------------------------
Magnitude (a.u.)       :      1.71708
Magnitude (Debye)      :      4.36447

Rotational constants in cm-1:     0.110089     0.049944     0.039407
Rotational constants in MHz :  3300.378855  1497.273856  1181.385913

                             ****ORCA TERMINATED NORMALLY****
TOTAL RUN TIME: 0 days 0 hours 47 minutes 48 seconds 76 msec
