                         Program Version 5.0.0 -  RELEASE  -
|  1> !TPSS D3BJ RIJCOSX def2-SVPD def2/J TightSCF
|  2> *xyz -1 1
|  3> C         -7.33044       -2.67899       -3.20681
|  4> S         -6.01966       -2.92697       -4.41913
|  5> O         -5.64583       -1.58838       -4.91931
|  6> O         -4.88196       -3.50370       -3.66724
|  7> O         -6.54927       -3.80515       -5.42507
|  8> H         -8.18867       -2.26077       -3.68996
|  9> H         -6.98921       -2.01038       -2.44430
| 10> H         -7.59151       -3.61862       -2.76655
| 11> *
| 12> %MaxCore 64000
| 13>
| 14> %pal nprocs 8
| 15> end
| 16>
| 17> %scf
| 18>   MaxIter 150
| 19> end
| 20>
| 21>
| 22>                          ****END OF INPUT****

CARTESIAN COORDINATES (ANGSTROEM)
---------------------------------
  C     -7.330440   -2.678990   -3.206810
  S     -6.019660   -2.926970   -4.419130
  O     -5.645830   -1.588380   -4.919310
  O     -4.881960   -3.503700   -3.667240
  O     -6.549270   -3.805150   -5.425070
  H     -8.188670   -2.260770   -3.689960
  H     -6.989210   -2.010380   -2.444300
  H     -7.591510   -3.618620   -2.766550

 Total Charge           Charge          ....   -1
 Multiplicity           Mult            ....    1
 Number of Electrons    NEL             ....   50
 Basis Dimension        Dim             ....  140

ORBITAL ENERGIES
----------------

  NO   OCC          E(Eh)            E(eV)
   0   2.0000     -88.366649     -2404.5788
   1   2.0000     -18.681019      -508.3364
   2   2.0000     -18.670281      -508.0442
   3   2.0000     -18.667953      -507.9808
   4   2.0000      -9.857069      -268.2245
   5   2.0000      -7.726271      -210.2425
   6   2.0000      -5.712274      -155.4389
   7   2.0000      -5.712079      -155.4336
   8   2.0000      -5.711534      -155.4187
   9   2.0000      -0.848206       -23.0809
  10   2.0000      -0.715161       -19.4605
  11   2.0000      -0.692961       -18.8564
  12   2.0000      -0.525930       -14.3113
  13   2.0000      -0.337829        -9.1928
  14   2.0000      -0.250496        -6.8163
  15   2.0000      -0.248465        -6.7611
  16   2.0000      -0.247411        -6.7324
  17   2.0000      -0.200755        -5.4628
  18   2.0000      -0.199332        -5.4241
  19   2.0000      -0.102541        -2.7903
  20   2.0000      -0.101688        -2.7671
  21   2.0000      -0.073357        -1.9962
  22   2.0000      -0.065089        -1.7712
  23   2.0000      -0.055416        -1.5080
  24   2.0000      -0.017835        -0.4853
  25   0.0000       0.141243         3.8434
  26   0.0000       0.175841         4.7849
  27   0.0000       0.176001         4.7892
  28   0.0000       0.179811         4.8929
  29   0.0000       0.202322         5.5055

MULLIKEN ATOMIC CHARGES
-----------------------
   0 C :    0.428739
   1 S :    1.003992
   2 O :   -0.767460
   3 O :   -0.772695
   4 O :   -0.727684
   5 H :   -0.057898
   6 H :   -0.054534
   7 H :   -0.052459
Sum of atomic charges:   -1.0000000

LOEWDIN ATOMIC CHARGES
----------------------
   0 C :    0.062279
   1 S :    0.820490
   2 O :   -0.588569
   3 O :   -0.592023
   4 O :   -0.569830
   5 H :   -0.045126
   6 H :   -0.043040
   7 H :   -0.044182

  Mayer bond orders larger than 0.100000
B(  0-C ,  1-S ) :   0.9126 B(  0-C ,  5-H ) :   0.9320 B(  0-C ,  6-H ) :   0.9348
B(  0-C ,  7-H ) :   0.9307 B(  1-S ,  2-O ) :   1.3318 B(  1-S ,  3-O ) :   1.3305
B(  1-S ,  4-O ) :   1.3649 B(  1-S ,  5-H ) :   0.1093 B(  1-S ,  6-H ) :   0.1173
B(  1-S ,  7-H ) :   0.1097

Dispersion correction           -0.007860254
FINAL SINGLE POINT ENERGY      -663.552782440961

DIPOLE MOMENT
-------------
                                X             Y             Z
Electronic contribution:      3.06267      -0.65437      -2.97706
Nuclear contribution   :     -4.26236       0.77434       3.87117
                        -----------------------------------------
Total Dipole Moment    :     -1.19968       0.11997       0.89410
                        -----------------------------------------
Magnitude (a.u.)       :      1.50102
Magnitude (Debye)      :      3.81528

Rotational constants in cm-1:     0.172427     0.155038     0.152780
Rotational constants in MHz :  5169.225473  4647.928623  4580.233540

                             ****ORCA TERMINATED NORMALLY****
TOTAL RUN TIME: 0 days 0 hours 0 minutes 4 seconds 283 msec
