                         Program Version 5.0.0 -  RELEASE  -
|  1> !TPSS D3BJ RIJCOSX def2-SVPD def2/J TightSCF
|  2> *xyz 1 1
|  3> C         -2.16038       -1.36949       -3.46710
|  4> N         -3.03011       -1.91086       -4.54107
|  5> H         -3.47744       -2.79151       -4.25710
|  6> H         -2.53801       -2.01786       -5.43808
|  7> H         -3.89159       -1.37604       -4.71437
|  8> H         -1.71294       -0.45536       -3.79734
|  9> H         -1.39344       -2.07939       -3.23742
| 10> H         -2.74775       -1.18344       -2.59230
| 11> *
| 12> %MaxCore 64000
| 13>
| 14> %pal nprocs 8
| 15> end
| 16>
| 17> %scf
| 18>   MaxIter 150
| 19> end
| 20>
| 21>
| 22>                          ****END OF INPUT****

CARTESIAN COORDINATES (ANGSTROEM)
---------------------------------
  C     -2.160380   -1.369490   -3.467100
  N     -3.030110   -1.910860   -4.541070
  H     -3.477440   -2.791510   -4.257100
  H     -2.538010   -2.017860   -5.438080
  H     -3.891590   -1.376040   -4.714370
  H     -1.712940   -0.455360   -3.797340
  H     -1.393440   -2.079390   -3.237420
  H     -2.747750   -1.183440   -2.592300

 Total Charge           Charge          ....    1
 Multiplicity           Mult            ....    1
 Number of Electrons    NEL             ....   18
 Basis Dimension        Dim             ....   88

ORBITAL ENERGIES
----------------

  NO   OCC          E(Eh)            E(eV)
   0   2.0000     -14.467751      -393.6875
   1   2.0000     -10.262356      -279.2529
   2   2.0000      -1.158751       -31.5312
   3   2.0000      -0.887839       -24.1593
   4   2.0000      -0.775431       -21.1005
   5   2.0000      -0.747307       -20.3352
   6   2.0000      -0.679523       -18.4908
   7   2.0000      -0.592013       -16.1095
   8   2.0000      -0.588052       -16.0017
   9   0.0000      -0.218570        -5.9476
  10   0.0000      -0.156085        -4.2473
  11   0.0000      -0.150457        -4.0941
  12   0.0000      -0.143852        -3.9144
  13   0.0000      -0.096489        -2.6256

MULLIKEN ATOMIC CHARGES
-----------------------
   0 C :    0.913014
   1 N :   -0.887946
   2 H :    0.372705
   3 H :    0.388791
   4 H :    0.356529
   5 H :   -0.054377
   6 H :   -0.039239
   7 H :   -0.049477
Sum of atomic charges:    1.0000000

LOEWDIN ATOMIC CHARGES
----------------------
   0 C :    0.298570
   1 N :    0.309458
   2 H :    0.105430
   3 H :    0.111661
   4 H :    0.106574
   5 H :    0.022123
   6 H :    0.023336
   7 H :    0.022848

  Mayer bond orders larger than 0.100000
B(  0-C ,  1-N ) :   0.7479 B(  0-C ,  5-H ) :   0.9053 B(  0-C ,  6-H ) :   0.8924
B(  0-C ,  7-H ) :   0.8992 B(  1-N ,  2-H ) :   0.7706 B(  1-N ,  3-H ) :   0.7298
B(  1-N ,  4-H ) :   0.7886

Dispersion correction           -0.004006834
FINAL SINGLE POINT ENERGY       -96.166368310999

DIPOLE MOMENT
-------------
                                X             Y             Z
Electronic contribution:     -0.57051      -0.37432      -0.78485
Nuclear contribution   :      0.00575       0.04584       0.17617
                        -----------------------------------------
Total Dipole Moment    :     -0.56475      -0.32848      -0.60868
                        -----------------------------------------
Magnitude (a.u.)       :      0.89294
Magnitude (Debye)      :      2.26966

Rotational constants in cm-1:     2.917716     0.684997     0.676552
Rotational constants in MHz : 87470.913131 20535.702929 20282.512120

                             ****ORCA TERMINATED NORMALLY****
TOTAL RUN TIME: 0 days 0 hours 0 minutes 2 seconds 683 msec
