                         Program Version 5.0.0 -  RELEASE  -
|  1> !TPSS D3BJ RIJCOSX def2-SVPD def2/J TightSCF
|  2> *xyz 0 1
|  3> C         -7.33044       -2.67899       -3.20681
|  4> S         -6.01966       -2.92697       -4.41913
|  5> F         -5.64583       -1.58838       -4.91931
|  6> O         -4.88196       -3.50370       -3.66724
|  7> O         -6.54927       -3.80515       -5.42507
|  8> H         -8.18867       -2.26077       -3.68996
|  9> H         -6.98921       -2.01038       -2.44430
| 10> H         -7.59151       -3.61862       -2.76655
| 11> *
| 12> %MaxCore 64000
| 13>
| 14> %pal nprocs 8
| 15> end
| 16>
| 17> %scf
| 18>   MaxIter 150
| 19> end
| 20>
| 21>
| 22>                          ****END OF INPUT****

CARTESIAN COORDINATES (ANGSTROEM)
---------------------------------
  C     -7.330440   -2.678990   -3.206810
  S     -6.019660   -2.926970   -4.419130
  F     -5.645830   -1.588380   -4.919310
  O     -4.881960   -3.503700   -3.667240
  O     -6.549270   -3.805150   -5.425070
  H     -8.188670   -2.260770   -3.689960
  H     -6.989210   -2.010380   -2.444300
  H     -7.591510   -3.618620   -2.766550

 Total Charge           Charge          ....    0
 Multiplicity           Mult            ....    1
 Number of Electrons    NEL             ....   50
 Basis Dimension        Dim             ....  140

ORBITAL ENERGIES
----------------

  NO   OCC          E(Eh)            E(eV)
   0   2.0000     -88.627250     -2411.6701
   1   2.0000     -24.530705      -667.5144
   2   2.0000     -18.919039      -514.8132
   3   2.0000     -18.905485      -514.4444
   4   2.0000     -10.066189      -273.9149
   5   2.0000      -7.987884      -217.3614
   6   2.0000      -5.977994      -162.6695
   7   2.0000      -5.971635      -162.4964
   8   2.0000      -5.970286      -162.4597
   9   2.0000      -1.269386       -34.5417
  10   2.0000      -1.040328       -28.3088
  11   2.0000      -0.941702       -25.6250
  12   2.0000      -0.745100       -20.2752
  13   2.0000      -0.650655       -17.7052
  14   2.0000      -0.543072       -14.7777
  15   2.0000      -0.514023       -13.9873
  16   2.0000      -0.503409       -13.6985
  17   2.0000      -0.440449       -11.9852
  18   2.0000      -0.435960       -11.8631
  19   2.0000      -0.425848       -11.5879
  20   2.0000      -0.398455       -10.8425
  21   2.0000      -0.347243        -9.4490
  22   2.0000      -0.305100        -8.3022
  23   2.0000      -0.290258        -7.8983
  24   2.0000      -0.271609        -7.3908
  25   0.0000      -0.029107        -0.7920
  26   0.0000       0.004401         0.1198
  27   0.0000       0.019030         0.5178
  28   0.0000       0.035033         0.9533
  29   0.0000       0.035838         0.9752

MULLIKEN ATOMIC CHARGES
-----------------------
   0 C :    0.418377
   1 S :    1.187730
   2 F :   -0.370941
   3 O :   -0.642698
   4 O :   -0.602773
   5 H :    0.003929
   6 H :    0.004014
   7 H :    0.002362
Sum of atomic charges:    0.0000000

LOEWDIN ATOMIC CHARGES
----------------------
   0 C :    0.133300
   1 S :    1.091126
   2 F :   -0.266361
   3 O :   -0.470628
   4 O :   -0.450327
   5 H :   -0.017650
   6 H :   -0.016452
   7 H :   -0.003008

  Mayer bond orders larger than 0.100000
B(  0-C ,  1-S ) :   0.9691 B(  0-C ,  5-H ) :   0.9193 B(  0-C ,  6-H ) :   0.9220
B(  0-C ,  7-H ) :   0.9189 B(  1-S ,  2-F ) :   0.6752 B(  1-S ,  3-O ) :   1.5259
B(  1-S ,  4-O ) :   1.5599 B(  1-S ,  7-H ) :   0.1065

Dispersion correction           -0.007371350
FINAL SINGLE POINT ENERGY      -688.053863217096

DIPOLE MOMENT
-------------
                                X             Y             Z
Electronic contribution:      3.59337       1.54193      -3.76115
Nuclear contribution   :     -4.68608      -0.54182       4.44322
                        -----------------------------------------
Total Dipole Moment    :     -1.09271       1.00011       0.68208
                        -----------------------------------------
Magnitude (a.u.)       :      1.63078
Magnitude (Debye)      :      4.14513

Rotational constants in cm-1:     0.164393     0.151201     0.145518
Rotational constants in MHz :  4928.381777  4532.884356  4362.527209

                             ****ORCA TERMINATED NORMALLY****
TOTAL RUN TIME: 0 days 0 hours 0 minutes 5 seconds 117 msec
