                         Program Version 5.0.0 -  RELEASE  -
|  1> !TPSS D3BJ RIJCOSX def2-SVPD def2/J TightSCF
|  2> *xyz 0 1
|  3> C         -2.16038       -1.36949       -3.46710
|  4> C         -3.03011       -1.91086       -4.54107
|  5> H         -3.47744       -2.79151       -4.25710
|  6> H         -2.53801       -2.01786       -5.43808
|  7> H         -3.89159       -1.37604       -4.71437
|  8> H         -1.71294       -0.45536       -3.79734
|  9> H         -1.39344       -2.07939       -3.23742
| 10> H         -2.74775       -1.18344       -2.59230
| 11> *
| 12> %MaxCore 64000
| 13>
| 14> %pal nprocs 8
| 15> end
| 16>
| 17> %scf
| 18>   MaxIter 150
| 19> end
| 20>
| 21>
| 22>                          ****END OF INPUT****

CARTESIAN COORDINATES (ANGSTROEM)
---------------------------------
  C     -2.160380   -1.369490   -3.467100
  C     -3.030110   -1.910860   -4.541070
  H     -3.477440   -2.791510   -4.257100
  H     -2.538010   -2.017860   -5.438080
  H     -3.891590   -1.376040   -4.714370
  H     -1.712940   -0.455360   -3.797340
  H     -1.393440   -2.079390   -3.237420
  H     -2.747750   -1.183440   -2.592300

 Total Charge           Charge          ....    0
 Multiplicity           Mult            ....    1
 Number of Electrons    NEL             ....   18
 Basis Dimension        Dim             ....   88

ORBITAL ENERGIES
----------------

  NO   OCC          E(Eh)            E(eV)
   0   2.0000      -9.981112      -271.5999
   1   2.0000      -9.966593      -271.2048
   2   2.0000      -0.706344       -19.2206
   3   2.0000      -0.571805       -15.5596
   4   2.0000      -0.412338       -11.2203
   5   2.0000      -0.397357       -10.8126
   6   2.0000      -0.335213        -9.1216
   7   2.0000      -0.315923        -8.5967
   8   2.0000      -0.299721        -8.1558
   9   0.0000       0.019318         0.5257
  10   0.0000       0.050515         1.3746
  11   0.0000       0.089149         2.4259
  12   0.0000       0.092760         2.5241
  13   0.0000       0.113398         3.0857

MULLIKEN ATOMIC CHARGES
-----------------------
   0 C :    0.227502
   1 C :    0.475831
   2 H :   -0.190757
   3 H :   -0.171747
   4 H :   -0.208060
   5 H :   -0.051968
   6 H :   -0.046208
   7 H :   -0.034594
Sum of atomic charges:   -0.0000000

LOEWDIN ATOMIC CHARGES
----------------------
   0 C :    0.091790
   1 C :    0.084874
   2 H :   -0.040887
   3 H :   -0.034227
   4 H :   -0.041346
   5 H :   -0.021145
   6 H :   -0.019623
   7 H :   -0.019436

  Mayer bond orders larger than 0.100000
B(  0-C ,  1-C ) :   1.4398 B(  0-C ,  2-H ) :   0.1548 B(  0-C ,  3-H ) :   0.1560
B(  0-C ,  4-H ) :   0.1346 B(  0-C ,  5-H ) :   0.8780 B(  0-C ,  6-H ) :   0.8569
B(  0-C ,  7-H ) :   0.8759 B(  1-C ,  2-H ) :   0.7670 B(  1-C ,  3-H ) :   0.8164
B(  1-C ,  4-H ) :   0.7707 B(  1-C ,  5-H ) :   0.1481 B(  1-C ,  6-H ) :   0.1557
B(  1-C ,  7-H ) :   0.1500 B(  2-H ,  4-H ) :   0.2524

Dispersion correction           -0.004016605
FINAL SINGLE POINT ENERGY       -79.775137303410

DIPOLE MOMENT
-------------
                                X             Y             Z
Electronic contribution:      0.10651       0.03421      -0.00150
Nuclear contribution   :     -0.14218      -0.04688      -0.00907
                        -----------------------------------------
Total Dipole Moment    :     -0.03566      -0.01267      -0.01056
                        -----------------------------------------
Magnitude (a.u.)       :      0.03929
Magnitude (Debye)      :      0.09987

Rotational constants in cm-1:     2.917838     0.714537     0.705359
Rotational constants in MHz : 87474.579540 21421.280941 21146.123231

                             ****ORCA TERMINATED NORMALLY****
TOTAL RUN TIME: 0 days 0 hours 0 minutes 2 seconds 785 msec
