                         Program Version 5.0.0 -  RELEASE  -
|  1> !TPSS D3BJ RIJCOSX def2-SVPD def2/J TightSCF
|  2> *xyz 0 1
|  3> C         -7.33044       -2.67899       -3.20681
|  4> S         -6.01966       -2.92697       -4.41913
|  5> O         -5.64583       -1.58838       -4.91931
|  6> F         -4.88196       -3.50370       -3.66724
|  7> O         -6.54927       -3.80515       -5.42507
|  8> H         -8.18867       -2.26077       -3.68996
|  9> H         -6.98921       -2.01038       -2.44430
| 10> H         -7.59151       -3.61862       -2.76655
| 11> *
| 12> %MaxCore 64000
| 13>
| 14> %pal nprocs 8
| 15> end
| 16>
| 17> %scf
| 18>   MaxIter 150
| 19> end
| 20>
| 21>
| 22>                          ****END OF INPUT****

CARTESIAN COORDINATES (ANGSTROEM)
---------------------------------
  C     -7.330440   -2.678990   -3.206810
  S     -6.019660   -2.926970   -4.419130
  O     -5.645830   -1.588380   -4.919310
  F     -4.881960   -3.503700   -3.667240
  O     -6.549270   -3.805150   -5.425070
  H     -8.188670   -2.260770   -3.689960
  H     -6.989210   -2.010380   -2.444300
  H     -7.591510   -3.618620   -2.766550

 Total Charge           Charge          ....    0
 Multiplicity           Mult            ....    1
 Number of Electrons    NEL             ....   50
 Basis Dimension        Dim             ....  140

ORBITAL ENERGIES
----------------

  NO   OCC          E(Eh)            E(eV)
   0   2.0000     -88.627122     -2411.6666
   1   2.0000     -24.528070      -667.4427
   2   2.0000     -18.918870      -514.8086
   3   2.0000     -18.907772      -514.5066
   4   2.0000     -10.066046      -273.9110
   5   2.0000      -7.987730      -217.3572
   6   2.0000      -5.977814      -162.6646
   7   2.0000      -5.971522      -162.4934
   8   2.0000      -5.970146      -162.4559
   9   2.0000      -1.265956       -34.4484
  10   2.0000      -1.040850       -28.3230
  11   2.0000      -0.944189       -25.6927
  12   2.0000      -0.745348       -20.2819
  13   2.0000      -0.648585       -17.6489
  14   2.0000      -0.541876       -14.7452
  15   2.0000      -0.511744       -13.9253
  16   2.0000      -0.502785       -13.6815
  17   2.0000      -0.440220       -11.9790
  18   2.0000      -0.436182       -11.8691
  19   2.0000      -0.425045       -11.5661
  20   2.0000      -0.399167       -10.8619
  21   2.0000      -0.347665        -9.4604
  22   2.0000      -0.305405        -8.3105
  23   2.0000      -0.292857        -7.9690
  24   2.0000      -0.273577        -7.4444
  25   0.0000      -0.026952        -0.7334
  26   0.0000       0.005310         0.1445
  27   0.0000       0.019073         0.5190
  28   0.0000       0.035527         0.9667
  29   0.0000       0.035977         0.9790

MULLIKEN ATOMIC CHARGES
-----------------------
   0 C :    0.417442
   1 S :    1.189192
   2 O :   -0.639606
   3 F :   -0.372525
   4 O :   -0.604351
   5 H :   -0.002586
   6 H :    0.004475
   7 H :    0.007959
Sum of atomic charges:   -0.0000000

LOEWDIN ATOMIC CHARGES
----------------------
   0 C :    0.133281
   1 S :    1.090615
   2 O :   -0.467309
   3 F :   -0.268898
   4 O :   -0.450638
   5 H :   -0.003666
   6 H :   -0.016210
   7 H :   -0.017176

  Mayer bond orders larger than 0.100000
B(  0-C ,  1-S ) :   0.9684 B(  0-C ,  5-H ) :   0.9202 B(  0-C ,  6-H ) :   0.9230
B(  0-C ,  7-H ) :   0.9175 B(  1-S ,  2-O ) :   1.5269 B(  1-S ,  3-F ) :   0.6728
B(  1-S ,  4-O ) :   1.5600 B(  1-S ,  5-H ) :   0.1067

Dispersion correction           -0.007370176
FINAL SINGLE POINT ENERGY      -688.056427407239

DIPOLE MOMENT
-------------
                                X             Y             Z
Electronic contribution:      4.85210      -1.60412      -1.70330
Nuclear contribution   :     -5.44924       1.37171       3.19232
                        -----------------------------------------
Total Dipole Moment    :     -0.59713      -0.23241       1.48903
                        -----------------------------------------
Magnitude (a.u.)       :      1.62104
Magnitude (Debye)      :      4.12036

Rotational constants in cm-1:     0.163884     0.151426     0.145804
Rotational constants in MHz :  4913.124213  4539.628058  4371.086672

                             ****ORCA TERMINATED NORMALLY****
TOTAL RUN TIME: 0 days 0 hours 0 minutes 4 seconds 732 msec
