                         Program Version 5.0.0 -  RELEASE  -
|  1> !TPSS D3BJ RIJCOSX def2-SVPD def2/J TightSCF
|  2> *xyz 0 1
|  3> C         -7.33044       -2.67899       -3.20681
|  4> S         -6.01966       -2.92697       -4.41913
|  5> O         -5.64583       -1.58838       -4.91931
|  6> O         -4.88196       -3.50370       -3.66724
|  7> F         -6.54927       -3.80515       -5.42507
|  8> H         -8.18867       -2.26077       -3.68996
|  9> H         -6.98921       -2.01038       -2.44430
| 10> H         -7.59151       -3.61862       -2.76655
| 11> *
| 12> %MaxCore 64000
| 13>
| 14> %pal nprocs 8
| 15> end
| 16>
| 17> %scf
| 18>   MaxIter 150
| 19> end
| 20>
| 21>
| 22>                          ****END OF INPUT****

CARTESIAN COORDINATES (ANGSTROEM)
---------------------------------
  C     -7.330440   -2.678990   -3.206810
  S     -6.019660   -2.926970   -4.419130
  O     -5.645830   -1.588380   -4.919310
  O     -4.881960   -3.503700   -3.667240
  F     -6.549270   -3.805150   -5.425070
  H     -8.188670   -2.260770   -3.689960
  H     -6.989210   -2.010380   -2.444300
  H     -7.591510   -3.618620   -2.766550

 Total Charge           Charge          ....    0
 Multiplicity           Mult            ....    1
 Number of Electrons    NEL             ....   50
 Basis Dimension        Dim             ....  140

ORBITAL ENERGIES
----------------

  NO   OCC          E(Eh)            E(eV)
   0   2.0000     -88.629554     -2411.7328
   1   2.0000     -24.548950      -668.0109
   2   2.0000     -18.908257      -514.5198
   3   2.0000     -18.905831      -514.4538
   4   2.0000     -10.066934      -273.9352
   5   2.0000      -7.990115      -217.4221
   6   2.0000      -5.980541      -162.7388
   7   2.0000      -5.973600      -162.5499
   8   2.0000      -5.972314      -162.5149
   9   2.0000      -1.302395       -35.4400
  10   2.0000      -1.025610       -27.9083
  11   2.0000      -0.927787       -25.2464
  12   2.0000      -0.747585       -20.3428
  13   2.0000      -0.665771       -18.1166
  14   2.0000      -0.556135       -15.1332
  15   2.0000      -0.536557       -14.6005
  16   2.0000      -0.509257       -13.8576
  17   2.0000      -0.441236       -12.0067
  18   2.0000      -0.435467       -11.8496
  19   2.0000      -0.425066       -11.5666
  20   2.0000      -0.393247       -10.7008
  21   2.0000      -0.339153        -9.2288
  22   2.0000      -0.295543        -8.0421
  23   2.0000      -0.286403        -7.7934
  24   2.0000      -0.260544        -7.0898
  25   0.0000      -0.027663        -0.7527
  26   0.0000       0.007582         0.2063
  27   0.0000       0.017698         0.4816
  28   0.0000       0.028159         0.7663
  29   0.0000       0.035431         0.9641

MULLIKEN ATOMIC CHARGES
-----------------------
   0 C :    0.419306
   1 S :    1.177967
   2 O :   -0.627245
   3 O :   -0.632185
   4 F :   -0.349650
   5 H :    0.003459
   6 H :   -0.001147
   7 H :    0.009495
Sum of atomic charges:    0.0000000

LOEWDIN ATOMIC CHARGES
----------------------
   0 C :    0.132602
   1 S :    1.092337
   2 O :   -0.466700
   3 O :   -0.470210
   4 F :   -0.250931
   5 H :   -0.017975
   6 H :   -0.002320
   7 H :   -0.016802

  Mayer bond orders larger than 0.100000
B(  0-C ,  1-S ) :   0.9689 B(  0-C ,  5-H ) :   0.9178 B(  0-C ,  6-H ) :   0.9242
B(  0-C ,  7-H ) :   0.9170 B(  1-S ,  2-O ) :   1.5301 B(  1-S ,  3-O ) :   1.5291
B(  1-S ,  4-F ) :   0.7219 B(  1-S ,  6-H ) :   0.1129

Dispersion correction           -0.007369468
FINAL SINGLE POINT ENERGY      -688.038465383323

DIPOLE MOMENT
-------------
                                X             Y             Z
Electronic contribution:      2.12675      -2.08289      -4.58059
Nuclear contribution   :     -3.78348       1.67287       4.94851
                        -----------------------------------------
Total Dipole Moment    :     -1.65674      -0.41002       0.36792
                        -----------------------------------------
Magnitude (a.u.)       :      1.74593
Magnitude (Debye)      :      4.43779

Rotational constants in cm-1:     0.163108     0.153882     0.144407
Rotational constants in MHz :  4889.859464  4613.257659  4329.207840

                             ****ORCA TERMINATED NORMALLY****
TOTAL RUN TIME: 0 days 0 hours 0 minutes 4 seconds 489 msec
