                         Program Version 5.0.0 -  RELEASE  -
|  1> !TPSS D3BJ RIJCOSX def2-SVPD def2/J TightSCF
|  2> *xyz -1 1
|  3> C         -0.10608        1.76991       -4.08984
|  4> C         -0.25875        1.00432       -5.40983
|  5> C          0.39596       -0.37070       -5.33994
|  6> H          0.23915        1.56939       -6.20125
|  7> H         -1.30936        0.88869       -5.68245
|  8> O         -0.32633       -1.39040       -5.49128
|  9> O          1.61941       -0.40073       -5.03683
| 10> H         -0.57627        2.72718       -4.17630
| 11> H          0.93321        1.90140       -3.87192
| 12> H         -0.56868        1.21534       -3.30031
| 13> *
| 14> %MaxCore 64000
| 15>
| 16> %pal nprocs 4
| 17> end
| 18>
| 19> %scf
| 20>   MaxIter 150
| 21> end
| 22>
| 23>
| 24>                          ****END OF INPUT****

CARTESIAN COORDINATES (ANGSTROEM)
---------------------------------
  C     -0.106080    1.769910   -4.089840
  C     -0.258750    1.004320   -5.409830
  C      0.395960   -0.370700   -5.339940
  H      0.239150    1.569390   -6.201250
  H     -1.309360    0.888690   -5.682450
  O     -0.326330   -1.390400   -5.491280
  O      1.619410   -0.400730   -5.036830
  H     -0.576270    2.727180   -4.176300
  H      0.933210    1.901400   -3.871920
  H     -0.568680    1.215340   -3.300310

 Total Charge           Charge          ....   -1
 Multiplicity           Mult            ....    1
 Number of Electrons    NEL             ....   40
 Basis Dimension        Dim             ....  146

ORBITAL ENERGIES
----------------

  NO   OCC          E(Eh)            E(eV)
   0   2.0000     -18.638119      -507.1690
   1   2.0000     -18.636989      -507.1383
   2   2.0000      -9.875426      -268.7240
   3   2.0000      -9.840179      -267.7649
   4   2.0000      -9.827040      -267.4073
   5   2.0000      -0.738132       -20.0856
   6   2.0000      -0.647961       -17.6319
   7   2.0000      -0.542458       -14.7610
   8   2.0000      -0.418587       -11.3903
   9   2.0000      -0.272800        -7.4233
  10   2.0000      -0.251041        -6.8312
  11   2.0000      -0.213194        -5.8013
  12   2.0000      -0.186951        -5.0872
  13   2.0000      -0.173009        -4.7078
  14   2.0000      -0.163999        -4.4626
  15   2.0000      -0.133644        -3.6366
  16   2.0000      -0.121848        -3.3157
  17   2.0000      -0.012102        -0.3293
  18   2.0000      -0.000638        -0.0174
  19   2.0000       0.016954         0.4613
  20   0.0000       0.146386         3.9834
  21   0.0000       0.179422         4.8823
  22   0.0000       0.192777         5.2457
  23   0.0000       0.205395         5.5891
  24   0.0000       0.221566         6.0291

MULLIKEN ATOMIC CHARGES
-----------------------
   0 C :    0.463920
   1 C :   -0.322478
   2 C :    0.459641
   3 H :    0.019137
   4 H :   -0.037487
   5 O :   -0.702476
   6 O :   -0.737900
   7 H :   -0.069201
   8 H :   -0.012029
   9 H :   -0.061127
Sum of atomic charges:   -1.0000000

LOEWDIN ATOMIC CHARGES
----------------------
   0 C :    0.108714
   1 C :   -0.034791
   2 C :   -0.304246
   3 H :    0.001513
   4 H :   -0.006656
   5 O :   -0.330108
   6 O :   -0.325666
   7 H :   -0.049380
   8 H :   -0.032666
   9 H :   -0.026714

  Mayer bond orders larger than 0.100000
B(  0-C ,  1-C ) :   1.2793 B(  0-C ,  7-H ) :   0.8667 B(  0-C ,  8-H ) :   0.8483
B(  0-C ,  9-H ) :   0.8744 B(  1-C ,  2-C ) :   1.0617 B(  1-C ,  3-H ) :   0.8984
B(  1-C ,  4-H ) :   0.9896 B(  1-C ,  7-H ) :   0.1540 B(  1-C ,  8-H ) :   0.1862
B(  1-C ,  9-H ) :   0.1617 B(  2-C ,  4-H ) :   0.1677 B(  2-C ,  5-O ) :   1.4253
B(  2-C ,  6-O ) :   1.4527

Dispersion correction           -0.008074690
FINAL SINGLE POINT ENERGY      -267.703089262991

DIPOLE MOMENT
-------------
                                X             Y             Z
Electronic contribution:      1.76071      -5.34764      -1.69988
Nuclear contribution   :     -2.46071       7.20791       1.95694
                        -----------------------------------------
Total Dipole Moment    :     -0.70000       1.86028       0.25705
                        -----------------------------------------
Magnitude (a.u.)       :      2.00417
Magnitude (Debye)      :      5.09420

Rotational constants in cm-1:     0.309435     0.135317     0.107436
Rotational constants in MHz :  9276.637721  4056.700783  3220.846587

                             ****ORCA TERMINATED NORMALLY****
TOTAL RUN TIME: 0 days 0 hours 0 minutes 11 seconds 601 msec
