                         Program Version 5.0.0 -  RELEASE  -
|  1> !TPSS D3BJ RIJCOSX def2-SVPD def2/J TightSCF
|  2> *xyz 1 1
|  3> C          0.81607       -2.10149       -2.18655
|  4> H          1.69623       -2.36869       -1.60046
|  5> N          1.10055       -2.46749       -3.59927
|  6> C          0.51624       -0.61363       -2.03937
|  7> H         -0.02007       -2.71285       -1.84084
|  8> H          1.70061       -1.75723       -4.07838
|  9> H          0.29386       -2.35977       -4.25632
| 10> H          1.50132       -3.42848       -3.69491
| 11> H         -0.34841       -0.36504       -2.61858
| 12> H          1.35358       -0.04503       -2.38643
| 13> H          0.33317       -0.38682       -1.00984
| 14> *
| 15> %MaxCore 64000
| 16>
| 17> %pal nprocs 4
| 18> end
| 19>
| 20> %scf
| 21>   MaxIter 150
| 22> end
| 23>
| 24>
| 25>                          ****END OF INPUT****

CARTESIAN COORDINATES (ANGSTROEM)
---------------------------------
  C      0.816070   -2.101490   -2.186550
  H      1.696230   -2.368690   -1.600460
  N      1.100550   -2.467490   -3.599270
  C      0.516240   -0.613630   -2.039370
  H     -0.020070   -2.712850   -1.840840
  H      1.700610   -1.757230   -4.078380
  H      0.293860   -2.359770   -4.256320
  H      1.501320   -3.428480   -3.694910
  H     -0.348410   -0.365040   -2.618580
  H      1.353580   -0.045030   -2.386430
  H      0.333170   -0.386820   -1.009840

 Total Charge           Charge          ....    1
 Multiplicity           Mult            ....    1
 Number of Electrons    NEL             ....   26
 Basis Dimension        Dim             ....  124

ORBITAL ENERGIES
----------------

  NO   OCC          E(Eh)            E(eV)
   0   2.0000     -14.456219      -393.3737
   1   2.0000     -10.256265      -279.0872
   2   2.0000     -10.180459      -277.0244
   3   2.0000      -1.141592       -31.0643
   4   2.0000      -0.906692       -24.6724
   5   2.0000      -0.799669       -21.7601
   6   2.0000      -0.745805       -20.2944
   7   2.0000      -0.728868       -19.8335
   8   2.0000      -0.661949       -18.0126
   9   2.0000      -0.599978       -16.3262
  10   2.0000      -0.546944       -14.8831
  11   2.0000      -0.533464       -14.5163
  12   2.0000      -0.517456       -14.0807
  13   0.0000      -0.210757        -5.7350
  14   0.0000      -0.155960        -4.2439
  15   0.0000      -0.151984        -4.1357
  16   0.0000      -0.137639        -3.7453
  17   0.0000      -0.100242        -2.7277

MULLIKEN ATOMIC CHARGES
-----------------------
   0 C :    0.264525
   1 H :   -0.039163
   2 N :   -0.975339
   3 C :    0.518428
   4 H :   -0.055407
   5 H :    0.443474
   6 H :    0.402407
   7 H :    0.415509
   8 H :    0.032413
   9 H :    0.001285
  10 H :   -0.008132
Sum of atomic charges:    1.0000000

LOEWDIN ATOMIC CHARGES
----------------------
   0 C :    0.060408
   1 H :    0.049772
   2 N :    0.306547
   3 C :    0.182669
   4 H :    0.050909
   5 H :    0.109648
   6 H :    0.114395
   7 H :    0.119602
   8 H :   -0.002637
   9 H :   -0.003795
  10 H :    0.012482

  Mayer bond orders larger than 0.100000
B(  0-C ,  1-H ) :   0.9226 B(  0-C ,  2-N ) :   0.6546 B(  0-C ,  3-C ) :   1.3236
B(  0-C ,  4-H ) :   0.9365 B(  0-C ,  8-H ) :   0.1326 B(  0-C ,  9-H ) :   0.1402
B(  0-C , 10-H ) :   0.1766 B(  2-N ,  4-H ) :   0.1070 B(  2-N ,  5-H ) :   0.6325
B(  2-N ,  6-H ) :   0.7104 B(  2-N ,  7-H ) :   0.6554 B(  3-C ,  8-H ) :   0.8395
B(  3-C ,  9-H ) :   0.8574 B(  3-C , 10-H ) :   0.8400

Dispersion correction           -0.007428710
FINAL SINGLE POINT ENERGY      -135.469749624359

DIPOLE MOMENT
-------------
                                X             Y             Z
Electronic contribution:      0.41648      -1.42803      -1.05835
Nuclear contribution   :     -0.07506       0.54337      -0.16191
                        -----------------------------------------
Total Dipole Moment    :      0.34143      -0.88466      -1.22026
                        -----------------------------------------
Magnitude (a.u.)       :      1.54539
Magnitude (Debye)      :      3.92807

Rotational constants in cm-1:     0.999557     0.280801     0.246932
Rotational constants in MHz : 29965.963633  8418.199581  7402.841054

                             ****ORCA TERMINATED NORMALLY****
TOTAL RUN TIME: 0 days 0 hours 0 minutes 9 seconds 276 msec
