                         Program Version 5.0.0 -  RELEASE  -
|  1> !TPSS D3BJ RIJCOSX def2-SVPD def2/J TightSCF
|  2> *xyz 0 1
|  3> C         -0.10608        1.76991       -4.08984
|  4> C         -0.25875        1.00432       -5.40983
|  5> C          0.39596       -0.37070       -5.33994
|  6> H          0.23915        1.56939       -6.20125
|  7> H         -1.30936        0.88869       -5.68245
|  8> F         -0.32633       -1.39040       -5.49128
|  9> O          1.61941       -0.40073       -5.03683
| 10> H         -0.57627        2.72718       -4.17630
| 11> H          0.93321        1.90140       -3.87192
| 12> H         -0.56868        1.21534       -3.30031
| 13> *
| 14> %MaxCore 64000
| 15>
| 16> %pal nprocs 4
| 17> end
| 18>
| 19> %scf
| 20>   MaxIter 150
| 21> end
| 22>
| 23>
| 24>                          ****END OF INPUT****

CARTESIAN COORDINATES (ANGSTROEM)
---------------------------------
  C     -0.106080    1.769910   -4.089840
  C     -0.258750    1.004320   -5.409830
  C      0.395960   -0.370700   -5.339940
  H      0.239150    1.569390   -6.201250
  H     -1.309360    0.888690   -5.682450
  F     -0.326330   -1.390400   -5.491280
  O      1.619410   -0.400730   -5.036830
  H     -0.576270    2.727180   -4.176300
  H      0.933210    1.901400   -3.871920
  H     -0.568680    1.215340   -3.300310

 Total Charge           Charge          ....    0
 Multiplicity           Mult            ....    1
 Number of Electrons    NEL             ....   40
 Basis Dimension        Dim             ....  146

ORBITAL ENERGIES
----------------

  NO   OCC          E(Eh)            E(eV)
   0   2.0000     -24.496570      -666.5855
   1   2.0000     -18.906034      -514.4594
   2   2.0000     -10.171118      -276.7702
   3   2.0000     -10.035322      -273.0750
   4   2.0000     -10.010148      -272.3900
   5   2.0000      -1.223799       -33.3013
   6   2.0000      -0.952367       -25.9152
   7   2.0000      -0.738770       -20.1030
   8   2.0000      -0.630897       -17.1676
   9   2.0000      -0.583041       -15.8653
  10   2.0000      -0.496078       -13.4990
  11   2.0000      -0.481433       -13.1005
  12   2.0000      -0.457180       -12.4405
  13   2.0000      -0.424660       -11.5556
  14   2.0000      -0.391084       -10.6419
  15   2.0000      -0.361236        -9.8297
  16   2.0000      -0.341728        -9.2989
  17   2.0000      -0.337244        -9.1769
  18   2.0000      -0.310465        -8.4482
  19   2.0000      -0.250036        -6.8038
  20   0.0000      -0.067740        -1.8433
  21   0.0000       0.003462         0.0942
  22   0.0000       0.035185         0.9574
  23   0.0000       0.046533         1.2662
  24   0.0000       0.060957         1.6587

MULLIKEN ATOMIC CHARGES
-----------------------
   0 C :    0.495075
   1 C :   -0.369580
   2 C :    0.782841
   3 H :    0.078548
   4 H :   -0.005534
   5 F :   -0.373144
   6 O :   -0.537165
   7 H :   -0.030225
   8 H :    0.000270
   9 H :   -0.041086
Sum of atomic charges:    0.0000000

LOEWDIN ATOMIC CHARGES
----------------------
   0 C :    0.152419
   1 C :    0.010981
   2 C :   -0.010974
   3 H :    0.035533
   4 H :    0.017835
   5 F :   -0.031373
   6 O :   -0.134026
   7 H :   -0.016089
   8 H :   -0.012177
   9 H :   -0.012129

  Mayer bond orders larger than 0.100000
B(  0-C ,  1-C ) :   1.3158 B(  0-C ,  7-H ) :   0.8612 B(  0-C ,  8-H ) :   0.8466
B(  0-C ,  9-H ) :   0.8682 B(  1-C ,  2-C ) :   1.0896 B(  1-C ,  3-H ) :   0.8792
B(  1-C ,  4-H ) :   0.9749 B(  1-C ,  7-H ) :   0.1405 B(  1-C ,  8-H ) :   0.1656
B(  1-C ,  9-H ) :   0.1473 B(  2-C ,  5-F ) :   0.7226 B(  2-C ,  6-O ) :   1.7451

Dispersion correction           -0.007659160
FINAL SINGLE POINT ENERGY      -292.238655051566

DIPOLE MOMENT
-------------
                                X             Y             Z
Electronic contribution:      0.86818      -8.19097      -2.56038
Nuclear contribution   :     -1.80992       8.85192       2.42184
                        -----------------------------------------
Total Dipole Moment    :     -0.94174       0.66096      -0.13853
                        -----------------------------------------
Magnitude (a.u.)       :      1.15885
Magnitude (Debye)      :      2.94556

Rotational constants in cm-1:     0.298360     0.128849     0.102271
Rotational constants in MHz :  8944.606599  3862.796179  3066.020510

                             ****ORCA TERMINATED NORMALLY****
TOTAL RUN TIME: 0 days 0 hours 0 minutes 11 seconds 267 msec
