                         Program Version 5.0.0 -  RELEASE  -
|  1> !TPSS D3BJ RIJCOSX def2-SVPD def2/J TightSCF
|  2> *xyz 0 1
|  3> C          0.81607       -2.10149       -2.18655
|  4> H          1.69623       -2.36869       -1.60046
|  5> C          1.10055       -2.46749       -3.59927
|  6> C          0.51624       -0.61363       -2.03937
|  7> H         -0.02007       -2.71285       -1.84084
|  8> H          1.70061       -1.75723       -4.07838
|  9> H          0.29386       -2.35977       -4.25632
| 10> H          1.50132       -3.42848       -3.69491
| 11> H         -0.34841       -0.36504       -2.61858
| 12> H          1.35358       -0.04503       -2.38643
| 13> H          0.33317       -0.38682       -1.00984
| 14> *
| 15> %MaxCore 64000
| 16>
| 17> %pal nprocs 4
| 18> end
| 19>
| 20> %scf
| 21>   MaxIter 150
| 22> end
| 23>
| 24>
| 25>                          ****END OF INPUT****

CARTESIAN COORDINATES (ANGSTROEM)
---------------------------------
  C      0.816070   -2.101490   -2.186550
  H      1.696230   -2.368690   -1.600460
  C      1.100550   -2.467490   -3.599270
  C      0.516240   -0.613630   -2.039370
  H     -0.020070   -2.712850   -1.840840
  H      1.700610   -1.757230   -4.078380
  H      0.293860   -2.359770   -4.256320
  H      1.501320   -3.428480   -3.694910
  H     -0.348410   -0.365040   -2.618580
  H      1.353580   -0.045030   -2.386430
  H      0.333170   -0.386820   -1.009840

 Total Charge           Charge          ....    0
 Multiplicity           Mult            ....    1
 Number of Electrons    NEL             ....   26
 Basis Dimension        Dim             ....  124

ORBITAL ENERGIES
----------------

  NO   OCC          E(Eh)            E(eV)
   0   2.0000      -9.990315      -271.8503
   1   2.0000      -9.982554      -271.6391
   2   2.0000      -9.970162      -271.3019
   3   2.0000      -0.726121       -19.7588
   4   2.0000      -0.630577       -17.1589
   5   2.0000      -0.537791       -14.6340
   6   2.0000      -0.418653       -11.3921
   7   2.0000      -0.404795       -11.0150
   8   2.0000      -0.373366       -10.1598
   9   2.0000      -0.339169        -9.2293
  10   2.0000      -0.305904        -8.3241
  11   2.0000      -0.300502        -8.1771
  12   2.0000      -0.287113        -7.8127
  13   0.0000       0.017038         0.4636
  14   0.0000       0.046028         1.2525
  15   0.0000       0.051237         1.3942
  16   0.0000       0.073047         1.9877
  17   0.0000       0.094425         2.5694

MULLIKEN ATOMIC CHARGES
-----------------------
   0 C :   -0.537242
   1 H :   -0.054081
   2 C :    0.721921
   3 C :    0.539718
   4 H :   -0.080857
   5 H :   -0.177308
   6 H :   -0.160360
   7 H :   -0.132648
   8 H :   -0.023489
   9 H :   -0.014223
  10 H :   -0.081432
Sum of atomic charges:   -0.0000000

LOEWDIN ATOMIC CHARGES
----------------------
   0 C :   -0.109914
   1 H :    0.016789
   2 C :    0.109439
   3 C :    0.125031
   4 H :    0.017405
   5 H :   -0.034343
   6 H :   -0.031569
   7 H :   -0.026817
   8 H :   -0.019339
   9 H :   -0.020682
  10 H :   -0.026000

  Mayer bond orders larger than 0.100000
B(  0-C ,  1-H ) :   0.9393 B(  0-C ,  2-C ) :   1.2911 B(  0-C ,  3-C ) :   1.2815
B(  0-C ,  4-H ) :   0.9631 B(  0-C ,  5-H ) :   0.1719 B(  0-C ,  6-H ) :   0.1728
B(  0-C ,  7-H ) :   0.1803 B(  0-C ,  8-H ) :   0.1743 B(  0-C ,  9-H ) :   0.1581
B(  0-C , 10-H ) :   0.1769 B(  2-C ,  4-H ) :   0.1087 B(  2-C ,  5-H ) :   0.7582
B(  2-C ,  6-H ) :   0.7347 B(  2-C ,  7-H ) :   0.8036 B(  3-C ,  8-H ) :   0.8466
B(  3-C ,  9-H ) :   0.8534 B(  3-C , 10-H ) :   0.8526 B(  5-H ,  6-H ) :   0.3057

Dispersion correction           -0.007453076
FINAL SINGLE POINT ENERGY      -119.075859311378

DIPOLE MOMENT
-------------
                                X             Y             Z
Electronic contribution:     -0.01820      -0.30951       0.46769
Nuclear contribution   :      0.01737       0.30387      -0.47422
                        -----------------------------------------
Total Dipole Moment    :     -0.00083      -0.00564      -0.00652
                        -----------------------------------------
Magnitude (a.u.)       :      0.00866
Magnitude (Debye)      :      0.02202

Rotational constants in cm-1:     1.006891     0.295208     0.258491
Rotational constants in MHz : 30185.831813  8850.104914  7749.351732

                             ****ORCA TERMINATED NORMALLY****
TOTAL RUN TIME: 0 days 0 hours 0 minutes 8 seconds 336 msec
