                         Program Version 5.0.0 -  RELEASE  -
|  1> !TPSS D3BJ RIJCOSX def2-SVPD def2/J TightSCF
|  2> *xyz 0 1
|  3> C         -0.10608        1.76991       -4.08984
|  4> C         -0.25875        1.00432       -5.40983
|  5> C          0.39596       -0.37070       -5.33994
|  6> H          0.23915        1.56939       -6.20125
|  7> H         -1.30936        0.88869       -5.68245
|  8> O         -0.32633       -1.39040       -5.49128
|  9> F          1.61941       -0.40073       -5.03683
| 10> H         -0.57627        2.72718       -4.17630
| 11> H          0.93321        1.90140       -3.87192
| 12> H         -0.56868        1.21534       -3.30031
| 13> *
| 14> %MaxCore 64000
| 15>
| 16> %pal nprocs 4
| 17> end
| 18>
| 19> %scf
| 20>   MaxIter 150
| 21> end
| 22>
| 23>
| 24>                          ****END OF INPUT****

CARTESIAN COORDINATES (ANGSTROEM)
---------------------------------
  C     -0.106080    1.769910   -4.089840
  C     -0.258750    1.004320   -5.409830
  C      0.395960   -0.370700   -5.339940
  H      0.239150    1.569390   -6.201250
  H     -1.309360    0.888690   -5.682450
  O     -0.326330   -1.390400   -5.491280
  F      1.619410   -0.400730   -5.036830
  H     -0.576270    2.727180   -4.176300
  H      0.933210    1.901400   -3.871920
  H     -0.568680    1.215340   -3.300310

 Total Charge           Charge          ....    0
 Multiplicity           Mult            ....    1
 Number of Electrons    NEL             ....   40
 Basis Dimension        Dim             ....  146

ORBITAL ENERGIES
----------------

  NO   OCC          E(Eh)            E(eV)
   0   2.0000     -24.495282      -666.5505
   1   2.0000     -18.906599      -514.4747
   2   2.0000     -10.170390      -276.7504
   3   2.0000     -10.035175      -273.0710
   4   2.0000     -10.014991      -272.5218
   5   2.0000      -1.222394       -33.2630
   6   2.0000      -0.952296       -25.9133
   7   2.0000      -0.743203       -20.2236
   8   2.0000      -0.628586       -17.1047
   9   2.0000      -0.586268       -15.9532
  10   2.0000      -0.497421       -13.5355
  11   2.0000      -0.484371       -13.1804
  12   2.0000      -0.451838       -12.2951
  13   2.0000      -0.424056       -11.5392
  14   2.0000      -0.393374       -10.7042
  15   2.0000      -0.363473        -9.8906
  16   2.0000      -0.345553        -9.4030
  17   2.0000      -0.341867        -9.3027
  18   2.0000      -0.315302        -8.5798
  19   2.0000      -0.247095        -6.7238
  20   0.0000      -0.064764        -1.7623
  21   0.0000       0.001384         0.0377
  22   0.0000       0.036075         0.9817
  23   0.0000       0.045533         1.2390
  24   0.0000       0.061818         1.6822

MULLIKEN ATOMIC CHARGES
-----------------------
   0 C :    0.483361
   1 C :   -0.349085
   2 C :    0.800639
   3 H :    0.067474
   4 H :   -0.016803
   5 O :   -0.512664
   6 F :   -0.395995
   7 H :   -0.028449
   8 H :   -0.011303
   9 H :   -0.037175
Sum of atomic charges:   -0.0000000

LOEWDIN ATOMIC CHARGES
----------------------
   0 C :    0.147457
   1 C :    0.015930
   2 C :   -0.015830
   3 H :    0.030219
   4 H :    0.030668
   5 O :   -0.132503
   6 F :   -0.032517
   7 H :   -0.015676
   8 H :   -0.017296
   9 H :   -0.010452

  Mayer bond orders larger than 0.100000
B(  0-C ,  1-C ) :   1.2935 B(  0-C ,  7-H ) :   0.8685 B(  0-C ,  8-H ) :   0.8415
B(  0-C ,  9-H ) :   0.8801 B(  1-C ,  2-C ) :   1.0664 B(  1-C ,  3-H ) :   0.8780
B(  1-C ,  4-H ) :   0.9989 B(  1-C ,  7-H ) :   0.1411 B(  1-C ,  8-H ) :   0.1583
B(  1-C ,  9-H ) :   0.1421 B(  2-C ,  4-H ) :   0.1165 B(  2-C ,  5-O ) :   1.7401
B(  2-C ,  6-F ) :   0.7001 B(  5-O ,  6-F ) :   0.1024

Dispersion correction           -0.007611329
FINAL SINGLE POINT ENERGY      -292.239959216663

DIPOLE MOMENT
-------------
                                X             Y             Z
Electronic contribution:      4.07203      -6.52878      -1.80501
Nuclear contribution   :     -3.93139       7.77287       1.92635
                        -----------------------------------------
Total Dipole Moment    :      0.14065       1.24410       0.12134
                        -----------------------------------------
Magnitude (a.u.)       :      1.25789
Magnitude (Debye)      :      3.19730

Rotational constants in cm-1:     0.286068     0.133630     0.103472
Rotational constants in MHz :  8576.109806  4006.118234  3102.010802

                             ****ORCA TERMINATED NORMALLY****
TOTAL RUN TIME: 0 days 0 hours 0 minutes 11 seconds 848 msec
