                         Program Version 5.0.0 -  RELEASE  -
|  1> !TPSS D3BJ RIJCOSX def2-SVPD def2/J TightSCF xyzfile
|  2>
|  3> *xyzfile 0 1 D1.xyz
|  4>
|  5> %MaxCore 64000
|  6>
|  7> %pal nprocs 4
|  8> end
|  9>
| 10> %scf
| 11>   MaxIter 150
| 12> end
| 13>
| 14>
| 15>                          ****END OF INPUT****

CARTESIAN COORDINATES (ANGSTROEM)
---------------------------------
  C      0.816067   -2.101491   -2.186546
  H      1.696232   -2.368691   -1.600457
  C      1.100552   -2.467492   -3.599269
  C      0.516243   -0.613634   -2.039373
  H     -0.020066   -2.712849   -1.840844
  C     -0.868621   -0.193925   -2.546303
  C     -0.984801    1.284739   -2.928686
  H     -0.764939    1.904116   -2.051568
  H     -2.032613    1.478953   -3.178952
  C     -0.106085    1.769914   -4.089836
  H     -0.347744    2.822196   -4.262942
  H      0.949683    1.745875   -3.808781
  C     -0.258747    1.004323   -5.409829
  C      0.395958   -0.370696   -5.339939
  H      0.239150    1.569393   -6.201253
  H     -1.309360    0.888694   -5.682455
  H      1.700606   -1.757225   -4.078378
  H      0.293855   -2.359766   -4.256324
  H      1.501324   -3.428479   -3.694915
  F     -0.326329   -1.390398   -5.491279
  O      1.619412   -0.400726   -5.036827
  H     -1.607271   -0.412651   -1.768955
  H     -1.157234   -0.796164   -3.409254
  H      1.299044   -0.056805   -2.558982
  H      0.612393   -0.365579   -0.979171

 Total Charge           Charge          ....    0
 Multiplicity           Mult            ....    1
 Number of Electrons    NEL             ....   80
 Basis Dimension        Dim             ....  326

ORBITAL ENERGIES
----------------

  NO   OCC          E(Eh)            E(eV)
   0   2.0000     -24.504057      -666.7893
   1   2.0000     -18.912445      -514.6338
   2   2.0000     -10.177906      -276.9549
   3   2.0000     -10.035263      -273.0734
   4   2.0000     -10.016137      -272.5530
   5   2.0000     -10.004503      -272.2364
   6   2.0000      -9.997426      -272.0438
   7   2.0000      -9.984054      -271.6799
   8   2.0000      -9.974804      -271.4282
   9   2.0000      -9.929122      -270.1851
  10   2.0000      -1.235441       -33.6180
  11   2.0000      -0.965855       -26.2823
  12   2.0000      -0.760658       -20.6985
  13   2.0000      -0.729412       -19.8483
  14   2.0000      -0.683770       -18.6063
  15   2.0000      -0.647028       -17.6065
  16   2.0000      -0.606447       -16.5023
  17   2.0000      -0.583324       -15.8730
  18   2.0000      -0.546225       -14.8635
  19   2.0000      -0.506966       -13.7952
  20   2.0000      -0.505840       -13.7646
  21   2.0000      -0.487310       -13.2604
  22   2.0000      -0.473629       -12.8881
  23   2.0000      -0.435059       -11.8386
  24   2.0000      -0.414852       -11.2887
  25   2.0000      -0.403814       -10.9883
  26   2.0000      -0.398174       -10.8349
  27   2.0000      -0.383195       -10.4273
  28   2.0000      -0.372088       -10.1250
  29   2.0000      -0.359940        -9.7945
  30   2.0000      -0.341119        -9.2823
  31   2.0000      -0.331228        -9.0132
  32   2.0000      -0.325659        -8.8616
  33   2.0000      -0.315745        -8.5918
  34   2.0000      -0.303493        -8.2585
  35   2.0000      -0.290555        -7.9064
  36   2.0000      -0.280557        -7.6343
  37   2.0000      -0.272289        -7.4094
  38   2.0000      -0.263268        -7.1639
  39   2.0000      -0.227131        -6.1806
  40   0.0000      -0.077091        -2.0978
  41   0.0000       0.003203         0.0872
  42   0.0000       0.025437         0.6922
  43   0.0000       0.029525         0.8034
  44   0.0000       0.031135         0.8472

MULLIKEN ATOMIC CHARGES
-----------------------
   0 C :    0.115206
   1 H :   -0.075257
   2 C :    1.190040
   3 C :    0.141395
   4 H :   -0.148576
   5 C :    0.129091
   6 C :    0.287678
   7 H :   -0.039162
   8 H :    0.070692
   9 C :    0.009559
  10 H :   -0.179490
  11 H :    0.124993
  12 C :    0.185506
  13 C :    0.552851
  14 H :    0.036566
  15 H :    0.001589
  16 H :   -0.199914
  17 H :   -0.284133
  18 H :   -0.257902
  19 F :   -0.480683
  20 O :   -0.596144
  21 H :   -0.103802
  22 H :   -0.246450
  23 H :    0.018462
  24 H :   -0.252114
Sum of atomic charges:    0.0000000

LOEWDIN ATOMIC CHARGES
----------------------
   0 C :   -0.039750
   1 H :    0.017439
   2 C :    0.136905
   3 C :   -0.012002
   4 H :    0.017303
   5 C :   -0.006733
   6 C :   -0.015889
   7 H :    0.022669
   8 H :    0.016774
   9 C :   -0.006012
  10 H :    0.020449
  11 H :    0.014476
  12 C :    0.072242
  13 C :    0.022386
  14 H :    0.038185
  15 H :    0.024853
  16 H :   -0.101199
  17 H :   -0.079180
  18 H :   -0.017491
  19 F :   -0.042051
  20 O :   -0.117684
  21 H :    0.022684
  22 H :   -0.005299
  23 H :    0.002651
  24 H :    0.014275

  Mayer bond orders larger than 0.100000
B(  0-C ,  1-H ) :   0.8097 B(  0-C ,  2-C ) :   1.0966 B(  0-C ,  3-C ) :   1.1714
B(  0-C ,  4-H ) :   0.8293 B(  0-C , 16-H ) :   0.2568 B(  0-C , 17-H ) :   0.1935
B(  0-C , 18-H ) :   0.1768 B(  0-C , 23-H ) :   0.1646 B(  0-C , 24-H ) :   0.1120
B(  1-H ,  3-C ) :   0.1514 B(  1-H ,  4-H ) :  -0.1087 B(  2-C ,  3-C ) :   0.1570
B(  2-C ,  4-H ) :   0.1556 B(  2-C , 16-H ) :   0.5204 B(  2-C , 17-H ) :   0.3566
B(  2-C , 18-H ) :   0.6867 B(  2-C , 23-H ) :  -0.1547 B(  2-C , 24-H ) :   0.1146
B(  3-C ,  5-C ) :   1.1542 B(  3-C , 21-H ) :   0.2271 B(  3-C , 22-H ) :   0.1130
B(  3-C , 23-H ) :   0.8254 B(  3-C , 24-H ) :   0.9171 B(  5-C ,  6-C ) :   1.2229
B(  5-C ,  7-H ) :   0.1664 B(  5-C ,  8-H ) :   0.1922 B(  5-C , 21-H ) :   0.8034
B(  5-C , 22-H ) :   0.8708 B(  5-C , 23-H ) :   0.1145 B(  5-C , 24-H ) :   0.1846
B(  6-C ,  7-H ) :   0.8263 B(  6-C ,  8-H ) :   0.6849 B(  6-C ,  9-C ) :   1.2390
B(  6-C , 10-H ) :   0.1509 B(  6-C , 11-H ) :   0.1027 B(  6-C , 21-H ) :   0.1154
B(  6-C , 22-H ) :   0.1118 B(  7-H ,  9-C ) :   0.1440 B(  8-H ,  9-C ) :   0.1437
B(  9-C , 10-H ) :   0.9077 B(  9-C , 11-H ) :   0.8004 B(  9-C , 12-C ) :   1.2212
B(  9-C , 14-H ) :   0.1650 B(  9-C , 15-H ) :   0.1117 B( 10-H , 12-C ) :   0.1176
B( 12-C , 13-C ) :   1.2186 B( 12-C , 14-H ) :   0.7176 B( 12-C , 15-H ) :   0.8854
B( 13-C , 14-H ) :   0.1784 B( 13-C , 15-H ) :   0.1443 B( 13-C , 16-H ) :   0.1099
B( 13-C , 17-H ) :   0.1261 B( 13-C , 19-F ) :   0.6243 B( 13-C , 20-O ) :   1.6502
B( 16-H , 17-H ) :   0.3787 B( 16-H , 20-O ) :   0.1659 B( 16-H , 23-H ) :   0.2183
B( 16-H , 24-H ) :  -0.1647 B( 17-H , 19-F ) :   0.2019 B( 18-H , 23-H ) :  -0.1252

Dispersion correction           -0.032507623
FINAL SINGLE POINT ENERGY      -488.674178352268

DIPOLE MOMENT
-------------
                                X             Y             Z
Electronic contribution:      0.36947      -2.01192     -10.55066
Nuclear contribution   :     -1.21560       2.80077      10.24180
                        -----------------------------------------
Total Dipole Moment    :     -0.84613       0.78885      -0.30885
                        -----------------------------------------
Magnitude (a.u.)       :      1.19734
Magnitude (Debye)      :      3.04339

Rotational constants in cm-1:     0.051255     0.042531     0.028894
Rotational constants in MHz :  1536.587743  1275.050721   866.218876

                             ****ORCA TERMINATED NORMALLY****
TOTAL RUN TIME: 0 days 0 hours 0 minutes 44 seconds 578 msec
