                         Program Version 5.0.0 -  RELEASE  -
|  1> !LC-BLYP RIJCOSX def2-SVPD def2/J TightSCF
|  2> *xyz -1 1
|  3> C          0.13297        2.38587       -4.02462
|  4> C         -1.36646        2.47911       -4.31393
|  5> C         -2.35773        2.30686       -3.13675
|  6> H         -1.63680        1.72709       -5.06399
|  7> H         -1.58235        3.44561       -4.76869
|  8> O         -3.44376        2.84652       -3.25274
|  9> O         -1.97092        1.58304       -2.15123
| 10> H          0.68084        2.52514       -4.93310
| 11> H          0.35823        1.42282       -3.61633
| 12> H          0.40851        3.14443       -3.32208
| 13> *
| 14> %MaxCore 64000
| 15>
| 16> %pal nprocs 4
| 17> end
| 18>
| 19> %scf
| 20>   MaxIter 150
| 21> end
| 22>
| 23>
| 24>                          ****END OF INPUT****

CARTESIAN COORDINATES (ANGSTROEM)
---------------------------------
  C      0.132970    2.385870   -4.024620
  C     -1.366460    2.479110   -4.313930
  C     -2.357730    2.306860   -3.136750
  H     -1.636800    1.727090   -5.063990
  H     -1.582350    3.445610   -4.768690
  O     -3.443760    2.846520   -3.252740
  O     -1.970920    1.583040   -2.151230
  H      0.680840    2.525140   -4.933100
  H      0.358230    1.422820   -3.616330
  H      0.408510    3.144430   -3.322080

 Total Charge           Charge          ....   -1
 Multiplicity           Mult            ....    1
 Number of Electrons    NEL             ....   40
 Basis Dimension        Dim             ....  146

ORBITAL ENERGIES
----------------

  NO   OCC          E(Eh)            E(eV)
   0   2.0000     -18.703217      -508.9404
   1   2.0000     -18.692535      -508.6497
   2   2.0000      -9.976676      -271.4792
   3   2.0000      -9.922226      -269.9975
   4   2.0000      -9.913727      -269.7662
   5   2.0000      -0.915328       -24.9073
   6   2.0000      -0.813302       -22.1311
   7   2.0000      -0.708963       -19.2919
   8   2.0000      -0.578048       -15.7295
   9   2.0000      -0.421633       -11.4732
  10   2.0000      -0.402939       -10.9645
  11   2.0000      -0.363121        -9.8810
  12   2.0000      -0.336232        -9.1493
  13   2.0000      -0.322751        -8.7825
  14   2.0000      -0.312662        -8.5080
  15   2.0000      -0.282821        -7.6960
  16   2.0000      -0.266310        -7.2467
  17   2.0000      -0.152430        -4.1478
  18   2.0000      -0.144536        -3.9330
  19   2.0000      -0.131997        -3.5918
  20   0.0000       0.203843         5.5469
  21   0.0000       0.240376         6.5410
  22   0.0000       0.249855         6.7989
  23   0.0000       0.269554         7.3349
  24   0.0000       0.294257         8.0072

MULLIKEN ATOMIC CHARGES
-----------------------
   0 C :    0.892368
   1 C :   -0.248019
   2 C :    0.140997
   3 H :   -0.101250
   4 H :   -0.105941
   5 O :   -0.499493
   6 O :   -0.634079
   7 H :   -0.161987
   8 H :   -0.132266
   9 H :   -0.150331
Sum of atomic charges:   -1.0000000

LOEWDIN ATOMIC CHARGES
----------------------
   0 C :    0.080653
   1 C :   -0.050812
   2 C :   -0.346343
   3 H :    0.015783
   4 H :    0.001966
   5 O :   -0.286404
   6 O :   -0.326191
   7 H :   -0.040258
   8 H :   -0.026662
   9 H :   -0.021733

  Mayer bond orders larger than 0.100000
B(  0-C ,  1-C ) :   1.2820 B(  0-C ,  4-H ) :   0.1100 B(  0-C ,  7-H ) :   0.6957
B(  0-C ,  8-H ) :   0.7672 B(  0-C ,  9-H ) :   0.7657 B(  1-C ,  2-C ) :   1.0349
B(  1-C ,  3-H ) :   0.8900 B(  1-C ,  4-H ) :   0.9071 B(  1-C ,  7-H ) :   0.2780
B(  1-C ,  8-H ) :   0.2370 B(  1-C ,  9-H ) :   0.2215 B(  2-C ,  4-H ) :   0.1738
B(  2-C ,  5-O ) :   1.6815 B(  2-C ,  6-O ) :   1.5932

FINAL SINGLE POINT ENERGY      -267.061042655382

DIPOLE MOMENT
-------------
                                X             Y             Z
Electronic contribution:     -5.20309      -0.35651       3.13527
Nuclear contribution   :      6.75610       0.63068      -4.53972
                        -----------------------------------------
Total Dipole Moment    :      1.55301       0.27417      -1.40445
                        -----------------------------------------
Magnitude (a.u.)       :      2.11175
Magnitude (Debye)      :      5.36764

Rotational constants in cm-1:     0.335096     0.130241     0.099025
Rotational constants in MHz : 10045.924902  3904.536250  2968.708333

                             ****ORCA TERMINATED NORMALLY****
TOTAL RUN TIME: 0 days 0 hours 0 minutes 17 seconds 847 msec
