                         Program Version 5.0.0 -  RELEASE  -
|  1> !LC-BLYP RIJCOSX def2-SVPD def2/J TightSCF
|  2> *xyz 1 1
|  3> C          0.64866        1.00359       -3.64560
|  4> N          0.28128        0.67645       -2.24018
|  5> C          0.13297        2.38587       -4.02462
|  6> H          0.39079       -0.31925       -2.02649
|  7> H         -0.69269        0.99010       -2.13812
|  8> H          0.85421        1.21221       -1.57528
|  9> H          0.19099        0.23965       -4.27575
| 10> H          1.73157        0.93173       -3.75075
| 11> H          0.40589        2.60338       -5.03610
| 12> H          0.56342        3.11797       -3.37374
| 13> H         -0.93265        2.40724       -3.93025
| 14> *
| 15> %MaxCore 64000
| 16>
| 17> %pal nprocs 4
| 18> end
| 19>
| 20> %scf
| 21>   MaxIter 150
| 22> end
| 23>
| 24>
| 25>                          ****END OF INPUT****

CARTESIAN COORDINATES (ANGSTROEM)
---------------------------------
  C      0.648660    1.003590   -3.645600
  N      0.281280    0.676450   -2.240180
  C      0.132970    2.385870   -4.024620
  H      0.390790   -0.319250   -2.026490
  H     -0.692690    0.990100   -2.138120
  H      0.854210    1.212210   -1.575280
  H      0.190990    0.239650   -4.275750
  H      1.731570    0.931730   -3.750750
  H      0.405890    2.603380   -5.036100
  H      0.563420    3.117970   -3.373740
  H     -0.932650    2.407240   -3.930250

 Total Charge           Charge          ....    1
 Multiplicity           Mult            ....    1
 Number of Electrons    NEL             ....   26
 Basis Dimension        Dim             ....  124

ORBITAL ENERGIES
----------------

  NO   OCC          E(Eh)            E(eV)
   0   2.0000     -14.521933      -395.1619
   1   2.0000     -10.339727      -281.3583
   2   2.0000     -10.263551      -279.2854
   3   2.0000      -1.310747       -35.6672
   4   2.0000      -1.070027       -29.1169
   5   2.0000      -0.950702       -25.8699
   6   2.0000      -0.906545       -24.6683
   7   2.0000      -0.898044       -24.4370
   8   2.0000      -0.799029       -21.7427
   9   2.0000      -0.746750       -20.3201
  10   2.0000      -0.686507       -18.6808
  11   2.0000      -0.672063       -18.2878
  12   2.0000      -0.651785       -17.7360
  13   0.0000      -0.131775        -3.5858
  14   0.0000      -0.070953        -1.9307
  15   0.0000      -0.067167        -1.8277
  16   0.0000      -0.065740        -1.7889
  17   0.0000      -0.030700        -0.8354

MULLIKEN ATOMIC CHARGES
-----------------------
   0 C :    0.338737
   1 N :   -0.678698
   2 C :    0.852711
   3 H :    0.309558
   4 H :    0.413004
   5 H :    0.361881
   6 H :   -0.141643
   7 H :   -0.182290
   8 H :   -0.116850
   9 H :   -0.056923
  10 H :   -0.099487
Sum of atomic charges:    1.0000000

LOEWDIN ATOMIC CHARGES
----------------------
   0 C :    0.033067
   1 N :    0.331114
   2 C :    0.161161
   3 H :    0.110820
   4 H :    0.102524
   5 H :    0.112995
   6 H :    0.058666
   7 H :    0.058185
   8 H :    0.020670
   9 H :    0.006651
  10 H :    0.004147

  Mayer bond orders larger than 0.100000
B(  0-C ,  1-N ) :   0.8565 B(  0-C ,  2-C ) :   1.2994 B(  0-C ,  6-H ) :   0.8800
B(  0-C ,  7-H ) :   0.9046 B(  0-C ,  8-H ) :   0.2159 B(  0-C ,  9-H ) :   0.1600
B(  0-C , 10-H ) :   0.1785 B(  1-N ,  3-H ) :   0.8154 B(  1-N ,  4-H ) :   0.6931
B(  1-N ,  5-H ) :   0.7906 B(  1-N ,  7-H ) :   0.1091 B(  2-C ,  8-H ) :   0.7829
B(  2-C ,  9-H ) :   0.7803 B(  2-C , 10-H ) :   0.7940

FINAL SINGLE POINT ENERGY      -135.044978594800

DIPOLE MOMENT
-------------
                                X             Y             Z
Electronic contribution:      0.17117      -1.30863       1.32734
Nuclear contribution   :     -0.22655       0.48066      -0.09136
                        -----------------------------------------
Total Dipole Moment    :     -0.05538      -0.82797       1.23598
                        -----------------------------------------
Magnitude (a.u.)       :      1.48871
Magnitude (Debye)      :      3.78400

Rotational constants in cm-1:     0.998155     0.284845     0.251232
Rotational constants in MHz : 29923.943568  8539.431565  7531.732866

                             ****ORCA TERMINATED NORMALLY****
TOTAL RUN TIME: 0 days 0 hours 0 minutes 13 seconds 114 msec
