                         Program Version 5.0.0 -  RELEASE  -
|  1> !LC-BLYP RIJCOSX def2-SVPD def2/J TightSCF
|  2> *xyz 0 1
|  3> C          0.13297        2.38587       -4.02462
|  4> C         -1.36646        2.47911       -4.31393
|  5> C         -2.35773        2.30686       -3.13675
|  6> H         -1.63680        1.72709       -5.06399
|  7> H         -1.58235        3.44561       -4.76869
|  8> F         -3.44376        2.84652       -3.25274
|  9> O         -1.97092        1.58304       -2.15123
| 10> H          0.68084        2.52514       -4.93310
| 11> H          0.35823        1.42282       -3.61633
| 12> H          0.40851        3.14443       -3.32208
| 13> *
| 14> %MaxCore 64000
| 15>
| 16> %pal nprocs 4
| 17> end
| 18>
| 19> %scf
| 20>   MaxIter 150
| 21> end
| 22>
| 23>
| 24>                          ****END OF INPUT****

CARTESIAN COORDINATES (ANGSTROEM)
---------------------------------
  C      0.132970    2.385870   -4.024620
  C     -1.366460    2.479110   -4.313930
  C     -2.357730    2.306860   -3.136750
  H     -1.636800    1.727090   -5.063990
  H     -1.582350    3.445610   -4.768690
  F     -3.443760    2.846520   -3.252740
  O     -1.970920    1.583040   -2.151230
  H      0.680840    2.525140   -4.933100
  H      0.358230    1.422820   -3.616330
  H      0.408510    3.144430   -3.322080

 Total Charge           Charge          ....    0
 Multiplicity           Mult            ....    1
 Number of Electrons    NEL             ....   40
 Basis Dimension        Dim             ....  146

ORBITAL ENERGIES
----------------

  NO   OCC          E(Eh)            E(eV)
   0   2.0000     -24.563680      -668.4117
   1   2.0000     -18.965290      -516.0718
   2   2.0000     -10.276284      -279.6319
   3   2.0000     -10.121886      -275.4305
   4   2.0000     -10.088136      -274.5121
   5   2.0000      -1.418737       -38.6058
   6   2.0000      -1.105438       -30.0805
   7   2.0000      -0.903570       -24.5874
   8   2.0000      -0.802903       -21.8481
   9   2.0000      -0.752937       -20.4885
  10   2.0000      -0.678739       -18.4694
  11   2.0000      -0.655397       -17.8343
  12   2.0000      -0.611763       -16.6469
  13   2.0000      -0.574758       -15.6400
  14   2.0000      -0.536061       -14.5870
  15   2.0000      -0.497359       -13.5338
  16   2.0000      -0.476163       -12.9570
  17   2.0000      -0.474066       -12.9000
  18   2.0000      -0.448470       -12.2035
  19   2.0000      -0.392035       -10.6678
  20   0.0000       0.047047         1.2802
  21   0.0000       0.065575         1.7844
  22   0.0000       0.091556         2.4914
  23   0.0000       0.107581         2.9274
  24   0.0000       0.126324         3.4375

MULLIKEN ATOMIC CHARGES
-----------------------
   0 C :    0.909118
   1 C :   -0.287250
   2 C :    0.468440
   3 H :   -0.031246
   4 H :   -0.067913
   5 F :   -0.229452
   6 O :   -0.385965
   7 H :   -0.134982
   8 H :   -0.116193
   9 H :   -0.124558
Sum of atomic charges:    0.0000000

LOEWDIN ATOMIC CHARGES
----------------------
   0 C :    0.126383
   1 C :   -0.010555
   2 C :   -0.053901
   3 H :    0.044788
   4 H :    0.026476
   5 F :    0.015067
   6 O :   -0.128382
   7 H :   -0.009177
   8 H :   -0.006771
   9 H :   -0.003928

  Mayer bond orders larger than 0.100000
B(  0-C ,  1-C ) :   1.3541 B(  0-C ,  4-H ) :   0.1081 B(  0-C ,  7-H ) :   0.7042
B(  0-C ,  8-H ) :   0.7584 B(  0-C ,  9-H ) :   0.7668 B(  1-C ,  2-C ) :   1.0916
B(  1-C ,  3-H ) :   0.8679 B(  1-C ,  4-H ) :   0.8907 B(  1-C ,  7-H ) :   0.2647
B(  1-C ,  8-H ) :   0.2265 B(  1-C ,  9-H ) :   0.2173 B(  2-C ,  4-H ) :   0.1200
B(  2-C ,  5-F ) :   0.9386 B(  2-C ,  6-O ) :   1.9453 B(  5-F ,  6-O ) :   0.1123

FINAL SINGLE POINT ENERGY      -291.567651388871

DIPOLE MOMENT
-------------
                                X             Y             Z
Electronic contribution:     -8.36444       0.48721       3.54045
Nuclear contribution   :      8.54799       0.05434      -4.66633
                        -----------------------------------------
Total Dipole Moment    :      0.18355       0.54155      -1.12587
                        -----------------------------------------
Magnitude (a.u.)       :      1.26276
Magnitude (Debye)      :      3.20967

Rotational constants in cm-1:     0.325803     0.123345     0.094275
Rotational constants in MHz :  9767.324172  3697.779805  2826.305733

                             ****ORCA TERMINATED NORMALLY****
TOTAL RUN TIME: 0 days 0 hours 0 minutes 19 seconds 689 msec
