                         Program Version 5.0.0 -  RELEASE  -
|  1> !LC-BLYP RIJCOSX def2-SVPD def2/J TightSCF
|  2> *xyz 0 1
|  3> C          0.64866        1.00359       -3.64560
|  4> C          0.28128        0.67645       -2.24018
|  5> C          0.13297        2.38587       -4.02462
|  6> H          0.39079       -0.31925       -2.02649
|  7> H         -0.69269        0.99010       -2.13812
|  8> H          0.85421        1.21221       -1.57528
|  9> H          0.19099        0.23965       -4.27575
| 10> H          1.73157        0.93173       -3.75075
| 11> H          0.40589        2.60338       -5.03610
| 12> H          0.56342        3.11797       -3.37374
| 13> H         -0.93265        2.40724       -3.93025
| 14> *
| 15> %MaxCore 64000
| 16>
| 17> %pal nprocs 4
| 18> end
| 19>
| 20> %scf
| 21>   MaxIter 150
| 22> end
| 23>
| 24>
| 25>                          ****END OF INPUT****

CARTESIAN COORDINATES (ANGSTROEM)
---------------------------------
  C      0.648660    1.003590   -3.645600
  C      0.281280    0.676450   -2.240180
  C      0.132970    2.385870   -4.024620
  H      0.390790   -0.319250   -2.026490
  H     -0.692690    0.990100   -2.138120
  H      0.854210    1.212210   -1.575280
  H      0.190990    0.239650   -4.275750
  H      1.731570    0.931730   -3.750750
  H      0.405890    2.603380   -5.036100
  H      0.563420    3.117970   -3.373740
  H     -0.932650    2.407240   -3.930250

 Total Charge           Charge          ....    0
 Multiplicity           Mult            ....    1
 Number of Electrons    NEL             ....   26
 Basis Dimension        Dim             ....  124

ORBITAL ENERGIES
----------------

  NO   OCC          E(Eh)            E(eV)
   0   2.0000     -10.072138      -274.0768
   1   2.0000     -10.064420      -273.8668
   2   2.0000     -10.047245      -273.3994
   3   2.0000      -0.897825       -24.4311
   4   2.0000      -0.791603       -21.5406
   5   2.0000      -0.688588       -18.7374
   6   2.0000      -0.576591       -15.6898
   7   2.0000      -0.556278       -15.1371
   8   2.0000      -0.505286       -13.7495
   9   2.0000      -0.487571       -13.2675
  10   2.0000      -0.437959       -11.9175
  11   2.0000      -0.433948       -11.8083
  12   2.0000      -0.423827       -11.5329
  13   0.0000       0.079288         2.1575
  14   0.0000       0.105248         2.8639
  15   0.0000       0.112553         3.0627
  16   0.0000       0.143758         3.9118
  17   0.0000       0.161735         4.4010

MULLIKEN ATOMIC CHARGES
-----------------------
   0 C :   -0.386986
   1 C :    1.187390
   2 C :    0.826461
   3 H :   -0.338538
   4 H :   -0.254978
   5 H :   -0.246463
   6 H :   -0.156374
   7 H :   -0.207574
   8 H :   -0.198859
   9 H :   -0.115314
  10 H :   -0.108765
Sum of atomic charges:   -0.0000000

LOEWDIN ATOMIC CHARGES
----------------------
   0 C :   -0.132081
   1 C :    0.103541
   2 C :    0.103476
   3 H :   -0.029237
   4 H :   -0.030759
   5 H :   -0.024682
   6 H :    0.026098
   7 H :    0.024939
   8 H :   -0.017621
   9 H :   -0.010212
  10 H :   -0.013462

  Mayer bond orders larger than 0.100000
B(  0-C ,  1-C ) :   1.2644 B(  0-C ,  2-C ) :   1.2667 B(  0-C ,  3-H ) :   0.2288
B(  0-C ,  4-H ) :   0.2666 B(  0-C ,  5-H ) :   0.2557 B(  0-C ,  6-H ) :   0.8864
B(  0-C ,  7-H ) :   0.9269 B(  0-C ,  8-H ) :   0.2090 B(  0-C ,  9-H ) :   0.1926
B(  0-C , 10-H ) :   0.1795 B(  1-C ,  3-H ) :   0.6436 B(  1-C ,  4-H ) :   0.6386
B(  1-C ,  5-H ) :   0.6163 B(  1-C ,  7-H ) :   0.1105 B(  2-C ,  8-H ) :   0.7829
B(  2-C ,  9-H ) :   0.7798 B(  2-C , 10-H ) :   0.7970 B(  4-H ,  5-H ) :   0.1228

FINAL SINGLE POINT ENERGY      -118.652073235596

DIPOLE MOMENT
-------------
                                X             Y             Z
Electronic contribution:      0.26167      -0.28129      -0.24821
Nuclear contribution   :     -0.24754       0.26111       0.24628
                        -----------------------------------------
Total Dipole Moment    :      0.01414      -0.02018      -0.00193
                        -----------------------------------------
Magnitude (a.u.)       :      0.02471
Magnitude (Debye)      :      0.06281

Rotational constants in cm-1:     1.006509     0.299509     0.263145
Rotational constants in MHz : 30174.379724  8979.049324  7888.875355

                             ****ORCA TERMINATED NORMALLY****
TOTAL RUN TIME: 0 days 0 hours 0 minutes 13 seconds 122 msec
