                         Program Version 5.0.0 -  RELEASE  -
|  1> !LC-BLYP RIJCOSX def2-SVPD def2/J TightSCF
|  2> *xyz 0 1
|  3> C          0.13297        2.38587       -4.02462
|  4> C         -1.36646        2.47911       -4.31393
|  5> C         -2.35773        2.30686       -3.13675
|  6> H         -1.63680        1.72709       -5.06399
|  7> H         -1.58235        3.44561       -4.76869
|  8> O         -3.44376        2.84652       -3.25274
|  9> F         -1.97092        1.58304       -2.15123
| 10> H          0.68084        2.52514       -4.93310
| 11> H          0.35823        1.42282       -3.61633
| 12> H          0.40851        3.14443       -3.32208
| 13> *
| 14> %MaxCore 64000
| 15>
| 16> %pal nprocs 4
| 17> end
| 18>
| 19> %scf
| 20>   MaxIter 150
| 21> end
| 22>
| 23>
| 24>                          ****END OF INPUT****

CARTESIAN COORDINATES (ANGSTROEM)
---------------------------------
  C      0.132970    2.385870   -4.024620
  C     -1.366460    2.479110   -4.313930
  C     -2.357730    2.306860   -3.136750
  H     -1.636800    1.727090   -5.063990
  H     -1.582350    3.445610   -4.768690
  O     -3.443760    2.846520   -3.252740
  F     -1.970920    1.583040   -2.151230
  H      0.680840    2.525140   -4.933100
  H      0.358230    1.422820   -3.616330
  H      0.408510    3.144430   -3.322080

 Total Charge           Charge          ....    0
 Multiplicity           Mult            ....    1
 Number of Electrons    NEL             ....   40
 Basis Dimension        Dim             ....  146

ORBITAL ENERGIES
----------------

  NO   OCC          E(Eh)            E(eV)
   0   2.0000     -24.540323      -667.7761
   1   2.0000     -18.974905      -516.3334
   2   2.0000     -10.270837      -279.4837
   3   2.0000     -10.120130      -275.3827
   4   2.0000     -10.093350      -274.6540
   5   2.0000      -1.370843       -37.3025
   6   2.0000      -1.144132       -31.1334
   7   2.0000      -0.906084       -24.6558
   8   2.0000      -0.785237       -21.3674
   9   2.0000      -0.744054       -20.2467
  10   2.0000      -0.653642       -17.7865
  11   2.0000      -0.646093       -17.5811
  12   2.0000      -0.600018       -16.3273
  13   2.0000      -0.573734       -15.6121
  14   2.0000      -0.538219       -14.6457
  15   2.0000      -0.512956       -13.9582
  16   2.0000      -0.496374       -13.5070
  17   2.0000      -0.477329       -12.9888
  18   2.0000      -0.457969       -12.4620
  19   2.0000      -0.402048       -10.9403
  20   0.0000       0.050821         1.3829
  21   0.0000       0.064731         1.7614
  22   0.0000       0.096396         2.6231
  23   0.0000       0.104445         2.8421
  24   0.0000       0.126117         3.4318

MULLIKEN ATOMIC CHARGES
-----------------------
   0 C :    0.925635
   1 C :   -0.287561
   2 C :    0.455726
   3 H :   -0.032732
   4 H :   -0.069694
   5 O :   -0.282829
   6 F :   -0.322457
   7 H :   -0.133934
   8 H :   -0.125898
   9 H :   -0.126256
Sum of atomic charges:   -0.0000000

LOEWDIN ATOMIC CHARGES
----------------------
   0 C :    0.116076
   1 C :   -0.000644
   2 C :   -0.049816
   3 H :    0.045763
   4 H :    0.036298
   5 O :   -0.093048
   6 F :   -0.026770
   7 H :   -0.009066
   8 H :   -0.011634
   9 H :   -0.007160

  Mayer bond orders larger than 0.100000
B(  0-C ,  1-C ) :   1.3264 B(  0-C ,  4-H ) :   0.1013 B(  0-C ,  7-H ) :   0.7005
B(  0-C ,  8-H ) :   0.7598 B(  0-C ,  9-H ) :   0.7662 B(  1-C ,  2-C ) :   1.0523
B(  1-C ,  3-H ) :   0.8693 B(  1-C ,  4-H ) :   0.9174 B(  1-C ,  7-H ) :   0.2777
B(  1-C ,  8-H ) :   0.2127 B(  1-C ,  9-H ) :   0.2118 B(  2-C ,  4-H ) :   0.1341
B(  2-C ,  5-O ) :   2.0087 B(  2-C ,  6-F ) :   0.8475 B(  5-O ,  6-F ) :   0.1179

FINAL SINGLE POINT ENERGY      -291.584917638963

DIPOLE MOMENT
-------------
                                X             Y             Z
Electronic contribution:     -5.87380      -1.62611       5.36984
Nuclear contribution   :      6.94213       1.43193      -5.86732
                        -----------------------------------------
Total Dipole Moment    :      1.06833      -0.19419      -0.49748
                        -----------------------------------------
Magnitude (a.u.)       :      1.19437
Magnitude (Debye)      :      3.03584

Rotational constants in cm-1:     0.306336     0.129048     0.095707
Rotational constants in MHz :  9183.725605  3868.769583  2869.236577

                             ****ORCA TERMINATED NORMALLY****
TOTAL RUN TIME: 0 days 0 hours 0 minutes 19 seconds 197 msec
