                         Program Version 5.0.0 -  RELEASE  -
|  1> !CAM-B3LYP RIJCOSX def2-SVPD def2/J TightSCF
|  2> *xyz -1 1
|  3> C          1.87218        0.42790       -2.07750
|  4> S          0.57902        0.14047       -3.29794
|  5> O          0.22886       -1.24687       -3.12787
|  6> O         -0.43927        1.11897       -3.01455
|  7> O          1.24788        0.40347       -4.59565
|  8> H          2.66832       -0.27048       -2.23022
|  9> H          1.46951        0.30034       -1.09440
| 10> H          2.24690        1.42458       -2.18288
| 11> *
| 12>
| 13> %MaxCore 64000
| 14>
| 15> %pal nprocs 8
| 16> end
| 17>
| 18> %scf
| 19>   MaxIter 150
| 20> end
| 21>
| 22>
| 23>                          ****END OF INPUT****

CARTESIAN COORDINATES (ANGSTROEM)
---------------------------------
  C      1.872180    0.427900   -2.077500
  S      0.579020    0.140470   -3.297940
  O      0.228860   -1.246870   -3.127870
  O     -0.439270    1.118970   -3.014550
  O      1.247880    0.403470   -4.595650
  H      2.668320   -0.270480   -2.230220
  H      1.469510    0.300340   -1.094400
  H      2.246900    1.424580   -2.182880

 Total Charge           Charge          ....   -1
 Multiplicity           Mult            ....    1
 Number of Electrons    NEL             ....   50
 Basis Dimension        Dim             ....  140

ORBITAL ENERGIES
----------------

  NO   OCC          E(Eh)            E(eV)
   0   2.0000     -88.963820     -2420.8286
   1   2.0000     -18.996117      -516.9106
   2   2.0000     -18.996023      -516.9081
   3   2.0000     -18.981952      -516.5252
   4   2.0000     -10.110185      -275.1121
   5   2.0000      -8.016831      -218.1491
   6   2.0000      -5.986721      -162.9070
   7   2.0000      -5.986612      -162.9040
   8   2.0000      -5.986369      -162.8974
   9   2.0000      -1.018761       -27.7219
  10   2.0000      -0.877576       -23.8801
  11   2.0000      -0.850323       -23.1385
  12   2.0000      -0.659488       -17.9456
  13   2.0000      -0.461175       -12.5492
  14   2.0000      -0.378302       -10.2941
  15   2.0000      -0.361284        -9.8310
  16   2.0000      -0.360256        -9.8031
  17   2.0000      -0.320498        -8.7212
  18   2.0000      -0.317874        -8.6498
  19   2.0000      -0.223986        -6.0950
  20   2.0000      -0.222361        -6.0508
  21   2.0000      -0.185988        -5.0610
  22   2.0000      -0.177023        -4.8171
  23   2.0000      -0.168017        -4.5720
  24   2.0000      -0.132764        -3.6127
  25   0.0000       0.177558         4.8316
  26   0.0000       0.206877         5.6294
  27   0.0000       0.207104         5.6356
  28   0.0000       0.210819         5.7367
  29   0.0000       0.239761         6.5242

MULLIKEN ATOMIC CHARGES
-----------------------
   0 C :    0.683784
   1 S :    1.094024
   2 O :   -0.760421
   3 O :   -0.757207
   4 O :   -0.805121
   5 H :   -0.148456
   6 H :   -0.154846
   7 H :   -0.151757
Sum of atomic charges:   -1.0000000

LOEWDIN ATOMIC CHARGES
----------------------
   0 C :    0.055707
   1 S :    0.833296
   2 O :   -0.583724
   3 O :   -0.582712
   4 O :   -0.606324
   5 H :   -0.037914
   6 H :   -0.040034
   7 H :   -0.038295

  Mayer bond orders larger than 0.100000
B(  0-C ,  1-S ) :   0.9344 B(  0-C ,  5-H ) :   0.8874 B(  0-C ,  6-H ) :   0.8853
B(  0-C ,  7-H ) :   0.8878 B(  1-S ,  2-O ) :   1.3450 B(  1-S ,  3-O ) :   1.3457
B(  1-S ,  4-O ) :   1.3056 B(  1-S ,  5-H ) :   0.1281 B(  1-S ,  6-H ) :   0.1188
B(  1-S ,  7-H ) :   0.1288

FINAL SINGLE POINT ENERGY      -663.407539426583

DIPOLE MOMENT
-------------
                                X             Y             Z
Electronic contribution:     -3.16144      -0.71326      -2.79491
Nuclear contribution   :      4.08143       0.90272       3.93680
                        -----------------------------------------
Total Dipole Moment    :      0.91998       0.18945       1.14190
                        -----------------------------------------
Magnitude (a.u.)       :      1.47857
Magnitude (Debye)      :      3.75824

Rotational constants in cm-1:     0.171796     0.158241     0.155560
Rotational constants in MHz :  5150.307583  4743.954688  4663.569252

                             ****ORCA TERMINATED NORMALLY****
TOTAL RUN TIME: 0 days 0 hours 0 minutes 11 seconds 97 msec
