                         Program Version 5.0.0 -  RELEASE  -
|  1> !CAM-B3LYP RIJCOSX def2-SVPD def2/J TightSCF
|  2> *xyz 1 1
|  3> C          3.38093        2.08304       -3.35013
|  4> N          4.53592        1.18245       -3.42852
|  5> C          4.67196        0.12227       -4.22060
|  6> N          5.86602       -0.50785       -4.22428
|  7> N          3.69888       -0.31284       -4.98699
|  8> H          2.73141       -0.05009       -4.84900
|  9> H          3.89005       -1.05517       -5.64373
| 10> H          5.25193        1.30346       -2.72101
| 11> H          6.69516       -0.06232       -3.85160
| 12> H          5.97538       -1.39688       -4.69141
| 13> H          2.69962        1.85926       -4.14426
| 14> H          3.71221        3.09654       -3.43937
| 15> H          2.88835        1.95032       -2.40957
| 16> *
| 17>
| 18> %MaxCore 64000
| 19>
| 20> %pal nprocs 8
| 21> end
| 22>
| 23> %scf
| 24>   MaxIter 150
| 25> end
| 26>
| 27>
| 28>                          ****END OF INPUT****

CARTESIAN COORDINATES (ANGSTROEM)
---------------------------------
  C      3.380930    2.083040   -3.350130
  N      4.535920    1.182450   -3.428520
  C      4.671960    0.122270   -4.220600
  N      5.866020   -0.507850   -4.224280
  N      3.698880   -0.312840   -4.986990
  H      2.731410   -0.050090   -4.849000
  H      3.890050   -1.055170   -5.643730
  H      5.251930    1.303460   -2.721010
  H      6.695160   -0.062320   -3.851600
  H      5.975380   -1.396880   -4.691410
  H      2.699620    1.859260   -4.144260
  H      3.712210    3.096540   -3.439370
  H      2.888350    1.950320   -2.409570

 Total Charge           Charge          ....    1
 Multiplicity           Mult            ....    1
 Number of Electrons    NEL             ....   40
 Basis Dimension        Dim             ....  164

ORBITAL ENERGIES
----------------

  NO   OCC          E(Eh)            E(eV)
   0   2.0000     -14.636431      -398.2775
   1   2.0000     -14.634365      -398.2213
   2   2.0000     -14.628069      -398.0500
   3   2.0000     -10.604600      -288.5658
   4   2.0000     -10.465162      -284.7715
   5   2.0000      -1.295384       -35.2492
   6   2.0000      -1.182955       -32.1899
   7   2.0000      -1.167092       -31.7582
   8   2.0000      -0.982768       -26.7425
   9   2.0000      -0.906095       -24.6561
  10   2.0000      -0.865533       -23.5523
  11   2.0000      -0.827553       -22.5189
  12   2.0000      -0.772151       -21.0113
  13   2.0000      -0.768584       -20.9142
  14   2.0000      -0.723511       -19.6877
  15   2.0000      -0.706872       -19.2350
  16   2.0000      -0.663042       -18.0423
  17   2.0000      -0.651217       -17.7205
  18   2.0000      -0.548790       -14.9333
  19   2.0000      -0.519911       -14.1475
  20   0.0000      -0.125659        -3.4194
  21   0.0000      -0.121518        -3.3067
  22   0.0000      -0.086926        -2.3654
  23   0.0000      -0.080750        -2.1973
  24   0.0000      -0.055645        -1.5142

MULLIKEN ATOMIC CHARGES
-----------------------
   0 C :    1.352087
   1 N :   -0.521254
   2 C :    1.224082
   3 N :    0.032747
   4 N :    0.100510
   5 H :   -0.091841
   6 H :   -0.092810
   7 H :   -0.261230
   8 H :   -0.100308
   9 H :   -0.058675
  10 H :   -0.250610
  11 H :   -0.164763
  12 H :   -0.167937
Sum of atomic charges:    1.0000000

LOEWDIN ATOMIC CHARGES
----------------------
   0 C :    0.267830
   1 N :    0.020469
   2 C :   -0.037670
   3 N :    0.260966
   4 N :    0.278456
   5 H :    0.031830
   6 H :    0.043023
   7 H :    0.059105
   8 H :    0.036356
   9 H :    0.033266
  10 H :   -0.014067
  11 H :    0.010839
  12 H :    0.009596

  Mayer bond orders larger than 0.100000
B(  0-C ,  1-N ) :   0.9373 B(  0-C ,  7-H ) :  -0.1710 B(  0-C , 10-H ) :   0.8022
B(  0-C , 11-H ) :   0.7501 B(  0-C , 12-H ) :   0.7686 B(  1-N ,  2-C ) :   1.0559
B(  1-N ,  3-N ) :   0.2325 B(  1-N ,  4-N ) :   0.2329 B(  1-N ,  7-H ) :   1.3216
B(  1-N , 10-H ) :   0.1963 B(  1-N , 11-H ) :   0.1935 B(  1-N , 12-H ) :   0.1683
B(  2-C ,  3-N ) :   0.8693 B(  2-C ,  4-N ) :   1.0354 B(  2-C ,  5-H ) :  -0.1591
B(  2-C ,  6-H ) :  -0.1425 B(  2-C ,  7-H ) :  -0.2351 B(  2-C ,  8-H ) :  -0.1745
B(  2-C ,  9-H ) :  -0.1082 B(  3-N ,  4-N ) :   0.1678 B(  3-N ,  8-H ) :   1.2179
B(  3-N ,  9-H ) :   1.1814 B(  4-N ,  5-H ) :   1.1870 B(  4-N ,  6-H ) :   1.2035
B(  5-H ,  6-H ) :  -0.1887 B(  8-H ,  9-H ) :  -0.1727

FINAL SINGLE POINT ENERGY      -244.800455673672

DIPOLE MOMENT
-------------
                                X             Y             Z
Electronic contribution:      1.69004      -1.98048      -0.72542
Nuclear contribution   :     -1.49827       1.51766       0.59175
                        -----------------------------------------
Total Dipole Moment    :      0.19176      -0.46281      -0.13367
                        -----------------------------------------
Magnitude (a.u.)       :      0.51850
Magnitude (Debye)      :      1.31791

Rotational constants in cm-1:     0.316446     0.130424     0.094259
Rotational constants in MHz :  9486.821695  3910.013387  2825.801764

                             ****ORCA TERMINATED NORMALLY****
TOTAL RUN TIME: 0 days 0 hours 0 minutes 13 seconds 527 msec
