                         Program Version 5.0.0 -  RELEASE  -
|  1> !CAM-B3LYP RIJCOSX def2-SVPD def2/J TightSCF xyzfile
|  2>
|  3> *xyzfile 0 1 B.xyz
|  4>
|  5> %MaxCore 64000
|  6>
|  7> %pal nprocs 4
|  8> end
|  9>
| 10> %scf
| 11>   MaxIter 150
| 12> end
| 13>
| 14>
| 15>                          ****END OF INPUT****

CARTESIAN COORDINATES (ANGSTROEM)
---------------------------------
  C      3.380928    2.083045   -3.350127
  N      4.535924    1.182447   -3.428518
  C      2.495557    1.816150   -2.136364
  C      1.872181    0.427903   -2.077497
  H      2.614270   -0.365825   -2.198894
  H      1.389953    0.273087   -1.112360
  S      0.579024    0.140472   -3.297943
  C      4.671956    0.122273   -4.220598
  N      5.866023   -0.507849   -4.224284
  N      3.698881   -0.312844   -4.986988
  H      2.731405   -0.050091   -4.849000
  H      3.890046   -1.055172   -5.643730
  H      5.251933    1.303459   -2.721014
  H      6.695165   -0.062322   -3.851596
  H      5.975383   -1.396884   -4.691414
  O      0.228860   -1.246868   -3.127871
  O     -0.439269    1.118966   -3.014550
  O      1.247881    0.403474   -4.595647
  H      1.697003    2.561969   -2.141109
  H      3.080787    1.987436   -1.225838
  H      2.806463    1.986511   -4.268484
  H      3.778714    3.098282   -3.307383

 Total Charge           Charge          ....    0
 Multiplicity           Mult            ....    1
 Number of Electrons    NEL             ....   96
 Basis Dimension        Dim             ....  324

ORBITAL ENERGIES
----------------

  NO   OCC          E(Eh)            E(eV)
   0   2.0000     -89.109773     -2424.8002
   1   2.0000     -19.148968      -521.0699
   2   2.0000     -19.133836      -520.6581
   3   2.0000     -19.133611      -520.6520
   4   2.0000     -14.502773      -394.6405
   5   2.0000     -14.496382      -394.4666
   6   2.0000     -14.466338      -393.6491
   7   2.0000     -10.462348      -284.6950
   8   2.0000     -10.324638      -280.9477
   9   2.0000     -10.276429      -279.6358
  10   2.0000     -10.263314      -279.2790
  11   2.0000      -8.162172      -222.1040
  12   2.0000      -6.132769      -166.8811
  13   2.0000      -6.131622      -166.8499
  14   2.0000      -6.131397      -166.8438
  15   2.0000      -1.166381       -31.7388
  16   2.0000      -1.155010       -31.4294
  17   2.0000      -1.044652       -28.4264
  18   2.0000      -1.029608       -28.0171
  19   2.0000      -1.014945       -27.6181
  20   2.0000      -1.011334       -27.5198
  21   2.0000      -0.889841       -24.2138
  22   2.0000      -0.817846       -22.2547
  23   2.0000      -0.762029       -20.7359
  24   2.0000      -0.728055       -19.8114
  25   2.0000      -0.718231       -19.5441
  26   2.0000      -0.680683       -18.5223
  27   2.0000      -0.640282       -17.4230
  28   2.0000      -0.624901       -17.0044
  29   2.0000      -0.605061       -16.4645
  30   2.0000      -0.584525       -15.9057
  31   2.0000      -0.561297       -15.2737
  32   2.0000      -0.547734       -14.9046
  33   2.0000      -0.525819       -14.3083
  34   2.0000      -0.512008       -13.9324
  35   2.0000      -0.494472       -13.4553
  36   2.0000      -0.474242       -12.9048
  37   2.0000      -0.451515       -12.2864
  38   2.0000      -0.445714       -12.1285
  39   2.0000      -0.432964       -11.7816
  40   2.0000      -0.408259       -11.1093
  41   2.0000      -0.378982       -10.3126
  42   2.0000      -0.372821       -10.1450
  43   2.0000      -0.365510        -9.9460
  44   2.0000      -0.332686        -9.0529
  45   2.0000      -0.323038        -8.7903
  46   2.0000      -0.312839        -8.5128
  47   2.0000      -0.283388        -7.7114
  48   0.0000      -0.009186        -0.2500
  49   0.0000       0.009476         0.2579
  50   0.0000       0.026064         0.7092
  51   0.0000       0.044671         1.2156
  52   0.0000       0.064492         1.7549

MULLIKEN ATOMIC CHARGES
-----------------------
   0 C :    1.057208
   1 N :   -0.453516
   2 C :    0.326704
   3 C :    0.273267
   4 H :   -0.013663
   5 H :   -0.248393
   6 S :    1.435407
   7 C :    1.187175
   8 N :    0.057629
   9 N :    0.507609
  10 H :   -0.383987
  11 H :   -0.182672
  12 H :   -0.242814
  13 H :   -0.138757
  14 H :   -0.074406
  15 O :   -0.761183
  16 O :   -0.799153
  17 O :   -0.921767
  18 H :   -0.049909
  19 H :   -0.130468
  20 H :   -0.068869
  21 H :   -0.375442
Sum of atomic charges:    0.0000000

LOEWDIN ATOMIC CHARGES
----------------------
   0 C :    0.087085
   1 N :    0.043610
   2 C :   -0.017078
   3 C :   -0.073011
   4 H :    0.002170
   5 H :    0.020283
   6 S :    0.931007
   7 C :   -0.044183
   8 N :    0.237298
   9 N :    0.313799
  10 H :   -0.134003
  11 H :    0.037722
  12 H :    0.047882
  13 H :    0.017382
  14 H :    0.019125
  15 O :   -0.529874
  16 O :   -0.521890
  17 O :   -0.537503
  18 H :    0.036832
  19 H :    0.022025
  20 H :    0.010836
  21 H :    0.030487

  Mayer bond orders larger than 0.100000
B(  0-C ,  1-N ) :   0.9162 B(  0-C ,  2-C ) :   1.0874 B(  0-C , 12-H ) :  -0.1893
B(  0-C , 18-H ) :   0.1490 B(  0-C , 19-H ) :   0.1473 B(  0-C , 20-H ) :   0.7044
B(  0-C , 21-H ) :   0.7729 B(  1-N ,  7-C ) :   0.9827 B(  1-N ,  8-N ) :   0.2427
B(  1-N ,  9-N ) :   0.1717 B(  1-N , 12-H ) :   1.3209 B(  1-N , 20-H ) :   0.2139
B(  1-N , 21-H ) :   0.1558 B(  2-C ,  3-C ) :   1.2088 B(  2-C ,  4-H ) :   0.1489
B(  2-C ,  5-H ) :   0.1816 B(  2-C , 18-H ) :   0.8118 B(  2-C , 19-H ) :   0.7309
B(  2-C , 20-H ) :   0.1636 B(  3-C ,  4-H ) :   0.9179 B(  3-C ,  5-H ) :   0.7829
B(  3-C ,  6-S ) :   0.8947 B(  3-C , 17-O ) :   0.1642 B(  3-C , 18-H ) :   0.1690
B(  3-C , 19-H ) :   0.1447 B(  5-H ,  6-S ) :   0.1180 B(  6-S , 15-O ) :   1.3455
B(  6-S , 16-O ) :   1.3491 B(  6-S , 17-O ) :   1.0987 B(  7-C ,  8-N ) :   0.8589
B(  7-C ,  9-N ) :   1.1258 B(  7-C , 10-H ) :  -0.2648 B(  7-C , 11-H ) :  -0.1735
B(  7-C , 12-H ) :  -0.2516 B(  7-C , 13-H ) :  -0.1749 B(  7-C , 14-H ) :  -0.1014
B(  8-N ,  9-N ) :   0.1530 B(  8-N , 13-H ) :   1.2367 B(  8-N , 14-H ) :   1.1925
B(  9-N , 10-H ) :   1.1382 B(  9-N , 11-H ) :   1.2020 B( 10-H , 11-H ) :  -0.2502
B( 10-H , 17-O ) :   0.2404 B( 13-H , 14-H ) :  -0.1816 B( 17-O , 20-H ) :   0.1086
B( 20-H , 21-H ) :  -0.1566

FINAL SINGLE POINT ENERGY      -946.426191832881

DIPOLE MOMENT
-------------
                                X             Y             Z
Electronic contribution:     -6.96424      -3.17121      -2.39884
Nuclear contribution   :     13.40759       3.44219       2.21042
                        -----------------------------------------
Total Dipole Moment    :      6.44336       0.27098      -0.18842
                        -----------------------------------------
Magnitude (a.u.)       :      6.45180
Magnitude (Debye)      :     16.39918

Rotational constants in cm-1:     0.059860     0.020817     0.017914
Rotational constants in MHz :  1794.564877   624.092098   537.039275

                             ****ORCA TERMINATED NORMALLY****
TOTAL RUN TIME: 0 days 0 hours 1 minutes 59 seconds 290 msec
