                         Program Version 5.0.0 -  RELEASE  -
|  1> !CAM-B3LYP RIJCOSX def2-SVPD def2/J TightSCF
|  2> *xyz 0 1
|  3> C          1.87218        0.42790       -2.07750
|  4> S          0.57902        0.14047       -3.29794
|  5> F          0.22886       -1.24687       -3.12787
|  6> O         -0.43927        1.11897       -3.01455
|  7> O          1.24788        0.40347       -4.59565
|  8> H          2.66832       -0.27048       -2.23022
|  9> H          1.46951        0.30034       -1.09440
| 10> H          2.24690        1.42458       -2.18288
| 11> *
| 12>
| 13> %MaxCore 64000
| 14>
| 15> %pal nprocs 8
| 16> end
| 17>
| 18> %scf
| 19>   MaxIter 150
| 20> end
| 21>
| 22>
| 23>                          ****END OF INPUT****

CARTESIAN COORDINATES (ANGSTROEM)
---------------------------------
  C      1.872180    0.427900   -2.077500
  S      0.579020    0.140470   -3.297940
  F      0.228860   -1.246870   -3.127870
  O     -0.439270    1.118970   -3.014550
  O      1.247880    0.403470   -4.595650
  H      2.668320   -0.270480   -2.230220
  H      1.469510    0.300340   -1.094400
  H      2.246900    1.424580   -2.182880

 Total Charge           Charge          ....    0
 Multiplicity           Mult            ....    1
 Number of Electrons    NEL             ....   50
 Basis Dimension        Dim             ....  140

ORBITAL ENERGIES
----------------

  NO   OCC          E(Eh)            E(eV)
   0   2.0000     -89.230160     -2428.0761
   1   2.0000     -24.901878      -677.6145
   2   2.0000     -19.235785      -523.4323
   3   2.0000     -19.221194      -523.0353
   4   2.0000     -10.320875      -280.8453
   5   2.0000      -8.283842      -225.4148
   6   2.0000      -6.257986      -170.2884
   7   2.0000      -6.251330      -170.1073
   8   2.0000      -6.250291      -170.0791
   9   2.0000      -1.470747       -40.0211
  10   2.0000      -1.200564       -32.6690
  11   2.0000      -1.091216       -29.6935
  12   2.0000      -0.884840       -24.0777
  13   2.0000      -0.803989       -21.8777
  14   2.0000      -0.689278       -18.7562
  15   2.0000      -0.675206       -18.3733
  16   2.0000      -0.635522       -17.2934
  17   2.0000      -0.555594       -15.1185
  18   2.0000      -0.552667       -15.0388
  19   2.0000      -0.539686       -14.6856
  20   2.0000      -0.513496       -13.9729
  21   2.0000      -0.464458       -12.6385
  22   2.0000      -0.412217       -11.2170
  23   2.0000      -0.398338       -10.8393
  24   2.0000      -0.380569       -10.3558
  25   0.0000       0.019256         0.5240
  26   0.0000       0.057337         1.5602
  27   0.0000       0.066839         1.8188
  28   0.0000       0.067300         1.8313
  29   0.0000       0.078624         2.1395

MULLIKEN ATOMIC CHARGES
-----------------------
   0 C :    0.649537
   1 S :    1.247608
   2 F :   -0.371298
   3 O :   -0.609517
   4 O :   -0.654154
   5 H :   -0.083820
   6 H :   -0.086114
   7 H :   -0.092242
Sum of atomic charges:    0.0000000

LOEWDIN ATOMIC CHARGES
----------------------
   0 C :    0.124523
   1 S :    1.104307
   2 F :   -0.254924
   3 O :   -0.463958
   4 O :   -0.485935
   5 H :   -0.012076
   6 H :   -0.013277
   7 H :    0.001338

  Mayer bond orders larger than 0.100000
B(  0-C ,  1-S ) :   0.9896 B(  0-C ,  5-H ) :   0.8894 B(  0-C ,  6-H ) :   0.8883
B(  0-C ,  7-H ) :   0.8883 B(  1-S ,  2-F ) :   0.7242 B(  1-S ,  3-O ) :   1.5552
B(  1-S ,  4-O ) :   1.5155 B(  1-S ,  5-H ) :   0.1007 B(  1-S ,  7-H ) :   0.1286

FINAL SINGLE POINT ENERGY      -687.889868945721

DIPOLE MOMENT
-------------
                                X             Y             Z
Electronic contribution:     -3.75968      -3.03939      -2.47648
Nuclear contribution   :      4.52607       2.31146       3.82544
                        -----------------------------------------
Total Dipole Moment    :      0.76639      -0.72794       1.34897
                        -----------------------------------------
Magnitude (a.u.)       :      1.71375
Magnitude (Debye)      :      4.35602

Rotational constants in cm-1:     0.162724     0.156586     0.147157
Rotational constants in MHz :  4878.333818  4694.318771  4411.658495

                             ****ORCA TERMINATED NORMALLY****
TOTAL RUN TIME: 0 days 0 hours 0 minutes 10 seconds 8 msec
