                         Program Version 5.0.0 -  RELEASE  -
|  1> !CAM-B3LYP RIJCOSX def2-SVPD def2/J TightSCF
|  2> *xyz 0 1
|  3> C          3.38093        2.08304       -3.35013
|  4> C          4.53592        1.18245       -3.42852
|  5> C          4.67196        0.12227       -4.22060
|  6> N          5.86602       -0.50785       -4.22428
|  7> N          3.69888       -0.31284       -4.98699
|  8> H          2.73141       -0.05009       -4.84900
|  9> H          3.89005       -1.05517       -5.64373
| 10> H          5.25193        1.30346       -2.72101
| 11> H          6.69516       -0.06232       -3.85160
| 12> H          5.97538       -1.39688       -4.69141
| 13> H          2.69962        1.85926       -4.14426
| 14> H          3.71221        3.09654       -3.43937
| 15> H          2.88835        1.95032       -2.40957
| 16> *
| 17>
| 18> %MaxCore 64000
| 19>
| 20> %pal nprocs 8
| 21> end
| 22>
| 23> %scf
| 24>   MaxIter 150
| 25> end
| 26>
| 27>
| 28>                          ****END OF INPUT****

CARTESIAN COORDINATES (ANGSTROEM)
---------------------------------
  C      3.380930    2.083040   -3.350130
  C      4.535920    1.182450   -3.428520
  C      4.671960    0.122270   -4.220600
  N      5.866020   -0.507850   -4.224280
  N      3.698880   -0.312840   -4.986990
  H      2.731410   -0.050090   -4.849000
  H      3.890050   -1.055170   -5.643730
  H      5.251930    1.303460   -2.721010
  H      6.695160   -0.062320   -3.851600
  H      5.975380   -1.396880   -4.691410
  H      2.699620    1.859260   -4.144260
  H      3.712210    3.096540   -3.439370
  H      2.888350    1.950320   -2.409570

 Total Charge           Charge          ....    0
 Multiplicity           Mult            ....    1
 Number of Electrons    NEL             ....   40
 Basis Dimension        Dim             ....  164

ORBITAL ENERGIES
----------------

  NO   OCC          E(Eh)            E(eV)
   0   2.0000     -14.406825      -392.0296
   1   2.0000     -14.399141      -391.8206
   2   2.0000     -10.301673      -280.3228
   3   2.0000     -10.222407      -278.1658
   4   2.0000     -10.180833      -277.0346
   5   2.0000      -1.035017       -28.1642
   6   2.0000      -0.940136       -25.5824
   7   2.0000      -0.824003       -22.4222
   8   2.0000      -0.730094       -19.8669
   9   2.0000      -0.658061       -17.9068
  10   2.0000      -0.614878       -16.7317
  11   2.0000      -0.575552       -15.6616
  12   2.0000      -0.548365       -14.9218
  13   2.0000      -0.496474       -13.5097
  14   2.0000      -0.473013       -12.8713
  15   2.0000      -0.441153       -12.0044
  16   2.0000      -0.427534       -11.6338
  17   2.0000      -0.404931       -11.0187
  18   2.0000      -0.329725        -8.9723
  19   2.0000      -0.213800        -5.8178
  20   0.0000       0.047666         1.2971
  21   0.0000       0.074711         2.0330
  22   0.0000       0.086195         2.3455
  23   0.0000       0.115545         3.1441
  24   0.0000       0.117933         3.2091

MULLIKEN ATOMIC CHARGES
-----------------------
   0 C :    1.133301
   1 C :   -0.673277
   2 C :    0.929109
   3 N :    0.111202
   4 N :    0.168844
   5 H :   -0.133258
   6 H :   -0.247508
   7 H :   -0.475652
   8 H :   -0.129462
   9 H :   -0.161898
  10 H :   -0.293309
  11 H :   -0.095979
  12 H :   -0.132113
Sum of atomic charges:    0.0000000

LOEWDIN ATOMIC CHARGES
----------------------
   0 C :    0.100527
   1 C :   -0.065934
   2 C :   -0.233033
   3 N :    0.177811
   4 N :    0.192259
   5 H :   -0.002249
   6 H :   -0.007838
   7 H :   -0.054437
   8 H :    0.000665
   9 H :   -0.018879
  10 H :   -0.042950
  11 H :   -0.023160
  12 H :   -0.022783

  Mayer bond orders larger than 0.100000
B(  0-C ,  1-C ) :   1.1071 B(  0-C ,  7-H ) :   0.1813 B(  0-C , 10-H ) :   0.7030
B(  0-C , 11-H ) :   0.6514 B(  0-C , 12-H ) :   0.6679 B(  1-C ,  2-C ) :   1.5734
B(  1-C ,  3-N ) :   0.4496 B(  1-C ,  4-N ) :   0.3049 B(  1-C ,  7-H ) :   0.9064
B(  1-C , 10-H ) :   0.4314 B(  1-C , 11-H ) :   0.2317 B(  1-C , 12-H ) :   0.2002
B(  2-C ,  3-N ) :   0.7990 B(  2-C ,  4-N ) :   1.0470 B(  2-C ,  6-H ) :  -0.1427
B(  2-C ,  7-H ) :   0.1402 B(  2-C ,  8-H ) :  -0.1413 B(  2-C , 10-H ) :  -0.1323
B(  3-N ,  4-N ) :   0.1074 B(  3-N ,  8-H ) :   1.2202 B(  3-N ,  9-H ) :   1.1456
B(  4-N ,  5-H ) :   1.1775 B(  4-N ,  6-H ) :   1.2664 B(  5-H ,  6-H ) :  -0.1810
B(  8-H ,  9-H ) :  -0.1649 B( 10-H , 11-H ) :   0.1567

FINAL SINGLE POINT ENERGY      -228.332966148105

DIPOLE MOMENT
-------------
                                X             Y             Z
Electronic contribution:      1.56606      -2.45668      -1.22072
Nuclear contribution   :     -1.47697       1.65537       0.71722
                        -----------------------------------------
Total Dipole Moment    :      0.08909      -0.80132      -0.50350
                        -----------------------------------------
Magnitude (a.u.)       :      0.95056
Magnitude (Debye)      :      2.41612

Rotational constants in cm-1:     0.321284     0.131400     0.095192
Rotational constants in MHz :  9631.850868  3939.260061  2853.789421

                             ****ORCA TERMINATED NORMALLY****
TOTAL RUN TIME: 0 days 0 hours 0 minutes 14 seconds 116 msec
