                         Program Version 5.0.0 -  RELEASE  -
|  1> !CAM-B3LYP RIJCOSX def2-SVPD def2/J TightSCF
|  2> *xyz 0 1
|  3> C          1.87218        0.42790       -2.07750
|  4> S          0.57902        0.14047       -3.29794
|  5> O          0.22886       -1.24687       -3.12787
|  6> F         -0.43927        1.11897       -3.01455
|  7> O          1.24788        0.40347       -4.59565
|  8> H          2.66832       -0.27048       -2.23022
|  9> H          1.46951        0.30034       -1.09440
| 10> H          2.24690        1.42458       -2.18288
| 11> *
| 12>
| 13> %MaxCore 64000
| 14>
| 15> %pal nprocs 8
| 16> end
| 17>
| 18> %scf
| 19>   MaxIter 150
| 20> end
| 21>
| 22>
| 23>                          ****END OF INPUT****

CARTESIAN COORDINATES (ANGSTROEM)
---------------------------------
  C      1.872180    0.427900   -2.077500
  S      0.579020    0.140470   -3.297940
  O      0.228860   -1.246870   -3.127870
  F     -0.439270    1.118970   -3.014550
  O      1.247880    0.403470   -4.595650
  H      2.668320   -0.270480   -2.230220
  H      1.469510    0.300340   -1.094400
  H      2.246900    1.424580   -2.182880

 Total Charge           Charge          ....    0
 Multiplicity           Mult            ....    1
 Number of Electrons    NEL             ....   50
 Basis Dimension        Dim             ....  140

ORBITAL ENERGIES
----------------

  NO   OCC          E(Eh)            E(eV)
   0   2.0000     -89.230292     -2428.0797
   1   2.0000     -24.902032      -677.6187
   2   2.0000     -19.235898      -523.4354
   3   2.0000     -19.221349      -523.0395
   4   2.0000     -10.320731      -280.8414
   5   2.0000      -8.283948      -225.4177
   6   2.0000      -6.258096      -170.2915
   7   2.0000      -6.251414      -170.1096
   8   2.0000      -6.250419      -170.0825
   9   2.0000      -1.471011       -40.0282
  10   2.0000      -1.200133       -32.6573
  11   2.0000      -1.092068       -29.7167
  12   2.0000      -0.884028       -24.0556
  13   2.0000      -0.804117       -21.8811
  14   2.0000      -0.689513       -18.7626
  15   2.0000      -0.675088       -18.3701
  16   2.0000      -0.635797       -17.3009
  17   2.0000      -0.554988       -15.1020
  18   2.0000      -0.552696       -15.0396
  19   2.0000      -0.540393       -14.7048
  20   2.0000      -0.513629       -13.9766
  21   2.0000      -0.463784       -12.6202
  22   2.0000      -0.411614       -11.2006
  23   2.0000      -0.398261       -10.8372
  24   2.0000      -0.381588       -10.3835
  25   0.0000       0.019237         0.5235
  26   0.0000       0.057412         1.5623
  27   0.0000       0.066922         1.8210
  28   0.0000       0.067149         1.8272
  29   0.0000       0.077736         2.1153

MULLIKEN ATOMIC CHARGES
-----------------------
   0 C :    0.649990
   1 S :    1.250083
   2 O :   -0.612688
   3 F :   -0.369326
   4 O :   -0.655817
   5 H :   -0.089084
   6 H :   -0.087433
   7 H :   -0.085725
Sum of atomic charges:    0.0000000

LOEWDIN ATOMIC CHARGES
----------------------
   0 C :    0.124420
   1 S :    1.104579
   2 O :   -0.465009
   3 F :   -0.253784
   4 O :   -0.486021
   5 H :    0.001577
   6 H :   -0.013702
   7 H :   -0.012060

  Mayer bond orders larger than 0.100000
B(  0-C ,  1-S ) :   0.9903 B(  0-C ,  5-H ) :   0.8876 B(  0-C ,  6-H ) :   0.8873
B(  0-C ,  7-H ) :   0.8911 B(  1-S ,  2-O ) :   1.5551 B(  1-S ,  3-F ) :   0.7227
B(  1-S ,  4-O ) :   1.5145 B(  1-S ,  5-H ) :   0.1278 B(  1-S ,  7-H ) :   0.1013

FINAL SINGLE POINT ENERGY      -687.889865529817

DIPOLE MOMENT
-------------
                                X             Y             Z
Electronic contribution:     -4.87856       0.91892      -2.28412
Nuclear contribution   :      5.19357      -0.05217       3.71223
                        -----------------------------------------
Total Dipole Moment    :      0.31501       0.86674       1.42811
                        -----------------------------------------
Magnitude (a.u.)       :      1.69999
Magnitude (Debye)      :      4.32103

Rotational constants in cm-1:     0.163837     0.155047     0.147593
Rotational constants in MHz :  4911.724022  4648.196128  4424.713532

                             ****ORCA TERMINATED NORMALLY****
TOTAL RUN TIME: 0 days 0 hours 0 minutes 9 seconds 941 msec
