                         Program Version 5.0.0 -  RELEASE  -
|  1> !CAM-B3LYP RIJCOSX def2-SVPD def2/J TightSCF
|  2> *xyz 0 1
|  3> C          3.38093        2.08304       -3.35013
|  4> N          4.53592        1.18245       -3.42852
|  5> C          4.67196        0.12227       -4.22060
|  6> C          5.86602       -0.50785       -4.22428
|  7> N          3.69888       -0.31284       -4.98699
|  8> H          2.73141       -0.05009       -4.84900
|  9> H          3.89005       -1.05517       -5.64373
| 10> H          5.25193        1.30346       -2.72101
| 11> H          6.69516       -0.06232       -3.85160
| 12> H          5.97538       -1.39688       -4.69141
| 13> H          2.69962        1.85926       -4.14426
| 14> H          3.71221        3.09654       -3.43937
| 15> H          2.88835        1.95032       -2.40957
| 16> *
| 17>
| 18> %MaxCore 64000
| 19>
| 20> %pal nprocs 8
| 21> end
| 22>
| 23> %scf
| 24>   MaxIter 150
| 25> end
| 26>
| 27>
| 28>                          ****END OF INPUT****

CARTESIAN COORDINATES (ANGSTROEM)
---------------------------------
  C      3.380930    2.083040   -3.350130
  N      4.535920    1.182450   -3.428520
  C      4.671960    0.122270   -4.220600
  C      5.866020   -0.507850   -4.224280
  N      3.698880   -0.312840   -4.986990
  H      2.731410   -0.050090   -4.849000
  H      3.890050   -1.055170   -5.643730
  H      5.251930    1.303460   -2.721010
  H      6.695160   -0.062320   -3.851600
  H      5.975380   -1.396880   -4.691410
  H      2.699620    1.859260   -4.144260
  H      3.712210    3.096540   -3.439370
  H      2.888350    1.950320   -2.409570

 Total Charge           Charge          ....    0
 Multiplicity           Mult            ....    1
 Number of Electrons    NEL             ....   40
 Basis Dimension        Dim             ....  164

ORBITAL ENERGIES
----------------

  NO   OCC          E(Eh)            E(eV)
   0   2.0000     -14.408532      -392.0761
   1   2.0000     -14.405240      -391.9865
   2   2.0000     -10.308581      -280.5107
   3   2.0000     -10.292334      -280.0687
   4   2.0000     -10.165658      -276.6216
   5   2.0000      -1.043893       -28.4058
   6   2.0000      -0.959326       -26.1046
   7   2.0000      -0.815678       -22.1957
   8   2.0000      -0.736919       -20.0526
   9   2.0000      -0.676146       -18.3989
  10   2.0000      -0.616256       -16.7692
  11   2.0000      -0.563730       -15.3399
  12   2.0000      -0.548418       -14.9232
  13   2.0000      -0.522333       -14.2134
  14   2.0000      -0.475913       -12.9503
  15   2.0000      -0.462389       -12.5822
  16   2.0000      -0.449479       -12.2309
  17   2.0000      -0.423927       -11.5356
  18   2.0000      -0.319662        -8.6984
  19   2.0000      -0.214996        -5.8503
  20   0.0000       0.042772         1.1639
  21   0.0000       0.077141         2.0991
  22   0.0000       0.078889         2.1467
  23   0.0000       0.111451         3.0327
  24   0.0000       0.119772         3.2592

MULLIKEN ATOMIC CHARGES
-----------------------
   0 C :    1.402496
   1 N :   -0.464668
   2 C :    0.678792
   3 C :    0.544142
   4 N :    0.204986
   5 H :   -0.196712
   6 H :   -0.117194
   7 H :   -0.307402
   8 H :   -0.507700
   9 H :   -0.471216
  10 H :   -0.295882
  11 H :   -0.232383
  12 H :   -0.237258
Sum of atomic charges:    0.0000000

LOEWDIN ATOMIC CHARGES
----------------------
   0 C :    0.216285
   1 N :   -0.036857
   2 C :   -0.241677
   3 C :    0.136970
   4 N :    0.193312
   5 H :   -0.015278
   6 H :    0.011015
   7 H :    0.032860
   8 H :   -0.110405
   9 H :   -0.114299
  10 H :   -0.032524
  11 H :   -0.019150
  12 H :   -0.020251

  Mayer bond orders larger than 0.100000
B(  0-C ,  1-N ) :   0.9103 B(  0-C ,  7-H ) :  -0.1744 B(  0-C , 10-H ) :   0.7955
B(  0-C , 11-H ) :   0.7337 B(  0-C , 12-H ) :   0.7530 B(  1-N ,  2-C ) :   1.0680
B(  1-N ,  3-C ) :   0.2439 B(  1-N ,  4-N ) :   0.1715 B(  1-N ,  7-H ) :   1.2883
B(  1-N , 10-H ) :   0.2190 B(  1-N , 11-H ) :   0.1985 B(  1-N , 12-H ) :   0.1851
B(  2-C ,  3-C ) :   1.3856 B(  2-C ,  4-N ) :   1.0970 B(  2-C ,  5-H ) :  -0.1010
B(  2-C ,  7-H ) :  -0.2181 B(  2-C ,  9-H ) :   0.1724 B(  3-C ,  4-N ) :   0.2088
B(  3-C ,  8-H ) :   0.8402 B(  3-C ,  9-H ) :   0.7364 B(  4-N ,  5-H ) :   1.1907
B(  4-N ,  6-H ) :   1.1744 B(  5-H ,  6-H ) :  -0.1832

FINAL SINGLE POINT ENERGY      -228.318852863523

DIPOLE MOMENT
-------------
                                X             Y             Z
Electronic contribution:      0.14852      -0.80439      -0.45844
Nuclear contribution   :     -1.20756       1.31300       0.55604
                        -----------------------------------------
Total Dipole Moment    :     -1.05904       0.50862       0.09760
                        -----------------------------------------
Magnitude (a.u.)       :      1.17889
Magnitude (Debye)      :      2.99650

Rotational constants in cm-1:     0.323683     0.135884     0.097747
Rotational constants in MHz :  9703.770798  4073.695357  2930.389562

                             ****ORCA TERMINATED NORMALLY****
TOTAL RUN TIME: 0 days 0 hours 0 minutes 14 seconds 603 msec
