                         Program Version 5.0.0 -  RELEASE  -
|  1> !CAM-B3LYP RIJCOSX def2-SVPD def2/J TightSCF
|  2> *xyz 0 1
|  3> C          1.87218        0.42790       -2.07750
|  4> S          0.57902        0.14047       -3.29794
|  5> O          0.22886       -1.24687       -3.12787
|  6> O         -0.43927        1.11897       -3.01455
|  7> F          1.24788        0.40347       -4.59565
|  8> H          2.66832       -0.27048       -2.23022
|  9> H          1.46951        0.30034       -1.09440
| 10> H          2.24690        1.42458       -2.18288
| 11> *
| 12>
| 13> %MaxCore 64000
| 14>
| 15> %pal nprocs 8
| 16> end
| 17>
| 18> %scf
| 19>   MaxIter 150
| 20> end
| 21>
| 22>
| 23>                          ****END OF INPUT****

CARTESIAN COORDINATES (ANGSTROEM)
---------------------------------
  C      1.872180    0.427900   -2.077500
  S      0.579020    0.140470   -3.297940
  O      0.228860   -1.246870   -3.127870
  O     -0.439270    1.118970   -3.014550
  F      1.247880    0.403470   -4.595650
  H      2.668320   -0.270480   -2.230220
  H      1.469510    0.300340   -1.094400
  H      2.246900    1.424580   -2.182880

 Total Charge           Charge          ....    0
 Multiplicity           Mult            ....    1
 Number of Electrons    NEL             ....   50
 Basis Dimension        Dim             ....  140

ORBITAL ENERGIES
----------------

  NO   OCC          E(Eh)            E(eV)
   0   2.0000     -89.228243     -2428.0239
   1   2.0000     -24.880534      -677.0337
   2   2.0000     -19.235391      -523.4216
   3   2.0000     -19.235356      -523.4206
   4   2.0000     -10.319736      -280.8143
   5   2.0000      -8.281775      -225.3585
   6   2.0000      -6.255690      -170.2260
   7   2.0000      -6.249478      -170.0570
   8   2.0000      -6.248481      -170.0298
   9   2.0000      -1.434634       -39.0384
  10   2.0000      -1.210351       -32.9353
  11   2.0000      -1.113675       -30.3046
  12   2.0000      -0.881547       -23.9881
  13   2.0000      -0.785839       -21.3838
  14   2.0000      -0.671811       -18.2809
  15   2.0000      -0.649754       -17.6807
  16   2.0000      -0.632618       -17.2144
  17   2.0000      -0.557667       -15.1749
  18   2.0000      -0.553041       -15.0490
  19   2.0000      -0.538439       -14.6517
  20   2.0000      -0.520202       -14.1554
  21   2.0000      -0.470102       -12.7921
  22   2.0000      -0.418126       -11.3778
  23   2.0000      -0.410130       -11.1602
  24   2.0000      -0.396718       -10.7952
  25   0.0000       0.021840         0.5943
  26   0.0000       0.059162         1.6099
  27   0.0000       0.067501         1.8368
  28   0.0000       0.068234         1.8567
  29   0.0000       0.076833         2.0907

MULLIKEN ATOMIC CHARGES
-----------------------
   0 C :    0.648435
   1 S :    1.256449
   2 O :   -0.624982
   3 O :   -0.623257
   4 F :   -0.391764
   5 H :   -0.082853
   6 H :   -0.094029
   7 H :   -0.088000
Sum of atomic charges:    0.0000000

LOEWDIN ATOMIC CHARGES
----------------------
   0 C :    0.124772
   1 S :    1.101920
   2 O :   -0.465483
   3 O :   -0.464618
   4 F :   -0.272290
   5 H :   -0.011765
   6 H :    0.000061
   7 H :   -0.012598

  Mayer bond orders larger than 0.100000
B(  0-C ,  1-S ) :   0.9899 B(  0-C ,  5-H ) :   0.8915 B(  0-C ,  6-H ) :   0.8844
B(  0-C ,  7-H ) :   0.8907 B(  1-S ,  2-O ) :   1.5519 B(  1-S ,  3-O ) :   1.5515
B(  1-S ,  4-F ) :   0.6737 B(  1-S ,  5-H ) :   0.1021 B(  1-S ,  6-H ) :   0.1210
B(  1-S ,  7-H ) :   0.1020

FINAL SINGLE POINT ENERGY      -687.908350279875

DIPOLE MOMENT
-------------
                                X             Y             Z
Electronic contribution:     -2.03744      -0.27427      -4.95639
Nuclear contribution   :      3.50800       0.66266       5.29185
                        -----------------------------------------
Total Dipole Moment    :      1.47056       0.38839       0.33546
                        -----------------------------------------
Magnitude (a.u.)       :      1.55754
Magnitude (Debye)      :      3.95895

Rotational constants in cm-1:     0.163942     0.153101     0.149133
Rotational constants in MHz :  4914.860621  4589.839477  4470.901507

                             ****ORCA TERMINATED NORMALLY****
TOTAL RUN TIME: 0 days 0 hours 0 minutes 9 seconds 986 msec
