                         Program Version 5.0.0 -  RELEASE  -
|  1> !CAM-B3LYP RIJCOSX def2-SVPD def2/J TightSCF
|  2> *xyz 0 1
|  3> C          3.38093        2.08304       -3.35013
|  4> N          4.53592        1.18245       -3.42852
|  5> C          4.67196        0.12227       -4.22060
|  6> N          5.86602       -0.50785       -4.22428
|  7> C          3.69888       -0.31284       -4.98699
|  8> H          2.73141       -0.05009       -4.84900
|  9> H          3.89005       -1.05517       -5.64373
| 10> H          5.25193        1.30346       -2.72101
| 11> H          6.69516       -0.06232       -3.85160
| 12> H          5.97538       -1.39688       -4.69141
| 13> H          2.69962        1.85926       -4.14426
| 14> H          3.71221        3.09654       -3.43937
| 15> H          2.88835        1.95032       -2.40957
| 16> *
| 17>
| 18> %MaxCore 64000
| 19>
| 20> %pal nprocs 8
| 21> end
| 22>
| 23> %scf
| 24>   MaxIter 150
| 25> end
| 26>
| 27>
| 28>                          ****END OF INPUT****

CARTESIAN COORDINATES (ANGSTROEM)
---------------------------------
  C      3.380930    2.083040   -3.350130
  N      4.535920    1.182450   -3.428520
  C      4.671960    0.122270   -4.220600
  N      5.866020   -0.507850   -4.224280
  C      3.698880   -0.312840   -4.986990
  H      2.731410   -0.050090   -4.849000
  H      3.890050   -1.055170   -5.643730
  H      5.251930    1.303460   -2.721010
  H      6.695160   -0.062320   -3.851600
  H      5.975380   -1.396880   -4.691410
  H      2.699620    1.859260   -4.144260
  H      3.712210    3.096540   -3.439370
  H      2.888350    1.950320   -2.409570

 Total Charge           Charge          ....    0
 Multiplicity           Mult            ....    1
 Number of Electrons    NEL             ....   40
 Basis Dimension        Dim             ....  164

ORBITAL ENERGIES
----------------

  NO   OCC          E(Eh)            E(eV)
   0   2.0000     -14.405735      -392.0000
   1   2.0000     -14.401743      -391.8913
   2   2.0000     -10.306033      -280.4414
   3   2.0000     -10.283577      -279.8304
   4   2.0000     -10.170870      -276.7635
   5   2.0000      -1.037288       -28.2260
   6   2.0000      -0.949971       -25.8500
   7   2.0000      -0.797493       -21.7009
   8   2.0000      -0.770918       -20.9777
   9   2.0000      -0.639069       -17.3899
  10   2.0000      -0.617771       -16.8104
  11   2.0000      -0.585861       -15.9421
  12   2.0000      -0.524366       -14.2687
  13   2.0000      -0.509218       -13.8565
  14   2.0000      -0.487988       -13.2788
  15   2.0000      -0.454400       -12.3649
  16   2.0000      -0.450206       -12.2507
  17   2.0000      -0.423504       -11.5241
  18   2.0000      -0.312330        -8.4989
  19   2.0000      -0.227986        -6.2038
  20   0.0000       0.049470         1.3462
  21   0.0000       0.069591         1.8937
  22   0.0000       0.084861         2.3092
  23   0.0000       0.112508         3.0615
  24   0.0000       0.118044         3.2121

MULLIKEN ATOMIC CHARGES
-----------------------
   0 C :    1.362245
   1 N :   -0.432067
   2 C :    0.854351
   3 N :    0.135597
   4 C :    0.240574
   5 H :   -0.307051
   6 H :   -0.485065
   7 H :   -0.386769
   8 H :   -0.226999
   9 H :   -0.069237
  10 H :   -0.230060
  11 H :   -0.215642
  12 H :   -0.239878
Sum of atomic charges:   -0.0000000

LOEWDIN ATOMIC CHARGES
----------------------
   0 C :    0.224951
   1 N :   -0.047120
   2 C :   -0.242515
   3 N :    0.182179
   4 C :    0.147446
   5 H :   -0.105787
   6 H :   -0.099903
   7 H :    0.017233
   8 H :   -0.014471
   9 H :   -0.000037
  10 H :   -0.027209
  11 H :   -0.018002
  12 H :   -0.016766

  Mayer bond orders larger than 0.100000
B(  0-C ,  1-N ) :   0.9234 B(  0-C ,  7-H ) :  -0.1591 B(  0-C , 10-H ) :   0.8291
B(  0-C , 11-H ) :   0.7211 B(  0-C , 12-H ) :   0.7318 B(  1-N ,  2-C ) :   0.9833
B(  1-N ,  3-N ) :   0.1513 B(  1-N ,  4-C ) :   0.3328 B(  1-N ,  7-H ) :   1.3342
B(  1-N , 10-H ) :   0.1721 B(  1-N , 11-H ) :   0.2014 B(  1-N , 12-H ) :   0.2040
B(  2-C ,  3-N ) :   0.9457 B(  2-C ,  4-C ) :   1.4841 B(  2-C ,  5-H ) :   0.1065
B(  2-C ,  6-H ) :   0.1305 B(  2-C ,  7-H ) :  -0.2342 B(  2-C ,  8-H ) :  -0.1224
B(  3-N ,  4-C ) :   0.2592 B(  3-N ,  8-H ) :   1.2319 B(  3-N ,  9-H ) :   1.1554
B(  4-C ,  5-H ) :   0.7279 B(  4-C ,  6-H ) :   0.8960 B(  8-H ,  9-H ) :  -0.1704

FINAL SINGLE POINT ENERGY      -228.323762278941

DIPOLE MOMENT
-------------
                                X             Y             Z
Electronic contribution:      2.30619      -1.01183       0.23698
Nuclear contribution   :     -1.64651       1.35250       0.40156
                        -----------------------------------------
Total Dipole Moment    :      0.65968       0.34067       0.63854
                        -----------------------------------------
Magnitude (a.u.)       :      0.97927
Magnitude (Debye)      :      2.48911

Rotational constants in cm-1:     0.339624     0.131069     0.096565
Rotational constants in MHz : 10181.679558  3929.342810  2894.941560

                             ****ORCA TERMINATED NORMALLY****
TOTAL RUN TIME: 0 days 0 hours 0 minutes 13 seconds 922 msec
