                         Program Version 5.0.0 -  RELEASE  -
|  1> !CAM-B3LYP RIJCOSX def2-SVPD def2/J TightSCF xyzfile
|  2>
|  3> *xyzfile 0 1 D1.xyz
|  4>
|  5> %MaxCore 64000
|  6>
|  7> %pal nprocs 4
|  8> end
|  9>
| 10> %scf
| 11>   MaxIter 150
| 12> end
| 13>
| 14>
| 15>                          ****END OF INPUT****

CARTESIAN COORDINATES (ANGSTROEM)
---------------------------------
  C      3.380928    2.083045   -3.350127
  C      4.535924    1.182447   -3.428518
  C      2.495557    1.816150   -2.136364
  C      1.872181    0.427903   -2.077497
  H      2.614270   -0.365825   -2.198894
  H      1.389953    0.273087   -1.112360
  S      0.579024    0.140472   -3.297943
  C      4.671956    0.122273   -4.220598
  N      5.866023   -0.507849   -4.224284
  N      3.698881   -0.312844   -4.986988
  H      2.731405   -0.050091   -4.849000
  H      3.890046   -1.055172   -5.643730
  H      5.251933    1.303459   -2.721014
  H      6.695165   -0.062322   -3.851596
  H      5.975383   -1.396884   -4.691414
  F      0.228860   -1.246868   -3.127871
  O     -0.439269    1.118966   -3.014550
  O      1.247881    0.403474   -4.595647
  H      1.697003    2.561969   -2.141109
  H      3.080787    1.987436   -1.225838
  H      2.806463    1.986511   -4.268484
  H      3.778714    3.098282   -3.307383

 Total Charge           Charge          ....    0
 Multiplicity           Mult            ....    1
 Number of Electrons    NEL             ....   96
 Basis Dimension        Dim             ....  324

ORBITAL ENERGIES
----------------

  NO   OCC          E(Eh)            E(eV)
   0   2.0000     -89.232857     -2428.1495
   1   2.0000     -24.905392      -677.7102
   2   2.0000     -19.239623      -523.5368
   3   2.0000     -19.233782      -523.3778
   4   2.0000     -14.399343      -391.8260
   5   2.0000     -14.381843      -391.3498
   6   2.0000     -10.315885      -280.7095
   7   2.0000     -10.302109      -280.3346
   8   2.0000     -10.270153      -279.4651
   9   2.0000     -10.235218      -278.5144
  10   2.0000     -10.179449      -276.9969
  11   2.0000      -8.286397      -225.4843
  12   2.0000      -6.260510      -170.3571
  13   2.0000      -6.254356      -170.1897
  14   2.0000      -6.252279      -170.1332
  15   2.0000      -1.473576       -40.0980
  16   2.0000      -1.208536       -32.8859
  17   2.0000      -1.106185       -30.1008
  18   2.0000      -1.028422       -27.9848
  19   2.0000      -0.933419       -25.3996
  20   2.0000      -0.907712       -24.7001
  21   2.0000      -0.845909       -23.0184
  22   2.0000      -0.807021       -21.9602
  23   2.0000      -0.760194       -20.6859
  24   2.0000      -0.706832       -19.2339
  25   2.0000      -0.681378       -18.5412
  26   2.0000      -0.667769       -18.1709
  27   2.0000      -0.657929       -17.9032
  28   2.0000      -0.627962       -17.0877
  29   2.0000      -0.609539       -16.5864
  30   2.0000      -0.590501       -16.0684
  31   2.0000      -0.564137       -15.3509
  32   2.0000      -0.559768       -15.2321
  33   2.0000      -0.542763       -14.7693
  34   2.0000      -0.525501       -14.2996
  35   2.0000      -0.510189       -13.8829
  36   2.0000      -0.479293       -13.0422
  37   2.0000      -0.475697       -12.9444
  38   2.0000      -0.464203       -12.6316
  39   2.0000      -0.452411       -12.3107
  40   2.0000      -0.427022       -11.6199
  41   2.0000      -0.422781       -11.5045
  42   2.0000      -0.406282       -11.0555
  43   2.0000      -0.403349       -10.9757
  44   2.0000      -0.387608       -10.5474
  45   2.0000      -0.378176       -10.2907
  46   2.0000      -0.321296        -8.7429
  47   2.0000      -0.216882        -5.9017
  48   0.0000       0.024227         0.6592
  49   0.0000       0.051873         1.4115
  50   0.0000       0.052944         1.4407
  51   0.0000       0.063192         1.7196
  52   0.0000       0.076707         2.0873

MULLIKEN ATOMIC CHARGES
-----------------------
   0 C :    0.588152
   1 C :   -0.109326
   2 C :    0.325344
   3 C :    0.200784
   4 H :    0.020231
   5 H :   -0.160531
   6 S :    1.587121
   7 C :    0.816257
   8 N :    0.090659
   9 N :    0.641717
  10 H :   -0.438201
  11 H :   -0.300668
  12 H :   -0.470397
  13 H :   -0.143841
  14 H :   -0.162983
  15 F :   -0.420802
  16 O :   -0.681499
  17 O :   -0.816074
  18 H :   -0.071321
  19 H :   -0.090359
  20 H :   -0.195652
  21 H :   -0.208611
Sum of atomic charges:   -0.0000000

LOEWDIN ATOMIC CHARGES
----------------------
   0 C :   -0.036090
   1 C :   -0.029886
   2 C :   -0.016663
   3 C :   -0.040021
   4 H :    0.019751
   5 H :    0.020496
   6 S :    1.171191
   7 C :   -0.216755
   8 N :    0.181517
   9 N :    0.229923
  10 H :   -0.147835
  11 H :   -0.001776
  12 H :   -0.052981
  13 H :   -0.000318
  14 H :   -0.017374
  15 F :   -0.244124
  16 O :   -0.445865
  17 O :   -0.456017
  18 H :    0.027331
  19 H :    0.038064
  20 H :   -0.002790
  21 H :    0.020224

  Mayer bond orders larger than 0.100000
B(  0-C ,  1-C ) :   1.0668 B(  0-C ,  2-C ) :   1.1084 B(  0-C , 12-H ) :   0.2376
B(  0-C , 18-H ) :   0.1808 B(  0-C , 19-H ) :   0.1716 B(  0-C , 20-H ) :   0.7405
B(  0-C , 21-H ) :   0.7020 B(  1-C ,  2-C ) :   0.1223 B(  1-C ,  7-C ) :   1.5867
B(  1-C ,  8-N ) :   0.4009 B(  1-C ,  9-N ) :   0.2143 B(  1-C , 10-H ) :  -0.1138
B(  1-C , 12-H ) :   0.7491 B(  1-C , 20-H ) :   0.3222 B(  1-C , 21-H ) :   0.1437
B(  2-C ,  3-C ) :   1.2757 B(  2-C ,  4-H ) :   0.1616 B(  2-C ,  5-H ) :   0.1906
B(  2-C , 18-H ) :   0.7703 B(  2-C , 19-H ) :   0.7253 B(  2-C , 20-H ) :   0.1774
B(  2-C , 21-H ) :   0.1111 B(  3-C ,  4-H ) :   0.9293 B(  3-C ,  5-H ) :   0.7333
B(  3-C ,  6-S ) :   0.9263 B(  3-C , 17-O ) :   0.1495 B(  3-C , 18-H ) :   0.1675
B(  3-C , 19-H ) :   0.1520 B(  5-H ,  6-S ) :   0.1041 B(  6-S , 15-F ) :   0.6552
B(  6-S , 16-O ) :   1.5396 B(  6-S , 17-O ) :   1.3561 B(  7-C ,  8-N ) :   0.7824
B(  7-C ,  9-N ) :   1.0612 B(  7-C , 10-H ) :  -0.1200 B(  7-C , 11-H ) :  -0.1958
B(  7-C , 12-H ) :   0.1165 B(  7-C , 13-H ) :  -0.1865 B(  7-C , 20-H ) :  -0.1518
B(  8-N , 12-H ) :   0.1155 B(  8-N , 13-H ) :   1.2539 B(  8-N , 14-H ) :   1.1632
B(  9-N , 10-H ) :   1.1170 B(  9-N , 11-H ) :   1.2007 B( 10-H , 11-H ) :  -0.2024
B( 10-H , 17-O ) :   0.1557 B( 13-H , 14-H ) :  -0.1695

FINAL SINGLE POINT ENERGY      -954.300851346011

DIPOLE MOMENT
-------------
                                X             Y             Z
Electronic contribution:    -15.24210      -6.69293      -1.09424
Nuclear contribution   :     15.92508       5.34175       1.81950
                        -----------------------------------------
Total Dipole Moment    :      0.68298      -1.35118       0.72526
                        -----------------------------------------
Magnitude (a.u.)       :      1.67874
Magnitude (Debye)      :      4.26701

Rotational constants in cm-1:     0.058561     0.020662     0.017762
Rotational constants in MHz :  1755.621534   619.433801   532.501507

                             ****ORCA TERMINATED NORMALLY****
TOTAL RUN TIME: 0 days 0 hours 2 minutes 0 seconds 206 msec
