                         Program Version 5.0.0 -  RELEASE  -
|  1> !DLPNO-CCSD(T) aug-cc-pVTZ aug-cc-pVTZ/C TightSCF TightPNO RIJCOSX def2/J
|  2> *xyz -1 1
|  3> C          2.49556        1.81615       -2.13636
|  4> C          1.87218        0.42790       -2.07750
|  5> H          2.61427       -0.36583       -2.19889
|  6> H          1.38995        0.27309       -1.11236
|  7> S          0.57902        0.14047       -3.29794
|  8> O          0.22886       -1.24687       -3.12787
|  9> O         -0.43927        1.11897       -3.01455
| 10> O          1.24788        0.40347       -4.59565
| 11> H          2.96535        1.95613       -3.08747
| 12> H          3.22581        1.91242       -1.36024
| 13> H          1.73350        2.55528       -2.00274
| 14> *
| 15>
| 16> %MaxCore 64000
| 17>
| 18> %pal nprocs 18
| 19> end
| 20>
| 21> %scf
| 22>   MaxIter 150
| 23> end
| 24>
| 25>
| 26>                          ****END OF INPUT****

CARTESIAN COORDINATES (ANGSTROEM)
---------------------------------
  C      2.495560    1.816150   -2.136360
  C      1.872180    0.427900   -2.077500
  H      2.614270   -0.365830   -2.198890
  H      1.389950    0.273090   -1.112360
  S      0.579020    0.140470   -3.297940
  O      0.228860   -1.246870   -3.127870
  O     -0.439270    1.118970   -3.014550
  O      1.247880    0.403470   -4.595650
  H      2.965350    1.956130   -3.087470
  H      3.225810    1.912420   -1.360240
  H      1.733500    2.555280   -2.002740

 Total Charge           Charge          ....   -1
 Multiplicity           Mult            ....    1
 Number of Electrons    NEL             ....   58
 Basis Dimension        Dim             ....  395

ORBITAL ENERGIES
----------------

  NO   OCC          E(Eh)            E(eV)
   0   2.0000     -91.981593     -2502.9464
   1   2.0000     -20.334124      -553.3196
   2   2.0000     -20.333902      -553.3136
   3   2.0000     -20.318630      -552.8980
   4   2.0000     -11.089782      -301.7683
   5   2.0000     -11.079198      -301.4803
   6   2.0000      -8.945065      -243.4076
   7   2.0000      -6.631249      -180.4455
   8   2.0000      -6.629997      -180.4114
   9   2.0000      -6.629888      -180.4084
  10   2.0000      -1.275443       -34.7066
  11   2.0000      -1.135535       -30.8995
  12   2.0000      -1.105725       -30.0883
  13   2.0000      -0.903910       -24.5966
  14   2.0000      -0.742851       -20.2140
  15   2.0000      -0.595381       -16.2011
  16   2.0000      -0.501494       -13.6463
  17   2.0000      -0.489474       -13.3193
  18   2.0000      -0.459394       -12.5007
  19   2.0000      -0.448624       -12.2077
  20   2.0000      -0.422578       -11.4989
  21   2.0000      -0.382318       -10.4034
  22   2.0000      -0.364277        -9.9125
  23   2.0000      -0.325717        -8.8632
  24   2.0000      -0.322072        -8.7640
  25   2.0000      -0.282483        -7.6868
  26   2.0000      -0.267199        -7.2709
  27   2.0000      -0.245394        -6.6775
  28   2.0000      -0.230889        -6.2828
  29   0.0000       0.113991         3.1019
  30   0.0000       0.133033         3.6200
  31   0.0000       0.134911         3.6711
  32   0.0000       0.146087         3.9752
  33   0.0000       0.155077         4.2199

MULLIKEN ATOMIC CHARGES
-----------------------
   0 C :   -0.978958
   1 C :   -0.569377
   2 H :    0.271448
   3 H :    0.256124
   4 S :    2.171279
   5 O :   -1.023593
   6 O :   -1.029244
   7 O :   -1.036082
   8 H :    0.318903
   9 H :    0.281684
  10 H :    0.337815
Sum of atomic charges:   -1.0000000

LOEWDIN ATOMIC CHARGES
----------------------
   0 C :    0.526129
   1 C :    0.107931
   2 H :   -0.204990
   3 H :   -0.217072
   4 S :   -0.415444
   5 O :   -0.053180
   6 O :   -0.046957
   7 O :   -0.077869
   8 H :   -0.206877
   9 H :   -0.207302
  10 H :   -0.204368

  Mayer bond orders larger than 0.100000
B(  0-C ,  1-C ) :   0.9089 B(  0-C ,  8-H ) :   0.9208 B(  0-C ,  9-H ) :   0.9614
B(  0-C , 10-H ) :   0.9001 B(  1-C ,  2-H ) :   0.9238 B(  1-C ,  3-H ) :   0.9368
B(  1-C ,  4-S ) :   0.7558 B(  4-S ,  5-O ) :   1.3788 B(  4-S ,  6-O ) :   1.3893
B(  4-S ,  7-O ) :   1.3214

E(0)                                       ...   -700.926210966
E(0)                                       ...   -700.926210966
E(CORR)(strong-pairs)                      ...     -1.301533394
E(CORR)(weak-pairs)                        ...     -0.001284113
E(CORR)(corrected)                         ...     -1.302817507
E(TOT)                                     ...   -702.229028473
E(CCSD(T))                                 ...   -702.284459664
FINAL SINGLE POINT ENERGY      -702.284459664428

DIPOLE MOMENT
-------------
                                X             Y             Z
Electronic contribution:     -5.54892      -3.53788      -3.94762
Nuclear contribution   :      6.89220       4.11756       5.35566
                        -----------------------------------------
Total Dipole Moment    :      1.34328       0.57968       1.40804
                        -----------------------------------------
Magnitude (a.u.)       :      2.03052
Magnitude (Debye)      :      5.16117

Rotational constants in cm-1:     0.162183     0.084017     0.082390
Rotational constants in MHz :  4862.117324  2518.774315  2469.980309

                             ****ORCA TERMINATED NORMALLY****
TOTAL RUN TIME: 0 days 0 hours 6 minutes 34 seconds 810 msec
