                         Program Version 5.0.0 -  RELEASE  -
|  1> !DLPNO-CCSD(T) aug-cc-pVTZ aug-cc-pVTZ/C TightSCF TightPNO RIJCOSX def2/J
|  2> *xyz 1 1
|  3> C          3.38093        2.08304       -3.35013
|  4> N          4.53592        1.18245       -3.42852
|  5> C          2.49556        1.81615       -2.13636
|  6> C          4.67196        0.12227       -4.22060
|  7> N          5.86602       -0.50785       -4.22428
|  8> N          3.69888       -0.31284       -4.98699
|  9> H          2.73141       -0.05009       -4.84900
| 10> H          3.89005       -1.05517       -5.64373
| 11> H          5.25193        1.30346       -2.72101
| 12> H          6.69516       -0.06232       -3.85160
| 13> H          5.97538       -1.39688       -4.69141
| 14> H          2.80646        1.98651       -4.26848
| 15> H          3.77871        3.09828       -3.30738
| 16> H          2.11090        0.81901       -2.18783
| 17> H          1.68276        2.51198       -2.12786
| 18> H          3.07216        1.93031       -1.24227
| 19> *
| 20>
| 21> %MaxCore 64000
| 22>
| 23> %pal nprocs 18
| 24> end
| 25>
| 26> %scf
| 27>   MaxIter 150
| 28> end
| 29>
| 30>
| 31>                          ****END OF INPUT****

CARTESIAN COORDINATES (ANGSTROEM)
---------------------------------
  C      3.380930    2.083040   -3.350130
  N      4.535920    1.182450   -3.428520
  C      2.495560    1.816150   -2.136360
  C      4.671960    0.122270   -4.220600
  N      5.866020   -0.507850   -4.224280
  N      3.698880   -0.312840   -4.986990
  H      2.731410   -0.050090   -4.849000
  H      3.890050   -1.055170   -5.643730
  H      5.251930    1.303460   -2.721010
  H      6.695160   -0.062320   -3.851600
  H      5.975380   -1.396880   -4.691410
  H      2.806460    1.986510   -4.268480
  H      3.778710    3.098280   -3.307380
  H      2.110900    0.819010   -2.187830
  H      1.682760    2.511980   -2.127860
  H      3.072160    1.930310   -1.242270

 Total Charge           Charge          ....    1
 Multiplicity           Mult            ....    1
 Number of Electrons    NEL             ....   48
 Basis Dimension        Dim             ....  506

ORBITAL ENERGIES
----------------

  NO   OCC          E(Eh)            E(eV)
   0   2.0000     -15.789596      -429.6567
   1   2.0000     -15.780626      -429.4127
   2   2.0000     -15.780523      -429.4099
   3   2.0000     -11.589067      -315.3545
   4   2.0000     -11.431511      -311.0672
   5   2.0000     -11.355711      -309.0046
   6   2.0000      -1.538434       -41.8629
   7   2.0000      -1.403484       -38.1907
   8   2.0000      -1.385354       -37.6974
   9   2.0000      -1.189247       -32.3611
  10   2.0000      -1.063954       -28.9517
  11   2.0000      -1.016148       -27.6508
  12   2.0000      -0.974563       -26.5192
  13   2.0000      -0.929507       -25.2932
  14   2.0000      -0.867715       -23.6117
  15   2.0000      -0.862793       -23.4778
  16   2.0000      -0.805698       -21.9241
  17   2.0000      -0.794878       -21.6297
  18   2.0000      -0.765054       -20.8182
  19   2.0000      -0.708477       -19.2786
  20   2.0000      -0.679745       -18.4968
  21   2.0000      -0.661015       -17.9871
  22   2.0000      -0.622625       -16.9425
  23   2.0000      -0.579608       -15.7719
  24   0.0000      -0.092838        -2.5262
  25   0.0000      -0.074908        -2.0383
  26   0.0000      -0.067212        -1.8289
  27   0.0000      -0.062115        -1.6902
  28   0.0000      -0.047740        -1.2991

MULLIKEN ATOMIC CHARGES
-----------------------
   0 C :   -0.450700
   1 N :   -0.010211
   2 C :   -0.897143
   3 C :    0.518547
   4 N :   -0.378366
   5 N :   -0.243598
   6 H :    0.196190
   7 H :    0.147219
   8 H :    0.120579
   9 H :    0.154515
  10 H :    0.163585
  11 H :    0.325809
  12 H :    0.390078
  13 H :    0.314665
  14 H :    0.356167
  15 H :    0.292665
Sum of atomic charges:    1.0000000

LOEWDIN ATOMIC CHARGES
----------------------
   0 C :    0.239455
   1 N :    0.620126
   2 C :    0.641684
   3 C :   -0.365299
   4 N :    0.933499
   5 N :    0.936131
   6 H :   -0.245117
   7 H :   -0.236937
   8 H :   -0.237161
   9 H :   -0.242731
  10 H :   -0.249365
  11 H :   -0.155665
  12 H :   -0.124077
  13 H :   -0.176902
  14 H :   -0.165443
  15 H :   -0.172197

  Mayer bond orders larger than 0.100000
B(  0-C ,  1-N ) :   0.8669 B(  0-C ,  2-C ) :   0.8498 B(  0-C ,  3-C ) :  -0.1471
B(  0-C , 11-H ) :   0.9267 B(  0-C , 12-H ) :   0.8586 B(  1-N ,  3-C ) :   1.0151
B(  1-N ,  8-H ) :   1.0553 B(  2-C , 13-H ) :   0.9234 B(  2-C , 14-H ) :   0.8923
B(  2-C , 15-H ) :   0.9522 B(  3-C ,  4-N ) :   0.9760 B(  3-C ,  5-N ) :   0.9841
B(  4-N ,  5-N ) :  -0.1050 B(  4-N ,  9-H ) :   1.0708 B(  4-N , 10-H ) :   1.0688
B(  5-N ,  6-H ) :   1.0293 B(  5-N ,  7-H ) :   1.0558

E(0)                                       ...   -282.708918176
E(0)                                       ...   -282.708918176
E(CORR)(strong-pairs)                      ...     -1.181980177
E(CORR)(weak-pairs)                        ...     -0.001281393
E(CORR)(corrected)                         ...     -1.183261569
E(TOT)                                     ...   -283.892179746
E(CCSD(T))                                 ...   -283.939467940
FINAL SINGLE POINT ENERGY      -283.939467940307

DIPOLE MOMENT
-------------
                                X             Y             Z
Electronic contribution:      3.56549      -2.67811      -2.84568
Nuclear contribution   :     -2.93277       1.85779       2.25966
                        -----------------------------------------
Total Dipole Moment    :      0.63272      -0.82032      -0.58601
                        -----------------------------------------
Magnitude (a.u.)       :      1.19024
Magnitude (Debye)      :      3.02535

Rotational constants in cm-1:     0.245511     0.068839     0.059711
Rotational constants in MHz :  7360.233487  2063.743353  1790.088408

                             ****ORCA TERMINATED NORMALLY****
TOTAL RUN TIME: 0 days 0 hours 11 minutes 14 seconds 182 msec
