                         Program Version 5.0.0 -  RELEASE  -
|  1> !DLPNO-CCSD(T) aug-cc-pVTZ aug-cc-pVTZ/C TightSCF TightPNO RIJCOSX def2/J
|  2>
|  3> *xyzfile 0 1 B.xyz
|  4>
|  5> %MaxCore 64000
|  6>
|  7> %pal nprocs 18
|  8> end
|  9>
| 10> %scf
| 11>   MaxIter 150
| 12> end
| 13>
| 14>
| 15>                          ****END OF INPUT****

CARTESIAN COORDINATES (ANGSTROEM)
---------------------------------
  C      3.380928    2.083045   -3.350127
  N      4.535924    1.182447   -3.428518
  C      2.495557    1.816150   -2.136364
  C      1.872181    0.427903   -2.077497
  H      2.614270   -0.365825   -2.198894
  H      1.389953    0.273087   -1.112360
  S      0.579024    0.140472   -3.297943
  C      4.671956    0.122273   -4.220598
  N      5.866023   -0.507849   -4.224284
  N      3.698881   -0.312844   -4.986988
  H      2.731405   -0.050091   -4.849000
  H      3.890046   -1.055172   -5.643730
  H      5.251933    1.303459   -2.721014
  H      6.695165   -0.062322   -3.851596
  H      5.975383   -1.396884   -4.691414
  O      0.228860   -1.246868   -3.127871
  O     -0.439269    1.118966   -3.014550
  O      1.247881    0.403474   -4.595647
  H      1.697003    2.561969   -2.141109
  H      3.080787    1.987436   -1.225838
  H      2.806463    1.986511   -4.268484
  H      3.778714    3.098282   -3.307383

 Total Charge           Charge          ....    0
 Multiplicity           Mult            ....    1
 Number of Electrons    NEL             ....   96
 Basis Dimension        Dim             ....  763

ORBITAL ENERGIES
----------------

  NO   OCC          E(Eh)            E(eV)
   0   2.0000     -92.127692     -2506.9220
   1   2.0000     -20.483875      -557.3946
   2   2.0000     -20.469018      -556.9903
   3   2.0000     -20.468214      -556.9684
   4   2.0000     -15.660934      -426.1557
   5   2.0000     -15.651456      -425.8978
   6   2.0000     -15.623102      -425.1262
   7   2.0000     -11.452195      -311.6301
   8   2.0000     -11.293726      -307.3179
   9   2.0000     -11.242115      -305.9135
  10   2.0000     -11.231955      -305.6370
  11   2.0000      -9.091053      -247.3801
  12   2.0000      -6.777393      -184.4223
  13   2.0000      -6.776251      -184.3912
  14   2.0000      -6.775455      -184.3695
  15   2.0000      -1.421798       -38.6891
  16   2.0000      -1.403488       -38.1908
  17   2.0000      -1.275148       -34.6985
  18   2.0000      -1.270037       -34.5595
  19   2.0000      -1.269283       -34.5389
  20   2.0000      -1.247134       -33.9362
  21   2.0000      -1.082883       -29.4668
  22   2.0000      -0.988043       -26.8860
  23   2.0000      -0.908154       -24.7121
  24   2.0000      -0.860375       -23.4120
  25   2.0000      -0.841229       -22.8910
  26   2.0000      -0.798960       -21.7408
  27   2.0000      -0.756632       -20.5890
  28   2.0000      -0.731844       -19.9145
  29   2.0000      -0.719436       -19.5769
  30   2.0000      -0.683111       -18.5884
  31   2.0000      -0.661198       -17.9921
  32   2.0000      -0.645361       -17.5612
  33   2.0000      -0.620275       -16.8785
  34   2.0000      -0.611961       -16.6523
  35   2.0000      -0.600372       -16.3369
  36   2.0000      -0.583806       -15.8862
  37   2.0000      -0.535681       -14.5766
  38   2.0000      -0.530137       -14.4258
  39   2.0000      -0.514659       -14.0046
  40   2.0000      -0.487217       -13.2578
  41   2.0000      -0.471793       -12.8381
  42   2.0000      -0.465112       -12.6563
  43   2.0000      -0.447908       -12.1882
  44   2.0000      -0.425479       -11.5779
  45   2.0000      -0.416477       -11.3329
  46   2.0000      -0.388791       -10.5795
  47   2.0000      -0.379380       -10.3235
  48   0.0000      -0.007327        -0.1994
  49   0.0000       0.011386         0.3098
  50   0.0000       0.024819         0.6754
  51   0.0000       0.027241         0.7413
  52   0.0000       0.039475         1.0742

MULLIKEN ATOMIC CHARGES
-----------------------
   0 C :   -0.366445
   1 N :   -0.142417
   2 C :   -0.540303
   3 C :   -0.484121
   4 H :    0.168183
   5 H :    0.296670
   6 S :    2.284951
   7 C :    0.532261
   8 N :   -0.533222
   9 N :   -0.328091
  10 H :    0.462024
  11 H :    0.094971
  12 H :    0.034680
  13 H :    0.141251
  14 H :    0.145606
  15 O :   -1.049913
  16 O :   -1.062685
  17 O :   -0.951733
  18 H :    0.343937
  19 H :    0.221344
  20 H :    0.286423
  21 H :    0.446630
Sum of atomic charges:    0.0000000

LOEWDIN ATOMIC CHARGES
----------------------
   0 C :    0.235828
   1 N :    0.611647
   2 C :    0.261076
   3 C :    0.165378
   4 H :   -0.202395
   5 H :   -0.188170
   6 S :   -0.253512
   7 C :   -0.376591
   8 N :    0.912493
   9 N :    0.938396
  10 H :   -0.659970
  11 H :   -0.231295
  12 H :   -0.246182
  13 H :   -0.258676
  14 H :   -0.260286
  15 O :   -0.005729
  16 O :    0.003287
  17 O :    0.191300
  18 H :   -0.153130
  19 H :   -0.147219
  20 H :   -0.205556
  21 H :   -0.130695

  Mayer bond orders larger than 0.100000
B(  0-C ,  1-N ) :   0.8608 B(  0-C ,  2-C ) :   0.8279 B(  0-C ,  3-C ) :   0.1041
B(  0-C ,  7-C ) :  -0.1636 B(  0-C , 20-H ) :   1.0394 B(  0-C , 21-H ) :   0.7996
B(  1-N ,  7-C ) :   1.0284 B(  1-N , 12-H ) :   1.1300 B(  2-C ,  3-C ) :   0.8762
B(  2-C ,  6-S ) :   0.1022 B(  2-C , 18-H ) :   0.8793 B(  2-C , 19-H ) :   0.9947
B(  3-C ,  4-H ) :   1.0309 B(  3-C ,  5-H ) :   0.9012 B(  3-C ,  6-S ) :   0.7068
B(  6-S , 15-O ) :   1.2754 B(  6-S , 16-O ) :   1.3134 B(  6-S , 17-O ) :   1.3065
B(  7-C ,  8-N ) :   0.9713 B(  7-C ,  9-N ) :   0.9240 B(  7-C , 10-H ) :  -0.1842
B(  8-N , 13-H ) :   1.0862 B(  8-N , 14-H ) :   1.0879 B(  9-N , 10-H ) :   0.6568
B(  9-N , 11-H ) :   1.1151 B( 10-H , 17-O ) :   0.1073

E(0)                                       ...   -943.552500951
E(0)                                       ...   -943.552500951
E(CORR)(strong-pairs)                      ...     -2.275771060
E(CORR)(weak-pairs)                        ...     -0.003325443
E(CORR)(corrected)                         ...     -2.279096503
E(TOT)                                     ...   -945.831597454
E(CCSD(T))                                 ...   -945.930218891
FINAL SINGLE POINT ENERGY      -945.930218890550

DIPOLE MOMENT
-------------
                                X             Y             Z
Electronic contribution:     -6.79113      -3.16213      -2.39013
Nuclear contribution   :     13.40759       3.44219       2.21042
                        -----------------------------------------
Total Dipole Moment    :      6.61646       0.28007      -0.17971
                        -----------------------------------------
Magnitude (a.u.)       :      6.62482
Magnitude (Debye)      :     16.83896

Rotational constants in cm-1:     0.059860     0.020817     0.017914
Rotational constants in MHz :  1794.564877   624.092098   537.039275

                             ****ORCA TERMINATED NORMALLY****
TOTAL RUN TIME: 0 days 2 hours 14 minutes 57 seconds 161 msec
