                         Program Version 5.0.0 -  RELEASE  -
|  1> !DLPNO-CCSD(T) aug-cc-pVTZ aug-cc-pVTZ/C TightSCF TightPNO RIJCOSX def2/J
|  2> *xyz 0 1
|  3> C          2.49556        1.81615       -2.13636
|  4> C          1.87218        0.42790       -2.07750
|  5> H          2.61427       -0.36583       -2.19889
|  6> H          1.38995        0.27309       -1.11236
|  7> S          0.57902        0.14047       -3.29794
|  8> F          0.22886       -1.24687       -3.12787
|  9> O         -0.43927        1.11897       -3.01455
| 10> O          1.24788        0.40347       -4.59565
| 11> H          2.96535        1.95613       -3.08747
| 12> H          3.22581        1.91242       -1.36024
| 13> H          1.73350        2.55528       -2.00274
| 14> *
| 15>
| 16> %MaxCore 64000
| 17>
| 18> %pal nprocs 18
| 19> end
| 20>
| 21> %scf
| 22>   MaxIter 150
| 23> end
| 24>
| 25>
| 26>                          ****END OF INPUT****

CARTESIAN COORDINATES (ANGSTROEM)
---------------------------------
  C      2.495560    1.816150   -2.136360
  C      1.872180    0.427900   -2.077500
  H      2.614270   -0.365830   -2.198890
  H      1.389950    0.273090   -1.112360
  S      0.579020    0.140470   -3.297940
  F      0.228860   -1.246870   -3.127870
  O     -0.439270    1.118970   -3.014550
  O      1.247880    0.403470   -4.595650
  H      2.965350    1.956130   -3.087470
  H      3.225810    1.912420   -1.360240
  H      1.733500    2.555280   -2.002740

 Total Charge           Charge          ....    0
 Multiplicity           Mult            ....    1
 Number of Electrons    NEL             ....   58
 Basis Dimension        Dim             ....  395

ORBITAL ENERGIES
----------------

  NO   OCC          E(Eh)            E(eV)
   0   2.0000     -92.250779     -2510.2713
   1   2.0000     -26.436400      -719.3710
   2   2.0000     -20.570889      -559.7624
   3   2.0000     -20.554943      -559.3284
   4   2.0000     -11.293988      -307.3250
   5   2.0000     -11.242986      -305.9372
   6   2.0000      -9.214379      -250.7360
   7   2.0000      -6.901881      -187.8097
   8   2.0000      -6.897998      -187.7041
   9   2.0000      -6.897215      -187.6828
  10   2.0000      -1.805094       -49.1191
  11   2.0000      -1.454834       -39.5880
  12   2.0000      -1.341081       -36.4927
  13   2.0000      -1.097310       -29.8593
  14   2.0000      -0.993419       -27.0323
  15   2.0000      -0.911560       -24.8048
  16   2.0000      -0.832929       -22.6652
  17   2.0000      -0.823462       -22.4075
  18   2.0000      -0.765974       -20.8432
  19   2.0000      -0.671939       -18.2844
  20   2.0000      -0.669189       -18.2096
  21   2.0000      -0.624985       -17.0067
  22   2.0000      -0.594112       -16.1666
  23   2.0000      -0.565251       -15.3812
  24   2.0000      -0.552797       -15.0424
  25   2.0000      -0.540918       -14.7191
  26   2.0000      -0.499927       -13.6037
  27   2.0000      -0.476281       -12.9603
  28   2.0000      -0.472519       -12.8579
  29   0.0000       0.023358         0.6356
  30   0.0000       0.037577         1.0225
  31   0.0000       0.039636         1.0786
  32   0.0000       0.050674         1.3789
  33   0.0000       0.064407         1.7526

MULLIKEN ATOMIC CHARGES
-----------------------
   0 C :   -0.944501
   1 C :   -0.525517
   2 H :    0.305811
   3 H :    0.291656
   4 S :    2.121270
   5 F :   -0.496111
   6 O :   -0.875431
   7 O :   -0.878582
   8 H :    0.333206
   9 H :    0.316504
  10 H :    0.351696
Sum of atomic charges:   -0.0000000

LOEWDIN ATOMIC CHARGES
----------------------
   0 C :    0.576217
   1 C :    0.163752
   2 H :   -0.188622
   3 H :   -0.201257
   4 S :   -0.123404
   5 F :    0.288618
   6 O :    0.035018
   7 O :    0.006999
   8 H :   -0.190508
   9 H :   -0.178362
  10 H :   -0.188452

  Mayer bond orders larger than 0.100000
B(  0-C ,  1-C ) :   0.9122 B(  0-C ,  8-H ) :   0.9099 B(  0-C ,  9-H ) :   0.9318
B(  0-C , 10-H ) :   0.8893 B(  1-C ,  2-H ) :   0.8894 B(  1-C ,  3-H ) :   0.9044
B(  1-C ,  4-S ) :   0.8517 B(  4-S ,  5-F ) :   0.5627 B(  4-S ,  6-O ) :   1.5865
B(  4-S ,  7-O ) :   1.5267 B(  6-O ,  7-O ) :   0.1001

E(0)                                       ...   -725.421680333
E(0)                                       ...   -725.421680333
E(CORR)(strong-pairs)                      ...     -1.306755594
E(CORR)(weak-pairs)                        ...     -0.001265088
E(CORR)(corrected)                         ...     -1.308020681
E(TOT)                                     ...   -726.729701015
E(CCSD(T))                                 ...   -726.782775193
FINAL SINGLE POINT ENERGY      -726.782775192634

DIPOLE MOMENT
-------------
                                X             Y             Z
Electronic contribution:     -6.73300      -6.47862      -3.94911
Nuclear contribution   :      7.60530       5.82028       5.38743
                        -----------------------------------------
Total Dipole Moment    :      0.87230      -0.65834       1.43833
                        -----------------------------------------
Magnitude (a.u.)       :      1.80640
Magnitude (Debye)      :      4.59151

Rotational constants in cm-1:     0.157861     0.081452     0.078859
Rotational constants in MHz :  4732.562506  2441.865430  2364.129821

                             ****ORCA TERMINATED NORMALLY****
TOTAL RUN TIME: 0 days 0 hours 6 minutes 3 seconds 897 msec
