                         Program Version 5.0.0 -  RELEASE  -
|  1> !DLPNO-CCSD(T) aug-cc-pVTZ aug-cc-pVTZ/C TightSCF TightPNO RIJCOSX def2/J
|  2> *xyz 0 1
|  3> C          3.38093        2.08304       -3.35013
|  4> C          4.53592        1.18245       -3.42852
|  5> C          2.49556        1.81615       -2.13636
|  6> C          4.67196        0.12227       -4.22060
|  7> N          5.86602       -0.50785       -4.22428
|  8> N          3.69888       -0.31284       -4.98699
|  9> H          2.73141       -0.05009       -4.84900
| 10> H          3.89005       -1.05517       -5.64373
| 11> H          5.25193        1.30346       -2.72101
| 12> H          6.69516       -0.06232       -3.85160
| 13> H          5.97538       -1.39688       -4.69141
| 14> H          2.80646        1.98651       -4.26848
| 15> H          3.77871        3.09828       -3.30738
| 16> H          2.11090        0.81901       -2.18783
| 17> H          1.68276        2.51198       -2.12786
| 18> H          3.07216        1.93031       -1.24227
| 19> *
| 20>
| 21> %MaxCore 64000
| 22>
| 23> %pal nprocs 18
| 24> end
| 25>
| 26> %scf
| 27>   MaxIter 150
| 28> end
| 29>
| 30>
| 31>                          ****END OF INPUT****

CARTESIAN COORDINATES (ANGSTROEM)
---------------------------------
  C      3.380930    2.083040   -3.350130
  C      4.535920    1.182450   -3.428520
  C      2.495560    1.816150   -2.136360
  C      4.671960    0.122270   -4.220600
  N      5.866020   -0.507850   -4.224280
  N      3.698880   -0.312840   -4.986990
  H      2.731410   -0.050090   -4.849000
  H      3.890050   -1.055170   -5.643730
  H      5.251930    1.303460   -2.721010
  H      6.695160   -0.062320   -3.851600
  H      5.975380   -1.396880   -4.691410
  H      2.806460    1.986510   -4.268480
  H      3.778710    3.098280   -3.307380
  H      2.110900    0.819010   -2.187830
  H      1.682760    2.511980   -2.127860
  H      3.072160    1.930310   -1.242270

 Total Charge           Charge          ....    0
 Multiplicity           Mult            ....    1
 Number of Electrons    NEL             ....   48
 Basis Dimension        Dim             ....  506

ORBITAL ENERGIES
----------------

  NO   OCC          E(Eh)            E(eV)
   0   2.0000     -15.564537      -423.5326
   1   2.0000     -15.556738      -423.3204
   2   2.0000     -11.283213      -307.0318
   3   2.0000     -11.194241      -304.6108
   4   2.0000     -11.185459      -304.3718
   5   2.0000     -11.137951      -303.0791
   6   2.0000      -1.277963       -34.7751
   7   2.0000      -1.162735       -31.6396
   8   2.0000      -1.044938       -28.4342
   9   2.0000      -0.947097       -25.7718
  10   2.0000      -0.838783       -22.8244
  11   2.0000      -0.778101       -21.1732
  12   2.0000      -0.725285       -19.7360
  13   2.0000      -0.687851       -18.7174
  14   2.0000      -0.647890       -17.6300
  15   2.0000      -0.607213       -16.5231
  16   2.0000      -0.576316       -15.6824
  17   2.0000      -0.552962       -15.0469
  18   2.0000      -0.535956       -14.5841
  19   2.0000      -0.493196       -13.4205
  20   2.0000      -0.470842       -12.8123
  21   2.0000      -0.462595       -12.5878
  22   2.0000      -0.413093       -11.2408
  23   2.0000      -0.255667        -6.9570
  24   0.0000       0.023784         0.6472
  25   0.0000       0.034834         0.9479
  26   0.0000       0.039818         1.0835
  27   0.0000       0.046278         1.2593
  28   0.0000       0.051502         1.4014

MULLIKEN ATOMIC CHARGES
-----------------------
   0 C :   -0.291515
   1 C :   -0.263105
   2 C :   -0.993981
   3 C :    0.634363
   4 N :   -0.552722
   5 N :   -0.435130
   6 H :    0.120714
   7 H :    0.124326
   8 H :    0.160340
   9 H :    0.102289
  10 H :    0.088660
  11 H :    0.146006
  12 H :    0.306550
  13 H :    0.321511
  14 H :    0.257933
  15 H :    0.273761
Sum of atomic charges:   -0.0000000

LOEWDIN ATOMIC CHARGES
----------------------
   0 C :    0.212024
   1 C :    0.196679
   2 C :    0.594348
   3 C :   -0.430226
   4 N :    0.849615
   5 N :    0.857524
   6 H :   -0.271999
   7 H :   -0.277945
   8 H :   -0.272615
   9 H :   -0.274209
  10 H :   -0.292331
  11 H :   -0.177312
  12 H :   -0.153184
  13 H :   -0.186173
  14 H :   -0.190971
  15 H :   -0.183227

  Mayer bond orders larger than 0.100000
B(  0-C ,  1-C ) :   0.7120 B(  0-C ,  2-C ) :   0.8417 B(  0-C , 11-H ) :   0.9715
B(  0-C , 12-H ) :   1.0010 B(  1-C ,  3-C ) :   1.2228 B(  1-C ,  4-N ) :  -0.2364
B(  1-C ,  5-N ) :  -0.1383 B(  1-C ,  8-H ) :   1.1174 B(  2-C , 13-H ) :   0.9178
B(  2-C , 14-H ) :   1.0062 B(  2-C , 15-H ) :   0.9712 B(  3-C ,  4-N ) :   0.8517
B(  3-C ,  5-N ) :   0.8008 B(  3-C , 11-H ) :   0.1279 B(  4-N ,  5-N ) :  -0.1561
B(  4-N ,  9-H ) :   1.1276 B(  4-N , 10-H ) :   1.1310 B(  5-N ,  6-H ) :   1.1176
B(  5-N ,  7-H ) :   1.0617

E(0)                                       ...   -266.254723630
E(0)                                       ...   -266.254723630
E(CORR)(strong-pairs)                      ...     -1.165349221
E(CORR)(weak-pairs)                        ...     -0.001274786
E(CORR)(corrected)                         ...     -1.166624006
E(TOT)                                     ...   -267.421347636
E(CCSD(T))                                 ...   -267.469050477
FINAL SINGLE POINT ENERGY      -267.469050476950

DIPOLE MOMENT
-------------
                                X             Y             Z
Electronic contribution:      2.97904      -2.81642      -2.90185
Nuclear contribution   :     -2.84307       1.95814       2.32378
                        -----------------------------------------
Total Dipole Moment    :      0.13597      -0.85828      -0.57808
                        -----------------------------------------
Magnitude (a.u.)       :      1.04370
Magnitude (Debye)      :      2.65286

Rotational constants in cm-1:     0.248902     0.068887     0.059904
Rotational constants in MHz :  7461.898926  2065.183281  1795.882140

                             ****ORCA TERMINATED NORMALLY****
TOTAL RUN TIME: 0 days 0 hours 13 minutes 17 seconds 648 msec
