                         Program Version 5.0.0 -  RELEASE  -
|  1> !DLPNO-CCSD(T) aug-cc-pVTZ aug-cc-pVTZ/C TightSCF TightPNO RIJCOSX def2/J
|  2> *xyz 0 1
|  3> C          2.49556        1.81615       -2.13636
|  4> C          1.87218        0.42790       -2.07750
|  5> H          2.61427       -0.36583       -2.19889
|  6> H          1.38995        0.27309       -1.11236
|  7> S          0.57902        0.14047       -3.29794
|  8> O          0.22886       -1.24687       -3.12787
|  9> F         -0.43927        1.11897       -3.01455
| 10> O          1.24788        0.40347       -4.59565
| 11> H          2.96535        1.95613       -3.08747
| 12> H          3.22581        1.91242       -1.36024
| 13> H          1.73350        2.55528       -2.00274
| 14> *
| 15>
| 16> %MaxCore 64000
| 17>
| 18> %pal nprocs 18
| 19> end
| 20>
| 21> %scf
| 22>   MaxIter 150
| 23> end
| 24>
| 25>
| 26>                          ****END OF INPUT****

CARTESIAN COORDINATES (ANGSTROEM)
---------------------------------
  C      2.495560    1.816150   -2.136360
  C      1.872180    0.427900   -2.077500
  H      2.614270   -0.365830   -2.198890
  H      1.389950    0.273090   -1.112360
  S      0.579020    0.140470   -3.297940
  O      0.228860   -1.246870   -3.127870
  F     -0.439270    1.118970   -3.014550
  O      1.247880    0.403470   -4.595650
  H      2.965350    1.956130   -3.087470
  H      3.225810    1.912420   -1.360240
  H      1.733500    2.555280   -2.002740

 Total Charge           Charge          ....    0
 Multiplicity           Mult            ....    1
 Number of Electrons    NEL             ....   58
 Basis Dimension        Dim             ....  395

ORBITAL ENERGIES
----------------

  NO   OCC          E(Eh)            E(eV)
   0   2.0000     -92.250893     -2510.2744
   1   2.0000     -26.436146      -719.3641
   2   2.0000     -20.571301      -559.7736
   3   2.0000     -20.555384      -559.3404
   4   2.0000     -11.293972      -307.3246
   5   2.0000     -11.246918      -306.0442
   6   2.0000      -9.214468      -250.7384
   7   2.0000      -6.902077      -187.8151
   8   2.0000      -6.898078      -187.7062
   9   2.0000      -6.897189      -187.6821
  10   2.0000      -1.805524       -49.1308
  11   2.0000      -1.454122       -39.5687
  12   2.0000      -1.342070       -36.5196
  13   2.0000      -1.100934       -29.9579
  14   2.0000      -0.989739       -26.9322
  15   2.0000      -0.915785       -24.9198
  16   2.0000      -0.835138       -22.7253
  17   2.0000      -0.830800       -22.6072
  18   2.0000      -0.758639       -20.6436
  19   2.0000      -0.672355       -18.2957
  20   2.0000      -0.662748       -18.0343
  21   2.0000      -0.635864       -17.3027
  22   2.0000      -0.599768       -16.3205
  23   2.0000      -0.571173       -15.5424
  24   2.0000      -0.555519       -15.1164
  25   2.0000      -0.539294       -14.6749
  26   2.0000      -0.499097       -13.5811
  27   2.0000      -0.476551       -12.9676
  28   2.0000      -0.473610       -12.8876
  29   0.0000       0.022549         0.6136
  30   0.0000       0.037078         1.0090
  31   0.0000       0.038394         1.0448
  32   0.0000       0.048452         1.3184
  33   0.0000       0.062347         1.6965

MULLIKEN ATOMIC CHARGES
-----------------------
   0 C :   -0.964423
   1 C :   -0.503785
   2 H :    0.323808
   3 H :    0.287447
   4 S :    2.135186
   5 O :   -0.872284
   6 F :   -0.508371
   7 O :   -0.879698
   8 H :    0.335619
   9 H :    0.318461
  10 H :    0.328040
Sum of atomic charges:    0.0000000

LOEWDIN ATOMIC CHARGES
----------------------
   0 C :    0.565274
   1 C :    0.166285
   2 H :   -0.171053
   3 H :   -0.200308
   4 S :   -0.124956
   5 O :    0.030866
   6 F :    0.291144
   7 O :    0.008229
   8 H :   -0.193264
   9 H :   -0.179739
  10 H :   -0.192478

  Mayer bond orders larger than 0.100000
B(  0-C ,  1-C ) :   0.9081 B(  0-C ,  8-H ) :   0.9047 B(  0-C ,  9-H ) :   0.9414
B(  0-C , 10-H ) :   0.9083 B(  1-C ,  2-H ) :   0.8818 B(  1-C ,  3-H ) :   0.9148
B(  1-C ,  4-S ) :   0.8687 B(  4-S ,  5-O ) :   1.5716 B(  4-S ,  6-F ) :   0.5821
B(  4-S ,  7-O ) :   1.5134

E(0)                                       ...   -725.421801635
E(0)                                       ...   -725.421801635
E(CORR)(strong-pairs)                      ...     -1.306649184
E(CORR)(weak-pairs)                        ...     -0.001262222
E(CORR)(corrected)                         ...     -1.307911406
E(TOT)                                     ...   -726.729713041
E(CCSD(T))                                 ...   -726.782741496
FINAL SINGLE POINT ENERGY      -726.782741496375

DIPOLE MOMENT
-------------
                                X             Y             Z
Electronic contribution:     -7.89738      -2.29662      -3.74037
Nuclear contribution   :      8.30151       3.35500       5.26935
                        -----------------------------------------
Total Dipole Moment    :      0.40413       1.05838       1.52898
                        -----------------------------------------
Magnitude (a.u.)       :      1.90297
Magnitude (Debye)      :      4.83696

Rotational constants in cm-1:     0.152913     0.083043     0.080351
Rotational constants in MHz :  4584.227971  2489.580280  2408.872860

                             ****ORCA TERMINATED NORMALLY****
TOTAL RUN TIME: 0 days 0 hours 6 minutes 18 seconds 439 msec
