                         Program Version 5.0.0 -  RELEASE  -
|  1> !DLPNO-CCSD(T) aug-cc-pVTZ aug-cc-pVTZ/C TightSCF TightPNO RIJCOSX def2/J
|  2> *xyz 0 1
|  3> C          3.38093        2.08304       -3.35013
|  4> N          4.53592        1.18245       -3.42852
|  5> C          2.49556        1.81615       -2.13636
|  6> C          4.67196        0.12227       -4.22060
|  7> C          5.86602       -0.50785       -4.22428
|  8> N          3.69888       -0.31284       -4.98699
|  9> H          2.73141       -0.05009       -4.84900
| 10> H          3.89005       -1.05517       -5.64373
| 11> H          5.25193        1.30346       -2.72101
| 12> H          6.69516       -0.06232       -3.85160
| 13> H          5.97538       -1.39688       -4.69141
| 14> H          2.80646        1.98651       -4.26848
| 15> H          3.77871        3.09828       -3.30738
| 16> H          2.11090        0.81901       -2.18783
| 17> H          1.68276        2.51198       -2.12786
| 18> H          3.07216        1.93031       -1.24227
| 19> *
| 20>
| 21> %MaxCore 64000
| 22>
| 23> %pal nprocs 18
| 24> end
| 25>
| 26> %scf
| 27>   MaxIter 150
| 28> end
| 29>
| 30>
| 31>                          ****END OF INPUT****

CARTESIAN COORDINATES (ANGSTROEM)
---------------------------------
  C      3.380930    2.083040   -3.350130
  N      4.535920    1.182450   -3.428520
  C      2.495560    1.816150   -2.136360
  C      4.671960    0.122270   -4.220600
  C      5.866020   -0.507850   -4.224280
  N      3.698880   -0.312840   -4.986990
  H      2.731410   -0.050090   -4.849000
  H      3.890050   -1.055170   -5.643730
  H      5.251930    1.303460   -2.721010
  H      6.695160   -0.062320   -3.851600
  H      5.975380   -1.396880   -4.691410
  H      2.806460    1.986510   -4.268480
  H      3.778710    3.098280   -3.307380
  H      2.110900    0.819010   -2.187830
  H      1.682760    2.511980   -2.127860
  H      3.072160    1.930310   -1.242270

 Total Charge           Charge          ....    0
 Multiplicity           Mult            ....    1
 Number of Electrons    NEL             ....   48
 Basis Dimension        Dim             ....  506

ORBITAL ENERGIES
----------------

  NO   OCC          E(Eh)            E(eV)
   0   2.0000     -15.565653      -423.5629
   1   2.0000     -15.558046      -423.3560
   2   2.0000     -11.290476      -307.2295
   3   2.0000     -11.268042      -306.6190
   4   2.0000     -11.216477      -305.2158
   5   2.0000     -11.124411      -302.7106
   6   2.0000      -1.287694       -35.0399
   7   2.0000      -1.185911       -32.2703
   8   2.0000      -1.037827       -28.2407
   9   2.0000      -0.952265       -25.9125
  10   2.0000      -0.854205       -23.2441
  11   2.0000      -0.805912       -21.9300
  12   2.0000      -0.729007       -19.8373
  13   2.0000      -0.673663       -18.3313
  14   2.0000      -0.649554       -17.6753
  15   2.0000      -0.610651       -16.6167
  16   2.0000      -0.593085       -16.1387
  17   2.0000      -0.562749       -15.3132
  18   2.0000      -0.546082       -14.8596
  19   2.0000      -0.517273       -14.0757
  20   2.0000      -0.512359       -13.9420
  21   2.0000      -0.503662       -13.7053
  22   2.0000      -0.396309       -10.7841
  23   2.0000      -0.255920        -6.9639
  24   0.0000       0.025524         0.6945
  25   0.0000       0.033502         0.9116
  26   0.0000       0.038484         1.0472
  27   0.0000       0.039893         1.0856
  28   0.0000       0.053381         1.4526

MULLIKEN ATOMIC CHARGES
-----------------------
   0 C :   -0.481904
   1 N :   -0.044431
   2 C :   -0.942006
   3 C :    0.343126
   4 C :   -1.114850
   5 N :   -0.387136
   6 H :    0.151168
   7 H :    0.032059
   8 H :    0.046424
   9 H :    0.389778
  10 H :    0.381386
  11 H :    0.318805
  12 H :    0.386396
  13 H :    0.314131
  14 H :    0.333583
  15 H :    0.273473
Sum of atomic charges:   -0.0000000

LOEWDIN ATOMIC CHARGES
----------------------
   0 C :    0.204851
   1 N :    0.567272
   2 C :    0.614170
   3 C :   -0.462446
   4 C :    0.533913
   5 N :    0.854988
   6 H :   -0.285340
   7 H :   -0.266247
   8 H :   -0.259710
   9 H :   -0.315063
  10 H :   -0.322854
  11 H :   -0.167439
  12 H :   -0.144053
  13 H :   -0.183227
  14 H :   -0.185909
  15 H :   -0.182906

  Mayer bond orders larger than 0.100000
B(  0-C ,  1-N ) :   0.9062 B(  0-C ,  2-C ) :   0.8376 B(  0-C ,  3-C ) :  -0.1637
B(  0-C , 11-H ) :   0.9383 B(  0-C , 12-H ) :   0.8706 B(  1-N ,  3-C ) :   0.7659
B(  1-N ,  4-C ) :  -0.2250 B(  1-N ,  5-N ) :  -0.1670 B(  1-N ,  8-H ) :   1.1303
B(  2-C , 13-H ) :   0.9325 B(  2-C , 14-H ) :   0.9113 B(  2-C , 15-H ) :   0.9670
B(  3-C ,  4-C ) :   1.0981 B(  3-C ,  5-N ) :   0.8458 B(  4-C ,  5-N ) :  -0.2454
B(  4-C ,  9-H ) :   0.9445 B(  4-C , 10-H ) :   0.9442 B(  5-N ,  6-H ) :   1.0539
B(  5-N ,  7-H ) :   1.1843

E(0)                                       ...   -266.246297409
E(0)                                       ...   -266.246297409
E(CORR)(strong-pairs)                      ...     -1.162190360
E(CORR)(weak-pairs)                        ...     -0.001249870
E(CORR)(corrected)                         ...     -1.163440230
E(TOT)                                     ...   -267.409737639
E(CCSD(T))                                 ...   -267.457353501
FINAL SINGLE POINT ENERGY      -267.457353500810

DIPOLE MOMENT
-------------
                                X             Y             Z
Electronic contribution:      1.40000      -1.04579      -2.03324
Nuclear contribution   :     -2.56090       1.59955       2.15496
                        -----------------------------------------
Total Dipole Moment    :     -1.16090       0.55376       0.12172
                        -----------------------------------------
Magnitude (a.u.)       :      1.29196
Magnitude (Debye)      :      3.28391

Rotational constants in cm-1:     0.249834     0.071381     0.061833
Rotational constants in MHz :  7489.842787  2139.945635  1853.706310

                             ****ORCA TERMINATED NORMALLY****
TOTAL RUN TIME: 0 days 0 hours 13 minutes 33 seconds 281 msec
