                         Program Version 5.0.0 -  RELEASE  -
|  1> !DLPNO-CCSD(T) aug-cc-pVTZ aug-cc-pVTZ/C TightSCF TightPNO RIJCOSX def2/J
|  2> *xyz 0 1
|  3> C          2.49556        1.81615       -2.13636
|  4> C          1.87218        0.42790       -2.07750
|  5> H          2.61427       -0.36583       -2.19889
|  6> H          1.38995        0.27309       -1.11236
|  7> S          0.57902        0.14047       -3.29794
|  8> O          0.22886       -1.24687       -3.12787
|  9> O         -0.43927        1.11897       -3.01455
| 10> F          1.24788        0.40347       -4.59565
| 11> H          2.96535        1.95613       -3.08747
| 12> H          3.22581        1.91242       -1.36024
| 13> H          1.73350        2.55528       -2.00274
| 14> *
| 15>
| 16> %MaxCore 64000
| 17>
| 18> %pal nprocs 18
| 19> end
| 20>
| 21> %scf
| 22>   MaxIter 150
| 23> end
| 24>
| 25>
| 26>                          ****END OF INPUT****

CARTESIAN COORDINATES (ANGSTROEM)
---------------------------------
  C      2.495560    1.816150   -2.136360
  C      1.872180    0.427900   -2.077500
  H      2.614270   -0.365830   -2.198890
  H      1.389950    0.273090   -1.112360
  S      0.579020    0.140470   -3.297940
  O      0.228860   -1.246870   -3.127870
  O     -0.439270    1.118970   -3.014550
  F      1.247880    0.403470   -4.595650
  H      2.965350    1.956130   -3.087470
  H      3.225810    1.912420   -1.360240
  H      1.733500    2.555280   -2.002740

 Total Charge           Charge          ....    0
 Multiplicity           Mult            ....    1
 Number of Electrons    NEL             ....   58
 Basis Dimension        Dim             ....  395

ORBITAL ENERGIES
----------------

  NO   OCC          E(Eh)            E(eV)
   0   2.0000     -92.249526     -2510.2372
   1   2.0000     -26.412770      -718.7280
   2   2.0000     -20.570631      -559.7553
   3   2.0000     -20.570605      -559.7546
   4   2.0000     -11.292715      -307.2904
   5   2.0000     -11.247394      -306.0572
   6   2.0000      -9.212827      -250.6938
   7   2.0000      -6.900523      -187.7728
   8   2.0000      -6.896547      -187.6646
   9   2.0000      -6.895652      -187.6402
  10   2.0000      -1.765877       -48.0520
  11   2.0000      -1.467273       -39.9265
  12   2.0000      -1.366147       -37.1748
  13   2.0000      -1.099893       -29.9296
  14   2.0000      -0.972311       -26.4579
  15   2.0000      -0.906631       -24.6707
  16   2.0000      -0.810503       -22.0549
  17   2.0000      -0.804059       -21.8796
  18   2.0000      -0.758509       -20.6401
  19   2.0000      -0.677287       -18.4299
  20   2.0000      -0.661919       -18.0117
  21   2.0000      -0.643968       -17.5233
  22   2.0000      -0.604143       -16.4396
  23   2.0000      -0.575752       -15.6670
  24   2.0000      -0.560566       -15.2538
  25   2.0000      -0.539948       -14.6927
  26   2.0000      -0.511115       -13.9081
  27   2.0000      -0.492077       -13.3901
  28   2.0000      -0.480568       -13.0769
  29   0.0000       0.023243         0.6325
  30   0.0000       0.037494         1.0203
  31   0.0000       0.039143         1.0651
  32   0.0000       0.048101         1.3089
  33   0.0000       0.062025         1.6878

MULLIKEN ATOMIC CHARGES
-----------------------
   0 C :   -0.968648
   1 C :   -0.511415
   2 H :    0.305242
   3 H :    0.308457
   4 S :    2.158785
   5 O :   -0.875732
   6 O :   -0.882668
   7 F :   -0.514979
   8 H :    0.312026
   9 H :    0.317293
  10 H :    0.351638
Sum of atomic charges:    0.0000000

LOEWDIN ATOMIC CHARGES
----------------------
   0 C :    0.565691
   1 C :    0.167559
   2 H :   -0.187331
   3 H :   -0.183452
   4 S :   -0.122093
   5 O :    0.031254
   6 O :    0.036283
   7 F :    0.257196
   8 H :   -0.193471
   9 H :   -0.179466
  10 H :   -0.192169

  Mayer bond orders larger than 0.100000
B(  0-C ,  1-C ) :   0.9126 B(  0-C ,  8-H ) :   0.9241 B(  0-C ,  9-H ) :   0.9456
B(  0-C , 10-H ) :   0.8843 B(  1-C ,  2-H ) :   0.9014 B(  1-C ,  3-H ) :   0.8929
B(  1-C ,  4-S ) :   0.8598 B(  4-S ,  5-O ) :   1.5708 B(  4-S ,  6-O ) :   1.5726
B(  4-S ,  7-F ) :   0.5669

E(0)                                       ...   -725.440841757
E(0)                                       ...   -725.440841757
E(CORR)(strong-pairs)                      ...     -1.305592877
E(CORR)(weak-pairs)                        ...     -0.001255637
E(CORR)(corrected)                         ...     -1.306848514
E(TOT)                                     ...   -726.747690271
E(CCSD(T))                                 ...   -726.800429247
FINAL SINGLE POINT ENERGY      -726.800429246916

DIPOLE MOMENT
-------------
                                X             Y             Z
Electronic contribution:     -4.90832      -3.55159      -6.55001
Nuclear contribution   :      6.54345       4.10057       6.91691
                        -----------------------------------------
Total Dipole Moment    :      1.63513       0.54898       0.36690
                        -----------------------------------------
Magnitude (a.u.)       :      1.76342
Magnitude (Debye)      :      4.48225

Rotational constants in cm-1:     0.152835     0.082826     0.080611
Rotational constants in MHz :  4581.878371  2483.049050  2416.647141

                             ****ORCA TERMINATED NORMALLY****
TOTAL RUN TIME: 0 days 0 hours 6 minutes 8 seconds 390 msec
