                         Program Version 5.0.0 -  RELEASE  -
|  1> !DLPNO-CCSD(T) aug-cc-pVTZ aug-cc-pVTZ/C TightSCF TightPNO RIJCOSX def2/J
|  2> *xyz 0 1
|  3> C          3.38093        2.08304       -3.35013
|  4> N          4.53592        1.18245       -3.42852
|  5> C          2.49556        1.81615       -2.13636
|  6> C          4.67196        0.12227       -4.22060
|  7> N          5.86602       -0.50785       -4.22428
|  8> C          3.69888       -0.31284       -4.98699
|  9> H          2.73141       -0.05009       -4.84900
| 10> H          3.89005       -1.05517       -5.64373
| 11> H          5.25193        1.30346       -2.72101
| 12> H          6.69516       -0.06232       -3.85160
| 13> H          5.97538       -1.39688       -4.69141
| 14> H          2.80646        1.98651       -4.26848
| 15> H          3.77871        3.09828       -3.30738
| 16> H          2.11090        0.81901       -2.18783
| 17> H          1.68276        2.51198       -2.12786
| 18> H          3.07216        1.93031       -1.24227
| 19> *
| 20>
| 21> %MaxCore 64000
| 22>
| 23> %pal nprocs 18
| 24> end
| 25>
| 26> %scf
| 27>   MaxIter 150
| 28> end
| 29>
| 30>
| 31>                          ****END OF INPUT****

CARTESIAN COORDINATES (ANGSTROEM)
---------------------------------
  C      3.380930    2.083040   -3.350130
  N      4.535920    1.182450   -3.428520
  C      2.495560    1.816150   -2.136360
  C      4.671960    0.122270   -4.220600
  N      5.866020   -0.507850   -4.224280
  C      3.698880   -0.312840   -4.986990
  H      2.731410   -0.050090   -4.849000
  H      3.890050   -1.055170   -5.643730
  H      5.251930    1.303460   -2.721010
  H      6.695160   -0.062320   -3.851600
  H      5.975380   -1.396880   -4.691410
  H      2.806460    1.986510   -4.268480
  H      3.778710    3.098280   -3.307380
  H      2.110900    0.819010   -2.187830
  H      1.682760    2.511980   -2.127860
  H      3.072160    1.930310   -1.242270

 Total Charge           Charge          ....    0
 Multiplicity           Mult            ....    1
 Number of Electrons    NEL             ....   48
 Basis Dimension        Dim             ....  506

ORBITAL ENERGIES
----------------

  NO   OCC          E(Eh)            E(eV)
   0   2.0000     -15.557757      -423.3481
   1   2.0000     -15.557711      -423.3468
   2   2.0000     -11.285490      -307.0938
   3   2.0000     -11.258822      -306.3681
   4   2.0000     -11.207865      -304.9815
   5   2.0000     -11.129217      -302.8414
   6   2.0000      -1.278860       -34.7995
   7   2.0000      -1.174045       -31.9474
   8   2.0000      -1.020476       -27.7686
   9   2.0000      -0.972254       -26.4564
  10   2.0000      -0.863921       -23.5085
  11   2.0000      -0.765608       -20.8333
  12   2.0000      -0.725237       -19.7347
  13   2.0000      -0.693099       -18.8602
  14   2.0000      -0.619672       -16.8621
  15   2.0000      -0.615720       -16.7546
  16   2.0000      -0.583865       -15.8878
  17   2.0000      -0.565244       -15.3811
  18   2.0000      -0.535862       -14.5816
  19   2.0000      -0.525393       -14.2967
  20   2.0000      -0.502454       -13.6725
  21   2.0000      -0.496408       -13.5079
  22   2.0000      -0.388102       -10.5608
  23   2.0000      -0.270966        -7.3734
  24   0.0000       0.025298         0.6884
  25   0.0000       0.034809         0.9472
  26   0.0000       0.040413         1.0997
  27   0.0000       0.042392         1.1536
  28   0.0000       0.052053         1.4164

MULLIKEN ATOMIC CHARGES
-----------------------
   0 C :   -0.529174
   1 N :   -0.062437
   2 C :   -0.953437
   3 C :    0.521993
   4 N :   -0.494181
   5 C :   -1.162860
   6 H :    0.401153
   7 H :    0.327621
   8 H :    0.105700
   9 H :    0.097008
  10 H :    0.076777
  11 H :    0.374480
  12 H :    0.370690
  13 H :    0.329575
  14 H :    0.332486
  15 H :    0.264606
Sum of atomic charges:    0.0000000

LOEWDIN ATOMIC CHARGES
----------------------
   0 C :    0.207370
   1 N :    0.562760
   2 C :    0.615141
   3 C :   -0.456225
   4 N :    0.854939
   5 C :    0.530212
   6 H :   -0.308170
   7 H :   -0.307882
   8 H :   -0.269202
   9 H :   -0.285203
  10 H :   -0.278677
  11 H :   -0.169610
  12 H :   -0.144284
  13 H :   -0.180155
  14 H :   -0.184796
  15 H :   -0.186220

  Mayer bond orders larger than 0.100000
B(  0-C ,  1-N ) :   0.9326 B(  0-C ,  2-C ) :   0.8438 B(  0-C ,  3-C ) :  -0.1119
B(  0-C , 11-H ) :   0.9096 B(  0-C , 12-H ) :   0.8872 B(  1-N ,  3-C ) :   0.8411
B(  1-N ,  4-N ) :  -0.1888 B(  1-N ,  5-C ) :  -0.1893 B(  1-N ,  8-H ) :   1.0637
B(  2-C , 13-H ) :   0.9147 B(  2-C , 14-H ) :   0.9134 B(  2-C , 15-H ) :   0.9725
B(  3-C ,  4-N ) :   0.8613 B(  3-C ,  5-C ) :   1.1732 B(  4-N ,  5-C ) :  -0.2244
B(  4-N ,  9-H ) :   1.1110 B(  4-N , 10-H ) :   1.1524 B(  5-C ,  6-H ) :   0.9273
B(  5-C ,  7-H ) :   0.9714

E(0)                                       ...   -266.252173278
E(0)                                       ...   -266.252173278
E(CORR)(strong-pairs)                      ...     -1.162167371
E(CORR)(weak-pairs)                        ...     -0.001285806
E(CORR)(corrected)                         ...     -1.163453177
E(TOT)                                     ...   -267.415626455
E(CCSD(T))                                 ...   -267.463085831
FINAL SINGLE POINT ENERGY      -267.463085830581

DIPOLE MOMENT
-------------
                                X             Y             Z
Electronic contribution:      3.67518      -1.29503      -1.31904
Nuclear contribution   :     -3.02065       1.64092       1.99316
                        -----------------------------------------
Total Dipole Moment    :      0.65453       0.34589       0.67412
                        -----------------------------------------
Magnitude (a.u.)       :      1.00125
Magnitude (Debye)      :      2.54496

Rotational constants in cm-1:     0.259304     0.069422     0.060943
Rotational constants in MHz :  7773.747720  2081.225169  1827.013389

                             ****ORCA TERMINATED NORMALLY****
TOTAL RUN TIME: 0 days 0 hours 12 minutes 44 seconds 250 msec
