                         Program Version 5.0.0 -  RELEASE  -
|  1> !DLPNO-CCSD(T) aug-cc-pVTZ aug-cc-pVTZ/C TightSCF TightPNO RIJCOSX def2/J
|  2>
|  3> *xyzfile 0 1 D5.xyz
|  4>
|  5> %MaxCore 64000
|  6>
|  7> %pal nprocs 18
|  8> end
|  9>
| 10> %scf
| 11>   MaxIter 150
| 12> end
| 13>
| 14>
| 15>                          ****END OF INPUT****

CARTESIAN COORDINATES (ANGSTROEM)
---------------------------------
  C      3.380928    2.083045   -3.350127
  N      4.535924    1.182447   -3.428518
  C      2.495557    1.816150   -2.136364
  C      1.872181    0.427903   -2.077497
  H      2.614270   -0.365825   -2.198894
  H      1.389953    0.273087   -1.112360
  S      0.579024    0.140472   -3.297943
  C      4.671956    0.122273   -4.220598
  C      5.866023   -0.507849   -4.224284
  N      3.698881   -0.312844   -4.986988
  H      2.731405   -0.050091   -4.849000
  H      3.890046   -1.055172   -5.643730
  H      5.251933    1.303459   -2.721014
  H      6.695165   -0.062322   -3.851596
  H      5.975383   -1.396884   -4.691414
  O      0.228860   -1.246868   -3.127871
  F     -0.439269    1.118966   -3.014550
  O      1.247881    0.403474   -4.595647
  H      1.697003    2.561969   -2.141109
  H      3.080787    1.987436   -1.225838
  H      2.806463    1.986511   -4.268484
  H      3.778714    3.098282   -3.307383

 Total Charge           Charge          ....    0
 Multiplicity           Mult            ....    1
 Number of Electrons    NEL             ....   96
 Basis Dimension        Dim             ....  763

ORBITAL ENERGIES
----------------

  NO   OCC          E(Eh)            E(eV)
   0   2.0000     -92.275016     -2510.9308
   1   2.0000     -26.456055      -719.9059
   2   2.0000     -20.591090      -560.3120
   3   2.0000     -20.583604      -560.1083
   4   2.0000     -15.561394      -423.4471
   5   2.0000     -15.531514      -422.6340
   6   2.0000     -11.305671      -307.6430
   7   2.0000     -11.281622      -306.9885
   8   2.0000     -11.275500      -306.8219
   9   2.0000     -11.268973      -306.6443
  10   2.0000     -11.116659      -302.4997
  11   2.0000      -9.238564      -251.3941
  12   2.0000      -6.926051      -188.4674
  13   2.0000      -6.922190      -188.3624
  14   2.0000      -6.921386      -188.3405
  15   2.0000      -1.825277       -49.6683
  16   2.0000      -1.480425       -40.2844
  17   2.0000      -1.375814       -37.4378
  18   2.0000      -1.281119       -34.8610
  19   2.0000      -1.179038       -32.0833
  20   2.0000      -1.118886       -30.4464
  21   2.0000      -1.032586       -28.0981
  22   2.0000      -0.980167       -26.6717
  23   2.0000      -0.938874       -25.5480
  24   2.0000      -0.868910       -23.6442
  25   2.0000      -0.854821       -23.2608
  26   2.0000      -0.842639       -22.9294
  27   2.0000      -0.799832       -21.7645
  28   2.0000      -0.784150       -21.3378
  29   2.0000      -0.732300       -19.9269
  30   2.0000      -0.688421       -18.7329
  31   2.0000      -0.684350       -18.6221
  32   2.0000      -0.665795       -18.1172
  33   2.0000      -0.654398       -17.8071
  34   2.0000      -0.639531       -17.4025
  35   2.0000      -0.618797       -16.8383
  36   2.0000      -0.588004       -16.0004
  37   2.0000      -0.575355       -15.6562
  38   2.0000      -0.571681       -15.5562
  39   2.0000      -0.548720       -14.9314
  40   2.0000      -0.542124       -14.7519
  41   2.0000      -0.519588       -14.1387
  42   2.0000      -0.511814       -13.9272
  43   2.0000      -0.503371       -13.6974
  44   2.0000      -0.496284       -13.5046
  45   2.0000      -0.484501       -13.1840
  46   2.0000      -0.389499       -10.5988
  47   2.0000      -0.248920        -6.7735
  48   0.0000       0.017212         0.4683
  49   0.0000       0.030147         0.8203
  50   0.0000       0.032665         0.8889
  51   0.0000       0.041840         1.1385
  52   0.0000       0.050557         1.3757

MULLIKEN ATOMIC CHARGES
-----------------------
   0 C :   -0.387783
   1 N :   -0.203855
   2 C :   -0.587689
   3 C :   -0.464078
   4 H :    0.271590
   5 H :    0.349129
   6 S :    2.221637
   7 C :    0.667107
   8 C :   -1.394802
   9 N :   -0.543887
  10 H :    0.432085
  11 H :   -0.015565
  12 H :   -0.028892
  13 H :    0.542581
  14 H :    0.209854
  15 O :   -0.936112
  16 F :   -0.527857
  17 O :   -0.842672
  18 H :    0.304710
  19 H :    0.228103
  20 H :    0.250931
  21 H :    0.455466
Sum of atomic charges:    0.0000000

LOEWDIN ATOMIC CHARGES
----------------------
   0 C :    0.216859
   1 N :    0.571310
   2 C :    0.264563
   3 C :    0.211223
   4 H :   -0.166863
   5 H :   -0.185831
   6 S :    0.014456
   7 C :   -0.461876
   8 C :    0.530560
   9 N :    0.870001
  10 H :   -0.671029
  11 H :   -0.250730
  12 H :   -0.259112
  13 H :   -0.319864
  14 H :   -0.322675
  15 O :    0.057404
  16 F :    0.307823
  17 O :    0.237122
  18 H :   -0.160259
  19 H :   -0.135362
  20 H :   -0.212297
  21 H :   -0.135423

  Mayer bond orders larger than 0.100000
B(  0-C ,  1-N ) :   0.9040 B(  0-C ,  2-C ) :   0.8145 B(  0-C ,  7-C ) :  -0.1609
B(  0-C , 17-O ) :  -0.1005 B(  0-C , 20-H ) :   1.0926 B(  0-C , 21-H ) :   0.7961
B(  1-N ,  7-C ) :   0.8707 B(  1-N ,  8-C ) :  -0.2533 B(  1-N ,  9-N ) :  -0.1263
B(  1-N , 12-H ) :   1.2145 B(  2-C ,  3-C ) :   0.8775 B(  2-C , 18-H ) :   0.9089
B(  2-C , 19-H ) :   0.9970 B(  3-C ,  4-H ) :   0.9558 B(  3-C ,  5-H ) :   0.8730
B(  3-C ,  6-S ) :   0.8206 B(  6-S , 15-O ) :   1.4279 B(  6-S , 16-F ) :   0.4712
B(  6-S , 17-O ) :   1.5604 B(  7-C ,  8-C ) :   1.0128 B(  7-C ,  9-N ) :   0.7508
B(  7-C , 10-H ) :  -0.3097 B(  8-C ,  9-N ) :  -0.2102 B(  8-C , 10-H ) :   0.1109
B(  8-C , 13-H ) :   0.6823 B(  8-C , 14-H ) :   1.2675 B(  9-N , 10-H ) :   0.7189
B(  9-N , 11-H ) :   1.2634

E(0)                                       ...   -951.444049838
E(0)                                       ...   -951.444049838
E(CORR)(strong-pairs)                      ...     -2.259219490
E(CORR)(weak-pairs)                        ...     -0.003349541
E(CORR)(corrected)                         ...     -2.262569031
E(TOT)                                     ...   -953.706618869
E(CCSD(T))                                 ...   -953.802770709
FINAL SINGLE POINT ENERGY      -953.802770709187

DIPOLE MOMENT
-------------
                                X             Y             Z
Electronic contribution:    -17.96358      -1.02260      -0.05237
Nuclear contribution   :     16.78714       2.58368       1.61768
                        -----------------------------------------
Total Dipole Moment    :     -1.17645       1.56109       1.56532
                        -----------------------------------------
Magnitude (a.u.)       :      2.50424
Magnitude (Debye)      :      6.36528

Rotational constants in cm-1:     0.059928     0.020911     0.017993
Rotational constants in MHz :  1796.610847   626.896941   539.414615

                             ****ORCA TERMINATED NORMALLY****
TOTAL RUN TIME: 0 days 1 hours 36 minutes 54 seconds 311 msec
