                         Program Version 5.0.0 -  RELEASE  -
|  1> !M062X D3Zero RIJCOSX def2-SVP def2/J TightSCF
|  2> *xyz -1 1
|  3> C         -5.57236       -5.80780       -0.81644
|  4> S         -6.90318       -4.61903       -0.52846
|  5> O         -8.11485       -5.25093       -0.95701
|  6> O         -6.53271       -3.42684       -1.31485
|  7> O         -6.86563       -4.29496        0.91412
|  8> C         -4.45780       -5.94187        0.22919
|  9> H         -5.17735       -5.54257       -1.79771
| 10> H         -6.07420       -6.76889       -0.92127
| 11> H         -3.75515       -6.68239       -0.09144
| 12> H         -4.88182       -6.23486        1.16689
| 13> H         -3.95908       -5.00189        0.34143
| 14> *
| 15> %MaxCore 64000
| 16>
| 17> %pal nprocs 4
| 18> end
| 19>
| 20> %scf
| 21>   MaxIter 150
| 22> end
| 23>
| 24>                          ****END OF INPUT****

CARTESIAN COORDINATES (ANGSTROEM)
---------------------------------
  C     -5.572360   -5.807800   -0.816440
  S     -6.903180   -4.619030   -0.528460
  O     -8.114850   -5.250930   -0.957010
  O     -6.532710   -3.426840   -1.314850
  O     -6.865630   -4.294960    0.914120
  C     -4.457800   -5.941870    0.229190
  H     -5.177350   -5.542570   -1.797710
  H     -6.074200   -6.768890   -0.921270
  H     -3.755150   -6.682390   -0.091440
  H     -4.881820   -6.234860    1.166890
  H     -3.959080   -5.001890    0.341430

 Total Charge           Charge          ....   -1
 Multiplicity           Mult            ....    1
 Number of Electrons    NEL             ....   58
 Basis Dimension        Dim             ....  113

ORBITAL ENERGIES
----------------

  NO   OCC          E(Eh)            E(eV)
   0   2.0000     -89.900095     -2446.3060
   1   2.0000     -19.387285      -527.5549
   2   2.0000     -19.372781      -527.1602
   3   2.0000     -19.370118      -527.0877
   4   2.0000     -10.407312      -283.1974
   5   2.0000     -10.399185      -282.9762
   6   2.0000      -8.230407      -223.9608
   7   2.0000      -6.154968      -167.4852
   8   2.0000      -6.154949      -167.4847
   9   2.0000      -6.154679      -167.4773
  10   2.0000      -1.020403       -27.7666
  11   2.0000      -0.874284       -23.7905
  12   2.0000      -0.848527       -23.0896
  13   2.0000      -0.713911       -19.4265
  14   2.0000      -0.583353       -15.8738
  15   2.0000      -0.444136       -12.0856
  16   2.0000      -0.381954       -10.3935
  17   2.0000      -0.374693       -10.1959
  18   2.0000      -0.335715        -9.1353
  19   2.0000      -0.318043        -8.6544
  20   2.0000      -0.315215        -8.5774
  21   2.0000      -0.281429        -7.6581
  22   2.0000      -0.275347        -7.4926
  23   2.0000      -0.194686        -5.2977
  24   2.0000      -0.193987        -5.2786
  25   2.0000      -0.159321        -4.3354
  26   2.0000      -0.144986        -3.9453
  27   2.0000      -0.143143        -3.8951
  28   2.0000      -0.106172        -2.8891
  29   0.0000       0.236171         6.4265
  30   0.0000       0.293324         7.9818
  31   0.0000       0.297865         8.1053
  32   0.0000       0.303011         8.2453
  33   0.0000       0.322407         8.7731

MULLIKEN ATOMIC CHARGES
-----------------------
   0 C :   -0.171070
   1 S :    0.964400
   2 O :   -0.597207
   3 O :   -0.644913
   4 O :   -0.639541
   5 C :   -0.021895
   6 H :    0.031614
   7 H :    0.023284
   8 H :   -0.008967
   9 H :    0.032537
  10 H :    0.031758
Sum of atomic charges:   -1.0000000

LOEWDIN ATOMIC CHARGES
----------------------
   0 C :   -0.200553
   1 S :    1.138807
   2 O :   -0.612086
   3 O :   -0.663166
   4 O :   -0.660841
   5 C :   -0.072894
   6 H :    0.013575
   7 H :    0.009710
   8 H :    0.005479
   9 H :    0.020773
  10 H :    0.021196

  Mayer bond orders larger than 0.100000
B(  0-C ,  1-S ) :   0.8751 B(  0-C ,  5-C ) :   1.0708 B(  0-C ,  6-H ) :   0.9470
B(  0-C ,  7-H ) :   0.9483 B(  1-S ,  2-O ) :   1.6349 B(  1-S ,  3-O ) :   1.5826
B(  1-S ,  4-O ) :   1.5907 B(  5-C ,  8-H ) :   0.9643 B(  5-C ,  9-H ) :   0.9697
B(  5-C , 10-H ) :   0.9717

Dispersion correction           -0.000154335
FINAL SINGLE POINT ENERGY      -702.565406595209

DIPOLE MOMENT
-------------
                                X             Y             Z
Electronic contribution:     -6.73298       4.34863      -0.91389
Nuclear contribution   :      8.13140      -5.68016       0.80206
                        -----------------------------------------
Total Dipole Moment    :      1.39842      -1.33153      -0.11183
                        -----------------------------------------
Magnitude (a.u.)       :      1.93419
Magnitude (Debye)      :      4.91631

Rotational constants in cm-1:     0.162101     0.080498     0.079099
Rotational constants in MHz :  4859.669771  2413.267251  2371.338602

                             ****ORCA TERMINATED NORMALLY****
TOTAL RUN TIME: 0 days 0 hours 0 minutes 14 seconds 527 msec
