                         Program Version 5.0.0 -  RELEASE  -
|  1> !M062X D3Zero RIJCOSX def2-SVP def2/J TightSCF
|  2> *xyz 1 1
|  3> C         -4.38262       -1.67089        1.21620
|  4> N         -5.76354       -1.91517        0.70501
|  5> C         -3.28173       -2.19127        0.29436
|  6> H         -5.84081       -2.11520       -0.30065
|  7> H         -6.40882       -1.14866        0.93612
|  8> H         -6.17478       -2.79061        1.05143
|  9> H         -4.32862       -2.13922        2.19810
| 10> H         -4.26158       -0.59740        1.35725
| 11> H         -3.36057       -1.71407       -0.66008
| 12> H         -3.38775       -3.24919        0.17403
| 13> H         -2.32559       -1.97514        0.72329
| 14> *
| 15> %MaxCore 64000
| 16>
| 17> %pal nprocs 4
| 18> end
| 19>
| 20> %scf
| 21>   MaxIter 150
| 22> end
| 23>
| 24>                          ****END OF INPUT****

CARTESIAN COORDINATES (ANGSTROEM)
---------------------------------
  C     -4.382620   -1.670890    1.216200
  N     -5.763540   -1.915170    0.705010
  C     -3.281730   -2.191270    0.294360
  H     -5.840810   -2.115200   -0.300650
  H     -6.408820   -1.148660    0.936120
  H     -6.174780   -2.790610    1.051430
  H     -4.328620   -2.139220    2.198100
  H     -4.261580   -0.597400    1.357250
  H     -3.360570   -1.714070   -0.660080
  H     -3.387750   -3.249190    0.174030
  H     -2.325590   -1.975140    0.723290

 Total Charge           Charge          ....    1
 Multiplicity           Mult            ....    1
 Number of Electrons    NEL             ....   26
 Basis Dimension        Dim             ....   82

ORBITAL ENERGIES
----------------

  NO   OCC          E(Eh)            E(eV)
   0   2.0000     -15.099249      -410.8714
   1   2.0000     -10.805403      -294.0300
   2   2.0000     -10.725325      -291.8509
   3   2.0000      -1.314197       -35.7611
   4   2.0000      -1.054782       -28.7021
   5   2.0000      -0.929691       -25.2982
   6   2.0000      -0.873133       -23.7592
   7   2.0000      -0.851623       -23.1738
   8   2.0000      -0.772631       -21.0244
   9   2.0000      -0.708545       -19.2805
  10   2.0000      -0.646312       -17.5871
  11   2.0000      -0.628467       -17.1015
  12   2.0000      -0.610429       -16.6106
  13   0.0000      -0.147420        -4.0115
  14   0.0000      -0.091142        -2.4801
  15   0.0000      -0.086068        -2.3420
  16   0.0000      -0.051531        -1.4022
  17   0.0000      -0.006997        -0.1904

MULLIKEN ATOMIC CHARGES
-----------------------
   0 C :   -0.066731
   1 N :   -0.050324
   2 C :   -0.080167
   3 H :    0.217283
   4 H :    0.236120
   5 H :    0.223155
   6 H :    0.121677
   7 H :    0.122019
   8 H :    0.082525
   9 H :    0.079256
  10 H :    0.115187
Sum of atomic charges:    1.0000000

LOEWDIN ATOMIC CHARGES
----------------------
   0 C :    0.050246
   1 N :    0.275144
   2 C :   -0.042717
   3 H :    0.147333
   4 H :    0.153509
   5 H :    0.150877
   6 H :    0.057514
   7 H :    0.057977
   8 H :    0.042443
   9 H :    0.041272
  10 H :    0.066401

  Mayer bond orders larger than 0.100000
B(  0-C ,  1-N ) :   0.8867 B(  0-C ,  2-C ) :   1.0933 B(  0-C ,  6-H ) :   0.9535
B(  0-C ,  7-H ) :   0.9553 B(  1-N ,  3-H ) :   0.9289 B(  1-N ,  4-H ) :   0.9276
B(  1-N ,  5-H ) :   0.9306 B(  2-C ,  8-H ) :   0.9665 B(  2-C ,  9-H ) :   0.9708
B(  2-C , 10-H ) :   0.9574

Dispersion correction           -0.000057574
FINAL SINGLE POINT ENERGY      -135.345693371055

DIPOLE MOMENT
-------------
                                X             Y             Z
Electronic contribution:     -1.85408       0.23837       0.30203
Nuclear contribution   :      0.19437      -0.25358      -0.32106
                        -----------------------------------------
Total Dipole Moment    :     -1.65972      -0.01521      -0.01903
                        -----------------------------------------
Magnitude (a.u.)       :      1.65989
Magnitude (Debye)      :      4.21912

Rotational constants in cm-1:     1.030014     0.272489     0.242697
Rotational constants in MHz : 30879.030706  8169.007780  7275.865152

                             ****ORCA TERMINATED NORMALLY****
TOTAL RUN TIME: 0 days 0 hours 0 minutes 9 seconds 343 msec
