                         Program Version 5.0.0 -  RELEASE  -
|  1> !M062X D3Zero RIJCOSX def2-SVP def2/J TightSCF
|  2> *xyz 0 1
|  3> C         -5.57236       -5.80780       -0.81644
|  4> S         -6.90318       -4.61903       -0.52846
|  5> F         -8.11485       -5.25093       -0.95701
|  6> O         -6.53271       -3.42684       -1.31485
|  7> O         -6.86563       -4.29496        0.91412
|  8> C         -4.45780       -5.94187        0.22919
|  9> H         -5.17735       -5.54257       -1.79771
| 10> H         -6.07420       -6.76889       -0.92127
| 11> H         -3.75515       -6.68239       -0.09144
| 12> H         -4.88182       -6.23486        1.16689
| 13> H         -3.95908       -5.00189        0.34143
| 14> *
| 15> %MaxCore 64000
| 16>
| 17> %pal nprocs 4
| 18> end
| 19>
| 20> %scf
| 21>   MaxIter 150
| 22> end
| 23>
| 24>                          ****END OF INPUT****

CARTESIAN COORDINATES (ANGSTROEM)
---------------------------------
  C     -5.572360   -5.807800   -0.816440
  S     -6.903180   -4.619030   -0.528460
  F     -8.114850   -5.250930   -0.957010
  O     -6.532710   -3.426840   -1.314850
  O     -6.865630   -4.294960    0.914120
  C     -4.457800   -5.941870    0.229190
  H     -5.177350   -5.542570   -1.797710
  H     -6.074200   -6.768890   -0.921270
  H     -3.755150   -6.682390   -0.091440
  H     -4.881820   -6.234860    1.166890
  H     -3.959080   -5.001890    0.341430

 Total Charge           Charge          ....    0
 Multiplicity           Mult            ....    1
 Number of Electrons    NEL             ....   58
 Basis Dimension        Dim             ....  113

ORBITAL ENERGIES
----------------

  NO   OCC          E(Eh)            E(eV)
   0   2.0000     -90.175231     -2453.7928
   1   2.0000     -25.370392      -690.3635
   2   2.0000     -19.625143      -534.0273
   3   2.0000     -19.623933      -533.9944
   4   2.0000     -10.612513      -288.7811
   5   2.0000     -10.574267      -287.7404
   6   2.0000      -8.508227      -231.5206
   7   2.0000      -6.435897      -175.1297
   8   2.0000      -6.430251      -174.9760
   9   2.0000      -6.429536      -174.9566
  10   2.0000      -1.520526       -41.3756
  11   2.0000      -1.204457       -32.7749
  12   2.0000      -1.096884       -29.8477
  13   2.0000      -0.913706       -24.8632
  14   2.0000      -0.832908       -22.6646
  15   2.0000      -0.766700       -20.8630
  16   2.0000      -0.688954       -18.7474
  17   2.0000      -0.683178       -18.5902
  18   2.0000      -0.631830       -17.1930
  19   2.0000      -0.565039       -15.3755
  20   2.0000      -0.552215       -15.0265
  21   2.0000      -0.510916       -13.9027
  22   2.0000      -0.495019       -13.4702
  23   2.0000      -0.471147       -12.8206
  24   2.0000      -0.454876       -12.3778
  25   2.0000      -0.444311       -12.0903
  26   2.0000      -0.385597       -10.4926
  27   2.0000      -0.380678       -10.3588
  28   2.0000      -0.361921        -9.8484
  29   0.0000       0.074173         2.0183
  30   0.0000       0.081621         2.2210
  31   0.0000       0.114258         3.1091
  32   0.0000       0.128926         3.5082
  33   0.0000       0.137241         3.7345

MULLIKEN ATOMIC CHARGES
-----------------------
   0 C :   -0.211227
   1 S :    1.029898
   2 F :   -0.186539
   3 O :   -0.500015
   4 O :   -0.498572
   5 C :   -0.020323
   6 H :    0.105760
   7 H :    0.078750
   8 H :    0.060356
   9 H :    0.068020
  10 H :    0.073892
Sum of atomic charges:   -0.0000000

LOEWDIN ATOMIC CHARGES
----------------------
   0 C :   -0.162984
   1 S :    1.195875
   2 F :   -0.117573
   3 O :   -0.532002
   4 O :   -0.532706
   5 C :   -0.045646
   6 H :    0.046216
   7 H :    0.032281
   8 H :    0.039505
   9 H :    0.037278
  10 H :    0.039755

  Mayer bond orders larger than 0.100000
B(  0-C ,  1-S ) :   0.9057 B(  0-C ,  5-C ) :   1.0725 B(  0-C ,  6-H ) :   0.9339
B(  0-C ,  7-H ) :   0.9349 B(  1-S ,  2-F ) :   1.0117 B(  1-S ,  3-O ) :   1.7355
B(  1-S ,  4-O ) :   1.7409 B(  5-C ,  8-H ) :   0.9623 B(  5-C ,  9-H ) :   0.9689
B(  5-C , 10-H ) :   0.9726

Dispersion correction           -0.000151289
FINAL SINGLE POINT ENERGY      -727.056783162730

DIPOLE MOMENT
-------------
                                X             Y             Z
Electronic contribution:     -9.41191       3.53991      -1.87090
Nuclear contribution   :      9.80704      -5.24335       1.35017
                        -----------------------------------------
Total Dipole Moment    :      0.39513      -1.70344      -0.52073
                        -----------------------------------------
Magnitude (a.u.)       :      1.82455
Magnitude (Debye)      :      4.63764

Rotational constants in cm-1:     0.156316     0.078308     0.076228
Rotational constants in MHz :  4686.224999  2347.601204  2285.245115

                             ****ORCA TERMINATED NORMALLY****
TOTAL RUN TIME: 0 days 0 hours 0 minutes 15 seconds 151 msec
