                         Program Version 5.0.0 -  RELEASE  -
|  1> !M062X D3Zero RIJCOSX def2-SVP def2/J TightSCF
|  2> *xyz 0 1
|  3> C         -4.38262       -1.67089        1.21620
|  4> C         -5.76354       -1.91517        0.70501
|  5> C         -3.28173       -2.19127        0.29436
|  6> H         -5.84081       -2.11520       -0.30065
|  7> H         -6.40882       -1.14866        0.93612
|  8> H         -6.17478       -2.79061        1.05143
|  9> H         -4.32862       -2.13922        2.19810
| 10> H         -4.26158       -0.59740        1.35725
| 11> H         -3.36057       -1.71407       -0.66008
| 12> H         -3.38775       -3.24919        0.17403
| 13> H         -2.32559       -1.97514        0.72329
| 14> *
| 15> %MaxCore 64000
| 16>
| 17> %pal nprocs 4
| 18> end
| 19>
| 20> %scf
| 21>   MaxIter 150
| 22> end
| 23>
| 24>                          ****END OF INPUT****

CARTESIAN COORDINATES (ANGSTROEM)
---------------------------------
  C     -4.382620   -1.670890    1.216200
  C     -5.763540   -1.915170    0.705010
  C     -3.281730   -2.191270    0.294360
  H     -5.840810   -2.115200   -0.300650
  H     -6.408820   -1.148660    0.936120
  H     -6.174780   -2.790610    1.051430
  H     -4.328620   -2.139220    2.198100
  H     -4.261580   -0.597400    1.357250
  H     -3.360570   -1.714070   -0.660080
  H     -3.387750   -3.249190    0.174030
  H     -2.325590   -1.975140    0.723290

 Total Charge           Charge          ....    0
 Multiplicity           Mult            ....    1
 Number of Electrons    NEL             ....   26
 Basis Dimension        Dim             ....   82

ORBITAL ENERGIES
----------------

  NO   OCC          E(Eh)            E(eV)
   0   2.0000     -10.535934      -286.6973
   1   2.0000     -10.529066      -286.5105
   2   2.0000     -10.511436      -286.0307
   3   2.0000      -0.877055       -23.8659
   4   2.0000      -0.774354       -21.0712
   5   2.0000      -0.665172       -18.1003
   6   2.0000      -0.531034       -14.4502
   7   2.0000      -0.508571       -13.8389
   8   2.0000      -0.474340       -12.9074
   9   2.0000      -0.448586       -12.2066
  10   2.0000      -0.399761       -10.8781
  11   2.0000      -0.392229       -10.6731
  12   2.0000      -0.380320       -10.3490
  13   0.0000       0.102908         2.8003
  14   0.0000       0.151717         4.1284
  15   0.0000       0.152691         4.1549
  16   0.0000       0.155731         4.2377
  17   0.0000       0.188527         5.1301

MULLIKEN ATOMIC CHARGES
-----------------------
   0 C :   -0.142126
   1 C :    0.009566
   2 C :   -0.050982
   3 H :   -0.000829
   4 H :    0.015986
   5 H :    0.004681
   6 H :    0.034090
   7 H :    0.032126
   8 H :    0.033635
   9 H :    0.031269
  10 H :    0.032584
Sum of atomic charges:    0.0000000

LOEWDIN ATOMIC CHARGES
----------------------
   0 C :   -0.049074
   1 C :   -0.058071
   2 C :   -0.057294
   3 H :    0.015924
   4 H :    0.018872
   5 H :    0.018417
   6 H :    0.023537
   7 H :    0.022025
   8 H :    0.021894
   9 H :    0.020993
  10 H :    0.022776

  Mayer bond orders larger than 0.100000
B(  0-C ,  1-C ) :   1.0821 B(  0-C ,  2-C ) :   1.0952 B(  0-C ,  6-H ) :   0.9615
B(  0-C ,  7-H ) :   0.9655 B(  1-C ,  3-H ) :   0.9722 B(  1-C ,  4-H ) :   0.9715
B(  1-C ,  5-H ) :   0.9665 B(  2-C ,  8-H ) :   0.9746 B(  2-C ,  9-H ) :   0.9778
B(  2-C , 10-H ) :   0.9732

Dispersion correction           -0.000056055
FINAL SINGLE POINT ENERGY      -118.952844142648

DIPOLE MOMENT
-------------
                                X             Y             Z
Electronic contribution:      0.18340       0.23378       0.33067
Nuclear contribution   :     -0.21528      -0.24783      -0.32864
                        -----------------------------------------
Total Dipole Moment    :     -0.03187      -0.01405       0.00202
                        -----------------------------------------
Magnitude (a.u.)       :      0.03489
Magnitude (Debye)      :      0.08869

Rotational constants in cm-1:     1.037566     0.286459     0.254172
Rotational constants in MHz : 31105.431429  8587.814531  7619.871198

                             ****ORCA TERMINATED NORMALLY****
TOTAL RUN TIME: 0 days 0 hours 0 minutes 9 seconds 371 msec
