                         Program Version 5.0.0 -  RELEASE  -
|  1> !M062X D3Zero RIJCOSX def2-SVP def2/J TightSCF
|  2> *xyz 0 1
|  3> C         -5.57236       -5.80780       -0.81644
|  4> S         -6.90318       -4.61903       -0.52846
|  5> O         -8.11485       -5.25093       -0.95701
|  6> F         -6.53271       -3.42684       -1.31485
|  7> O         -6.86563       -4.29496        0.91412
|  8> C         -4.45780       -5.94187        0.22919
|  9> H         -5.17735       -5.54257       -1.79771
| 10> H         -6.07420       -6.76889       -0.92127
| 11> H         -3.75515       -6.68239       -0.09144
| 12> H         -4.88182       -6.23486        1.16689
| 13> H         -3.95908       -5.00189        0.34143
| 14> *
| 15> %MaxCore 64000
| 16>
| 17> %pal nprocs 4
| 18> end
| 19>
| 20> %scf
| 21>   MaxIter 150
| 22> end
| 23>
| 24>                          ****END OF INPUT****

CARTESIAN COORDINATES (ANGSTROEM)
---------------------------------
  C     -5.572360   -5.807800   -0.816440
  S     -6.903180   -4.619030   -0.528460
  O     -8.114850   -5.250930   -0.957010
  F     -6.532710   -3.426840   -1.314850
  O     -6.865630   -4.294960    0.914120
  C     -4.457800   -5.941870    0.229190
  H     -5.177350   -5.542570   -1.797710
  H     -6.074200   -6.768890   -0.921270
  H     -3.755150   -6.682390   -0.091440
  H     -4.881820   -6.234860    1.166890
  H     -3.959080   -5.001890    0.341430

 Total Charge           Charge          ....    0
 Multiplicity           Mult            ....    1
 Number of Electrons    NEL             ....   58
 Basis Dimension        Dim             ....  113

ORBITAL ENERGIES
----------------

  NO   OCC          E(Eh)            E(eV)
   0   2.0000     -90.174501     -2453.7729
   1   2.0000     -25.347230      -689.7332
   2   2.0000     -19.640390      -534.4422
   3   2.0000     -19.625518      -534.0375
   4   2.0000     -10.611839      -288.7628
   5   2.0000     -10.573906      -287.7306
   6   2.0000      -8.507163      -231.4917
   7   2.0000      -6.434662      -175.0961
   8   2.0000      -6.429465      -174.9546
   9   2.0000      -6.428711      -174.9341
  10   2.0000      -1.481481       -40.3132
  11   2.0000      -1.223428       -33.2912
  12   2.0000      -1.114479       -30.3265
  13   2.0000      -0.913309       -24.8524
  14   2.0000      -0.816540       -22.2192
  15   2.0000      -0.758116       -20.6294
  16   2.0000      -0.667220       -18.1560
  17   2.0000      -0.659918       -17.9573
  18   2.0000      -0.629065       -17.1177
  19   2.0000      -0.563703       -15.3392
  20   2.0000      -0.555146       -15.1063
  21   2.0000      -0.525430       -14.2977
  22   2.0000      -0.498823       -13.5737
  23   2.0000      -0.468037       -12.7359
  24   2.0000      -0.466027       -12.6812
  25   2.0000      -0.447819       -12.1858
  26   2.0000      -0.399371       -10.8674
  27   2.0000      -0.385660       -10.4943
  28   2.0000      -0.375733       -10.2242
  29   0.0000       0.074982         2.0404
  30   0.0000       0.083113         2.2616
  31   0.0000       0.113474         3.0878
  32   0.0000       0.127507         3.4696
  33   0.0000       0.141924         3.8620

MULLIKEN ATOMIC CHARGES
-----------------------
   0 C :   -0.217494
   1 S :    1.041464
   2 O :   -0.458446
   3 F :   -0.230511
   4 O :   -0.503226
   5 C :   -0.024031
   6 H :    0.087590
   7 H :    0.111586
   8 H :    0.059030
   9 H :    0.075816
  10 H :    0.058223
Sum of atomic charges:   -0.0000000

LOEWDIN ATOMIC CHARGES
----------------------
   0 C :   -0.164280
   1 S :    1.202575
   2 O :   -0.486340
   3 F :   -0.163264
   4 O :   -0.535928
   5 C :   -0.052221
   6 H :    0.036027
   7 H :    0.051944
   8 H :    0.038646
   9 H :    0.039528
  10 H :    0.033314

  Mayer bond orders larger than 0.100000
B(  0-C ,  1-S ) :   0.9049 B(  0-C ,  5-C ) :   1.0617 B(  0-C ,  6-H ) :   0.9345
B(  0-C ,  7-H ) :   0.9391 B(  1-S ,  2-O ) :   1.7921 B(  1-S ,  3-F ) :   0.9594
B(  1-S ,  4-O ) :   1.7470 B(  5-C ,  8-H ) :   0.9617 B(  5-C ,  9-H ) :   0.9695
B(  5-C , 10-H ) :   0.9738

Dispersion correction           -0.000156706
FINAL SINGLE POINT ENERGY      -727.077541956525

DIPOLE MOMENT
-------------
                                X             Y             Z
Electronic contribution:     -6.70941       6.67174      -2.50504
Nuclear contribution   :      8.15840      -7.14411       1.72305
                        -----------------------------------------
Total Dipole Moment    :      1.44898      -0.47236      -0.78198
                        -----------------------------------------
Magnitude (a.u.)       :      1.71294
Magnitude (Debye)      :      4.35396

Rotational constants in cm-1:     0.153926     0.078297     0.077402
Rotational constants in MHz :  4614.585804  2347.272644  2320.438903

                             ****ORCA TERMINATED NORMALLY****
TOTAL RUN TIME: 0 days 0 hours 0 minutes 14 seconds 561 msec
