                         Program Version 5.0.0 -  RELEASE  -
|  1> !M062X D3Zero RIJCOSX def2-SVP def2/J TightSCF
|  2> *xyz 0 1
|  3> C         -5.57236       -5.80780       -0.81644
|  4> S         -6.90318       -4.61903       -0.52846
|  5> O         -8.11485       -5.25093       -0.95701
|  6> O         -6.53271       -3.42684       -1.31485
|  7> F         -6.86563       -4.29496        0.91412
|  8> C         -4.45780       -5.94187        0.22919
|  9> H         -5.17735       -5.54257       -1.79771
| 10> H         -6.07420       -6.76889       -0.92127
| 11> H         -3.75515       -6.68239       -0.09144
| 12> H         -4.88182       -6.23486        1.16689
| 13> H         -3.95908       -5.00189        0.34143
| 14> *
| 15> %MaxCore 64000
| 16>
| 17> %pal nprocs 4
| 18> end
| 19>
| 20> %scf
| 21>   MaxIter 150
| 22> end
| 23>
| 24>                          ****END OF INPUT****

CARTESIAN COORDINATES (ANGSTROEM)
---------------------------------
  C     -5.572360   -5.807800   -0.816440
  S     -6.903180   -4.619030   -0.528460
  O     -8.114850   -5.250930   -0.957010
  O     -6.532710   -3.426840   -1.314850
  F     -6.865630   -4.294960    0.914120
  C     -4.457800   -5.941870    0.229190
  H     -5.177350   -5.542570   -1.797710
  H     -6.074200   -6.768890   -0.921270
  H     -3.755150   -6.682390   -0.091440
  H     -4.881820   -6.234860    1.166890
  H     -3.959080   -5.001890    0.341430

 Total Charge           Charge          ....    0
 Multiplicity           Mult            ....    1
 Number of Electrons    NEL             ....   58
 Basis Dimension        Dim             ....  113

ORBITAL ENERGIES
----------------

  NO   OCC          E(Eh)            E(eV)
   0   2.0000     -90.173572     -2453.7476
   1   2.0000     -25.346941      -689.7253
   2   2.0000     -19.639906      -534.4290
   3   2.0000     -19.623219      -533.9749
   4   2.0000     -10.611075      -288.7420
   5   2.0000     -10.581291      -287.9316
   6   2.0000      -8.506293      -231.4680
   7   2.0000      -6.433863      -175.0743
   8   2.0000      -6.428629      -174.9319
   9   2.0000      -6.427729      -174.9074
  10   2.0000      -1.478915       -40.2433
  11   2.0000      -1.223642       -33.2970
  12   2.0000      -1.114485       -30.3267
  13   2.0000      -0.916447       -24.9378
  14   2.0000      -0.813521       -22.1370
  15   2.0000      -0.762649       -20.7527
  16   2.0000      -0.672897       -18.3104
  17   2.0000      -0.659517       -17.9464
  18   2.0000      -0.620571       -16.8866
  19   2.0000      -0.569138       -15.4870
  20   2.0000      -0.550120       -14.9695
  21   2.0000      -0.520643       -14.1674
  22   2.0000      -0.512616       -13.9490
  23   2.0000      -0.478420       -13.0185
  24   2.0000      -0.462230       -12.5779
  25   2.0000      -0.451563       -12.2877
  26   2.0000      -0.398786       -10.8515
  27   2.0000      -0.384520       -10.4633
  28   2.0000      -0.374383       -10.1875
  29   0.0000       0.060394         1.6434
  30   0.0000       0.102191         2.7808
  31   0.0000       0.121016         3.2930
  32   0.0000       0.128663         3.5011
  33   0.0000       0.137280         3.7356

MULLIKEN ATOMIC CHARGES
-----------------------
   0 C :   -0.202158
   1 S :    1.039546
   2 O :   -0.457934
   3 O :   -0.505946
   4 F :   -0.231348
   5 C :   -0.054036
   6 H :    0.117844
   7 H :    0.099737
   8 H :    0.067683
   9 H :    0.059062
  10 H :    0.067551
Sum of atomic charges:    0.0000000

LOEWDIN ATOMIC CHARGES
----------------------
   0 C :   -0.158648
   1 S :    1.202816
   2 O :   -0.486202
   3 O :   -0.537421
   4 F :   -0.164823
   5 C :   -0.060830
   6 H :    0.054656
   7 H :    0.043267
   8 H :    0.041993
   9 H :    0.030945
  10 H :    0.034247

  Mayer bond orders larger than 0.100000
B(  0-C ,  1-S ) :   0.9164 B(  0-C ,  5-C ) :   1.0567 B(  0-C ,  6-H ) :   0.9353
B(  0-C ,  7-H ) :   0.9391 B(  1-S ,  2-O ) :   1.7903 B(  1-S ,  3-O ) :   1.7408
B(  1-S ,  4-F ) :   0.9600 B(  5-C ,  8-H ) :   0.9634 B(  5-C ,  9-H ) :   0.9740
B(  5-C , 10-H ) :   0.9728

Dispersion correction           -0.000161009
FINAL SINGLE POINT ENERGY      -727.077064727271

DIPOLE MOMENT
-------------
                                X             Y             Z
Electronic contribution:     -7.25147       5.15793       1.31798
Nuclear contribution   :      8.50531      -6.23950      -0.59960
                        -----------------------------------------
Total Dipole Moment    :      1.25384      -1.08157       0.71838
                        -----------------------------------------
Magnitude (a.u.)       :      1.80498
Magnitude (Debye)      :      4.58790

Rotational constants in cm-1:     0.152799     0.080212     0.076962
Rotational constants in MHz :  4580.804531  2404.707790  2307.252710

                             ****ORCA TERMINATED NORMALLY****
TOTAL RUN TIME: 0 days 0 hours 0 minutes 14 seconds 524 msec
