                         Program Version 5.0.0 -  RELEASE  -
|  1> !M062X D3Zero RIJCOSX def2-TZVP def2/J TightSCF xyzfile
|  2>
|  3> *xyzfile 0 1 D1.xyz
|  4>
|  5> %MaxCore 64000
|  6>
|  7> %pal nprocs 18
|  8> end
|  9>
| 10> %scf
| 11>   MaxIter 150
| 12> end
| 13>
| 14>
| 15>                          ****END OF INPUT****

CARTESIAN COORDINATES (ANGSTROEM)
---------------------------------
  C     -4.382623   -1.670889    1.216201
  C     -5.763539   -1.915170    0.705012
  C     -3.281728   -2.191272    0.294361
  C     -5.572364   -5.807798   -0.816445
  S     -6.903179   -4.619033   -0.528458
  H     -5.840812   -2.115205   -0.300646
  H     -6.408823   -1.148656    0.936124
  H     -6.174781   -2.790606    1.051433
  F     -8.114853   -5.250932   -0.957007
  O     -6.532715   -3.426838   -1.314848
  H     -4.328618   -2.139223    2.198103
  H     -4.261583   -0.597399    1.357248
  O     -6.865632   -4.294957    0.914118
  C     -3.474641   -3.605898   -0.259608
  H     -2.354548   -2.127602    0.871433
  H     -3.166611   -1.499693   -0.545037
  C     -3.827078   -4.661097    0.786174
  H     -2.560559   -3.889391   -0.788050
  H     -4.255932   -3.570040   -1.019300
  C     -4.457800   -5.941875    0.229195
  H     -5.177347   -5.542575   -1.797714
  H     -6.074202   -6.768894   -0.921272
  H     -4.530506   -4.253640    1.511979
  H     -2.933400   -4.932302    1.356825
  H     -3.681064   -6.562236   -0.229885
  H     -4.843942   -6.512728    1.075805

 Total Charge           Charge          ....    0
 Multiplicity           Mult            ....    1
 Number of Electrons    NEL             ....   98
 Basis Dimension        Dim             ....  437

ORBITAL ENERGIES
----------------

  NO   OCC          E(Eh)            E(eV)
   0   2.0000     -90.161781     -2453.4268
   1   2.0000     -25.379631      -690.6149
   2   2.0000     -19.639193      -534.4096
   3   2.0000     -19.637698      -534.3689
   4   2.0000     -10.602634      -288.5123
   5   2.0000     -10.564649      -287.4787
   6   2.0000     -10.531273      -286.5705
   7   2.0000     -10.520173      -286.2685
   8   2.0000     -10.511346      -286.0283
   9   2.0000     -10.496578      -285.6264
  10   2.0000     -10.438722      -284.0521
  11   2.0000      -8.486943      -230.9415
  12   2.0000      -6.411612      -174.4688
  13   2.0000      -6.406823      -174.3385
  14   2.0000      -6.406228      -174.3223
  15   2.0000      -1.546428       -42.0804
  16   2.0000      -1.229978       -33.4694
  17   2.0000      -1.130379       -30.7592
  18   2.0000      -0.936576       -25.4855
  19   2.0000      -0.895630       -24.3713
  20   2.0000      -0.854739       -23.2586
  21   2.0000      -0.825795       -22.4710
  22   2.0000      -0.785720       -21.3805
  23   2.0000      -0.736586       -20.0435
  24   2.0000      -0.704306       -19.1651
  25   2.0000      -0.703678       -19.1481
  26   2.0000      -0.678933       -18.4747
  27   2.0000      -0.640456       -17.4277
  28   2.0000      -0.621129       -16.9018
  29   2.0000      -0.572855       -15.5882
  30   2.0000      -0.567762       -15.4496
  31   2.0000      -0.546128       -14.8609
  32   2.0000      -0.543805       -14.7977
  33   2.0000      -0.511044       -13.9062
  34   2.0000      -0.501928       -13.6582
  35   2.0000      -0.487815       -13.2741
  36   2.0000      -0.477112       -12.9829
  37   2.0000      -0.452553       -12.3146
  38   2.0000      -0.445115       -12.1122
  39   2.0000      -0.442586       -12.0434
  40   2.0000      -0.415184       -11.2977
  41   2.0000      -0.409849       -11.1526
  42   2.0000      -0.402205       -10.9445
  43   2.0000      -0.395779       -10.7697
  44   2.0000      -0.387853       -10.5540
  45   2.0000      -0.372995       -10.1497
  46   2.0000      -0.352972        -9.6049
  47   2.0000      -0.348228        -9.4758
  48   2.0000      -0.328898        -8.9498
  49   0.0000       0.045691         1.2433
  50   0.0000       0.057146         1.5550
  51   0.0000       0.082568         2.2468
  52   0.0000       0.082812         2.2534
  53   0.0000       0.088136         2.3983

MULLIKEN ATOMIC CHARGES
-----------------------
   0 C :   -0.248045
   1 C :   -0.540129
   2 C :   -0.283958
   3 C :   -0.399348
   4 S :    0.969908
   5 H :    0.188577
   6 H :    0.129170
   7 H :    0.191059
   8 F :   -0.100391
   9 O :   -0.468789
  10 H :    0.136763
  11 H :    0.125381
  12 O :   -0.466786
  13 C :   -0.289484
  14 H :    0.132185
  15 H :    0.142736
  16 C :   -0.347565
  17 H :    0.137893
  18 H :    0.172400
  19 C :   -0.244680
  20 H :    0.209083
  21 H :    0.183661
  22 H :    0.195958
  23 H :    0.149648
  24 H :    0.160174
  25 H :    0.164581
Sum of atomic charges:   -0.0000000

LOEWDIN ATOMIC CHARGES
----------------------
   0 C :   -0.309412
   1 C :   -0.335147
   2 C :   -0.273185
   3 C :   -0.371015
   4 S :    0.581889
   5 H :    0.108486
   6 H :    0.103031
   7 H :    0.098756
   8 F :    0.106020
   9 O :   -0.289933
  10 H :    0.131039
  11 H :    0.133874
  12 O :   -0.283015
  13 C :   -0.275195
  14 H :    0.134437
  15 H :    0.138773
  16 C :   -0.269914
  17 H :    0.135459
  18 H :    0.139181
  19 C :   -0.276213
  20 H :    0.148056
  21 H :    0.139006
  22 H :    0.147667
  23 H :    0.140697
  24 H :    0.149757
  25 H :    0.146903

  Mayer bond orders larger than 0.100000
B(  0-C ,  1-C ) :   0.8430 B(  0-C ,  2-C ) :   0.9113 B(  0-C , 10-H ) :   0.9970
B(  0-C , 11-H ) :   0.9882 B(  1-C ,  5-H ) :   0.9760 B(  1-C ,  6-H ) :   0.9932
B(  1-C ,  7-H ) :   0.9647 B(  2-C , 13-C ) :   0.9315 B(  2-C , 14-H ) :   0.9927
B(  2-C , 15-H ) :   0.9854 B(  3-C ,  4-S ) :   0.9204 B(  3-C , 19-C ) :   0.9033
B(  3-C , 20-H ) :   0.9381 B(  3-C , 21-H ) :   0.9484 B(  4-S ,  8-F ) :   1.1345
B(  4-S ,  9-O ) :   1.8292 B(  4-S , 12-O ) :   1.8108 B( 13-C , 16-C ) :   0.8775
B( 13-C , 17-H ) :   0.9812 B( 13-C , 18-H ) :   0.9794 B( 16-C , 19-C ) :   0.9250
B( 16-C , 22-H ) :   0.9828 B( 16-C , 23-H ) :   0.9721 B( 19-C , 24-H ) :   0.9642
B( 19-C , 25-H ) :   0.9836

Dispersion correction           -0.001210589
FINAL SINGLE POINT ENERGY      -924.143964696914

DIPOLE MOMENT
-------------
                                X             Y             Z
Electronic contribution:    -18.94805      -8.70000      -6.73720
Nuclear contribution   :     19.08524       6.89775       6.14221
                        -----------------------------------------
Total Dipole Moment    :      0.13719      -1.80225      -0.59499
                        -----------------------------------------
Magnitude (a.u.)       :      1.90288
Magnitude (Debye)      :      4.83673

Rotational constants in cm-1:     0.049343     0.024787     0.019726
Rotational constants in MHz :  1479.262779   743.087234   591.370705

                             ****ORCA TERMINATED NORMALLY****
TOTAL RUN TIME: 0 days 0 hours 0 minutes 49 seconds 411 msec
