                         Program Version 5.0.0 -  RELEASE  -
|  1> !M062X D3Zero RIJCOSX def2-TZVP def2/J TightSCF xyzfile
|  2>
|  3> *xyzfile 0 1 D2.xyz
|  4>
|  5> %MaxCore 64000
|  6>
|  7> %pal nprocs 18
|  8> end
|  9>
| 10> %scf
| 11>   MaxIter 150
| 12> end
| 13>
| 14>
| 15>                          ****END OF INPUT****

CARTESIAN COORDINATES (ANGSTROEM)
---------------------------------
  C     -4.382623   -1.670889    1.216201
  C     -5.763539   -1.915170    0.705012
  C     -3.281728   -2.191272    0.294361
  C     -5.572364   -5.807798   -0.816445
  S     -6.903179   -4.619033   -0.528458
  H     -5.840812   -2.115205   -0.300646
  H     -6.408823   -1.148656    0.936124
  H     -6.174781   -2.790606    1.051433
  O     -8.114853   -5.250932   -0.957007
  F     -6.532715   -3.426838   -1.314848
  H     -4.328618   -2.139223    2.198103
  H     -4.261583   -0.597399    1.357248
  O     -6.865632   -4.294957    0.914118
  C     -3.474641   -3.605898   -0.259608
  H     -2.354548   -2.127602    0.871433
  H     -3.166611   -1.499693   -0.545037
  C     -3.827078   -4.661097    0.786174
  H     -2.560559   -3.889391   -0.788050
  H     -4.255932   -3.570040   -1.019300
  C     -4.457800   -5.941875    0.229195
  H     -5.177347   -5.542575   -1.797714
  H     -6.074202   -6.768894   -0.921272
  H     -4.530506   -4.253640    1.511979
  H     -2.933400   -4.932302    1.356825
  H     -3.681064   -6.562236   -0.229885
  H     -4.843942   -6.512728    1.075805

 Total Charge           Charge          ....    0
 Multiplicity           Mult            ....    1
 Number of Electrons    NEL             ....   98
 Basis Dimension        Dim             ....  437

ORBITAL ENERGIES
----------------

  NO   OCC          E(Eh)            E(eV)
   0   2.0000     -90.156921     -2453.2946
   1   2.0000     -25.356332      -689.9809
   2   2.0000     -19.648567      -534.6647
   3   2.0000     -19.634909      -534.2930
   4   2.0000     -10.600793      -288.4623
   5   2.0000     -10.564367      -287.4710
   6   2.0000     -10.538674      -286.7719
   7   2.0000     -10.536929      -286.7244
   8   2.0000     -10.525727      -286.4196
   9   2.0000     -10.512343      -286.0554
  10   2.0000     -10.462319      -284.6942
  11   2.0000      -8.482118      -230.8102
  12   2.0000      -6.406919      -174.3411
  13   2.0000      -6.402045      -174.2085
  14   2.0000      -6.401277      -174.1876
  15   2.0000      -1.512030       -41.1444
  16   2.0000      -1.240410       -33.7533
  17   2.0000      -1.142586       -31.0913
  18   2.0000      -0.939418       -25.5629
  19   2.0000      -0.904472       -24.6119
  20   2.0000      -0.854379       -23.2488
  21   2.0000      -0.828239       -22.5375
  22   2.0000      -0.789195       -21.4751
  23   2.0000      -0.746930       -20.3250
  24   2.0000      -0.707184       -19.2434
  25   2.0000      -0.681393       -18.5417
  26   2.0000      -0.667524       -18.1643
  27   2.0000      -0.642364       -17.4796
  28   2.0000      -0.636894       -17.3308
  29   2.0000      -0.574959       -15.6454
  30   2.0000      -0.563352       -15.3296
  31   2.0000      -0.547426       -14.8962
  32   2.0000      -0.542715       -14.7680
  33   2.0000      -0.527560       -14.3556
  34   2.0000      -0.508915       -13.8483
  35   2.0000      -0.492979       -13.4146
  36   2.0000      -0.477583       -12.9957
  37   2.0000      -0.466027       -12.6812
  38   2.0000      -0.458150       -12.4669
  39   2.0000      -0.454487       -12.3672
  40   2.0000      -0.425791       -11.5864
  41   2.0000      -0.422270       -11.4905
  42   2.0000      -0.418555       -11.3895
  43   2.0000      -0.405622       -11.0375
  44   2.0000      -0.390471       -10.6252
  45   2.0000      -0.385144       -10.4803
  46   2.0000      -0.371332       -10.1044
  47   2.0000      -0.370121       -10.0715
  48   2.0000      -0.341409        -9.2902
  49   0.0000       0.046735         1.2717
  50   0.0000       0.062466         1.6998
  51   0.0000       0.069910         1.9023
  52   0.0000       0.075799         2.0626
  53   0.0000       0.087481         2.3805

MULLIKEN ATOMIC CHARGES
-----------------------
   0 C :   -0.247706
   1 C :   -0.556667
   2 C :   -0.287519
   3 C :   -0.410958
   4 S :    0.981408
   5 H :    0.139784
   6 H :    0.140806
   7 H :    0.224902
   8 O :   -0.445574
   9 F :   -0.126260
  10 H :    0.146150
  11 H :    0.131341
  12 O :   -0.469905
  13 C :   -0.289646
  14 H :    0.139664
  15 H :    0.146272
  16 C :   -0.353582
  17 H :    0.148353
  18 H :    0.139094
  19 C :   -0.234910
  20 H :    0.199804
  21 H :    0.205512
  22 H :    0.199755
  23 H :    0.152967
  24 H :    0.156946
  25 H :    0.169970
Sum of atomic charges:   -0.0000000

LOEWDIN ATOMIC CHARGES
----------------------
   0 C :   -0.305568
   1 C :   -0.337049
   2 C :   -0.272644
   3 C :   -0.367704
   4 S :    0.587977
   5 H :    0.097797
   6 H :    0.106822
   7 H :    0.099865
   8 O :   -0.258528
   9 F :    0.062778
  10 H :    0.134667
  11 H :    0.135823
  12 O :   -0.282264
  13 C :   -0.275499
  14 H :    0.137616
  15 H :    0.138800
  16 C :   -0.271524
  17 H :    0.138960
  18 H :    0.128672
  19 C :   -0.278655
  20 H :    0.140366
  21 H :    0.152590
  22 H :    0.147888
  23 H :    0.141825
  24 H :    0.148133
  25 H :    0.148855

  Mayer bond orders larger than 0.100000
B(  0-C ,  1-C ) :   0.8402 B(  0-C ,  2-C ) :   0.9078 B(  0-C , 10-H ) :   0.9962
B(  0-C , 11-H ) :   0.9877 B(  1-C ,  5-H ) :   0.9866 B(  1-C ,  6-H ) :   0.9893
B(  1-C ,  7-H ) :   0.9520 B(  2-C , 13-C ) :   0.9249 B(  2-C , 14-H ) :   0.9901
B(  2-C , 15-H ) :   0.9869 B(  3-C ,  4-S ) :   0.9200 B(  3-C , 19-C ) :   0.8932
B(  3-C , 20-H ) :   0.9429 B(  3-C , 21-H ) :   0.9489 B(  4-S ,  8-O ) :   1.9589
B(  4-S ,  9-F ) :   1.0706 B(  4-S , 12-O ) :   1.7843 B( 13-C , 16-C ) :   0.8790
B( 13-C , 17-H ) :   0.9805 B( 13-C , 18-H ) :   0.9925 B( 16-C , 19-C ) :   0.9195
B( 16-C , 22-H ) :   0.9822 B( 16-C , 23-H ) :   0.9699 B( 19-C , 24-H ) :   0.9623
B( 19-C , 25-H ) :   0.9792

Dispersion correction           -0.001224296
FINAL SINGLE POINT ENERGY      -924.161996895514

DIPOLE MOMENT
-------------
                                X             Y             Z
Electronic contribution:    -15.94041      -5.36967      -7.22655
Nuclear contribution   :     17.25367       4.78608       6.55647
                        -----------------------------------------
Total Dipole Moment    :      1.31326      -0.58359      -0.67008
                        -----------------------------------------
Magnitude (a.u.)       :      1.58563
Magnitude (Debye)      :      4.03036

Rotational constants in cm-1:     0.048508     0.025517     0.020225
Rotational constants in MHz :  1454.219007   764.979652   606.316599

                             ****ORCA TERMINATED NORMALLY****
TOTAL RUN TIME: 0 days 0 hours 0 minutes 51 seconds 492 msec
