                         Program Version 5.0.0 -  RELEASE  -
|  1> !wB97X-D3 RIJCOSX def2-SVP def2/J TightSCF
|  2> *xyz -1 1
|  3> C          1.44442        5.26658       -0.97546
|  4> O          1.56525        4.23349       -1.86489
|  5> C          0.14812        5.21087       -0.13809
|  6> H          1.47425        6.26464       -1.47692
|  7> H          2.28962        5.30327       -0.26445
|  8> H         -0.69779        5.17417       -0.79230
|  9> H          0.08430        6.08276        0.47887
| 10> H          0.15965        4.33708        0.47938
| 11> *
| 12> %MaxCore 64000
| 13>
| 14> %pal nprocs 4
| 15> end
| 16>
| 17> %scf
| 18>   MaxIter 150
| 19> end
| 20>
| 21>
| 22>                          ****END OF INPUT****

CARTESIAN COORDINATES (ANGSTROEM)
---------------------------------
  C      1.444420    5.266580   -0.975460
  O      1.565250    4.233490   -1.864890
  C      0.148120    5.210870   -0.138090
  H      1.474250    6.264640   -1.476920
  H      2.289620    5.303270   -0.264450
  H     -0.697790    5.174170   -0.792300
  H      0.084300    6.082760    0.478870
  H      0.159650    4.337080    0.479380

 Total Charge           Charge          ....   -1
 Multiplicity           Mult            ....    1
 Number of Electrons    NEL             ....   26
 Basis Dimension        Dim             ....   67

ORBITAL ENERGIES
----------------

  NO   OCC          E(Eh)            E(eV)
   0   2.0000     -18.845726      -512.8183
   1   2.0000     -10.077853      -274.2323
   2   2.0000     -10.066440      -273.9217
   3   2.0000      -0.739290       -20.1171
   4   2.0000      -0.613252       -16.6874
   5   2.0000      -0.453127       -12.3302
   6   2.0000      -0.333099        -9.0641
   7   2.0000      -0.310317        -8.4442
   8   2.0000      -0.249787        -6.7970
   9   2.0000      -0.231569        -6.3013
  10   2.0000      -0.162741        -4.4284
  11   2.0000      -0.012961        -0.3527
  12   2.0000      -0.009933        -0.2703
  13   0.0000       0.335243         9.1224
  14   0.0000       0.380069        10.3422
  15   0.0000       0.393719        10.7136
  16   0.0000       0.402932        10.9643
  17   0.0000       0.445640        12.1265

MULLIKEN ATOMIC CHARGES
-----------------------
   0 C :    0.246165
   1 O :   -0.731101
   2 C :    0.006099
   3 H :   -0.167580
   4 H :   -0.163438
   5 H :   -0.046041
   6 H :   -0.098314
   7 H :   -0.045790
Sum of atomic charges:   -1.0000000

LOEWDIN ATOMIC CHARGES
----------------------
   0 C :    0.010415
   1 O :   -0.682049
   2 C :   -0.114210
   3 H :   -0.083521
   4 H :   -0.079923
   5 H :   -0.010562
   6 H :   -0.029592
   7 H :   -0.010559

  Mayer bond orders larger than 0.100000
B(  0-C ,  1-O ) :   1.4968 B(  0-C ,  2-C ) :   0.9898 B(  0-C ,  3-H ) :   0.8772
B(  0-C ,  4-H ) :   0.8804 B(  2-C ,  5-H ) :   0.9638 B(  2-C ,  6-H ) :   0.9352
B(  2-C ,  7-H ) :   0.9665

Dispersion correction           -0.000864061
FINAL SINGLE POINT ENERGY      -154.231162950881

DIPOLE MOMENT
-------------
                                X             Y             Z
Electronic contribution:      1.17519      -1.85172      -2.21304
Nuclear contribution   :     -1.83256       2.47114       3.17273
                        -----------------------------------------
Total Dipole Moment    :     -0.65737       0.61942       0.95970
                        -----------------------------------------
Magnitude (a.u.)       :      1.31789
Magnitude (Debye)      :      3.34981

Rotational constants in cm-1:     1.286062     0.322579     0.284728
Rotational constants in MHz : 38555.180127  9670.683110  8535.939140

                             ****ORCA TERMINATED NORMALLY****
TOTAL RUN TIME: 0 days 0 hours 0 minutes 8 seconds 164 msec
