                         Program Version 5.0.0 -  RELEASE  -
|  1> !wB97X-D3 RIJCOSX def2-SVP def2/J TightSCF
|  2> *xyz 1 1
|  3> C         -0.70169        4.07250       -4.00392
|  4> N          0.68053        4.61482       -4.04800
|  5> H          0.69993        5.58489       -4.38827
|  6> H          1.27804        4.05598       -4.66824
|  7> H          1.08573        4.53358       -3.10652
|  8> C         -1.70347        5.09320       -3.47740
|  9> H         -0.99590        3.74039       -5.00065
| 10> H         -0.64358        3.20191       -3.35153
| 11> H         -1.73704        5.93384       -4.13853
| 12> H         -1.40338        5.41759       -2.50291
| 13> H         -2.67335        4.64479       -3.42108
| 14> *
| 15> %MaxCore 64000
| 16>
| 17> %pal nprocs 4
| 18> end
| 19>
| 20> %scf
| 21>   MaxIter 150
| 22> end
| 23>
| 24>
| 25>                          ****END OF INPUT****

CARTESIAN COORDINATES (ANGSTROEM)
---------------------------------
  C     -0.701690    4.072500   -4.003920
  N      0.680530    4.614820   -4.048000
  H      0.699930    5.584890   -4.388270
  H      1.278040    4.055980   -4.668240
  H      1.085730    4.533580   -3.106520
  C     -1.703470    5.093200   -3.477400
  H     -0.995900    3.740390   -5.000650
  H     -0.643580    3.201910   -3.351530
  H     -1.737040    5.933840   -4.138530
  H     -1.403380    5.417590   -2.502910
  H     -2.673350    4.644790   -3.421080

 Total Charge           Charge          ....    1
 Multiplicity           Mult            ....    1
 Number of Electrons    NEL             ....   26
 Basis Dimension        Dim             ....   82

ORBITAL ENERGIES
----------------

  NO   OCC          E(Eh)            E(eV)
   0   2.0000     -14.777255      -402.1096
   1   2.0000     -10.543038      -286.8907
   2   2.0000     -10.464297      -284.7480
   3   2.0000      -1.329289       -36.1718
   4   2.0000      -1.075780       -29.2735
   5   2.0000      -0.952221       -25.9112
   6   2.0000      -0.911258       -24.7966
   7   2.0000      -0.892511       -24.2865
   8   2.0000      -0.798699       -21.7337
   9   2.0000      -0.743356       -20.2277
  10   2.0000      -0.680156       -18.5080
  11   2.0000      -0.663567       -18.0566
  12   2.0000      -0.645917       -17.5763
  13   0.0000      -0.094214        -2.5637
  14   0.0000      -0.036584        -0.9955
  15   0.0000      -0.030502        -0.8300
  16   0.0000      -0.000968        -0.0263
  17   0.0000       0.039174         1.0660

MULLIKEN ATOMIC CHARGES
-----------------------
   0 C :   -0.077159
   1 N :   -0.021858
   2 H :    0.223539
   3 H :    0.225000
   4 H :    0.227237
   5 C :   -0.069200
   6 H :    0.121762
   7 H :    0.113040
   8 H :    0.075709
   9 H :    0.070262
  10 H :    0.111668
Sum of atomic charges:    1.0000000

LOEWDIN ATOMIC CHARGES
----------------------
   0 C :    0.046913
   1 N :    0.293236
   2 H :    0.145884
   3 H :    0.149653
   4 H :    0.149996
   5 C :   -0.043324
   6 H :    0.056944
   7 H :    0.054083
   8 H :    0.041297
   9 H :    0.039876
  10 H :    0.065442

  Mayer bond orders larger than 0.100000
B(  0-C ,  1-N ) :   0.9092 B(  0-C ,  5-C ) :   1.0839 B(  0-C ,  6-H ) :   0.9559
B(  0-C ,  7-H ) :   0.9562 B(  1-N ,  2-H ) :   0.9297 B(  1-N ,  3-H ) :   0.9315
B(  1-N ,  4-H ) :   0.9339 B(  5-C ,  8-H ) :   0.9694 B(  5-C ,  9-H ) :   0.9728
B(  5-C , 10-H ) :   0.9607

Dispersion correction           -0.001512076
FINAL SINGLE POINT ENERGY      -135.400078815102

DIPOLE MOMENT
-------------
                                X             Y             Z
Electronic contribution:      1.82906      -0.32391      -0.46557
Nuclear contribution   :     -0.23930       0.27560       0.19485
                        -----------------------------------------
Total Dipole Moment    :      1.58976      -0.04831      -0.27071
                        -----------------------------------------
Magnitude (a.u.)       :      1.61336
Magnitude (Debye)      :      4.10085

Rotational constants in cm-1:     1.018556     0.279088     0.248454
Rotational constants in MHz : 30535.536069  8366.847891  7448.451392

                             ****ORCA TERMINATED NORMALLY****
TOTAL RUN TIME: 0 days 0 hours 0 minutes 9 seconds 871 msec
