                         Program Version 5.0.0 -  RELEASE  -
|  1> !wB97X-D3 RIJCOSX def2-SVP def2/J TightSCF xyzfile
|  2>
|  3> *xyzfile 0 1 B.xyz
|  4>
|  5> %MaxCore 64000
|  6>
|  7> %pal nprocs 18
|  8> end
|  9>
| 10> %scf
| 11>   MaxIter 150
| 12> end
| 13>
| 14>
| 15>                          ****END OF INPUT****

CARTESIAN COORDINATES (ANGSTROEM)
---------------------------------
  C     -0.701686    4.072499   -4.003920
  N      0.680528    4.614820   -4.048005
  C      1.444422    5.266576   -0.975463
  O      1.565248    4.233493   -1.864885
  H      0.699926    5.584890   -4.388272
  H      1.278044    4.055977   -4.668235
  H      1.085729    4.533581   -3.106524
  C     -1.703475    5.093197   -3.477396
  H     -0.995895    3.740394   -5.000654
  H     -0.643580    3.201910   -3.351533
  C     -1.313997    5.785995   -2.169271
  H     -1.877057    5.850103   -4.251154
  H     -2.653264    4.564475   -3.354796
  H     -2.097137    6.509395   -1.929558
  H     -0.416875    6.387594   -2.339097
  C     -1.073895    4.844728   -0.979904
  H     -1.968893    4.809608   -0.352568
  C      0.148120    5.210874   -0.138092
  H     -0.909754    3.827531   -1.338975
  H      1.474250    6.264638   -1.476917
  H      2.289622    5.303267   -0.264450
  H      0.261827    4.450942    0.640711
  H     -0.002516    6.171031    0.371483

 Total Charge           Charge          ....    0
 Multiplicity           Mult            ....    1
 Number of Electrons    NEL             ....   66
 Basis Dimension        Dim             ....  187

ORBITAL ENERGIES
----------------

  NO   OCC          E(Eh)            E(eV)
   0   2.0000     -19.084287      -519.3098
   1   2.0000     -14.515888      -394.9974
   2   2.0000     -10.355369      -281.7839
   3   2.0000     -10.309910      -280.5469
   4   2.0000     -10.283764      -279.8354
   5   2.0000     -10.264401      -279.3086
   6   2.0000     -10.260412      -279.2000
   7   2.0000     -10.238706      -278.6094
   8   2.0000      -1.097674       -29.8692
   9   2.0000      -0.977436       -26.5974
  10   2.0000      -0.920230       -25.0407
  11   2.0000      -0.852906       -23.2087
  12   2.0000      -0.799589       -21.7579
  13   2.0000      -0.739028       -20.1100
  14   2.0000      -0.690785       -18.7972
  15   2.0000      -0.674330       -18.3494
  16   2.0000      -0.669613       -18.2211
  17   2.0000      -0.616959       -16.7883
  18   2.0000      -0.590801       -16.0765
  19   2.0000      -0.562931       -15.3181
  20   2.0000      -0.555522       -15.1165
  21   2.0000      -0.515399       -14.0247
  22   2.0000      -0.503374       -13.6975
  23   2.0000      -0.490007       -13.3338
  24   2.0000      -0.468244       -12.7416
  25   2.0000      -0.446792       -12.1578
  26   2.0000      -0.439817       -11.9680
  27   2.0000      -0.417692       -11.3660
  28   2.0000      -0.396931       -10.8010
  29   2.0000      -0.387881       -10.5548
  30   2.0000      -0.376984       -10.2583
  31   2.0000      -0.253747        -6.9048
  32   2.0000      -0.247852        -6.7444
  33   0.0000       0.096683         2.6309
  34   0.0000       0.138856         3.7785
  35   0.0000       0.151020         4.1095
  36   0.0000       0.172354         4.6900
  37   0.0000       0.175389         4.7726

MULLIKEN ATOMIC CHARGES
-----------------------
   0 C :    0.035568
   1 N :    0.002599
   2 C :    0.217812
   3 O :   -0.632616
   4 H :    0.159641
   5 H :    0.169857
   6 H :    0.109010
   7 C :   -0.085178
   8 H :    0.046678
   9 H :    0.080043
  10 C :   -0.036757
  11 H :    0.026860
  12 H :    0.046926
  13 H :    0.027259
  14 H :    0.001186
  15 C :   -0.033599
  16 H :    0.010019
  17 C :   -0.042447
  18 H :    0.013193
  19 H :   -0.081630
  20 H :   -0.034155
  21 H :    0.009566
  22 H :   -0.009834
Sum of atomic charges:   -0.0000000

LOEWDIN ATOMIC CHARGES
----------------------
   0 C :    0.042987
   1 N :    0.272754
   2 C :    0.027731
   3 O :   -0.482584
   4 H :    0.104067
   5 H :    0.114102
   6 H :   -0.037852
   7 C :   -0.047572
   8 H :    0.024796
   9 H :    0.041150
  10 C :   -0.044366
  11 H :    0.022252
  12 H :    0.036911
  13 H :    0.027616
  14 H :    0.014331
  15 C :   -0.046301
  16 H :    0.017381
  17 C :   -0.069369
  18 H :    0.015934
  19 H :   -0.046058
  20 H :   -0.014177
  21 H :    0.018401
  22 H :    0.007867

  Mayer bond orders larger than 0.100000
B(  0-C ,  1-N ) :   0.9614 B(  0-C ,  7-C ) :   1.0801 B(  0-C ,  8-H ) :   0.9612
B(  0-C ,  9-H ) :   0.9455 B(  1-N ,  4-H ) :   0.9487 B(  1-N ,  5-H ) :   0.9454
B(  1-N ,  6-H ) :   0.6878 B(  2-C ,  3-O ) :   1.2098 B(  2-C , 17-C ) :   1.0013
B(  2-C , 19-H ) :   0.9161 B(  2-C , 20-H ) :   0.9400 B(  3-O ,  6-H ) :   0.4654
B(  7-C , 10-C ) :   1.0785 B(  7-C , 11-H ) :   0.9494 B(  7-C , 12-H ) :   0.9456
B( 10-C , 13-H ) :   0.9457 B( 10-C , 14-H ) :   0.9491 B( 10-C , 15-C ) :   1.0314
B( 15-C , 16-H ) :   0.9504 B( 15-C , 17-C ) :   1.0701 B( 15-C , 18-H ) :   0.9513
B( 17-C , 21-H ) :   0.9432 B( 17-C , 22-H ) :   0.9434

Dispersion correction           -0.009075075
FINAL SINGLE POINT ENERGY      -367.231053584178

DIPOLE MOMENT
-------------
                                X             Y             Z
Electronic contribution:      2.07008      -1.62027      -1.44446
Nuclear contribution   :     -3.16446       1.92310      -1.11926
                        -----------------------------------------
Total Dipole Moment    :     -1.09438       0.30283      -2.56371
                        -----------------------------------------
Magnitude (a.u.)       :      2.80393
Magnitude (Debye)      :      7.12701

Rotational constants in cm-1:     0.085554     0.055600     0.038553
Rotational constants in MHz :  2564.854379  1666.836664  1155.798427

                             ****ORCA TERMINATED NORMALLY****
TOTAL RUN TIME: 0 days 0 hours 0 minutes 17 seconds 734 msec
