                         Program Version 5.0.0 -  RELEASE  -
|  1> !wB97X-D3 RIJCOSX def2-SVP def2/J TightSCF
|  2> *xyz 0 1
|  3> C          1.44442        5.26658       -0.97546
|  4> F          1.56525        4.23349       -1.86489
|  5> C          0.14812        5.21087       -0.13809
|  6> H          1.47425        6.26464       -1.47692
|  7> H          2.28962        5.30327       -0.26445
|  8> H         -0.69779        5.17417       -0.79230
|  9> H          0.08430        6.08276        0.47887
| 10> H          0.15965        4.33708        0.47938
| 11> *
| 12> %MaxCore 64000
| 13>
| 14> %pal nprocs 4
| 15> end
| 16>
| 17> %scf
| 18>   MaxIter 150
| 19> end
| 20>
| 21>
| 22>                          ****END OF INPUT****

CARTESIAN COORDINATES (ANGSTROEM)
---------------------------------
  C      1.444420    5.266580   -0.975460
  F      1.565250    4.233490   -1.864890
  C      0.148120    5.210870   -0.138090
  H      1.474250    6.264640   -1.476920
  H      2.289620    5.303270   -0.264450
  H     -0.697790    5.174170   -0.792300
  H      0.084300    6.082760    0.478870
  H      0.159650    4.337080    0.479380

 Total Charge           Charge          ....    0
 Multiplicity           Mult            ....    1
 Number of Electrons    NEL             ....   26
 Basis Dimension        Dim             ....   67

ORBITAL ENERGIES
----------------

  NO   OCC          E(Eh)            E(eV)
   0   2.0000     -24.768355      -673.9812
   1   2.0000     -10.364355      -282.0284
   2   2.0000     -10.283674      -279.8330
   3   2.0000      -1.285383       -34.9771
   4   2.0000      -0.869728       -23.6665
   5   2.0000      -0.732501       -19.9324
   6   2.0000      -0.602785       -16.4026
   7   2.0000      -0.592468       -16.1219
   8   2.0000      -0.552562       -15.0360
   9   2.0000      -0.499334       -13.5876
  10   2.0000      -0.495998       -13.4968
  11   2.0000      -0.425354       -11.5745
  12   2.0000      -0.419408       -11.4127
  13   0.0000       0.151776         4.1300
  14   0.0000       0.197418         5.3720
  15   0.0000       0.204018         5.5516
  16   0.0000       0.221437         6.0256
  17   0.0000       0.240182         6.5357

MULLIKEN ATOMIC CHARGES
-----------------------
   0 C :    0.201432
   1 F :   -0.271476
   2 C :   -0.095900
   3 H :    0.023173
   4 H :    0.021649
   5 H :    0.044526
   6 H :    0.033212
   7 H :    0.043385
Sum of atomic charges:    0.0000000

LOEWDIN ATOMIC CHARGES
----------------------
   0 C :    0.108769
   1 F :   -0.139041
   2 C :   -0.077418
   3 H :    0.011806
   4 H :    0.010382
   5 H :    0.027632
   6 H :    0.031244
   7 H :    0.026626

  Mayer bond orders larger than 0.100000
B(  0-C ,  1-F ) :   0.9912 B(  0-C ,  2-C ) :   1.0799 B(  0-C ,  3-H ) :   0.9623
B(  0-C ,  4-H ) :   0.9621 B(  2-C ,  5-H ) :   0.9739 B(  2-C ,  6-H ) :   0.9655
B(  2-C ,  7-H ) :   0.9751

Dispersion correction           -0.000873893
FINAL SINGLE POINT ENERGY      -178.873335314953

DIPOLE MOMENT
-------------
                                X             Y             Z
Electronic contribution:      2.31321      -2.76018      -3.72064
Nuclear contribution   :     -2.43357       3.25919       4.19687
                        -----------------------------------------
Total Dipole Moment    :     -0.12036       0.49901       0.47623
                        -----------------------------------------
Magnitude (a.u.)       :      0.70021
Magnitude (Debye)      :      1.77979

Rotational constants in cm-1:     1.264662     0.300144     0.266170
Rotational constants in MHz : 37913.611527  8998.095216  7979.576054

                             ****ORCA TERMINATED NORMALLY****
TOTAL RUN TIME: 0 days 0 hours 0 minutes 7 seconds 412 msec
