                         Program Version 5.0.0 -  RELEASE  -
|  1> !wB97X-D3 RIJCOSX def2-SVP def2/J TightSCF
|  2> *xyz 0 1
|  3> C         -0.70169        4.07250       -4.00392
|  4> C          0.68053        4.61482       -4.04800
|  5> H          0.69993        5.58489       -4.38827
|  6> H          1.27804        4.05598       -4.66824
|  7> H          1.08573        4.53358       -3.10652
|  8> C         -1.70347        5.09320       -3.47740
|  9> H         -0.99590        3.74039       -5.00065
| 10> H         -0.64358        3.20191       -3.35153
| 11> H         -1.73704        5.93384       -4.13853
| 12> H         -1.40338        5.41759       -2.50291
| 13> H         -2.67335        4.64479       -3.42108
| 14> *
| 15> %MaxCore 64000
| 16>
| 17> %pal nprocs 4
| 18> end
| 19>
| 20> %scf
| 21>   MaxIter 150
| 22> end
| 23>
| 24>
| 25>                          ****END OF INPUT****

CARTESIAN COORDINATES (ANGSTROEM)
---------------------------------
  C     -0.701690    4.072500   -4.003920
  C      0.680530    4.614820   -4.048000
  H      0.699930    5.584890   -4.388270
  H      1.278040    4.055980   -4.668240
  H      1.085730    4.533580   -3.106520
  C     -1.703470    5.093200   -3.477400
  H     -0.995900    3.740390   -5.000650
  H     -0.643580    3.201910   -3.351530
  H     -1.737040    5.933840   -4.138530
  H     -1.403380    5.417590   -2.502910
  H     -2.673350    4.644790   -3.421080

 Total Charge           Charge          ....    0
 Multiplicity           Mult            ....    1
 Number of Electrons    NEL             ....   26
 Basis Dimension        Dim             ....   82

ORBITAL ENERGIES
----------------

  NO   OCC          E(Eh)            E(eV)
   0   2.0000     -10.273225      -279.5487
   1   2.0000     -10.266878      -279.3760
   2   2.0000     -10.249188      -278.8946
   3   2.0000      -0.901049       -24.5188
   4   2.0000      -0.796487       -21.6735
   5   2.0000      -0.687310       -18.7026
   6   2.0000      -0.570299       -15.5186
   7   2.0000      -0.544400       -14.8139
   8   2.0000      -0.499168       -13.5830
   9   2.0000      -0.487353       -13.2615
  10   2.0000      -0.429948       -11.6995
  11   2.0000      -0.426371       -11.6022
  12   2.0000      -0.417866       -11.3707
  13   0.0000       0.150570         4.0972
  14   0.0000       0.198672         5.4062
  15   0.0000       0.201304         5.4778
  16   0.0000       0.206523         5.6198
  17   0.0000       0.234536         6.3821

MULLIKEN ATOMIC CHARGES
-----------------------
   0 C :   -0.131375
   1 C :    0.034730
   2 H :    0.002160
   3 H :    0.002645
   4 H :    0.005719
   5 C :   -0.030695
   6 H :    0.023711
   7 H :    0.022133
   8 H :    0.023801
   9 H :    0.021031
  10 H :    0.026139
Sum of atomic charges:   -0.0000000

LOEWDIN ATOMIC CHARGES
----------------------
   0 C :   -0.045514
   1 C :   -0.046862
   2 H :    0.012680
   3 H :    0.016810
   4 H :    0.016361
   5 C :   -0.055491
   6 H :    0.018660
   7 H :    0.020863
   8 H :    0.020507
   9 H :    0.020223
  10 H :    0.021762

  Mayer bond orders larger than 0.100000
B(  0-C ,  1-C ) :   1.0863 B(  0-C ,  5-C ) :   1.0871 B(  0-C ,  6-H ) :   0.9639
B(  0-C ,  7-H ) :   0.9631 B(  1-C ,  2-H ) :   0.9756 B(  1-C ,  3-H ) :   0.9678
B(  1-C ,  4-H ) :   0.9741 B(  5-C ,  8-H ) :   0.9762 B(  5-C ,  9-H ) :   0.9783
B(  5-C , 10-H ) :   0.9754

Dispersion correction           -0.001459471
FINAL SINGLE POINT ENERGY      -119.006244786845

DIPOLE MOMENT
-------------
                                X             Y             Z
Electronic contribution:     -0.13244      -0.29735      -0.13269
Nuclear contribution   :      0.16058       0.27975       0.12812
                        -----------------------------------------
Total Dipole Moment    :      0.02814      -0.01760      -0.00457
                        -----------------------------------------
Magnitude (a.u.)       :      0.03350
Magnitude (Debye)      :      0.08516

Rotational constants in cm-1:     1.027122     0.293327     0.260229
Rotational constants in MHz : 30792.337141  8793.723318  7801.458329

                             ****ORCA TERMINATED NORMALLY****
TOTAL RUN TIME: 0 days 0 hours 0 minutes 9 seconds 581 msec
