                         Program Version 5.0.0 -  RELEASE  -
|  1> !CAM-B3LYP RIJCOSX def2-SVPD def2/J TightSCF
|  2> *xyz -1 1
|  3> C         -0.50835        1.72268       -4.12430
|  4> S         -1.32861        0.14674       -4.43578
|  5> O         -2.57135        0.47573       -5.06834
|  6> O         -1.51496       -0.40051       -3.06342
|  7> O         -0.37793       -0.62756       -5.20114
|  8> H         -0.31967        2.21655       -5.05456
|  9> H          0.41835        1.54859       -3.61852
| 10> H         -1.13714        2.33776       -3.51504
| 11> *
| 12> %MaxCore 64000
| 13>
| 14> %pal nprocs 4
| 15> end
| 16>
| 17> %scf
| 18>   MaxIter 150
| 19> end
| 20>
| 21>
| 22>                          ****END OF INPUT****

CARTESIAN COORDINATES (ANGSTROEM)
---------------------------------
  C     -0.508350    1.722680   -4.124300
  S     -1.328610    0.146740   -4.435780
  O     -2.571350    0.475730   -5.068340
  O     -1.514960   -0.400510   -3.063420
  O     -0.377930   -0.627560   -5.201140
  H     -0.319670    2.216550   -5.054560
  H      0.418350    1.548590   -3.618520
  H     -1.137140    2.337760   -3.515040

 Total Charge           Charge          ....   -1
 Multiplicity           Mult            ....    1
 Number of Electrons    NEL             ....   50
 Basis Dimension        Dim             ....  140

ORBITAL ENERGIES
----------------

  NO   OCC          E(Eh)            E(eV)
   0   2.0000     -88.964123     -2420.8369
   1   2.0000     -18.998908      -516.9866
   2   2.0000     -18.995959      -516.9063
   3   2.0000     -18.980503      -516.4857
   4   2.0000     -10.110097      -275.1097
   5   2.0000      -8.017113      -218.1567
   6   2.0000      -5.987037      -162.9156
   7   2.0000      -5.986836      -162.9101
   8   2.0000      -5.986673      -162.9057
   9   2.0000      -1.019100       -27.7311
  10   2.0000      -0.879305       -23.9271
  11   2.0000      -0.848115       -23.0784
  12   2.0000      -0.658844       -17.9281
  13   2.0000      -0.461270       -12.5518
  14   2.0000      -0.378606       -10.3024
  15   2.0000      -0.360862        -9.8196
  16   2.0000      -0.360307        -9.8045
  17   2.0000      -0.320572        -8.7232
  18   2.0000      -0.318292        -8.6612
  19   2.0000      -0.224001        -6.0954
  20   2.0000      -0.222881        -6.0649
  21   2.0000      -0.187380        -5.0989
  22   2.0000      -0.177732        -4.8363
  23   2.0000      -0.165542        -4.5046
  24   2.0000      -0.132650        -3.6096
  25   0.0000       0.177568         4.8319
  26   0.0000       0.206711         5.6249
  27   0.0000       0.207117         5.6359
  28   0.0000       0.210876         5.7382
  29   0.0000       0.239695         6.5224

MULLIKEN ATOMIC CHARGES
-----------------------
   0 C :    0.684810
   1 S :    1.094423
   2 O :   -0.746762
   3 O :   -0.812712
   4 O :   -0.762991
   5 H :   -0.160798
   6 H :   -0.147237
   7 H :   -0.148733
Sum of atomic charges:   -1.0000000

LOEWDIN ATOMIC CHARGES
----------------------
   0 C :    0.056062
   1 S :    0.834860
   2 O :   -0.578408
   3 O :   -0.610395
   4 O :   -0.584772
   5 H :   -0.041221
   6 H :   -0.037834
   7 H :   -0.038292

  Mayer bond orders larger than 0.100000
B(  0-C ,  1-S ) :   0.9332 B(  0-C ,  5-H ) :   0.8855 B(  0-C ,  6-H ) :   0.8885
B(  0-C ,  7-H ) :   0.8879 B(  1-S ,  2-O ) :   1.3543 B(  1-S ,  3-O ) :   1.3012
B(  1-S ,  4-O ) :   1.3409 B(  1-S ,  5-H ) :   0.1182 B(  1-S ,  6-H ) :   0.1290
B(  1-S ,  7-H ) :   0.1271

FINAL SINGLE POINT ENERGY      -663.407089798372

DIPOLE MOMENT
-------------
                                X             Y             Z
Electronic contribution:     -1.97235      -3.70519      -0.90274
Nuclear contribution   :      2.60425       5.03732       0.91691
                        -----------------------------------------
Total Dipole Moment    :      0.63189       1.33213       0.01417
                        -----------------------------------------
Magnitude (a.u.)       :      1.47447
Magnitude (Debye)      :      3.74780

Rotational constants in cm-1:     0.171343     0.157827     0.155747
Rotational constants in MHz :  5136.740483  4731.521814  4669.189064

                             ****ORCA TERMINATED NORMALLY****
TOTAL RUN TIME: 0 days 0 hours 0 minutes 16 seconds 208 msec
