                         Program Version 5.0.0 -  RELEASE  -
|  1> !CAM-B3LYP RIJCOSX def2-SVPD def2/J TightSCF
|  2> *xyz 1 1
|  3> C          1.36401        0.46874       -2.81376
|  4> N          0.42884        0.32140       -1.65531
|  5> H          0.74858       -0.40054       -1.00134
|  6> H         -0.46105        0.02333       -2.07773
|  7> H          0.31026        1.20137       -1.13495
|  8> H          0.99872        1.22859       -3.47261
|  9> H          1.42772       -0.46011       -3.34109
| 10> H          2.33442        0.74312       -2.45611
| 11> *
| 12> %MaxCore 64000
| 13>
| 14> %pal nprocs 4
| 15> end
| 16>
| 17> %scf
| 18>   MaxIter 150
| 19> end
| 20>
| 21>
| 22>                          ****END OF INPUT****

CARTESIAN COORDINATES (ANGSTROEM)
---------------------------------
  C      1.364010    0.468740   -2.813760
  N      0.428840    0.321400   -1.655310
  H      0.748580   -0.400540   -1.001340
  H     -0.461050    0.023330   -2.077730
  H      0.310260    1.201370   -1.134950
  H      0.998720    1.228590   -3.472610
  H      1.427720   -0.460110   -3.341090
  H      2.334420    0.743120   -2.456110

 Total Charge           Charge          ....    1
 Multiplicity           Mult            ....    1
 Number of Electrons    NEL             ....   18
 Basis Dimension        Dim             ....   88

ORBITAL ENERGIES
----------------

  NO   OCC          E(Eh)            E(eV)
   0   2.0000     -14.755029      -401.5048
   1   2.0000     -10.519151      -286.2406
   2   2.0000      -1.299971       -35.3740
   3   2.0000      -1.012252       -27.5448
   4   2.0000      -0.886552       -24.1243
   5   2.0000      -0.881845       -23.9962
   6   2.0000      -0.781417       -21.2634
   7   2.0000      -0.697199       -18.9717
   8   2.0000      -0.695285       -18.9197
   9   0.0000      -0.169324        -4.6075
  10   0.0000      -0.101534        -2.7629
  11   0.0000      -0.095364        -2.5950
  12   0.0000      -0.094007        -2.5581
  13   0.0000      -0.051781        -1.4090

MULLIKEN ATOMIC CHARGES
-----------------------
   0 C :    1.086110
   1 N :   -0.713036
   2 H :    0.326860
   3 H :    0.364461
   4 H :    0.330948
   5 H :   -0.125208
   6 H :   -0.120542
   7 H :   -0.149593
Sum of atomic charges:    1.0000000

LOEWDIN ATOMIC CHARGES
----------------------
   0 C :    0.281324
   1 N :    0.317537
   2 H :    0.107749
   3 H :    0.107637
   4 H :    0.112597
   5 H :    0.025118
   6 H :    0.025322
   7 H :    0.022717

  Mayer bond orders larger than 0.100000
B(  0-C ,  1-N ) :   0.8320 B(  0-C ,  5-H ) :   0.8650 B(  0-C ,  6-H ) :   0.8623
B(  0-C ,  7-H ) :   0.8882 B(  1-N ,  2-H ) :   0.8287 B(  1-N ,  3-H ) :   0.7816
B(  1-N ,  4-H ) :   0.8227 B(  1-N ,  5-H ) :   0.1008 B(  1-N ,  6-H ) :   0.1014

FINAL SINGLE POINT ENERGY       -96.091793317559

DIPOLE MOMENT
-------------
                                X             Y             Z
Electronic contribution:     -0.68120      -0.09486       0.88332
Nuclear contribution   :      0.14628      -0.00095      -0.25828
                        -----------------------------------------
Total Dipole Moment    :     -0.53493      -0.09581       0.62504
                        -----------------------------------------
Magnitude (a.u.)       :      0.82825
Magnitude (Debye)      :      2.10525

Rotational constants in cm-1:     2.853706     0.682028     0.680630
Rotational constants in MHz : 85551.942317 20446.672693 20404.761959

                             ****ORCA TERMINATED NORMALLY****
TOTAL RUN TIME: 0 days 0 hours 0 minutes 6 seconds 416 msec
