                         Program Version 5.0.0 -  RELEASE  -
|  1> !CAM-B3LYP RIJCOSX def2-SVPD def2/J TightSCF
|  2> *xyz 0 1
|  3> C         -0.50835        1.72268       -4.12430
|  4> S         -1.32861        0.14674       -4.43578
|  5> F         -2.57135        0.47573       -5.06834
|  6> O         -1.51496       -0.40051       -3.06342
|  7> O         -0.37793       -0.62756       -5.20114
|  8> H         -0.31967        2.21655       -5.05456
|  9> H          0.41835        1.54859       -3.61852
| 10> H         -1.13714        2.33776       -3.51504
| 11> *
| 12> %MaxCore 64000
| 13>
| 14> %pal nprocs 4
| 15> end
| 16>
| 17> %scf
| 18>   MaxIter 150
| 19> end
| 20>
| 21>
| 22>                          ****END OF INPUT****

CARTESIAN COORDINATES (ANGSTROEM)
---------------------------------
  C     -0.508350    1.722680   -4.124300
  S     -1.328610    0.146740   -4.435780
  F     -2.571350    0.475730   -5.068340
  O     -1.514960   -0.400510   -3.063420
  O     -0.377930   -0.627560   -5.201140
  H     -0.319670    2.216550   -5.054560
  H      0.418350    1.548590   -3.618520
  H     -1.137140    2.337760   -3.515040

 Total Charge           Charge          ....    0
 Multiplicity           Mult            ....    1
 Number of Electrons    NEL             ....   50
 Basis Dimension        Dim             ....  140

ORBITAL ENERGIES
----------------

  NO   OCC          E(Eh)            E(eV)
   0   2.0000     -89.230852     -2428.0949
   1   2.0000     -24.905875      -677.7233
   2   2.0000     -19.235860      -523.4344
   3   2.0000     -19.219814      -522.9977
   4   2.0000     -10.320814      -280.8436
   5   2.0000      -8.284514      -225.4331
   6   2.0000      -6.258714      -170.3083
   7   2.0000      -6.251909      -170.1231
   8   2.0000      -6.250956      -170.0972
   9   2.0000      -1.477828       -40.2137
  10   2.0000      -1.197311       -32.5805
  11   2.0000      -1.088529       -29.6204
  12   2.0000      -0.883803       -24.0495
  13   2.0000      -0.807498       -21.9732
  14   2.0000      -0.693150       -18.8616
  15   2.0000      -0.679906       -18.5012
  16   2.0000      -0.636282       -17.3141
  17   2.0000      -0.553947       -15.0737
  18   2.0000      -0.552292       -15.0286
  19   2.0000      -0.540299       -14.7023
  20   2.0000      -0.512510       -13.9461
  21   2.0000      -0.462346       -12.5811
  22   2.0000      -0.410881       -11.1807
  23   2.0000      -0.395537       -10.7631
  24   2.0000      -0.379315       -10.3217
  25   0.0000       0.018640         0.5072
  26   0.0000       0.056963         1.5500
  27   0.0000       0.066703         1.8151
  28   0.0000       0.067010         1.8234
  29   0.0000       0.077292         2.1032

MULLIKEN ATOMIC CHARGES
-----------------------
   0 C :    0.651198
   1 S :    1.249523
   2 F :   -0.363826
   3 O :   -0.660182
   4 O :   -0.613533
   5 H :   -0.092491
   6 H :   -0.088188
   7 H :   -0.082502
Sum of atomic charges:   -0.0000000

LOEWDIN ATOMIC CHARGES
----------------------
   0 C :    0.124799
   1 S :    1.106485
   2 F :   -0.250554
   3 O :   -0.489817
   4 O :   -0.465735
   5 H :   -0.014605
   6 H :    0.001567
   7 H :   -0.012140

  Mayer bond orders larger than 0.100000
B(  0-C ,  1-S ) :   0.9891 B(  0-C ,  5-H ) :   0.8882 B(  0-C ,  6-H ) :   0.8887
B(  0-C ,  7-H ) :   0.8904 B(  1-S ,  2-F ) :   0.7329 B(  1-S ,  3-O ) :   1.5109
B(  1-S ,  4-O ) :   1.5505 B(  1-S ,  6-H ) :   0.1281

FINAL SINGLE POINT ENERGY      -687.885868143512

DIPOLE MOMENT
-------------
                                X             Y             Z
Electronic contribution:     -4.04590      -3.13542      -1.99744
Nuclear contribution   :      3.90013       4.80063       1.59574
                        -----------------------------------------
Total Dipole Moment    :     -0.14576       1.66521      -0.40171
                        -----------------------------------------
Magnitude (a.u.)       :      1.71917
Magnitude (Debye)      :      4.36978

Rotational constants in cm-1:     0.163395     0.155047     0.147447
Rotational constants in MHz :  4898.460101  4648.206837  4420.340547

                             ****ORCA TERMINATED NORMALLY****
TOTAL RUN TIME: 0 days 0 hours 0 minutes 16 seconds 355 msec
