                         Program Version 5.0.0 -  RELEASE  -
|  1> !CAM-B3LYP RIJCOSX def2-SVPD def2/J TightSCF
|  2> *xyz 0 1
|  3> C          1.36401        0.46874       -2.81376
|  4> C          0.42884        0.32140       -1.65531
|  5> H          0.74858       -0.40054       -1.00134
|  6> H         -0.46105        0.02333       -2.07773
|  7> H          0.31026        1.20137       -1.13495
|  8> H          0.99872        1.22859       -3.47261
|  9> H          1.42772       -0.46011       -3.34109
| 10> H          2.33442        0.74312       -2.45611
| 11> *
| 12> %MaxCore 64000
| 13>
| 14> %pal nprocs 4
| 15> end
| 16>
| 17> %scf
| 18>   MaxIter 150
| 19> end
| 20>
| 21>
| 22>                          ****END OF INPUT****

CARTESIAN COORDINATES (ANGSTROEM)
---------------------------------
  C      1.364010    0.468740   -2.813760
  C      0.428840    0.321400   -1.655310
  H      0.748580   -0.400540   -1.001340
  H     -0.461050    0.023330   -2.077730
  H      0.310260    1.201370   -1.134950
  H      0.998720    1.228590   -3.472610
  H      1.427720   -0.460110   -3.341090
  H      2.334420    0.743120   -2.456110

 Total Charge           Charge          ....    0
 Multiplicity           Mult            ....    1
 Number of Electrons    NEL             ....   18
 Basis Dimension        Dim             ....   88

ORBITAL ENERGIES
----------------

  NO   OCC          E(Eh)            E(eV)
   0   2.0000     -10.236384      -278.5462
   1   2.0000     -10.223902      -278.2065
   2   2.0000      -0.845244       -23.0003
   3   2.0000      -0.693023       -18.8581
   4   2.0000      -0.522256       -14.2113
   5   2.0000      -0.518396       -14.1063
   6   2.0000      -0.433581       -11.7983
   7   2.0000      -0.413828       -11.2608
   8   2.0000      -0.409708       -11.1487
   9   0.0000       0.056991         1.5508
  10   0.0000       0.087809         2.3894
  11   0.0000       0.135817         3.6958
  12   0.0000       0.136557         3.7159
  13   0.0000       0.155908         4.2425

MULLIKEN ATOMIC CHARGES
-----------------------
   0 C :    0.414937
   1 C :    0.763464
   2 H :   -0.266634
   3 H :   -0.217455
   4 H :   -0.259191
   5 H :   -0.141055
   6 H :   -0.136863
   7 H :   -0.157203
Sum of atomic charges:    0.0000000

LOEWDIN ATOMIC CHARGES
----------------------
   0 C :    0.076257
   1 C :    0.084470
   2 H :   -0.036800
   3 H :   -0.035243
   4 H :   -0.032884
   5 H :   -0.017605
   6 H :   -0.017204
   7 H :   -0.020991

  Mayer bond orders larger than 0.100000
B(  0-C ,  1-C ) :   1.4091 B(  0-C ,  2-H ) :   0.1751 B(  0-C ,  3-H ) :   0.2167
B(  0-C ,  4-H ) :   0.1693 B(  0-C ,  5-H ) :   0.8267 B(  0-C ,  6-H ) :   0.8240
B(  0-C ,  7-H ) :   0.8600 B(  1-C ,  2-H ) :   0.7305 B(  1-C ,  3-H ) :   0.7304
B(  1-C ,  4-H ) :   0.7458 B(  1-C ,  5-H ) :   0.1632 B(  1-C ,  6-H ) :   0.1662
B(  1-C ,  7-H ) :   0.1501

FINAL SINGLE POINT ENERGY       -79.702989889842

DIPOLE MOMENT
-------------
                                X             Y             Z
Electronic contribution:     -0.00056       0.01907       0.06946
Nuclear contribution   :     -0.01491      -0.02598      -0.05743
                        -----------------------------------------
Total Dipole Moment    :     -0.01547      -0.00691       0.01204
                        -----------------------------------------
Magnitude (a.u.)       :      0.02079
Magnitude (Debye)      :      0.05283

Rotational constants in cm-1:     2.853707     0.712330     0.710805
Rotational constants in MHz : 85551.986377 21355.123158 21309.410122

                             ****ORCA TERMINATED NORMALLY****
TOTAL RUN TIME: 0 days 0 hours 0 minutes 5 seconds 992 msec
