                         Program Version 5.0.0 -  RELEASE  -
|  1> !CAM-B3LYP RIJCOSX def2-SVPD def2/J TightSCF
|  2> *xyz 0 1
|  3> C         -0.50835        1.72268       -4.12430
|  4> S         -1.32861        0.14674       -4.43578
|  5> O         -2.57135        0.47573       -5.06834
|  6> F         -1.51496       -0.40051       -3.06342
|  7> O         -0.37793       -0.62756       -5.20114
|  8> H         -0.31967        2.21655       -5.05456
|  9> H          0.41835        1.54859       -3.61852
| 10> H         -1.13714        2.33776       -3.51504
| 11> *
| 12> %MaxCore 64000
| 13>
| 14> %pal nprocs 4
| 15> end
| 16>
| 17> %scf
| 18>   MaxIter 150
| 19> end
| 20>
| 21>
| 22>                          ****END OF INPUT****

CARTESIAN COORDINATES (ANGSTROEM)
---------------------------------
  C     -0.508350    1.722680   -4.124300
  S     -1.328610    0.146740   -4.435780
  O     -2.571350    0.475730   -5.068340
  F     -1.514960   -0.400510   -3.063420
  O     -0.377930   -0.627560   -5.201140
  H     -0.319670    2.216550   -5.054560
  H      0.418350    1.548590   -3.618520
  H     -1.137140    2.337760   -3.515040

 Total Charge           Charge          ....    0
 Multiplicity           Mult            ....    1
 Number of Electrons    NEL             ....   50
 Basis Dimension        Dim             ....  140

ORBITAL ENERGIES
----------------

  NO   OCC          E(Eh)            E(eV)
   0   2.0000     -89.228122     -2428.0206
   1   2.0000     -24.877958      -676.9637
   2   2.0000     -19.238157      -523.4969
   3   2.0000     -19.235011      -523.4112
   4   2.0000     -10.319690      -280.8131
   5   2.0000      -8.281634      -225.3547
   6   2.0000      -6.255519      -170.2213
   7   2.0000      -6.249391      -170.0546
   8   2.0000      -6.248340      -170.0260
   9   2.0000      -1.430203       -38.9178
  10   2.0000      -1.211991       -32.9800
  11   2.0000      -1.114964       -30.3397
  12   2.0000      -0.881368       -23.9832
  13   2.0000      -0.783656       -21.3244
  14   2.0000      -0.669838       -18.2272
  15   2.0000      -0.647095       -17.6084
  16   2.0000      -0.632079       -17.1998
  17   2.0000      -0.558483       -15.1971
  18   2.0000      -0.552723       -15.0404
  19   2.0000      -0.537140       -14.6163
  20   2.0000      -0.521024       -14.1778
  21   2.0000      -0.471479       -12.8296
  22   2.0000      -0.419709       -11.4209
  23   2.0000      -0.411094       -11.1864
  24   2.0000      -0.397750       -10.8233
  25   0.0000       0.021978         0.5981
  26   0.0000       0.059079         1.6076
  27   0.0000       0.067558         1.8383
  28   0.0000       0.068338         1.8596
  29   0.0000       0.077623         2.1122

MULLIKEN ATOMIC CHARGES
-----------------------
   0 C :    0.649018
   1 S :    1.255744
   2 O :   -0.614063
   3 F :   -0.395878
   4 O :   -0.628006
   5 H :   -0.099469
   6 H :   -0.082977
   7 H :   -0.084369
Sum of atomic charges:   -0.0000000

LOEWDIN ATOMIC CHARGES
----------------------
   0 C :    0.125465
   1 S :    1.102707
   2 O :   -0.460663
   3 F :   -0.276029
   4 O :   -0.466344
   5 H :   -0.000857
   6 H :   -0.011922
   7 H :   -0.012358

  Mayer bond orders larger than 0.100000
B(  0-C ,  1-S ) :   0.9873 B(  0-C ,  5-H ) :   0.8850 B(  0-C ,  6-H ) :   0.8923
B(  0-C ,  7-H ) :   0.8915 B(  1-S ,  2-O ) :   1.5595 B(  1-S ,  3-F ) :   0.6703
B(  1-S ,  4-O ) :   1.5471 B(  1-S ,  5-H ) :   0.1208 B(  1-S ,  6-H ) :   0.1029
B(  1-S ,  7-H ) :   0.1012

FINAL SINGLE POINT ENERGY      -687.910046986100

DIPOLE MOMENT
-------------
                                X             Y             Z
Electronic contribution:     -2.28442      -4.61101       1.38329
Nuclear contribution   :      2.84473       5.67605      -0.40731
                        -----------------------------------------
Total Dipole Moment    :      0.56031       1.06505       0.97598
                        -----------------------------------------
Magnitude (a.u.)       :      1.54946
Magnitude (Debye)      :      3.93841

Rotational constants in cm-1:     0.162669     0.154016     0.148818
Rotational constants in MHz :  4876.699308  4617.284822  4461.441982

                             ****ORCA TERMINATED NORMALLY****
TOTAL RUN TIME: 0 days 0 hours 0 minutes 16 seconds 106 msec
