                         Program Version 5.0.0 -  RELEASE  -
|  1> !CAM-B3LYP RIJCOSX def2-SVPD def2/J TightSCF
|  2> *xyz 0 1
|  3> C         -0.50835        1.72268       -4.12430
|  4> S         -1.32861        0.14674       -4.43578
|  5> O         -2.57135        0.47573       -5.06834
|  6> O         -1.51496       -0.40051       -3.06342
|  7> F         -0.37793       -0.62756       -5.20114
|  8> H         -0.31967        2.21655       -5.05456
|  9> H          0.41835        1.54859       -3.61852
| 10> H         -1.13714        2.33776       -3.51504
| 11> *
| 12> %MaxCore 64000
| 13>
| 14> %pal nprocs 4
| 15> end
| 16>
| 17> %scf
| 18>   MaxIter 150
| 19> end
| 20>
| 21>
| 22>                          ****END OF INPUT****

CARTESIAN COORDINATES (ANGSTROEM)
---------------------------------
  C     -0.508350    1.722680   -4.124300
  S     -1.328610    0.146740   -4.435780
  O     -2.571350    0.475730   -5.068340
  O     -1.514960   -0.400510   -3.063420
  F     -0.377930   -0.627560   -5.201140
  H     -0.319670    2.216550   -5.054560
  H      0.418350    1.548590   -3.618520
  H     -1.137140    2.337760   -3.515040

 Total Charge           Charge          ....    0
 Multiplicity           Mult            ....    1
 Number of Electrons    NEL             ....   50
 Basis Dimension        Dim             ....  140

ORBITAL ENERGIES
----------------

  NO   OCC          E(Eh)            E(eV)
   0   2.0000     -89.230091     -2428.0742
   1   2.0000     -24.900577      -677.5792
   2   2.0000     -19.238797      -523.5143
   3   2.0000     -19.219620      -522.9925
   4   2.0000     -10.320704      -280.8406
   5   2.0000      -8.283769      -225.4128
   6   2.0000      -6.257876      -170.2855
   7   2.0000      -6.251261      -170.1055
   8   2.0000      -6.250256      -170.0781
   9   2.0000      -1.467378       -39.9294
  10   2.0000      -1.203142       -32.7391
  11   2.0000      -1.091327       -29.6965
  12   2.0000      -0.883247       -24.0344
  13   2.0000      -0.802756       -21.8441
  14   2.0000      -0.687646       -18.7118
  15   2.0000      -0.672886       -18.3102
  16   2.0000      -0.635537       -17.2938
  17   2.0000      -0.555865       -15.1259
  18   2.0000      -0.552486       -15.0339
  19   2.0000      -0.539945       -14.6927
  20   2.0000      -0.514371       -13.9967
  21   2.0000      -0.465457       -12.6657
  22   2.0000      -0.414575       -11.2812
  23   2.0000      -0.395811       -10.7706
  24   2.0000      -0.381254       -10.3745
  25   0.0000       0.018939         0.5154
  26   0.0000       0.057282         1.5587
  27   0.0000       0.066927         1.8212
  28   0.0000       0.067042         1.8243
  29   0.0000       0.076913         2.0929

MULLIKEN ATOMIC CHARGES
-----------------------
   0 C :    0.651184
   1 S :    1.248964
   2 O :   -0.601131
   3 O :   -0.661785
   4 F :   -0.373294
   5 H :   -0.092687
   6 H :   -0.081893
   7 H :   -0.089358
Sum of atomic charges:    0.0000000

LOEWDIN ATOMIC CHARGES
----------------------
   0 C :    0.125084
   1 S :    1.105861
   2 O :   -0.460064
   3 O :   -0.489754
   4 F :   -0.255992
   5 H :   -0.014561
   6 H :   -0.011825
   7 H :    0.001251

  Mayer bond orders larger than 0.100000
B(  0-C ,  1-S ) :   0.9887 B(  0-C ,  5-H ) :   0.8885 B(  0-C ,  6-H ) :   0.8910
B(  0-C ,  7-H ) :   0.8881 B(  1-S ,  2-O ) :   1.5627 B(  1-S ,  3-O ) :   1.5106
B(  1-S ,  4-F ) :   0.7182 B(  1-S ,  6-H ) :   0.1013 B(  1-S ,  7-H ) :   0.1268

FINAL SINGLE POINT ENERGY      -687.890252110049

DIPOLE MOMENT
-------------
                                X             Y             Z
Electronic contribution:     -0.37907      -4.97999      -2.22053
Nuclear contribution   :      1.70876       5.90289       1.72841
                        -----------------------------------------
Total Dipole Moment    :      1.32969       0.92290      -0.49212
                        -----------------------------------------
Magnitude (a.u.)       :      1.69175
Magnitude (Debye)      :      4.30007

Rotational constants in cm-1:     0.163253     0.155214     0.147311
Rotational constants in MHz :  4894.200006  4653.189727  4416.272537

                             ****ORCA TERMINATED NORMALLY****
TOTAL RUN TIME: 0 days 0 hours 0 minutes 16 seconds 236 msec
