                         Program Version 5.0.0 -  RELEASE  -
|  1> !CAM-B3LYP RIJCOSX def2-SVPD def2/J TightSCF xyzfile
|  2>
|  3> *xyzfile 0 1 D1.xyz
|  4>
|  5> %MaxCore 64000
|  6>
|  7> %pal nprocs 4
|  8> end
|  9>
| 10> %scf
| 11>   MaxIter 150
| 12> end
| 13>
| 14>
| 15>                          ****END OF INPUT****

CARTESIAN COORDINATES (ANGSTROEM)
---------------------------------
  C      1.364014    0.468742   -2.813764
  C      0.428844    0.321402   -1.655312
  C      0.968045    1.630639   -3.715749
  C     -0.508347    1.722679   -4.124300
  S     -1.328608    0.146737   -4.435781
  H     -0.591511    2.294958   -5.047219
  H     -1.114114    2.235610   -3.374362
  H      0.748578   -0.400542   -1.001345
  H     -0.461053    0.023332   -2.077731
  H      0.310258    1.201375   -1.134948
  F     -2.571347    0.475733   -5.068341
  O     -1.514963   -0.400512   -3.063420
  H      1.294847   -0.468742   -3.364684
  H      2.376216    0.597400   -2.431495
  H      1.578688    1.520652   -4.612733
  H      1.266653    2.575988   -3.250448
  O     -0.377928   -0.627558   -5.201141

 Total Charge           Charge          ....    0
 Multiplicity           Mult            ....    1
 Number of Electrons    NEL             ....   74
 Basis Dimension        Dim             ....  248

ORBITAL ENERGIES
----------------

  NO   OCC          E(Eh)            E(eV)
   0   2.0000     -89.230226     -2428.0779
   1   2.0000     -24.906061      -677.7284
   2   2.0000     -19.236867      -523.4618
   3   2.0000     -19.222826      -523.0797
   4   2.0000     -10.323933      -280.9285
   5   2.0000     -10.282086      -279.7898
   6   2.0000     -10.244857      -278.7767
   7   2.0000     -10.187598      -277.2186
   8   2.0000      -8.283867      -225.4155
   9   2.0000      -6.258011      -170.2891
  10   2.0000      -6.251617      -170.1151
  11   2.0000      -6.249952      -170.0698
  12   2.0000      -1.477428       -40.2029
  13   2.0000      -1.202237       -32.7145
  14   2.0000      -1.097947       -29.8767
  15   2.0000      -0.913513       -24.8580
  16   2.0000      -0.856669       -23.3112
  17   2.0000      -0.804740       -21.8981
  18   2.0000      -0.757629       -20.6161
  19   2.0000      -0.690386       -18.7864
  20   2.0000      -0.681021       -18.5315
  21   2.0000      -0.656662       -17.8687
  22   2.0000      -0.622653       -16.9432
  23   2.0000      -0.584440       -15.9034
  24   2.0000      -0.570643       -15.5280
  25   2.0000      -0.537486       -14.6257
  26   2.0000      -0.532109       -14.4794
  27   2.0000      -0.495166       -13.4741
  28   2.0000      -0.476122       -12.9559
  29   2.0000      -0.472300       -12.8519
  30   2.0000      -0.456755       -12.4289
  31   2.0000      -0.426675       -11.6104
  32   2.0000      -0.415808       -11.3147
  33   2.0000      -0.389792       -10.6068
  34   2.0000      -0.388975       -10.5845
  35   2.0000      -0.383406       -10.4330
  36   2.0000      -0.343675        -9.3519
  37   0.0000       0.023336         0.6350
  38   0.0000       0.046350         1.2612
  39   0.0000       0.056814         1.5460
  40   0.0000       0.065473         1.7816
  41   0.0000       0.081831         2.2267

MULLIKEN ATOMIC CHARGES
-----------------------
   0 C :   -0.194649
   1 C :    2.358189
   2 C :    0.404548
   3 C :    0.211655
   4 S :    1.617253
   5 H :   -0.281690
   6 H :    0.167908
   7 H :   -0.199620
   8 H :   -1.391959
   9 H :   -0.213065
  10 F :   -0.482143
  11 O :   -0.832582
  12 H :    0.025786
  13 H :   -0.399805
  14 H :   -0.042619
  15 H :   -0.084135
  16 O :   -0.663072
Sum of atomic charges:    0.0000000

LOEWDIN ATOMIC CHARGES
----------------------
   0 C :   -0.045731
   1 C :    0.140369
   2 C :   -0.016785
   3 C :   -0.033726
   4 S :    1.175005
   5 H :    0.015659
   6 H :    0.029153
   7 H :   -0.021919
   8 H :   -0.177302
   9 H :   -0.021715
  10 F :   -0.243661
  11 O :   -0.453260
  12 H :    0.017381
  13 H :    0.023479
  14 H :    0.027578
  15 H :    0.037252
  16 O :   -0.451779

  Mayer bond orders larger than 0.100000
B(  0-C ,  1-C ) :   0.9289 B(  0-C ,  2-C ) :   1.1907 B(  0-C ,  7-H ) :   0.2727
B(  0-C ,  8-H ) :   0.5988 B(  0-C ,  9-H ) :   0.3067 B(  0-C , 12-H ) :   0.8066
B(  0-C , 13-H ) :   0.9064 B(  0-C , 14-H ) :   0.1574 B(  0-C , 15-H ) :   0.1794
B(  1-C ,  7-H ) :   0.3475 B(  1-C ,  8-H ) :  -1.1748 B(  1-C , 11-O ) :  -0.1975
B(  1-C , 12-H ) :   0.1562 B(  2-C ,  3-C ) :   1.2612 B(  2-C ,  5-H ) :   0.2188
B(  2-C ,  6-H ) :   0.1094 B(  2-C , 12-H ) :   0.1556 B(  2-C , 14-H ) :   0.8047
B(  2-C , 15-H ) :   0.7404 B(  3-C ,  4-S ) :   0.9364 B(  3-C ,  5-H ) :   0.8082
B(  3-C ,  6-H ) :   0.8468 B(  3-C ,  8-H ) :   0.1445 B(  3-C , 11-O ) :   0.1394
B(  3-C , 14-H ) :   0.1445 B(  3-C , 15-H ) :   0.1046 B(  4-S ,  8-H ) :  -0.1592
B(  4-S , 10-F ) :   0.6811 B(  4-S , 11-O ) :   1.3383 B(  4-S , 16-O ) :   1.4980
B(  7-H ,  8-H ) :   0.3361 B(  7-H ,  9-H ) :  -0.2300 B(  8-H ,  9-H ) :   0.6178
B(  8-H , 11-O ) :   0.3528 B( 12-H , 13-H ) :  -0.1154

FINAL SINGLE POINT ENERGY      -805.629164909454

DIPOLE MOMENT
-------------
                                X             Y             Z
Electronic contribution:    -12.44904      -4.00869      -9.72208
Nuclear contribution   :     12.25227       5.48563       9.26621
                        -----------------------------------------
Total Dipole Moment    :     -0.19676       1.47694      -0.45587
                        -----------------------------------------
Magnitude (a.u.)       :      1.55817
Magnitude (Debye)      :      3.96056

Rotational constants in cm-1:     0.103176     0.044975     0.040960
Rotational constants in MHz :  3093.138469  1348.317425  1227.945122

                             ****ORCA TERMINATED NORMALLY****
TOTAL RUN TIME: 0 days 0 hours 1 minutes 8 seconds 885 msec
