                         Program Version 5.0.0 -  RELEASE  -
|  1> !DLPNO-CCSD(T) aug-cc-pVTZ aug-cc-pVTZ/C TightSCF TightPNO RIJCOSX def2/J
|  2> *xyz -1 1
|  3> C         -0.60249       -0.63071        0.49224
|  4> O         -1.71206       -1.37684        0.20253
|  5> H          0.27695       -1.19720        0.26733
|  6> H         -0.60598       -0.37494        1.53122
|  7> H         -0.61066        0.26355       -0.09525
|  8> *
|  9> %MaxCore 64000
| 10>
| 11> %pal nprocs 2
| 12> end
| 13> %scf
| 14>   MaxIter 150
| 15> end
| 16>
| 17>                          ****END OF INPUT****

CARTESIAN COORDINATES (ANGSTROEM)
---------------------------------
  C     -0.602490   -0.630710    0.492240
  O     -1.712060   -1.376840    0.202530
  H      0.276950   -1.197200    0.267330
  H     -0.605980   -0.374940    1.531220
  H     -0.610660    0.263550   -0.095250

 Total Charge           Charge          ....   -1
 Multiplicity           Mult            ....    1
 Number of Electrons    NEL             ....   18
 Basis Dimension        Dim             ....  161

ORBITAL ENERGIES
----------------

  NO   OCC          E(Eh)            E(eV)
   0   2.0000     -20.185626      -549.2788
   1   2.0000     -11.004508      -299.4479
   2   2.0000      -0.974771       -26.5249
   3   2.0000      -0.632547       -17.2125
   4   2.0000      -0.357279        -9.7221
   5   2.0000      -0.357230        -9.7207
   6   2.0000      -0.249355        -6.7853
   7   2.0000      -0.096143        -2.6162
   8   2.0000      -0.096123        -2.6157
   9   0.0000       0.144805         3.9404
  10   0.0000       0.154677         4.2090
  11   0.0000       0.154678         4.2090
  12   0.0000       0.215847         5.8735
  13   0.0000       0.262350         7.1389

MULLIKEN ATOMIC CHARGES
-----------------------
   0 C :   -0.659711
   1 O :   -1.052710
   2 H :    0.235384
   3 H :    0.242677
   4 H :    0.234360
Sum of atomic charges:   -1.0000000

LOEWDIN ATOMIC CHARGES
----------------------
   0 C :   -0.140426
   1 O :    0.041046
   2 H :   -0.300209
   3 H :   -0.300231
   4 H :   -0.300180

  Mayer bond orders larger than 0.100000
B(  0-C ,  1-O ) :   1.0912 B(  0-C ,  2-H ) :   0.9466 B(  0-C ,  3-H ) :   0.9393
B(  0-C ,  4-H ) :   0.9429

E(0)                                       ...   -114.448488274
E(0)                                       ...   -114.448488274
E(CORR)(strong-pairs)                      ...     -0.463196796
E(CORR)(weak-pairs)                        ...     -0.000192356
E(CORR)(corrected)                         ...     -0.463389152
E(TOT)                                     ...   -114.911877426
E(CCSD(T))                                 ...   -114.929985178
FINAL SINGLE POINT ENERGY      -114.929985177671

DIPOLE MOMENT
-------------
                                X             Y             Z
Electronic contribution:     -1.46976      -0.98869      -0.38389
Nuclear contribution   :      2.33640       1.57111       0.61004
                        -----------------------------------------
Total Dipole Moment    :      0.86663       0.58242       0.22614
                        -----------------------------------------
Magnitude (a.u.)       :      1.06837
Magnitude (Debye)      :      2.71557

Rotational constants in cm-1:     5.477665     0.940945     0.940944
Rotational constants in MHz : 164216.266994 28208.811441 28208.799857

                             ****ORCA TERMINATED NORMALLY****
TOTAL RUN TIME: 0 days 0 hours 9 minutes 17 seconds 920 msec
