                         Program Version 5.0.0 -  RELEASE  -
|  1> !DLPNO-CCSD(T) aug-cc-pVTZ aug-cc-pVTZ/C TightSCF TightPNO RIJCOSX def2/J
|  2> *xyz 1 1
|  3> C         -2.12050        0.88520        1.78951
|  4> N         -3.17690       -0.15948        1.61070
|  5> H         -4.06474        0.23127        1.28675
|  6> H         -3.34407       -0.67151        2.48493
|  7> H         -2.71686       -0.78189        0.93588
|  8> H         -1.96853        1.40078        0.86432
|  9> H         -1.20609        0.41954        2.09270
| 10> H         -2.43151        1.58226        2.53937
| 11> *
| 12> %MaxCore 64000
| 13>
| 14> %pal nprocs 2
| 15> end
| 16>
| 17> %scf
| 18>   MaxIter 150
| 19> end
| 20>
| 21>
| 22>                          ****END OF INPUT****

CARTESIAN COORDINATES (ANGSTROEM)
---------------------------------
  C     -2.120500    0.885200    1.789510
  N     -3.176900   -0.159480    1.610700
  H     -4.064740    0.231270    1.286750
  H     -3.344070   -0.671510    2.484930
  H     -2.716860   -0.781890    0.935880
  H     -1.968530    1.400780    0.864320
  H     -1.206090    0.419540    2.092700
  H     -2.431510    1.582260    2.539370

 Total Charge           Charge          ....    1
 Multiplicity           Mult            ....    1
 Number of Electrons    NEL             ....   18
 Basis Dimension        Dim             ....  230

ORBITAL ENERGIES
----------------

  NO   OCC          E(Eh)            E(eV)
   0   2.0000     -15.913619      -433.0316
   1   2.0000     -11.484873      -312.5193
   2   2.0000      -1.529592       -41.6223
   3   2.0000      -1.178154       -32.0592
   4   2.0000      -1.000677       -27.2298
   5   2.0000      -0.986803       -26.8523
   6   2.0000      -0.865450       -23.5501
   7   2.0000      -0.786713       -21.4075
   8   2.0000      -0.782838       -21.3021
   9   0.0000      -0.127315        -3.4644
  10   0.0000      -0.086636        -2.3575
  11   0.0000      -0.085760        -2.3336
  12   0.0000      -0.082810        -2.2534
  13   0.0000      -0.047582        -1.2948

MULLIKEN ATOMIC CHARGES
-----------------------
   0 C :   -0.820717
   1 N :    0.082911
   2 H :    0.172366
   3 H :    0.174665
   4 H :    0.213165
   5 H :    0.393107
   6 H :    0.394722
   7 H :    0.389781
Sum of atomic charges:    1.0000000

LOEWDIN ATOMIC CHARGES
----------------------
   0 C :    0.692862
   1 N :    1.106593
   2 H :   -0.123792
   3 H :   -0.123783
   4 H :   -0.142194
   5 H :   -0.135555
   6 H :   -0.135036
   7 H :   -0.139095

  Mayer bond orders larger than 0.100000
B(  0-C ,  1-N ) :   0.8187 B(  0-C ,  5-H ) :   0.8468 B(  0-C ,  6-H ) :   0.8440
B(  0-C ,  7-H ) :   0.8581 B(  1-N ,  2-H ) :   0.9879 B(  1-N ,  3-H ) :   0.9840
B(  1-N ,  4-H ) :   0.9470

E(0)                                       ...    -95.613909333
E(0)                                       ...    -95.613909333
E(CORR)(strong-pairs)                      ...     -0.429539434
E(CORR)(weak-pairs)                        ...     -0.000231061
E(CORR)(corrected)                         ...     -0.429770495
E(TOT)                                     ...    -96.043679828
E(CCSD(T))                                 ...    -96.057195649
FINAL SINGLE POINT ENERGY       -96.057195649450

DIPOLE MOMENT
-------------
                                X             Y             Z
Electronic contribution:     -0.83020      -0.76009      -0.12861
Nuclear contribution   :      0.30442       0.18283       0.03339
                        -----------------------------------------
Total Dipole Moment    :     -0.52578      -0.57726      -0.09522
                        -----------------------------------------
Magnitude (a.u.)       :      0.78660
Magnitude (Debye)      :      1.99938

Rotational constants in cm-1:     2.844840     0.686092     0.683099
Rotational constants in MHz : 85286.171795 20568.516729 20478.789944

                             ****ORCA TERMINATED NORMALLY****
TOTAL RUN TIME: 0 days 0 hours 9 minutes 13 seconds 788 msec
