                         Program Version 5.0.0 -  RELEASE  -
|  1> !DLPNO-CCSD(T) aug-cc-pVTZ aug-cc-pVTZ/C TightSCF TightPNO RIJCOSX def2/J
|  2> *xyz 0 1
|  3> C         -0.60249       -0.63071        0.49224
|  4> F         -1.71206       -1.37684        0.20253
|  5> H          0.27695       -1.19720        0.26733
|  6> H         -0.60598       -0.37494        1.53122
|  7> H         -0.61066        0.26355       -0.09525
|  8> *
|  9> %MaxCore 64000
| 10>
| 11> %pal nprocs 2
| 12> end
| 13> %scf
| 14>   MaxIter 150
| 15> end
| 16>
| 17>                          ****END OF INPUT****

CARTESIAN COORDINATES (ANGSTROEM)
---------------------------------
  C     -0.602490   -0.630710    0.492240
  F     -1.712060   -1.376840    0.202530
  H      0.276950   -1.197200    0.267330
  H     -0.605980   -0.374940    1.531220
  H     -0.610660    0.263550   -0.095250

 Total Charge           Charge          ....    0
 Multiplicity           Mult            ....    1
 Number of Electrons    NEL             ....   18
 Basis Dimension        Dim             ....  161

ORBITAL ENERGIES
----------------

  NO   OCC          E(Eh)            E(eV)
   0   2.0000     -26.279933      -715.1133
   1   2.0000     -11.297438      -307.4189
   2   2.0000      -1.593542       -43.3625
   3   2.0000      -0.961635       -26.1674
   4   2.0000      -0.701163       -19.0796
   5   2.0000      -0.701133       -19.0788
   6   2.0000      -0.681806       -18.5529
   7   2.0000      -0.532407       -14.4875
   8   2.0000      -0.532378       -14.4867
   9   0.0000       0.029432         0.8009
  10   0.0000       0.047190         1.2841
  11   0.0000       0.047191         1.2841
  12   0.0000       0.074939         2.0392
  13   0.0000       0.124011         3.3745

MULLIKEN ATOMIC CHARGES
-----------------------
   0 C :   -0.473360
   1 F :   -0.424927
   2 H :    0.298443
   3 H :    0.304904
   4 H :    0.294941
Sum of atomic charges:    0.0000000

LOEWDIN ATOMIC CHARGES
----------------------
   0 C :    0.216803
   1 F :    0.431946
   2 H :   -0.216238
   3 H :   -0.216257
   4 H :   -0.216254

  Mayer bond orders larger than 0.100000
B(  0-C ,  1-F ) :   0.6683 B(  0-C ,  2-H ) :   0.9172 B(  0-C ,  3-H ) :   0.9110
B(  0-C ,  4-H ) :   0.9187

E(0)                                       ...   -139.097707140
E(0)                                       ...   -139.097707140
E(CORR)(strong-pairs)                      ...     -0.458369282
E(CORR)(weak-pairs)                        ...     -0.000192481
E(CORR)(corrected)                         ...     -0.458561763
E(TOT)                                     ...   -139.556268903
E(CCSD(T))                                 ...   -139.569893969
FINAL SINGLE POINT ENERGY      -139.569893968738

DIPOLE MOMENT
-------------
                                X             Y             Z
Electronic contribution:     -2.32596      -1.56419      -0.60752
Nuclear contribution   :      2.96306       1.99251       0.77366
                        -----------------------------------------
Total Dipole Moment    :      0.63710       0.42832       0.16614
                        -----------------------------------------
Magnitude (a.u.)       :      0.78547
Magnitude (Debye)      :      1.99650

Rotational constants in cm-1:     5.477665     0.875886     0.875886
Rotational constants in MHz : 164216.266994 26258.396768 26258.386731

                             ****ORCA TERMINATED NORMALLY****
TOTAL RUN TIME: 0 days 0 hours 5 minutes 55 seconds 395 msec
