                         Program Version 5.0.0 -  RELEASE  -
|  1> !DLPNO-CCSD(T) aug-cc-pVTZ aug-cc-pVTZ/C TightSCF TightPNO RIJCOSX def2/J
|  2> *xyz 0 1
|  3> C         -2.12050        0.88520        1.78951
|  4> C         -3.17690       -0.15948        1.61070
|  5> H         -4.06474        0.23127        1.28675
|  6> H         -3.34407       -0.67151        2.48493
|  7> H         -2.71686       -0.78189        0.93588
|  8> H         -1.96853        1.40078        0.86432
|  9> H         -1.20609        0.41954        2.09270
| 10> H         -2.43151        1.58226        2.53937
| 11> *
| 12> %MaxCore 64000
| 13>
| 14> %pal nprocs 2
| 15> end
| 16>
| 17> %scf
| 18>   MaxIter 150
| 19> end
| 20>
| 21>
| 22>                          ****END OF INPUT****

CARTESIAN COORDINATES (ANGSTROEM)
---------------------------------
  C     -2.120500    0.885200    1.789510
  C     -3.176900   -0.159480    1.610700
  H     -4.064740    0.231270    1.286750
  H     -3.344070   -0.671510    2.484930
  H     -2.716860   -0.781890    0.935880
  H     -1.968530    1.400780    0.864320
  H     -1.206090    0.419540    2.092700
  H     -2.431510    1.582260    2.539370

 Total Charge           Charge          ....    0
 Multiplicity           Mult            ....    1
 Number of Electrons    NEL             ....   18
 Basis Dimension        Dim             ....  230

ORBITAL ENERGIES
----------------

  NO   OCC          E(Eh)            E(eV)
   0   2.0000     -11.197059      -304.6875
   1   2.0000     -11.181150      -304.2546
   2   2.0000      -1.039794       -28.2942
   3   2.0000      -0.848727       -23.0950
   4   2.0000      -0.624344       -16.9893
   5   2.0000      -0.613743       -16.7008
   6   2.0000      -0.512192       -13.9374
   7   2.0000      -0.496617       -13.5136
   8   2.0000      -0.483476       -13.1560
   9   0.0000       0.033209         0.9037
  10   0.0000       0.043385         1.1806
  11   0.0000       0.043873         1.1938
  12   0.0000       0.044105         1.2002
  13   0.0000       0.068522         1.8646

MULLIKEN ATOMIC CHARGES
-----------------------
   0 C :   -0.880136
   1 C :   -0.982098
   2 H :    0.333553
   3 H :    0.291690
   4 H :    0.350076
   5 H :    0.277914
   6 H :    0.302129
   7 H :    0.306872
Sum of atomic charges:    0.0000000

LOEWDIN ATOMIC CHARGES
----------------------
   0 C :    0.581199
   1 C :    0.610733
   2 H :   -0.209729
   3 H :   -0.211005
   4 H :   -0.225044
   5 H :   -0.180677
   6 H :   -0.179886
   7 H :   -0.185591

  Mayer bond orders larger than 0.100000
B(  0-C ,  1-C ) :   0.7930 B(  0-C ,  5-H ) :   0.9460 B(  0-C ,  6-H ) :   0.9234
B(  0-C ,  7-H ) :   0.9134 B(  1-C ,  2-H ) :   0.8931 B(  1-C ,  3-H ) :   0.9421
B(  1-C ,  4-H ) :   0.8951

E(0)                                       ...    -79.247197065
E(0)                                       ...    -79.247197065
E(CORR)(strong-pairs)                      ...     -0.403967771
E(CORR)(weak-pairs)                        ...     -0.000231303
E(CORR)(corrected)                         ...     -0.404199074
E(TOT)                                     ...    -79.651396138
E(CCSD(T))                                 ...    -79.664454000
FINAL SINGLE POINT ENERGY       -79.664453999780

DIPOLE MOMENT
-------------
                                X             Y             Z
Electronic contribution:     -0.13069      -0.02130      -0.00355
Nuclear contribution   :      0.12022       0.00247       0.00249
                        -----------------------------------------
Total Dipole Moment    :     -0.01048      -0.01884      -0.00107
                        -----------------------------------------
Magnitude (a.u.)       :      0.02158
Magnitude (Debye)      :      0.05485

Rotational constants in cm-1:     2.844858     0.716988     0.713720
Rotational constants in MHz : 85286.697487 21494.771942 21396.773512

                             ****ORCA TERMINATED NORMALLY****
TOTAL RUN TIME: 0 days 0 hours 9 minutes 40 seconds 899 msec
