                         Program Version 5.0.0 -  RELEASE  -
|  1> !PBE0 D3BJ RIJCOSX def2-SVPD def2/J TightSCF
|  2> *xyz -1 1
|  3> C         -7.33044       -2.67899       -3.20681
|  4> S         -6.01966       -2.92697       -4.41913
|  5> O         -5.64583       -1.58838       -4.91931
|  6> O         -4.88196       -3.50370       -3.66724
|  7> O         -6.54927       -3.80515       -5.42507
|  8> H         -8.18867       -2.26077       -3.68996
|  9> H         -6.98921       -2.01038       -2.44430
| 10> H         -7.59151       -3.61862       -2.76655
| 11> *
| 12> %MaxCore 64000
| 13>
| 14> %pal nprocs 8
| 15> end
| 16>
| 17> %scf
| 18>   MaxIter 150
| 19> end
| 20>
| 21>
| 22>                          ****END OF INPUT****

CARTESIAN COORDINATES (ANGSTROEM)
---------------------------------
  C     -7.330440   -2.678990   -3.206810
  S     -6.019660   -2.926970   -4.419130
  O     -5.645830   -1.588380   -4.919310
  O     -4.881960   -3.503700   -3.667240
  O     -6.549270   -3.805150   -5.425070
  H     -8.188670   -2.260770   -3.689960
  H     -6.989210   -2.010380   -2.444300
  H     -7.591510   -3.618620   -2.766550

 Total Charge           Charge          ....   -1
 Multiplicity           Mult            ....    1
 Number of Electrons    NEL             ....   50
 Basis Dimension        Dim             ....  140

ORBITAL ENERGIES
----------------

  NO   OCC          E(Eh)            E(eV)
   0   2.0000     -89.038640     -2422.8646
   1   2.0000     -18.999716      -517.0086
   2   2.0000     -18.988534      -516.7043
   3   2.0000     -18.986060      -516.6370
   4   2.0000     -10.090215      -274.5687
   5   2.0000      -7.997753      -217.6299
   6   2.0000      -5.939981      -161.6351
   7   2.0000      -5.939791      -161.6299
   8   2.0000      -5.939613      -161.6251
   9   2.0000      -0.953215       -25.9383
  10   2.0000      -0.812233       -22.1020
  11   2.0000      -0.788863       -21.4661
  12   2.0000      -0.603889       -16.4326
  13   2.0000      -0.407249       -11.0818
  14   2.0000      -0.317321        -8.6348
  15   2.0000      -0.306649        -8.3443
  16   2.0000      -0.305592        -8.3156
  17   2.0000      -0.263291        -7.1645
  18   2.0000      -0.261396        -7.1130
  19   2.0000      -0.163082        -4.4377
  20   2.0000      -0.162976        -4.4348
  21   2.0000      -0.128307        -3.4914
  22   2.0000      -0.121153        -3.2967
  23   2.0000      -0.112579        -3.0634
  24   2.0000      -0.074672        -2.0319
  25   0.0000       0.156235         4.2514
  26   0.0000       0.189749         5.1633
  27   0.0000       0.189900         5.1674
  28   0.0000       0.194568         5.2945
  29   0.0000       0.217808         5.9269

MULLIKEN ATOMIC CHARGES
-----------------------
   0 C :    0.308644
   1 S :    1.170662
   2 O :   -0.819425
   3 O :   -0.823423
   4 O :   -0.778935
   5 H :   -0.020724
   6 H :   -0.018713
   7 H :   -0.018087
Sum of atomic charges:   -1.0000000

LOEWDIN ATOMIC CHARGES
----------------------
   0 C :    0.053792
   1 S :    0.846976
   2 O :   -0.602222
   3 O :   -0.605771
   4 O :   -0.582603
   5 H :   -0.037673
   6 H :   -0.035693
   7 H :   -0.036805

  Mayer bond orders larger than 0.100000
B(  0-C ,  1-S ) :   0.9472 B(  0-C ,  5-H ) :   0.9384 B(  0-C ,  6-H ) :   0.9409
B(  0-C ,  7-H ) :   0.9376 B(  1-S ,  2-O ) :   1.2810 B(  1-S ,  3-O ) :   1.2808
B(  1-S ,  4-O ) :   1.3147 B(  1-S ,  5-H ) :   0.1013 B(  1-S ,  6-H ) :   0.1094
B(  1-S ,  7-H ) :   0.1025

Dispersion correction           -0.005325088
FINAL SINGLE POINT ENERGY      -663.077246653421

DIPOLE MOMENT
-------------
                                X             Y             Z
Electronic contribution:      3.00011      -0.64611      -2.92711
Nuclear contribution   :     -4.26236       0.77434       3.87117
                        -----------------------------------------
Total Dipole Moment    :     -1.26225       0.12823       0.94405
                        -----------------------------------------
Magnitude (a.u.)       :      1.58144
Magnitude (Debye)      :      4.01969

Rotational constants in cm-1:     0.172427     0.155038     0.152780
Rotational constants in MHz :  5169.225473  4647.928623  4580.233540

                             ****ORCA TERMINATED NORMALLY****
TOTAL RUN TIME: 0 days 0 hours 0 minutes 6 seconds 773 msec
