                         Program Version 5.0.0 -  RELEASE  -
|  1> !PBE0 D3BJ RIJCOSX def2-SVPD def2/J TightSCF
|  2> *xyz 1 1
|  3> C         -2.16038       -1.36949       -3.46710
|  4> N         -3.03011       -1.91086       -4.54107
|  5> H         -3.47744       -2.79151       -4.25710
|  6> H         -2.53801       -2.01786       -5.43808
|  7> H         -3.89159       -1.37604       -4.71437
|  8> H         -1.71294       -0.45536       -3.79734
|  9> H         -1.39344       -2.07939       -3.23742
| 10> H         -2.74775       -1.18344       -2.59230
| 11> *
| 12> %MaxCore 64000
| 13>
| 14> %pal nprocs 8
| 15> end
| 16>
| 17> %scf
| 18>   MaxIter 150
| 19> end
| 20>
| 21>
| 22>                          ****END OF INPUT****

CARTESIAN COORDINATES (ANGSTROEM)
---------------------------------
  C     -2.160380   -1.369490   -3.467100
  N     -3.030110   -1.910860   -4.541070
  H     -3.477440   -2.791510   -4.257100
  H     -2.538010   -2.017860   -5.438080
  H     -3.891590   -1.376040   -4.714370
  H     -1.712940   -0.455360   -3.797340
  H     -1.393440   -2.079390   -3.237420
  H     -2.747750   -1.183440   -2.592300

 Total Charge           Charge          ....    1
 Multiplicity           Mult            ....    1
 Number of Electrons    NEL             ....   18
 Basis Dimension        Dim             ....   88

ORBITAL ENERGIES
----------------

  NO   OCC          E(Eh)            E(eV)
   0   2.0000     -14.746904      -401.2837
   1   2.0000     -10.491346      -285.4840
   2   2.0000      -1.245671       -33.8964
   3   2.0000      -0.959803       -26.1176
   4   2.0000      -0.836116       -22.7519
   5   2.0000      -0.807563       -21.9749
   6   2.0000      -0.735789       -20.0218
   7   2.0000      -0.641627       -17.4596
   8   2.0000      -0.637412       -17.3449
   9   0.0000      -0.195458        -5.3187
  10   0.0000      -0.128926        -3.5083
  11   0.0000      -0.124340        -3.3835
  12   0.0000      -0.122236        -3.3262
  13   0.0000      -0.075269        -2.0482

MULLIKEN ATOMIC CHARGES
-----------------------
   0 C :    0.820230
   1 N :   -0.909975
   2 H :    0.377365
   3 H :    0.390271
   4 H :    0.362220
   5 H :   -0.019701
   6 H :   -0.004807
   7 H :   -0.015603
Sum of atomic charges:    1.0000000

LOEWDIN ATOMIC CHARGES
----------------------
   0 C :    0.285149
   1 N :    0.301481
   2 H :    0.108171
   3 H :    0.114098
   4 H :    0.109360
   5 H :    0.026624
   6 H :    0.027799
   7 H :    0.027319

  Mayer bond orders larger than 0.100000
B(  0-C ,  1-N ) :   0.7329 B(  0-C ,  5-H ) :   0.9177 B(  0-C ,  6-H ) :   0.9040
B(  0-C ,  7-H ) :   0.9116 B(  1-N ,  2-H ) :   0.7827 B(  1-N ,  3-H ) :   0.7493
B(  1-N ,  4-H ) :   0.7992

Dispersion correction           -0.002669261
FINAL SINGLE POINT ENERGY       -96.033065752440

DIPOLE MOMENT
-------------
                                X             Y             Z
Electronic contribution:     -0.57904      -0.37809      -0.79029
Nuclear contribution   :      0.00575       0.04584       0.17617
                        -----------------------------------------
Total Dipole Moment    :     -0.57329      -0.33225      -0.61412
                        -----------------------------------------
Magnitude (a.u.)       :      0.90343
Magnitude (Debye)      :      2.29634

Rotational constants in cm-1:     2.917716     0.684997     0.676552
Rotational constants in MHz : 87470.913131 20535.702929 20282.512120

                             ****ORCA TERMINATED NORMALLY****
TOTAL RUN TIME: 0 days 0 hours 0 minutes 3 seconds 477 msec
