                         Program Version 5.0.0 -  RELEASE  -
|  1> !PBE0 D3BJ RIJCOSX def2-SVPD def2/J TightSCF
|  2> *xyz 0 1
|  3> C         -7.33044       -2.67899       -3.20681
|  4> S         -6.01966       -2.92697       -4.41913
|  5> F         -5.64583       -1.58838       -4.91931
|  6> O         -4.88196       -3.50370       -3.66724
|  7> O         -6.54927       -3.80515       -5.42507
|  8> H         -8.18867       -2.26077       -3.68996
|  9> H         -6.98921       -2.01038       -2.44430
| 10> H         -7.59151       -3.61862       -2.76655
| 11> *
| 12> %MaxCore 64000
| 13>
| 14> %pal nprocs 8
| 15> end
| 16>
| 17> %scf
| 18>   MaxIter 150
| 19> end
| 20>
| 21>
| 22>                          ****END OF INPUT****

CARTESIAN COORDINATES (ANGSTROEM)
---------------------------------
  C     -7.330440   -2.678990   -3.206810
  S     -6.019660   -2.926970   -4.419130
  F     -5.645830   -1.588380   -4.919310
  O     -4.881960   -3.503700   -3.667240
  O     -6.549270   -3.805150   -5.425070
  H     -8.188670   -2.260770   -3.689960
  H     -6.989210   -2.010380   -2.444300
  H     -7.591510   -3.618620   -2.766550

 Total Charge           Charge          ....    0
 Multiplicity           Mult            ....    1
 Number of Electrons    NEL             ....   50
 Basis Dimension        Dim             ....  140

ORBITAL ENERGIES
----------------

  NO   OCC          E(Eh)            E(eV)
   0   2.0000     -89.303865     -2430.0817
   1   2.0000     -24.893685      -677.3916
   2   2.0000     -19.239672      -523.5381
   3   2.0000     -19.225447      -523.1510
   4   2.0000     -10.300006      -280.2774
   5   2.0000      -8.263620      -224.8645
   6   2.0000      -6.209697      -168.9745
   7   2.0000      -6.203558      -168.8074
   8   2.0000      -6.202712      -168.7844
   9   2.0000      -1.386676       -37.7334
  10   2.0000      -1.144558       -31.1450
  11   2.0000      -1.039843       -28.2956
  12   2.0000      -0.825970       -22.4758
  13   2.0000      -0.731943       -19.9172
  14   2.0000      -0.616413       -16.7735
  15   2.0000      -0.594615       -16.1803
  16   2.0000      -0.576843       -15.6967
  17   2.0000      -0.499692       -13.5973
  18   2.0000      -0.497664       -13.5421
  19   2.0000      -0.487309       -13.2604
  20   2.0000      -0.461191       -12.5496
  21   2.0000      -0.408253       -11.1091
  22   2.0000      -0.362441        -9.8625
  23   2.0000      -0.347967        -9.4687
  24   2.0000      -0.330399        -8.9906
  25   0.0000      -0.004345        -0.1182
  26   0.0000       0.029814         0.8113
  27   0.0000       0.039835         1.0840
  28   0.0000       0.050521         1.3747
  29   0.0000       0.051532         1.4022

MULLIKEN ATOMIC CHARGES
-----------------------
   0 C :    0.288775
   1 S :    1.329439
   2 F :   -0.403722
   3 O :   -0.690085
   4 O :   -0.648926
   5 H :    0.044469
   6 H :    0.043815
   7 H :    0.036236
Sum of atomic charges:    0.0000000

LOEWDIN ATOMIC CHARGES
----------------------
   0 C :    0.123945
   1 S :    1.118046
   2 F :   -0.273704
   3 O :   -0.486115
   4 O :   -0.464469
   5 H :   -0.011064
   6 H :   -0.009897
   7 H :    0.003258

  Mayer bond orders larger than 0.100000
B(  0-C ,  1-S ) :   1.0055 B(  0-C ,  5-H ) :   0.9240 B(  0-C ,  6-H ) :   0.9266
B(  0-C ,  7-H ) :   0.9265 B(  1-S ,  2-F ) :   0.6394 B(  1-S ,  3-O ) :   1.4894
B(  1-S ,  4-O ) :   1.5232 B(  1-S ,  7-H ) :   0.1028

Dispersion correction           -0.004991502
FINAL SINGLE POINT ENERGY      -687.560321873933

DIPOLE MOMENT
-------------
                                X             Y             Z
Electronic contribution:      3.54370       1.58533      -3.72931
Nuclear contribution   :     -4.68608      -0.54182       4.44322
                        -----------------------------------------
Total Dipole Moment    :     -1.14238       1.04350       0.71391
                        -----------------------------------------
Magnitude (a.u.)       :      1.70400
Magnitude (Debye)      :      4.33122

Rotational constants in cm-1:     0.164393     0.151201     0.145518
Rotational constants in MHz :  4928.381777  4532.884356  4362.527209

                             ****ORCA TERMINATED NORMALLY****
TOTAL RUN TIME: 0 days 0 hours 0 minutes 7 seconds 482 msec
