                         Program Version 5.0.0 -  RELEASE  -
|  1> !PBE0 D3BJ RIJCOSX def2-SVPD def2/J TightSCF
|  2> *xyz 0 1
|  3> C         -2.16038       -1.36949       -3.46710
|  4> C         -3.03011       -1.91086       -4.54107
|  5> H         -3.47744       -2.79151       -4.25710
|  6> H         -2.53801       -2.01786       -5.43808
|  7> H         -3.89159       -1.37604       -4.71437
|  8> H         -1.71294       -0.45536       -3.79734
|  9> H         -1.39344       -2.07939       -3.23742
| 10> H         -2.74775       -1.18344       -2.59230
| 11> *
| 12> %MaxCore 64000
| 13>
| 14> %pal nprocs 8
| 15> end
| 16>
| 17> %scf
| 18>   MaxIter 150
| 19> end
| 20>
| 21>
| 22>                          ****END OF INPUT****

CARTESIAN COORDINATES (ANGSTROEM)
---------------------------------
  C     -2.160380   -1.369490   -3.467100
  C     -3.030110   -1.910860   -4.541070
  H     -3.477440   -2.791510   -4.257100
  H     -2.538010   -2.017860   -5.438080
  H     -3.891590   -1.376040   -4.714370
  H     -1.712940   -0.455360   -3.797340
  H     -1.393440   -2.079390   -3.237420
  H     -2.747750   -1.183440   -2.592300

 Total Charge           Charge          ....    0
 Multiplicity           Mult            ....    1
 Number of Electrons    NEL             ....   18
 Basis Dimension        Dim             ....   88

ORBITAL ENERGIES
----------------

  NO   OCC          E(Eh)            E(eV)
   0   2.0000     -10.210290      -277.8361
   1   2.0000     -10.195769      -277.4410
   2   2.0000      -0.785300       -21.3691
   3   2.0000      -0.639162       -17.3925
   4   2.0000      -0.467389       -12.7183
   5   2.0000      -0.451671       -12.2906
   6   2.0000      -0.388370       -10.5681
   7   2.0000      -0.362822        -9.8729
   8   2.0000      -0.346069        -9.4170
   9   0.0000       0.036162         0.9840
  10   0.0000       0.067144         1.8271
  11   0.0000       0.109571         2.9816
  12   0.0000       0.113356         3.0846
  13   0.0000       0.132161         3.5963

MULLIKEN ATOMIC CHARGES
-----------------------
   0 C :    0.117337
   1 C :    0.359426
   2 H :   -0.148697
   3 H :   -0.136154
   4 H :   -0.163772
   5 H :   -0.017105
   6 H :   -0.009974
   7 H :   -0.001063
Sum of atomic charges:   -0.0000000

LOEWDIN ATOMIC CHARGES
----------------------
   0 C :    0.075928
   1 C :    0.069185
   2 H :   -0.035690
   3 H :   -0.029393
   4 H :   -0.036116
   5 H :   -0.015672
   6 H :   -0.014193
   7 H :   -0.014048

  Mayer bond orders larger than 0.100000
B(  0-C ,  1-C ) :   1.4582 B(  0-C ,  2-H ) :   0.1377 B(  0-C ,  3-H ) :   0.1413
B(  0-C ,  4-H ) :   0.1201 B(  0-C ,  5-H ) :   0.8921 B(  0-C ,  6-H ) :   0.8716
B(  0-C ,  7-H ) :   0.8892 B(  1-C ,  2-H ) :   0.7999 B(  1-C ,  3-H ) :   0.8450
B(  1-C ,  4-H ) :   0.8046 B(  1-C ,  5-H ) :   0.1310 B(  1-C ,  6-H ) :   0.1375
B(  1-C ,  7-H ) :   0.1327 B(  2-H ,  4-H ) :   0.2274

Dispersion correction           -0.002679387
FINAL SINGLE POINT ENERGY       -79.653854487964

DIPOLE MOMENT
-------------
                                X             Y             Z
Electronic contribution:      0.10261       0.03340      -0.00082
Nuclear contribution   :     -0.14218      -0.04688      -0.00907
                        -----------------------------------------
Total Dipole Moment    :     -0.03957      -0.01348      -0.00989
                        -----------------------------------------
Magnitude (a.u.)       :      0.04295
Magnitude (Debye)      :      0.10918

Rotational constants in cm-1:     2.917838     0.714537     0.705359
Rotational constants in MHz : 87474.579540 21421.280941 21146.123231

                             ****ORCA TERMINATED NORMALLY****
TOTAL RUN TIME: 0 days 0 hours 0 minutes 3 seconds 470 msec
