                         Program Version 5.0.0 -  RELEASE  -
|  1> !PBE0 D3BJ RIJCOSX def2-SVPD def2/J TightSCF
|  2> *xyz 0 1
|  3> C         -7.33044       -2.67899       -3.20681
|  4> S         -6.01966       -2.92697       -4.41913
|  5> O         -5.64583       -1.58838       -4.91931
|  6> F         -4.88196       -3.50370       -3.66724
|  7> O         -6.54927       -3.80515       -5.42507
|  8> H         -8.18867       -2.26077       -3.68996
|  9> H         -6.98921       -2.01038       -2.44430
| 10> H         -7.59151       -3.61862       -2.76655
| 11> *
| 12> %MaxCore 64000
| 13>
| 14> %pal nprocs 8
| 15> end
| 16>
| 17> %scf
| 18>   MaxIter 150
| 19> end
| 20>
| 21>
| 22>                          ****END OF INPUT****

CARTESIAN COORDINATES (ANGSTROEM)
---------------------------------
  C     -7.330440   -2.678990   -3.206810
  S     -6.019660   -2.926970   -4.419130
  O     -5.645830   -1.588380   -4.919310
  F     -4.881960   -3.503700   -3.667240
  O     -6.549270   -3.805150   -5.425070
  H     -8.188670   -2.260770   -3.689960
  H     -6.989210   -2.010380   -2.444300
  H     -7.591510   -3.618620   -2.766550

 Total Charge           Charge          ....    0
 Multiplicity           Mult            ....    1
 Number of Electrons    NEL             ....   50
 Basis Dimension        Dim             ....  140

ORBITAL ENERGIES
----------------

  NO   OCC          E(Eh)            E(eV)
   0   2.0000     -89.303747     -2430.0785
   1   2.0000     -24.890914      -677.3162
   2   2.0000     -19.239497      -523.5333
   3   2.0000     -19.227876      -523.2171
   4   2.0000     -10.299885      -280.2741
   5   2.0000      -8.263466      -224.8603
   6   2.0000      -6.209533      -168.9700
   7   2.0000      -6.203442      -168.8042
   8   2.0000      -6.202568      -168.7804
   9   2.0000      -1.383105       -37.6362
  10   2.0000      -1.145113       -31.1601
  11   2.0000      -1.042446       -28.3664
  12   2.0000      -0.826226       -22.4827
  13   2.0000      -0.729715       -19.8565
  14   2.0000      -0.614850       -16.7309
  15   2.0000      -0.592131       -16.1127
  16   2.0000      -0.576368       -15.6838
  17   2.0000      -0.499600       -13.5948
  18   2.0000      -0.498097       -13.5539
  19   2.0000      -0.486508       -13.2386
  20   2.0000      -0.462037       -12.5727
  21   2.0000      -0.408753       -11.1227
  22   2.0000      -0.362732        -9.8704
  23   2.0000      -0.350676        -9.5424
  24   2.0000      -0.332464        -9.0468
  25   0.0000      -0.002875        -0.0782
  26   0.0000       0.031394         0.8543
  27   0.0000       0.040029         1.0892
  28   0.0000       0.050795         1.3822
  29   0.0000       0.051512         1.4017

MULLIKEN ATOMIC CHARGES
-----------------------
   0 C :    0.287605
   1 S :    1.331387
   2 O :   -0.688076
   3 F :   -0.404534
   4 O :   -0.650508
   5 H :    0.033180
   6 H :    0.044569
   7 H :    0.046376
Sum of atomic charges:   -0.0000000

LOEWDIN ATOMIC CHARGES
----------------------
   0 C :    0.123932
   1 S :    1.117505
   2 O :   -0.482668
   3 F :   -0.276361
   4 O :   -0.464783
   5 H :    0.002639
   6 H :   -0.009644
   7 H :   -0.010620

  Mayer bond orders larger than 0.100000
B(  0-C ,  1-S ) :   1.0050 B(  0-C ,  5-H ) :   0.9274 B(  0-C ,  6-H ) :   0.9275
B(  0-C ,  7-H ) :   0.9229 B(  1-S ,  2-O ) :   1.4894 B(  1-S ,  3-F ) :   0.6376
B(  1-S ,  4-O ) :   1.5232 B(  1-S ,  5-H ) :   0.1024

Dispersion correction           -0.004990802
FINAL SINGLE POINT ENERGY      -687.562982885639

DIPOLE MOMENT
-------------
                                X             Y             Z
Electronic contribution:      4.82333      -1.61346      -1.63704
Nuclear contribution   :     -5.44924       1.37171       3.19232
                        -----------------------------------------
Total Dipole Moment    :     -0.62591      -0.24175       1.55529
                        -----------------------------------------
Magnitude (a.u.)       :      1.69385
Magnitude (Debye)      :      4.30542

Rotational constants in cm-1:     0.163884     0.151426     0.145804
Rotational constants in MHz :  4913.124213  4539.628058  4371.086672

                             ****ORCA TERMINATED NORMALLY****
TOTAL RUN TIME: 0 days 0 hours 0 minutes 7 seconds 378 msec
