                         Program Version 5.0.0 -  RELEASE  -
|  1> !PBE0 D3BJ RIJCOSX def2-SVPD def2/J TightSCF
|  2> *xyz 0 1
|  3> C         -7.33044       -2.67899       -3.20681
|  4> S         -6.01966       -2.92697       -4.41913
|  5> O         -5.64583       -1.58838       -4.91931
|  6> O         -4.88196       -3.50370       -3.66724
|  7> F         -6.54927       -3.80515       -5.42507
|  8> H         -8.18867       -2.26077       -3.68996
|  9> H         -6.98921       -2.01038       -2.44430
| 10> H         -7.59151       -3.61862       -2.76655
| 11> *
| 12> %MaxCore 64000
| 13>
| 14> %pal nprocs 8
| 15> end
| 16>
| 17> %scf
| 18>   MaxIter 150
| 19> end
| 20>
| 21>
| 22>                          ****END OF INPUT****

CARTESIAN COORDINATES (ANGSTROEM)
---------------------------------
  C     -7.330440   -2.678990   -3.206810
  S     -6.019660   -2.926970   -4.419130
  O     -5.645830   -1.588380   -4.919310
  O     -4.881960   -3.503700   -3.667240
  F     -6.549270   -3.805150   -5.425070
  H     -8.188670   -2.260770   -3.689960
  H     -6.989210   -2.010380   -2.444300
  H     -7.591510   -3.618620   -2.766550

 Total Charge           Charge          ....    0
 Multiplicity           Mult            ....    1
 Number of Electrons    NEL             ....   50
 Basis Dimension        Dim             ....  140

ORBITAL ENERGIES
----------------

  NO   OCC          E(Eh)            E(eV)
   0   2.0000     -89.306061     -2430.1415
   1   2.0000     -24.912468      -677.9027
   2   2.0000     -19.228422      -523.2320
   3   2.0000     -19.225841      -523.1617
   4   2.0000     -10.300790      -280.2988
   5   2.0000      -8.265810      -224.9241
   6   2.0000      -6.212168      -169.0417
   7   2.0000      -6.205494      -168.8601
   8   2.0000      -6.204700      -168.8385
   9   2.0000      -1.420794       -38.6618
  10   2.0000      -1.129153       -30.7258
  11   2.0000      -1.025186       -27.8967
  12   2.0000      -0.829100       -22.5610
  13   2.0000      -0.748181       -20.3590
  14   2.0000      -0.632580       -17.2134
  15   2.0000      -0.618252       -16.8235
  16   2.0000      -0.580828       -15.8051
  17   2.0000      -0.499281       -13.5861
  18   2.0000      -0.494402       -13.4534
  19   2.0000      -0.487849       -13.2750
  20   2.0000      -0.455116       -12.3843
  21   2.0000      -0.400099       -10.8872
  22   2.0000      -0.351612        -9.5679
  23   2.0000      -0.344874        -9.3845
  24   2.0000      -0.319058        -8.6820
  25   0.0000      -0.004521        -0.1230
  26   0.0000       0.033893         0.9223
  27   0.0000       0.038448         1.0462
  28   0.0000       0.048773         1.3272
  29   0.0000       0.051796         1.4094

MULLIKEN ATOMIC CHARGES
-----------------------
   0 C :    0.289373
   1 S :    1.321599
   2 O :   -0.675674
   3 O :   -0.679792
   4 F :   -0.381643
   5 H :    0.044148
   6 H :    0.034357
   7 H :    0.047632
Sum of atomic charges:   -0.0000000

LOEWDIN ATOMIC CHARGES
----------------------
   0 C :    0.123318
   1 S :    1.119852
   2 O :   -0.482105
   3 O :   -0.485737
   4 F :   -0.257705
   5 H :   -0.011364
   6 H :    0.003989
   7 H :   -0.010247

  Mayer bond orders larger than 0.100000
B(  0-C ,  1-S ) :   1.0048 B(  0-C ,  5-H ) :   0.9225 B(  0-C ,  6-H ) :   0.9312
B(  0-C ,  7-H ) :   0.9223 B(  1-S ,  2-O ) :   1.4928 B(  1-S ,  3-O ) :   1.4926
B(  1-S ,  4-F ) :   0.6839 B(  1-S ,  6-H ) :   0.1083

Dispersion correction           -0.004990350
FINAL SINGLE POINT ENERGY      -687.544464077760

DIPOLE MOMENT
-------------
                                X             Y             Z
Electronic contribution:      2.05279      -2.09922      -4.56129
Nuclear contribution   :     -3.78348       1.67287       4.94851
                        -----------------------------------------
Total Dipole Moment    :     -1.73069      -0.42634       0.38722
                        -----------------------------------------
Magnitude (a.u.)       :      1.82401
Magnitude (Debye)      :      4.63626

Rotational constants in cm-1:     0.163108     0.153882     0.144407
Rotational constants in MHz :  4889.859464  4613.257659  4329.207840

                             ****ORCA TERMINATED NORMALLY****
TOTAL RUN TIME: 0 days 0 hours 0 minutes 6 seconds 791 msec
