                         Program Version 5.0.0 -  RELEASE  -
|  1> !PBE0 D3BJ RIJCOSX def2-SVPD def2/J TightSCF xyzfile
|  2>
|  3> *xyzfile 0 1 D1.xyz
|  4>
|  5> %MaxCore 64000
|  6>
|  7> %pal nprocs 4
|  8> end
|  9>
| 10> %scf
| 11>   MaxIter 150
| 12> end
| 13>
| 14>
| 15>                          ****END OF INPUT****

CARTESIAN COORDINATES (ANGSTROEM)
---------------------------------
  C     -2.160376   -1.369486   -3.467104
  C     -3.030108   -1.910857   -4.541074
  C     -2.047717    0.146583   -3.511774
  C     -7.330440   -2.678991   -3.206811
  S     -6.019659   -2.926965   -4.419128
  H     -3.477443   -2.791513   -4.257096
  H     -2.538013   -2.017860   -5.438075
  H     -3.891589   -1.376039   -4.714365
  F     -5.645830   -1.588384   -4.919307
  O     -4.881961   -3.503697   -3.667235
  H     -1.184438   -1.843997   -3.566393
  H     -2.598195   -1.708376   -2.528477
  O     -6.549267   -3.805150   -5.425071
  C     -3.328755    0.875037   -3.103669
  H     -1.740034    0.452343   -4.517126
  H     -1.232611    0.434938   -2.842208
  C     -3.628487    0.771601   -1.609363
  H     -4.175106    0.490791   -3.682203
  H     -3.237812    1.928663   -3.381480
  C     -4.975718    1.361432   -1.190644
  H     -2.830700    1.276234   -1.054766
  H     -3.594312   -0.275838   -1.294603
  C     -6.184720    0.784347   -1.926464
  H     -4.956292    2.445725   -1.342200
  H     -5.097256    1.205252   -0.114136
  C     -6.286921   -0.735882   -1.893531
  H     -6.163994    1.100199   -2.974250
  H     -7.094530    1.223459   -1.504509
  C     -7.468999   -1.246153   -2.713833
  H     -6.360641   -1.090347   -0.859176
  H     -5.369848   -1.171853   -2.295982
  H     -7.601914   -0.601349   -3.585329
  H     -8.389791   -1.173436   -2.126922
  H     -7.118254   -3.379818   -2.398055
  H     -8.241838   -3.004745   -3.706513

 Total Charge           Charge          ....    0
 Multiplicity           Mult            ....    1
 Number of Electrons    NEL             ....  122
 Basis Dimension        Dim             ....  464

ORBITAL ENERGIES
----------------

  NO   OCC          E(Eh)            E(eV)
   0   2.0000     -89.301680     -2430.0223
   1   2.0000     -24.893889      -677.3971
   2   2.0000     -19.240374      -523.5572
   3   2.0000     -19.225189      -523.1440
   4   2.0000     -10.300564      -280.2926
   5   2.0000     -10.269171      -279.4383
   6   2.0000     -10.247372      -278.8452
   7   2.0000     -10.239327      -278.6263
   8   2.0000     -10.232087      -278.4292
   9   2.0000     -10.225243      -278.2430
  10   2.0000     -10.222750      -278.1752
  11   2.0000     -10.214849      -277.9602
  12   2.0000     -10.204971      -277.6914
  13   2.0000     -10.157642      -276.4035
  14   2.0000      -8.260785      -224.7874
  15   2.0000      -6.207026      -168.9018
  16   2.0000      -6.200986      -168.7374
  17   2.0000      -6.199464      -168.6960
  18   2.0000      -1.389151       -37.8007
  19   2.0000      -1.145783       -31.1783
  20   2.0000      -1.044296       -28.4167
  21   2.0000      -0.868411       -23.6307
  22   2.0000      -0.835362       -22.7314
  23   2.0000      -0.806543       -21.9472
  24   2.0000      -0.779836       -21.2204
  25   2.0000      -0.742085       -20.1932
  26   2.0000      -0.725706       -19.7475
  27   2.0000      -0.689503       -18.7623
  28   2.0000      -0.653590       -17.7851
  29   2.0000      -0.637166       -17.3382
  30   2.0000      -0.611025       -16.6268
  31   2.0000      -0.602901       -16.4058
  32   2.0000      -0.583757       -15.8848
  33   2.0000      -0.572124       -15.5683
  34   2.0000      -0.559678       -15.2296
  35   2.0000      -0.514669       -14.0049
  36   2.0000      -0.508416       -13.8347
  37   2.0000      -0.496592       -13.5130
  38   2.0000      -0.485086       -13.1998
  39   2.0000      -0.480766       -13.0823
  40   2.0000      -0.468081       -12.7371
  41   2.0000      -0.454643       -12.3715
  42   2.0000      -0.448690       -12.2095
  43   2.0000      -0.442236       -12.0338
  44   2.0000      -0.426246       -11.5987
  45   2.0000      -0.412124       -11.2145
  46   2.0000      -0.405791       -11.0421
  47   2.0000      -0.404021       -10.9940
  48   2.0000      -0.390081       -10.6146
  49   2.0000      -0.380542       -10.3551
  50   2.0000      -0.370127       -10.0717
  51   2.0000      -0.367181        -9.9915
  52   2.0000      -0.354160        -9.6372
  53   2.0000      -0.350229        -9.5302
  54   2.0000      -0.343106        -9.3364
  55   2.0000      -0.336741        -9.1632
  56   2.0000      -0.330727        -8.9995
  57   2.0000      -0.327194        -8.9034
  58   2.0000      -0.316432        -8.6106
  59   2.0000      -0.313751        -8.5376
  60   2.0000      -0.290160        -7.8956
  61   0.0000      -0.005090        -0.1385
  62   0.0000       0.026410         0.7186
  63   0.0000       0.027685         0.7533
  64   0.0000       0.034186         0.9303
  65   0.0000       0.040242         1.0951

MULLIKEN ATOMIC CHARGES
-----------------------
   0 C :   -0.119946
   1 C :    1.578334
   2 C :    0.439882
   3 C :    0.287393
   4 S :    1.558018
   5 H :   -0.304085
   6 H :   -0.233241
   7 H :   -0.807833
   8 F :   -0.476059
   9 O :   -0.785719
  10 H :   -0.215745
  11 H :    0.051061
  12 O :   -0.785030
  13 C :    0.189258
  14 H :   -0.024486
  15 H :   -0.041377
  16 C :   -0.274032
  17 H :   -0.415884
  18 H :   -0.016579
  19 C :    0.565919
  20 H :   -0.277226
  21 H :    0.186969
  22 C :   -0.226521
  23 H :    0.031125
  24 H :    0.063736
  25 C :    0.157026
  26 H :    0.253053
  27 H :   -0.347702
  28 C :    0.141021
  29 H :   -0.005137
  30 H :   -0.240545
  31 H :    0.126668
  32 H :   -0.137371
  33 H :    0.044438
  34 H :    0.060618
Sum of atomic charges:    0.0000000

LOEWDIN ATOMIC CHARGES
----------------------
   0 C :   -0.041342
   1 C :    0.122158
   2 C :   -0.032046
   3 C :   -0.026192
   4 S :    1.173043
   5 H :   -0.117700
   6 H :   -0.011660
   7 H :   -0.092183
   8 F :   -0.271414
   9 O :   -0.460397
  10 H :    0.026240
  11 H :    0.014077
  12 O :   -0.446052
  13 C :   -0.026697
  14 H :    0.027328
  15 H :    0.019496
  16 C :   -0.037757
  17 H :   -0.004107
  18 H :    0.028088
  19 C :   -0.032703
  20 H :    0.027173
  21 H :    0.007637
  22 C :   -0.041359
  23 H :    0.025497
  24 H :    0.024602
  25 C :   -0.025890
  26 H :    0.018464
  27 H :    0.027829
  28 C :   -0.046466
  29 H :    0.043027
  30 H :    0.001442
  31 H :    0.025454
  32 H :    0.038879
  33 H :    0.038787
  34 H :    0.024743

  Mayer bond orders larger than 0.100000
B(  0-C ,  1-C ) :   1.0950 B(  0-C ,  2-C ) :   1.2050 B(  0-C ,  5-H ) :   0.3389
B(  0-C ,  6-H ) :   0.1213 B(  0-C ,  7-H ) :   0.3412 B(  0-C , 10-H ) :   0.9508
B(  0-C , 11-H ) :   0.7805 B(  0-C , 14-H ) :   0.1430 B(  0-C , 15-H ) :   0.1603
B(  1-C ,  6-H ) :   0.6526 B(  1-C ,  7-H ) :  -0.2365 B(  1-C , 11-H ) :   0.1890
B(  2-C ,  7-H ) :  -0.1015 B(  2-C , 13-C ) :   1.2127 B(  2-C , 14-H ) :   0.7409
B(  2-C , 15-H ) :   0.7743 B(  2-C , 17-H ) :   0.1286 B(  3-C ,  4-S ) :   0.9075
B(  3-C , 12-O ) :   0.1291 B(  3-C , 28-C ) :   1.2691 B(  3-C , 33-H ) :   0.9094
B(  3-C , 34-H ) :   0.7793 B(  4-S ,  8-F ) :   0.5673 B(  4-S ,  9-O ) :   1.4058
B(  4-S , 12-O ) :   1.3980 B(  5-H ,  6-H ) :  -0.1026 B(  5-H ,  7-H ) :   0.7475
B(  6-H ,  7-H ) :   0.1629 B(  7-H ,  9-O ) :   0.1111 B(  7-H , 17-H ) :   0.1456
B( 13-C , 14-H ) :   0.1786 B( 13-C , 15-H ) :   0.1510 B( 13-C , 16-C ) :   1.1954
B( 13-C , 17-H ) :   0.8576 B( 13-C , 18-H ) :   0.7842 B( 13-C , 20-H ) :   0.1749
B( 14-H , 15-H ) :  -0.1220 B( 16-C , 17-H ) :   0.1620 B( 16-C , 18-H ) :   0.1799
B( 16-C , 19-C ) :   1.1998 B( 16-C , 20-H ) :   1.0418 B( 16-C , 21-H ) :   0.8521
B( 16-C , 22-C ) :   0.1002 B( 16-C , 23-H ) :   0.1464 B( 16-C , 24-H ) :   0.2308
B( 19-C , 22-C ) :   1.1600 B( 19-C , 23-H ) :   0.7147 B( 19-C , 24-H ) :   0.7152
B( 22-C , 23-H ) :   0.2017 B( 22-C , 24-H ) :   0.1150 B( 22-C , 25-C ) :   1.2588
B( 22-C , 26-H ) :   0.7871 B( 22-C , 27-H ) :   1.0938 B( 22-C , 28-C ) :   0.1002
B( 22-C , 29-H ) :   0.1054 B( 22-C , 30-H ) :   0.1042 B( 25-C , 27-H ) :   0.1798
B( 25-C , 28-C ) :   1.1274 B( 25-C , 29-H ) :   0.7629 B( 25-C , 30-H ) :   0.9228
B( 25-C , 32-H ) :   0.1763 B( 28-C , 29-H ) :   0.1205 B( 28-C , 31-H ) :   0.8687
B( 28-C , 32-H ) :   0.8594 B( 28-C , 34-H ) :   0.2026 B( 29-H , 30-H ) :   0.2307

Dispersion correction           -0.035903492
FINAL SINGLE POINT ENERGY     -1040.692387355742

DIPOLE MOMENT
-------------
                                X             Y             Z
Electronic contribution:    -10.87934     -16.17731     -13.14343
Nuclear contribution   :      9.63012      17.20461      14.03552
                        -----------------------------------------
Total Dipole Moment    :     -1.24922       1.02730       0.89209
                        -----------------------------------------
Magnitude (a.u.)       :      1.84708
Magnitude (Debye)      :      4.69491

Rotational constants in cm-1:     0.025899     0.015189     0.010690
Rotational constants in MHz :   776.424978   455.369614   320.488876

                             ****ORCA TERMINATED NORMALLY****
TOTAL RUN TIME: 0 days 0 hours 3 minutes 12 seconds 642 msec
