                         Program Version 5.0.0 -  RELEASE  -
|  1> !PBE0 D3BJ RIJCOSX def2-SVPD def2/J TightSCF xyzfile
|  2>
|  3> *xyzfile 0 1 D2.xyz
|  4>
|  5> %MaxCore 64000
|  6>
|  7> %pal nprocs 4
|  8> end
|  9>
| 10> %scf
| 11>   MaxIter 150
| 12> end
| 13>
| 14>
| 15>                          ****END OF INPUT****

CARTESIAN COORDINATES (ANGSTROEM)
---------------------------------
  C     -2.160376   -1.369486   -3.467104
  C     -3.030108   -1.910857   -4.541074
  C     -2.047717    0.146583   -3.511774
  C     -7.330440   -2.678991   -3.206811
  S     -6.019659   -2.926965   -4.419128
  H     -3.477443   -2.791513   -4.257096
  H     -2.538013   -2.017860   -5.438075
  H     -3.891589   -1.376039   -4.714365
  O     -5.645830   -1.588384   -4.919307
  F     -4.881961   -3.503697   -3.667235
  H     -1.184438   -1.843997   -3.566393
  H     -2.598195   -1.708376   -2.528477
  O     -6.549267   -3.805150   -5.425071
  C     -3.328755    0.875037   -3.103669
  H     -1.740034    0.452343   -4.517126
  H     -1.232611    0.434938   -2.842208
  C     -3.628487    0.771601   -1.609363
  H     -4.175106    0.490791   -3.682203
  H     -3.237812    1.928663   -3.381480
  C     -4.975718    1.361432   -1.190644
  H     -2.830700    1.276234   -1.054766
  H     -3.594312   -0.275838   -1.294603
  C     -6.184720    0.784347   -1.926464
  H     -4.956292    2.445725   -1.342200
  H     -5.097256    1.205252   -0.114136
  C     -6.286921   -0.735882   -1.893531
  H     -6.163994    1.100199   -2.974250
  H     -7.094530    1.223459   -1.504509
  C     -7.468999   -1.246153   -2.713833
  H     -6.360641   -1.090347   -0.859176
  H     -5.369848   -1.171853   -2.295982
  H     -7.601914   -0.601349   -3.585329
  H     -8.389791   -1.173436   -2.126922
  H     -7.118254   -3.379818   -2.398055
  H     -8.241838   -3.004745   -3.706513

 Total Charge           Charge          ....    0
 Multiplicity           Mult            ....    1
 Number of Electrons    NEL             ....  122
 Basis Dimension        Dim             ....  464

ORBITAL ENERGIES
----------------

  NO   OCC          E(Eh)            E(eV)
   0   2.0000     -89.301973     -2430.0302
   1   2.0000     -24.891328      -677.3275
   2   2.0000     -19.240463      -523.5596
   3   2.0000     -19.228873      -523.2442
   4   2.0000     -10.301255      -280.3114
   5   2.0000     -10.262150      -279.2473
   6   2.0000     -10.244119      -278.7566
   7   2.0000     -10.233681      -278.4726
   8   2.0000     -10.228430      -278.3297
   9   2.0000     -10.222583      -278.1706
  10   2.0000     -10.216977      -278.0181
  11   2.0000     -10.213742      -277.9300
  12   2.0000     -10.207669      -277.7648
  13   2.0000     -10.160722      -276.4873
  14   2.0000      -8.260957      -224.7921
  15   2.0000      -6.207114      -168.9041
  16   2.0000      -6.201196      -168.7431
  17   2.0000      -6.199723      -168.7030
  18   2.0000      -1.387212       -37.7479
  19   2.0000      -1.146577       -31.2000
  20   2.0000      -1.046576       -28.4788
  21   2.0000      -0.863524       -23.4977
  22   2.0000      -0.832575       -22.6555
  23   2.0000      -0.805431       -21.9169
  24   2.0000      -0.780429       -21.2366
  25   2.0000      -0.741410       -20.1748
  26   2.0000      -0.724817       -19.7233
  27   2.0000      -0.686120       -18.6703
  28   2.0000      -0.650466       -17.7001
  29   2.0000      -0.635916       -17.3042
  30   2.0000      -0.601112       -16.3571
  31   2.0000      -0.596923       -16.2431
  32   2.0000      -0.588654       -16.0181
  33   2.0000      -0.576832       -15.6964
  34   2.0000      -0.556998       -15.1567
  35   2.0000      -0.520956       -14.1759
  36   2.0000      -0.502682       -13.6787
  37   2.0000      -0.493902       -13.4398
  38   2.0000      -0.486418       -13.2361
  39   2.0000      -0.481040       -13.0898
  40   2.0000      -0.461095       -12.5470
  41   2.0000      -0.449742       -12.2381
  42   2.0000      -0.446555       -12.1514
  43   2.0000      -0.441825       -12.0227
  44   2.0000      -0.421005       -11.4561
  45   2.0000      -0.414042       -11.2667
  46   2.0000      -0.403309       -10.9746
  47   2.0000      -0.396742       -10.7959
  48   2.0000      -0.387324       -10.5396
  49   2.0000      -0.378621       -10.3028
  50   2.0000      -0.371592       -10.1115
  51   2.0000      -0.358504        -9.7554
  52   2.0000      -0.351553        -9.5662
  53   2.0000      -0.348402        -9.4805
  54   2.0000      -0.341207        -9.2847
  55   2.0000      -0.339020        -9.2252
  56   2.0000      -0.332152        -9.0383
  57   2.0000      -0.325924        -8.8688
  58   2.0000      -0.313702        -8.5363
  59   2.0000      -0.311367        -8.4727
  60   2.0000      -0.298847        -8.1320
  61   0.0000       0.004319         0.1175
  62   0.0000       0.020018         0.5447
  63   0.0000       0.026276         0.7150
  64   0.0000       0.033622         0.9149
  65   0.0000       0.042434         1.1547

MULLIKEN ATOMIC CHARGES
-----------------------
   0 C :   -0.098969
   1 C :    1.624629
   2 C :    0.433938
   3 C :    0.257954
   4 S :    1.582042
   5 H :   -0.423651
   6 H :   -0.236213
   7 H :   -0.740641
   8 O :   -0.760633
   9 F :   -0.519600
  10 H :   -0.215682
  11 H :    0.051657
  12 O :   -0.790984
  13 C :    0.206779
  14 H :   -0.010161
  15 H :   -0.044649
  16 C :   -0.265139
  17 H :   -0.435933
  18 H :   -0.005457
  19 C :    0.563743
  20 H :   -0.272981
  21 H :    0.172078
  22 C :   -0.252909
  23 H :    0.027760
  24 H :    0.061663
  25 C :    0.154409
  26 H :    0.263156
  27 H :   -0.336823
  28 C :    0.154630
  29 H :   -0.007063
  30 H :   -0.256665
  31 H :    0.180276
  32 H :   -0.148392
  33 H :    0.038286
  34 H :    0.049546
Sum of atomic charges:   -0.0000000

LOEWDIN ATOMIC CHARGES
----------------------
   0 C :   -0.047378
   1 C :    0.127117
   2 C :   -0.029755
   3 C :   -0.032626
   4 S :    1.172327
   5 H :   -0.091001
   6 H :   -0.008862
   7 H :   -0.112028
   8 O :   -0.453802
   9 F :   -0.281174
  10 H :    0.023346
  11 H :    0.009261
  12 O :   -0.446845
  13 C :   -0.021775
  14 H :    0.028835
  15 H :    0.018976
  16 C :   -0.039641
  17 H :    0.001702
  18 H :    0.028559
  19 C :   -0.033365
  20 H :    0.025970
  21 H :    0.004714
  22 C :   -0.036915
  23 H :    0.025466
  24 H :    0.023256
  25 C :   -0.028630
  26 H :    0.023513
  27 H :    0.027900
  28 C :   -0.040155
  29 H :    0.038697
  30 H :   -0.000603
  31 H :    0.029750
  32 H :    0.039400
  33 H :    0.026836
  34 H :    0.028932

  Mayer bond orders larger than 0.100000
B(  0-C ,  1-C ) :   1.0869 B(  0-C ,  2-C ) :   1.2106 B(  0-C ,  5-H ) :   0.3311
B(  0-C ,  6-H ) :   0.1104 B(  0-C ,  7-H ) :   0.3293 B(  0-C , 10-H ) :   0.9531
B(  0-C , 11-H ) :   0.7717 B(  0-C , 14-H ) :   0.1478 B(  0-C , 15-H ) :   0.1595
B(  1-C ,  6-H ) :   0.6461 B(  1-C ,  7-H ) :  -0.1378 B(  1-C , 11-H ) :   0.1797
B(  2-C ,  7-H ) :  -0.1100 B(  2-C , 11-H ) :   0.1047 B(  2-C , 13-C ) :   1.2127
B(  2-C , 14-H ) :   0.7317 B(  2-C , 15-H ) :   0.7801 B(  2-C , 17-H ) :   0.1265
B(  3-C ,  4-S ) :   0.8984 B(  3-C , 12-O ) :   0.1430 B(  3-C , 28-C ) :   1.2764
B(  3-C , 31-H ) :   0.1012 B(  3-C , 33-H ) :   0.9104 B(  3-C , 34-H ) :   0.7885
B(  4-S ,  8-O ) :   1.4039 B(  4-S ,  9-F ) :   0.5292 B(  4-S , 12-O ) :   1.3932
B(  5-H ,  6-H ) :  -0.1166 B(  5-H ,  7-H ) :   0.7536 B(  5-H ,  9-F ) :   0.1494
B(  6-H ,  7-H ) :   0.1885 B(  7-H ,  9-F ) :   0.1175 B(  7-H , 17-H ) :   0.1503
B(  8-O , 12-O ) :   0.1210 B( 13-C , 14-H ) :   0.1776 B( 13-C , 15-H ) :   0.1534
B( 13-C , 16-C ) :   1.1874 B( 13-C , 17-H ) :   0.8512 B( 13-C , 18-H ) :   0.7740
B( 13-C , 20-H ) :   0.1743 B( 14-H , 15-H ) :  -0.1197 B( 16-C , 17-H ) :   0.1664
B( 16-C , 18-H ) :   0.1809 B( 16-C , 19-C ) :   1.1999 B( 16-C , 20-H ) :   1.0358
B( 16-C , 21-H ) :   0.8544 B( 16-C , 22-C ) :   0.1005 B( 16-C , 23-H ) :   0.1461
B( 16-C , 24-H ) :   0.2325 B( 19-C , 22-C ) :   1.1587 B( 19-C , 23-H ) :   0.7173
B( 19-C , 24-H ) :   0.7123 B( 22-C , 23-H ) :   0.2000 B( 22-C , 24-H ) :   0.1154
B( 22-C , 25-C ) :   1.2789 B( 22-C , 26-H ) :   0.7792 B( 22-C , 27-H ) :   1.0935
B( 22-C , 28-C ) :   0.1058 B( 22-C , 29-H ) :   0.1052 B( 22-C , 30-H ) :   0.1123
B( 25-C , 27-H ) :   0.1750 B( 25-C , 28-C ) :   1.1433 B( 25-C , 29-H ) :   0.7465
B( 25-C , 30-H ) :   0.9151 B( 25-C , 32-H ) :   0.1837 B( 28-C , 29-H ) :   0.1187
B( 28-C , 31-H ) :   0.8428 B( 28-C , 32-H ) :   0.8633 B( 28-C , 34-H ) :   0.1826
B( 29-H , 30-H ) :   0.2712

Dispersion correction           -0.036007788
FINAL SINGLE POINT ENERGY     -1040.695833062152

DIPOLE MOMENT
-------------
                                X             Y             Z
Electronic contribution:     -9.55143     -19.48439     -11.06524
Nuclear contribution   :      8.71934      19.48829      12.54264
                        -----------------------------------------
Total Dipole Moment    :     -0.83209       0.00390       1.47740
                        -----------------------------------------
Magnitude (a.u.)       :      1.69561
Magnitude (Debye)      :      4.30991

Rotational constants in cm-1:     0.025810     0.015137     0.010647
Rotational constants in MHz :   773.773140   453.802427   319.195213

                             ****ORCA TERMINATED NORMALLY****
TOTAL RUN TIME: 0 days 0 hours 3 minutes 12 seconds 756 msec
