                         Program Version 5.0.0 -  RELEASE  -
|  1> !PBE0 D3BJ RIJCOSX def2-SVPD def2/J TightSCF xyzfile
|  2>
|  3> *xyzfile 0 1 D3.xyz
|  4>
|  5> %MaxCore 64000
|  6>
|  7> %pal nprocs 4
|  8> end
|  9>
| 10> %scf
| 11>   MaxIter 150
| 12> end
| 13>
| 14>
| 15>                          ****END OF INPUT****

CARTESIAN COORDINATES (ANGSTROEM)
---------------------------------
  C     -2.160376   -1.369486   -3.467104
  C     -3.030108   -1.910857   -4.541074
  C     -2.047717    0.146583   -3.511774
  C     -7.330440   -2.678991   -3.206811
  S     -6.019659   -2.926965   -4.419128
  H     -3.477443   -2.791513   -4.257096
  H     -2.538013   -2.017860   -5.438075
  H     -3.891589   -1.376039   -4.714365
  O     -5.645830   -1.588384   -4.919307
  O     -4.881961   -3.503697   -3.667235
  H     -1.184438   -1.843997   -3.566393
  H     -2.598195   -1.708376   -2.528477
  F     -6.549267   -3.805150   -5.425071
  C     -3.328755    0.875037   -3.103669
  H     -1.740034    0.452343   -4.517126
  H     -1.232611    0.434938   -2.842208
  C     -3.628487    0.771601   -1.609363
  H     -4.175106    0.490791   -3.682203
  H     -3.237812    1.928663   -3.381480
  C     -4.975718    1.361432   -1.190644
  H     -2.830700    1.276234   -1.054766
  H     -3.594312   -0.275838   -1.294603
  C     -6.184720    0.784347   -1.926464
  H     -4.956292    2.445725   -1.342200
  H     -5.097256    1.205252   -0.114136
  C     -6.286921   -0.735882   -1.893531
  H     -6.163994    1.100199   -2.974250
  H     -7.094530    1.223459   -1.504509
  C     -7.468999   -1.246153   -2.713833
  H     -6.360641   -1.090347   -0.859176
  H     -5.369848   -1.171853   -2.295982
  H     -7.601914   -0.601349   -3.585329
  H     -8.389791   -1.173436   -2.126922
  H     -7.118254   -3.379818   -2.398055
  H     -8.241838   -3.004745   -3.706513

 Total Charge           Charge          ....    0
 Multiplicity           Mult            ....    1
 Number of Electrons    NEL             ....  122
 Basis Dimension        Dim             ....  464

ORBITAL ENERGIES
----------------

  NO   OCC          E(Eh)            E(eV)
   0   2.0000     -89.307977     -2430.1936
   1   2.0000     -24.914969      -677.9708
   2   2.0000     -19.233744      -523.3768
   3   2.0000     -19.230388      -523.2855
   4   2.0000     -10.303324      -280.3677
   5   2.0000     -10.262796      -279.2649
   6   2.0000     -10.236381      -278.5461
   7   2.0000     -10.228374      -278.3282
   8   2.0000     -10.222345      -278.1642
   9   2.0000     -10.214363      -277.9470
  10   2.0000     -10.208412      -277.7850
  11   2.0000     -10.202283      -277.6182
  12   2.0000     -10.191193      -277.3165
  13   2.0000     -10.135962      -275.8136
  14   2.0000      -8.266905      -224.9539
  15   2.0000      -6.213355      -169.0740
  16   2.0000      -6.206898      -168.8983
  17   2.0000      -6.205515      -168.8606
  18   2.0000      -1.422055       -38.6961
  19   2.0000      -1.138316       -30.9751
  20   2.0000      -1.034553       -28.1516
  21   2.0000      -0.862798       -23.4779
  22   2.0000      -0.826462       -22.4892
  23   2.0000      -0.797340       -21.6967
  24   2.0000      -0.778433       -21.1822
  25   2.0000      -0.745174       -20.2772
  26   2.0000      -0.717064       -19.5123
  27   2.0000      -0.681664       -18.5490
  28   2.0000      -0.645934       -17.5768
  29   2.0000      -0.624491       -16.9933
  30   2.0000      -0.621671       -16.9165
  31   2.0000      -0.610584       -16.6148
  32   2.0000      -0.583651       -15.8819
  33   2.0000      -0.575383       -15.6570
  34   2.0000      -0.546383       -14.8678
  35   2.0000      -0.518119       -14.0987
  36   2.0000      -0.506753       -13.7894
  37   2.0000      -0.489523       -13.3206
  38   2.0000      -0.486639       -13.2421
  39   2.0000      -0.474707       -12.9174
  40   2.0000      -0.461478       -12.5575
  41   2.0000      -0.448418       -12.2021
  42   2.0000      -0.436202       -11.8697
  43   2.0000      -0.431593       -11.7443
  44   2.0000      -0.419254       -11.4085
  45   2.0000      -0.402066       -10.9408
  46   2.0000      -0.397290       -10.8108
  47   2.0000      -0.391504       -10.6534
  48   2.0000      -0.378790       -10.3074
  49   2.0000      -0.367688       -10.0053
  50   2.0000      -0.361896        -9.8477
  51   2.0000      -0.351908        -9.5759
  52   2.0000      -0.347916        -9.4673
  53   2.0000      -0.344766        -9.3816
  54   2.0000      -0.336442        -9.1551
  55   2.0000      -0.326117        -8.8741
  56   2.0000      -0.320650        -8.7253
  57   2.0000      -0.315830        -8.5942
  58   2.0000      -0.300979        -8.1900
  59   2.0000      -0.292024        -7.9464
  60   2.0000      -0.277763        -7.5583
  61   0.0000      -0.000819        -0.0223
  62   0.0000       0.015149         0.4122
  63   0.0000       0.031701         0.8626
  64   0.0000       0.034743         0.9454
  65   0.0000       0.039468         1.0740

MULLIKEN ATOMIC CHARGES
-----------------------
   0 C :   -0.118466
   1 C :    1.583166
   2 C :    0.440735
   3 C :    0.249189
   4 S :    1.699453
   5 H :   -0.361666
   6 H :   -0.215270
   7 H :   -0.792734
   8 O :   -0.749313
   9 O :   -0.782299
  10 H :   -0.226806
  11 H :    0.056692
  12 F :   -0.588427
  13 C :    0.209436
  14 H :   -0.018300
  15 H :   -0.047817
  16 C :   -0.278351
  17 H :   -0.433346
  18 H :   -0.008700
  19 C :    0.564200
  20 H :   -0.279508
  21 H :    0.193060
  22 C :   -0.241557
  23 H :    0.029395
  24 H :    0.059639
  25 C :    0.118642
  26 H :    0.262001
  27 H :   -0.342307
  28 C :    0.121958
  29 H :   -0.004297
  30 H :   -0.237047
  31 H :    0.179815
  32 H :   -0.149871
  33 H :    0.054338
  34 H :    0.054365
Sum of atomic charges:    0.0000000

LOEWDIN ATOMIC CHARGES
----------------------
   0 C :   -0.045741
   1 C :    0.120841
   2 C :   -0.032895
   3 C :   -0.037880
   4 S :    1.205302
   5 H :   -0.118917
   6 H :   -0.014748
   7 H :   -0.111246
   8 O :   -0.455768
   9 O :   -0.460374
  10 H :    0.021973
  11 H :    0.011924
  12 F :   -0.248296
  13 C :   -0.023346
  14 H :    0.026689
  15 H :    0.016930
  16 C :   -0.038962
  17 H :    0.000872
  18 H :    0.026718
  19 C :   -0.034130
  20 H :    0.025319
  21 H :    0.006843
  22 C :   -0.038858
  23 H :    0.024491
  24 H :    0.022746
  25 C :   -0.023075
  26 H :    0.022237
  27 H :    0.025900
  28 C :   -0.035756
  29 H :    0.039857
  30 H :    0.005174
  31 H :    0.027548
  32 H :    0.039624
  33 H :    0.031747
  34 H :    0.017257

  Mayer bond orders larger than 0.100000
B(  0-C ,  1-C ) :   1.1009 B(  0-C ,  2-C ) :   1.2043 B(  0-C ,  5-H ) :   0.3350
B(  0-C ,  6-H ) :   0.1259 B(  0-C ,  7-H ) :   0.3316 B(  0-C , 10-H ) :   0.9586
B(  0-C , 11-H ) :   0.7735 B(  0-C , 14-H ) :   0.1488 B(  0-C , 15-H ) :   0.1617
B(  1-C ,  6-H ) :   0.6542 B(  1-C ,  7-H ) :  -0.1645 B(  1-C , 11-H ) :   0.1949
B(  2-C ,  7-H ) :  -0.1025 B(  2-C , 13-C ) :   1.2101 B(  2-C , 14-H ) :   0.7366
B(  2-C , 15-H ) :   0.7724 B(  2-C , 17-H ) :   0.1330 B(  3-C ,  4-S ) :   0.9267
B(  3-C , 12-F ) :   0.1326 B(  3-C , 28-C ) :   1.2976 B(  3-C , 33-H ) :   0.9222
B(  3-C , 34-H ) :   0.7475 B(  4-S ,  8-O ) :   1.3159 B(  4-S ,  9-O ) :   1.3237
B(  4-S , 12-F ) :   0.4292 B(  5-H ,  6-H ) :  -0.1338 B(  5-H ,  7-H ) :   0.7853
B(  5-H ,  9-O ) :   0.1091 B(  6-H ,  7-H ) :   0.1758 B(  7-H ,  9-O ) :   0.1405
B(  7-H , 17-H ) :   0.1527 B( 11-H , 21-H ) :   0.1001 B( 13-C , 14-H ) :   0.1761
B( 13-C , 15-H ) :   0.1522 B( 13-C , 16-C ) :   1.1890 B( 13-C , 17-H ) :   0.8474
B( 13-C , 18-H ) :   0.7730 B( 13-C , 20-H ) :   0.1761 B( 14-H , 15-H ) :  -0.1206
B( 16-C , 17-H ) :   0.1680 B( 16-C , 18-H ) :   0.1826 B( 16-C , 19-C ) :   1.1973
B( 16-C , 20-H ) :   1.0437 B( 16-C , 21-H ) :   0.8484 B( 16-C , 22-C ) :   0.1022
B( 16-C , 23-H ) :   0.1481 B( 16-C , 24-H ) :   0.2315 B( 19-C , 22-C ) :   1.1597
B( 19-C , 23-H ) :   0.7162 B( 19-C , 24-H ) :   0.7141 B( 22-C , 23-H ) :   0.2018
B( 22-C , 24-H ) :   0.1156 B( 22-C , 25-C ) :   1.2767 B( 22-C , 26-H ) :   0.7804
B( 22-C , 27-H ) :   1.0905 B( 22-C , 28-C ) :   0.1078 B( 22-C , 29-H ) :   0.1085
B( 25-C , 27-H ) :   0.1781 B( 25-C , 28-C ) :   1.1459 B( 25-C , 29-H ) :   0.7622
B( 25-C , 30-H ) :   0.9177 B( 25-C , 32-H ) :   0.1814 B( 28-C , 29-H ) :   0.1178
B( 28-C , 31-H ) :   0.8448 B( 28-C , 32-H ) :   0.8653 B( 28-C , 34-H ) :   0.2100
B( 29-H , 30-H ) :   0.2493

Dispersion correction           -0.036243334
FINAL SINGLE POINT ENERGY     -1040.677687340585

DIPOLE MOMENT
-------------
                                X             Y             Z
Electronic contribution:    -12.67074     -20.25265     -14.27079
Nuclear contribution   :     10.70731      19.84772      14.63855
                        -----------------------------------------
Total Dipole Moment    :     -1.96342      -0.40493       0.36777
                        -----------------------------------------
Magnitude (a.u.)       :      2.03820
Magnitude (Debye)      :      5.18069

Rotational constants in cm-1:     0.026014     0.014812     0.010477
Rotational constants in MHz :   779.874765   444.063394   314.081855

                             ****ORCA TERMINATED NORMALLY****
TOTAL RUN TIME: 0 days 0 hours 3 minutes 12 seconds 531 msec
