                         Program Version 5.0.0 -  RELEASE  -
|  1> !BLYP D3BJ RIJCOSX def2-SVP def2/J TightSCF
|  2> *xyz -1 1
|  3> C          4.93020       -7.37532       -2.64962
|  4> C          3.84189       -6.95161       -3.63283
|  5> H          3.45814       -5.95442       -3.40712
|  6> H          2.98848       -7.64361       -3.56708
|  7> S          4.31812       -6.91593       -5.36869
|  8> O          5.40615       -5.89948       -5.51297
|  9> O          3.11191       -6.44508       -6.04379
| 10> O          4.76340       -8.23942       -5.69863
| 11> H          5.27901       -8.35440       -2.90385
| 12> H          4.53000       -7.38577       -1.65734
| 13> H          5.74437       -6.68276       -2.69856
| 14> *
| 15>
| 16> %MaxCore 64000
| 17>
| 18> %pal nprocs 4
| 19> end
| 20>
| 21> %scf
| 22>   MaxIter 150
| 23> end
| 24>
| 25>
| 26>                          ****END OF INPUT****

CARTESIAN COORDINATES (ANGSTROEM)
---------------------------------
  C      4.930200   -7.375320   -2.649620
  C      3.841890   -6.951610   -3.632830
  H      3.458140   -5.954420   -3.407120
  H      2.988480   -7.643610   -3.567080
  S      4.318120   -6.915930   -5.368690
  O      5.406150   -5.899480   -5.512970
  O      3.111910   -6.445080   -6.043790
  O      4.763400   -8.239420   -5.698630
  H      5.279010   -8.354400   -2.903850
  H      4.530000   -7.385770   -1.657340
  H      5.744370   -6.682760   -2.698560

 Total Charge           Charge          ....   -1
 Multiplicity           Mult            ....    1
 Number of Electrons    NEL             ....   58
 Basis Dimension        Dim             ....  113

ORBITAL ENERGIES
----------------

  NO   OCC          E(Eh)            E(eV)
   0   2.0000     -88.080300     -2396.7868
   1   2.0000     -18.530377      -504.2372
   2   2.0000     -18.519665      -503.9457
   3   2.0000     -18.511524      -503.7242
   4   2.0000      -9.771026      -265.8831
   5   2.0000      -9.763751      -265.6852
   6   2.0000      -7.623759      -207.4530
   7   2.0000      -5.658431      -153.9737
   8   2.0000      -5.658151      -153.9661
   9   2.0000      -5.657979      -153.9614
  10   2.0000      -0.793510       -21.5925
  11   2.0000      -0.660484       -17.9727
  12   2.0000      -0.629925       -17.1411
  13   2.0000      -0.533631       -14.5208
  14   2.0000      -0.416853       -11.3431
  15   2.0000      -0.294282        -8.0078
  16   2.0000      -0.249848        -6.7987
  17   2.0000      -0.230790        -6.2801
  18   2.0000      -0.199540        -5.4298
  19   2.0000      -0.178063        -4.8454
  20   2.0000      -0.177309        -4.8248
  21   2.0000      -0.154592        -4.2067
  22   2.0000      -0.144078        -3.9206
  23   2.0000      -0.057573        -1.5666
  24   2.0000      -0.056526        -1.5382
  25   2.0000      -0.031389        -0.8541
  26   2.0000      -0.024108        -0.6560
  27   2.0000      -0.009846        -0.2679
  28   2.0000       0.026436         0.7194
  29   0.0000       0.181244         4.9319
  30   0.0000       0.231296         6.2939
  31   0.0000       0.237249         6.4559
  32   0.0000       0.244035         6.6405
  33   0.0000       0.270208         7.3527

MULLIKEN ATOMIC CHARGES
-----------------------
   0 C :    0.118634
   1 C :   -0.024057
   2 H :   -0.040077
   3 H :   -0.044644
   4 S :    0.757073
   5 O :   -0.575436
   6 O :   -0.544755
   7 O :   -0.516491
   8 H :   -0.030963
   9 H :   -0.066961
  10 H :   -0.032322
Sum of atomic charges:   -1.0000000

LOEWDIN ATOMIC CHARGES
----------------------
   0 C :   -0.063531
   1 C :   -0.181136
   2 H :   -0.001163
   3 H :   -0.002714
   4 S :    1.062327
   5 O :   -0.638059
   6 O :   -0.605182
   7 O :   -0.578863
   8 H :    0.007134
   9 H :   -0.005306
  10 H :    0.006494

  Mayer bond orders larger than 0.100000
B(  0-C ,  1-C ) :   1.0747 B(  0-C ,  8-H ) :   0.9559 B(  0-C ,  9-H ) :   0.9455
B(  0-C , 10-H ) :   0.9550 B(  1-C ,  2-H ) :   0.9291 B(  1-C ,  3-H ) :   0.9234
B(  1-C ,  4-S ) :   0.8571 B(  4-S ,  5-O ) :   1.5828 B(  4-S ,  6-O ) :   1.6237
B(  4-S ,  7-O ) :   1.6444

Dispersion correction           -0.020378313
FINAL SINGLE POINT ENERGY      -702.641548974390

DIPOLE MOMENT
-------------
                                X             Y             Z
Electronic contribution:     -0.32577       0.84577      -8.13894
Nuclear contribution   :      0.07504      -1.14369       9.75001
                        -----------------------------------------
Total Dipole Moment    :     -0.25073      -0.29792       1.61107
                        -----------------------------------------
Magnitude (a.u.)       :      1.65746
Magnitude (Debye)      :      4.21292

Rotational constants in cm-1:     0.160553     0.082191     0.080550
Rotational constants in MHz :  4813.250478  2464.013016  2414.833054

                             ****ORCA TERMINATED NORMALLY****
TOTAL RUN TIME: 0 days 0 hours 0 minutes 7 seconds 188 msec
