                         Program Version 5.0.0 -  RELEASE  -
|  1> !BLYP D3BJ RIJCOSX def2-SVP def2/J TightSCF
|  2> *xyz 1 1
|  3> C          5.55821       -1.99291       -6.21505
|  4> C          4.18188       -2.58967       -6.29891
|  5> N          3.14587       -1.76843       -6.48675
|  6> N          4.01910       -3.86431       -6.22743
|  7> H          4.76849       -4.59115       -5.99077
|  8> H          3.12241       -4.33339       -6.31462
|  9> H          3.28164       -0.77779       -6.56655
| 10> H          2.21255       -2.13419       -6.56225
| 11> C          6.41926       -2.54294       -5.07763
| 12> H          6.03683       -2.19819       -7.17685
| 13> H          5.46761       -0.90737       -6.12797
| 14> H          6.50056       -3.60553       -5.17358
| 15> H          5.96544       -2.30329       -4.13874
| 16> H          7.39438       -2.10494       -5.12457
| 17> *
| 18>
| 19> %MaxCore 64000
| 20>
| 21> %pal nprocs 4
| 22> end
| 23>
| 24> %scf
| 25>   MaxIter 150
| 26> end
| 27>
| 28>
| 29>                          ****END OF INPUT****

CARTESIAN COORDINATES (ANGSTROEM)
---------------------------------
  C      5.558210   -1.992910   -6.215050
  C      4.181880   -2.589670   -6.298910
  N      3.145870   -1.768430   -6.486750
  N      4.019100   -3.864310   -6.227430
  H      4.768490   -4.591150   -5.990770
  H      3.122410   -4.333390   -6.314620
  H      3.281640   -0.777790   -6.566550
  H      2.212550   -2.134190   -6.562250
  C      6.419260   -2.542940   -5.077630
  H      6.036830   -2.198190   -7.176850
  H      5.467610   -0.907370   -6.127970
  H      6.500560   -3.605530   -5.173580
  H      5.965440   -2.303290   -4.138740
  H      7.394380   -2.104940   -5.124570

 Total Charge           Charge          ....    1
 Multiplicity           Mult            ....    1
 Number of Electrons    NEL             ....   40
 Basis Dimension        Dim             ....  115

ORBITAL ENERGIES
----------------

  NO   OCC          E(Eh)            E(eV)
   0   2.0000     -14.272010      -388.3611
   1   2.0000     -14.261483      -388.0747
   2   2.0000     -10.234396      -278.4921
   3   2.0000     -10.117366      -275.3075
   4   2.0000     -10.077752      -274.2296
   5   2.0000      -1.101174       -29.9645
   6   2.0000      -1.010496       -27.4970
   7   2.0000      -0.881086       -23.9756
   8   2.0000      -0.791672       -21.5425
   9   2.0000      -0.745617       -20.2893
  10   2.0000      -0.713993       -19.4287
  11   2.0000      -0.682861       -18.5816
  12   2.0000      -0.643268       -17.5042
  13   2.0000      -0.596385       -16.2285
  14   2.0000      -0.570176       -15.5153
  15   2.0000      -0.548358       -14.9216
  16   2.0000      -0.500044       -13.6069
  17   2.0000      -0.489900       -13.3309
  18   2.0000      -0.475469       -12.9382
  19   2.0000      -0.445174       -12.1138
  20   0.0000      -0.228551        -6.2192
  21   0.0000      -0.170535        -4.6405
  22   0.0000      -0.136958        -3.7268
  23   0.0000      -0.125344        -3.4108
  24   0.0000      -0.102553        -2.7906

MULLIKEN ATOMIC CHARGES
-----------------------
   0 C :    0.087703
   1 C :   -0.176030
   2 N :    0.107610
   3 N :    0.096725
   4 H :    0.186899
   5 H :    0.152236
   6 H :    0.157396
   7 H :    0.143782
   8 C :    0.073308
   9 H :    0.069171
  10 H :    0.018175
  11 H :    0.005775
  12 H :    0.030331
  13 H :    0.046919
Sum of atomic charges:    1.0000000

LOEWDIN ATOMIC CHARGES
----------------------
   0 C :   -0.018295
   1 C :    0.121292
   2 N :    0.115448
   3 N :    0.110404
   4 H :    0.143314
   5 H :    0.109086
   6 H :    0.110670
   7 H :    0.101579
   8 C :   -0.014724
   9 H :    0.066499
  10 H :    0.047010
  11 H :    0.021562
  12 H :    0.036221
  13 H :    0.049934

  Mayer bond orders larger than 0.100000
B(  0-C ,  1-C ) :   1.0432 B(  0-C ,  8-C ) :   1.1140 B(  0-C ,  9-H ) :   0.8977
B(  0-C , 10-H ) :   0.9053 B(  1-C ,  2-N ) :   1.5071 B(  1-C ,  3-N ) :   1.5387
B(  2-N ,  6-H ) :   0.9200 B(  2-N ,  7-H ) :   0.9316 B(  3-N ,  4-H ) :   0.9106
B(  3-N ,  5-H ) :   0.9281 B(  8-C , 11-H ) :   0.9616 B(  8-C , 12-H ) :   0.9710
B(  8-C , 13-H ) :   0.9481

Dispersion correction           -0.020444917
FINAL SINGLE POINT ENERGY      -228.765237342686

DIPOLE MOMENT
-------------
                                X             Y             Z
Electronic contribution:     -3.84436      -0.49223      -1.58680
Nuclear contribution   :      2.76041       0.12669       1.26265
                        -----------------------------------------
Total Dipole Moment    :     -1.08395      -0.36553      -0.32415
                        -----------------------------------------
Magnitude (a.u.)       :      1.18896
Magnitude (Debye)      :      3.02210

Rotational constants in cm-1:     0.280918     0.124524     0.094121
Rotational constants in MHz :  8421.697738  3733.133254  2821.684112

                             ****ORCA TERMINATED NORMALLY****
TOTAL RUN TIME: 0 days 0 hours 0 minutes 7 seconds 56 msec
