                         Program Version 5.0.0 -  RELEASE  -
|  1> !BLYP D3BJ RIJCOSX def2-TZVP def2/J TightSCF xyzfile
|  2>
|  3> *xyzfile 0 1 B.xyz
|  4>
|  5> %MaxCore 64000
|  6>
|  7> %pal nprocs 18
|  8> end
|  9>
| 10> %scf
| 11>   MaxIter 150
| 12> end
| 13>
| 14>
| 15>                          ****END OF INPUT****

CARTESIAN COORDINATES (ANGSTROEM)
---------------------------------
  C      5.558206   -1.992914   -6.215054
  C      4.930199   -7.375319   -2.649623
  C      3.841892   -6.951611   -3.632829
  H      3.458144   -5.954425   -3.407121
  H      2.988484   -7.643606   -3.567078
  S      4.318115   -6.915930   -5.368692
  C      4.181880   -2.589671   -6.298911
  N      3.145873   -1.768431   -6.486753
  N      4.019102   -3.864307   -6.227427
  H      4.768490   -4.591153   -5.990773
  H      3.122405   -4.333392   -6.314620
  H      3.281635   -0.777786   -6.566549
  H      2.212549   -2.134193   -6.562246
  O      5.406154   -5.899480   -5.512972
  O      3.111910   -6.445079   -6.043792
  C      6.419260   -2.542944   -5.077630
  C      5.872267   -5.002756   -2.427819
  C      6.173994   -6.485522   -2.606315
  H      6.734852   -6.613767   -3.534015
  H      6.821463   -6.831018   -1.793617
  H      4.469612   -7.406168   -1.655876
  H      5.230134   -8.398678   -2.885906
  C      5.896512   -2.169314   -3.694552
  H      7.428880   -2.143665   -5.208078
  H      6.505894   -3.627541   -5.175502
  C      6.807804   -2.623428   -2.551019
  H      4.894708   -2.589732   -3.557501
  H      5.778823   -1.081255   -3.635790
  C      7.111544   -4.122463   -2.520363
  H      7.751615   -2.071393   -2.614406
  H      6.345837   -2.326401   -1.604086
  H      5.362882   -4.828697   -1.471335
  H      5.174429   -4.702577   -3.211298
  H      7.778329   -4.329347   -1.677651
  H      7.673189   -4.402845   -3.417586
  O      4.763396   -8.239424   -5.698629
  H      6.036826   -2.198189   -7.176852
  H      5.467610   -0.907371   -6.127968

 Total Charge           Charge          ....    0
 Multiplicity           Mult            ....    1
 Number of Electrons    NEL             ....  136
 Basis Dimension        Dim             ....  634

ORBITAL ENERGIES
----------------

  NO   OCC          E(Eh)            E(eV)
   0   2.0000     -88.230933     -2400.8857
   1   2.0000     -18.712590      -509.1955
   2   2.0000     -18.699995      -508.8527
   3   2.0000     -18.694772      -508.7106
   4   2.0000     -14.092654      -383.4806
   5   2.0000     -14.052998      -382.4015
   6   2.0000     -10.052106      -273.5317
   7   2.0000      -9.959477      -271.0111
   8   2.0000      -9.927032      -270.1283
   9   2.0000      -9.915680      -269.8194
  10   2.0000      -9.904369      -269.5116
  11   2.0000      -9.893924      -269.2274
  12   2.0000      -9.892129      -269.1785
  13   2.0000      -9.883861      -268.9535
  14   2.0000      -9.883535      -268.9447
  15   2.0000      -9.876212      -268.7454
  16   2.0000      -7.762120      -211.2180
  17   2.0000      -5.791002      -157.5812
  18   2.0000      -5.789802      -157.5485
  19   2.0000      -5.789165      -157.5312
  20   2.0000      -0.979747       -26.6603
  21   2.0000      -0.945645       -25.7323
  22   2.0000      -0.858317       -23.3560
  23   2.0000      -0.847184       -23.0531
  24   2.0000      -0.843674       -22.9575
  25   2.0000      -0.758629       -20.6433
  26   2.0000      -0.723782       -19.6951
  27   2.0000      -0.701121       -19.0785
  28   2.0000      -0.665341       -18.1049
  29   2.0000      -0.635095       -17.2818
  30   2.0000      -0.606376       -16.5003
  31   2.0000      -0.586209       -15.9516
  32   2.0000      -0.561416       -15.2769
  33   2.0000      -0.548137       -14.9156
  34   2.0000      -0.536480       -14.5984
  35   2.0000      -0.511106       -13.9079
  36   2.0000      -0.497520       -13.5382
  37   2.0000      -0.481195       -13.0940
  38   2.0000      -0.452085       -12.3019
  39   2.0000      -0.447568       -12.1789
  40   2.0000      -0.432228       -11.7615
  41   2.0000      -0.418162       -11.3788
  42   2.0000      -0.410386       -11.1672
  43   2.0000      -0.395994       -10.7755
  44   2.0000      -0.392037       -10.6679
  45   2.0000      -0.384589       -10.4652
  46   2.0000      -0.375141       -10.2081
  47   2.0000      -0.368529       -10.0282
  48   2.0000      -0.354425        -9.6444
  49   2.0000      -0.350031        -9.5248
  50   2.0000      -0.344972        -9.3872
  51   2.0000      -0.340576        -9.2675
  52   2.0000      -0.326175        -8.8757
  53   2.0000      -0.320022        -8.7083
  54   2.0000      -0.314796        -8.5660
  55   2.0000      -0.299684        -8.1548
  56   2.0000      -0.290072        -7.8933
  57   2.0000      -0.284749        -7.7484
  58   2.0000      -0.281764        -7.6672
  59   2.0000      -0.271128        -7.3778
  60   2.0000      -0.267842        -7.2883
  61   2.0000      -0.258900        -7.0450
  62   2.0000      -0.254489        -6.9250
  63   2.0000      -0.247829        -6.7438
  64   2.0000      -0.215647        -5.8680
  65   2.0000      -0.210909        -5.7391
  66   2.0000      -0.205986        -5.6052
  67   2.0000      -0.179383        -4.8812
  68   0.0000      -0.074618        -2.0305
  69   0.0000      -0.042422        -1.1544
  70   0.0000      -0.004065        -0.1106
  71   0.0000       0.008190         0.2229
  72   0.0000       0.021298         0.5796

MULLIKEN ATOMIC CHARGES
-----------------------
   0 C :   -0.132616
   1 C :   -0.118430
   2 C :   -0.222123
   3 H :    0.076601
   4 H :    0.099976
   5 S :    0.809843
   6 C :    0.239250
   7 N :   -0.351464
   8 N :   -0.256438
   9 H :    0.301459
  10 H :    0.233787
  11 H :    0.236606
  12 H :    0.235820
  13 O :   -0.560460
  14 O :   -0.544558
  15 C :   -0.248775
  16 C :   -0.181882
  17 C :   -0.122998
  18 H :    0.109078
  19 H :    0.058521
  20 H :    0.060685
  21 H :    0.094153
  22 C :   -0.175491
  23 H :    0.087035
  24 H :    0.176373
  25 C :   -0.104060
  26 H :    0.099944
  27 H :    0.064668
  28 C :   -0.156763
  29 H :    0.075713
  30 H :    0.072841
  31 H :    0.056523
  32 H :    0.060705
  33 H :    0.070969
  34 H :    0.093648
  35 O :   -0.451054
  36 H :    0.133066
  37 H :    0.079848
Sum of atomic charges:   -0.0000000

LOEWDIN ATOMIC CHARGES
----------------------
   0 C :   -0.201749
   1 C :   -0.281737
   2 C :   -0.390644
   3 H :    0.118273
   4 H :    0.134176
   5 S :    0.443764
   6 C :   -0.337261
   7 N :    0.066691
   8 N :    0.129556
   9 H :    0.161661
  10 H :    0.177590
  11 H :    0.176958
  12 H :    0.176551
  13 O :   -0.351358
  14 O :   -0.356477
  15 C :   -0.246304
  16 C :   -0.266037
  17 C :   -0.265972
  18 H :    0.139159
  19 H :    0.128881
  20 H :    0.131697
  21 H :    0.139725
  22 C :   -0.264161
  23 H :    0.141331
  24 H :    0.149240
  25 C :   -0.258643
  26 H :    0.132687
  27 H :    0.130079
  28 C :   -0.260721
  29 H :    0.132438
  30 H :    0.133767
  31 H :    0.127477
  32 H :    0.128334
  33 H :    0.132546
  34 H :    0.135875
  35 O :   -0.292165
  36 H :    0.162504
  37 H :    0.142267

  Mayer bond orders larger than 0.100000
B(  0-C ,  6-C ) :   0.9709 B(  0-C , 15-C ) :   0.9547 B(  0-C , 36-H ) :   0.9368
B(  0-C , 37-H ) :   0.9661 B(  1-C ,  2-C ) :   0.9471 B(  1-C , 17-C ) :   0.9899
B(  1-C , 20-H ) :   0.9437 B(  1-C , 21-H ) :   0.9543 B(  2-C ,  3-H ) :   0.9453
B(  2-C ,  4-H ) :   0.9493 B(  2-C ,  5-S ) :   0.8806 B(  5-S , 13-O ) :   1.4677
B(  5-S , 14-O ) :   1.6929 B(  5-S , 35-O ) :   1.9157 B(  6-C ,  7-N ) :   1.2989
B(  6-C ,  8-N ) :   1.6007 B(  7-N , 11-H ) :   0.9122 B(  7-N , 12-H ) :   0.9098
B(  8-N ,  9-H ) :   0.7113 B(  8-N , 10-H ) :   0.8788 B(  9-H , 13-O ) :   0.2413
B( 15-C , 22-C ) :   0.9463 B( 15-C , 23-H ) :   0.9523 B( 15-C , 24-H ) :   0.9592
B( 16-C , 17-C ) :   0.9619 B( 16-C , 28-C ) :   0.9710 B( 16-C , 31-H ) :   0.9539
B( 16-C , 32-H ) :   0.9611 B( 17-C , 18-H ) :   0.9566 B( 17-C , 19-H ) :   0.9596
B( 22-C , 25-C ) :   0.9812 B( 22-C , 26-H ) :   0.9674 B( 22-C , 27-H ) :   0.9521
B( 25-C , 28-C ) :   0.9565 B( 25-C , 29-H ) :   0.9641 B( 25-C , 30-H ) :   0.9618
B( 28-C , 33-H ) :   0.9591 B( 28-C , 34-H ) :   0.9742

Dispersion correction           -0.092603405
FINAL SINGLE POINT ENERGY     -1127.784366774552

DIPOLE MOMENT
-------------
                                X             Y             Z
Electronic contribution:     -9.21891     -11.55509     -14.29341
Nuclear contribution   :      8.53517      16.50844      14.36520
                        -----------------------------------------
Total Dipole Moment    :     -0.68375       4.95335       0.07179
                        -----------------------------------------
Magnitude (a.u.)       :      5.00083
Magnitude (Debye)      :     12.71110

Rotational constants in cm-1:     0.017951     0.012436     0.008288
Rotational constants in MHz :   538.163255   372.824050   248.467077

                             ****ORCA TERMINATED NORMALLY****
TOTAL RUN TIME: 0 days 0 hours 0 minutes 25 seconds 898 msec
