                         Program Version 5.0.0 -  RELEASE  -
|  1> !BLYP D3BJ RIJCOSX def2-SVP def2/J TightSCF
|  2> *xyz 0 1
|  3> C          4.93020       -7.37532       -2.64962
|  4> C          3.84189       -6.95161       -3.63283
|  5> H          3.45814       -5.95442       -3.40712
|  6> H          2.98848       -7.64361       -3.56708
|  7> S          4.31812       -6.91593       -5.36869
|  8> F          5.40615       -5.89948       -5.51297
|  9> O          3.11191       -6.44508       -6.04379
| 10> O          4.76340       -8.23942       -5.69863
| 11> H          5.27901       -8.35440       -2.90385
| 12> H          4.53000       -7.38577       -1.65734
| 13> H          5.74437       -6.68276       -2.69856
| 14> *
| 15>
| 16> %MaxCore 64000
| 17>
| 18> %pal nprocs 4
| 19> end
| 20>
| 21> %scf
| 22>   MaxIter 150
| 23> end
| 24>
| 25>
| 26>                          ****END OF INPUT****

CARTESIAN COORDINATES (ANGSTROEM)
---------------------------------
  C      4.930200   -7.375320   -2.649620
  C      3.841890   -6.951610   -3.632830
  H      3.458140   -5.954420   -3.407120
  H      2.988480   -7.643610   -3.567080
  S      4.318120   -6.915930   -5.368690
  F      5.406150   -5.899480   -5.512970
  O      3.111910   -6.445080   -6.043790
  O      4.763400   -8.239420   -5.698630
  H      5.279010   -8.354400   -2.903850
  H      4.530000   -7.385770   -1.657340
  H      5.744370   -6.682760   -2.698560

 Total Charge           Charge          ....    0
 Multiplicity           Mult            ....    1
 Number of Electrons    NEL             ....   58
 Basis Dimension        Dim             ....  113

ORBITAL ENERGIES
----------------

  NO   OCC          E(Eh)            E(eV)
   0   2.0000     -88.349818     -2404.1208
   1   2.0000     -24.371783      -663.1899
   2   2.0000     -18.782721      -511.1038
   3   2.0000     -18.771852      -510.8081
   4   2.0000      -9.975083      -271.4358
   5   2.0000      -9.942896      -270.5600
   6   2.0000      -7.895796      -214.8555
   7   2.0000      -5.934356      -161.4820
   8   2.0000      -5.928270      -161.3164
   9   2.0000      -5.926929      -161.2799
  10   2.0000      -1.206009       -32.8172
  11   2.0000      -1.001322       -27.2474
  12   2.0000      -0.907982       -24.7074
  13   2.0000      -0.733096       -19.9485
  14   2.0000      -0.633418       -17.2362
  15   2.0000      -0.590503       -16.0684
  16   2.0000      -0.502832       -13.6828
  17   2.0000      -0.473144       -12.8749
  18   2.0000      -0.464817       -12.6483
  19   2.0000      -0.431839       -11.7509
  20   2.0000      -0.410106       -11.1596
  21   2.0000      -0.387603       -10.5472
  22   2.0000      -0.369579       -10.0568
  23   2.0000      -0.353900        -9.6301
  24   2.0000      -0.347012        -9.4427
  25   2.0000      -0.315805        -8.5935
  26   2.0000      -0.274626        -7.4730
  27   2.0000      -0.264393        -7.1945
  28   2.0000      -0.249373        -6.7858
  29   0.0000      -0.006150        -0.1673
  30   0.0000       0.033075         0.9000
  31   0.0000       0.055898         1.5211
  32   0.0000       0.066320         1.8047
  33   0.0000       0.072235         1.9656

MULLIKEN ATOMIC CHARGES
-----------------------
   0 C :    0.086263
   1 C :   -0.073092
   2 H :    0.032141
   3 H :    0.060341
   4 S :    0.846246
   5 F :   -0.186283
   6 O :   -0.410557
   7 O :   -0.385039
   8 H :    0.018498
   9 H :    0.010280
  10 H :    0.001203
Sum of atomic charges:    0.0000000

LOEWDIN ATOMIC CHARGES
----------------------
   0 C :   -0.049679
   1 C :   -0.143625
   2 H :    0.028428
   3 H :    0.048171
   4 S :    1.123361
   5 F :   -0.156342
   6 O :   -0.477587
   7 O :   -0.451958
   8 H :    0.026911
   9 H :    0.031305
  10 H :    0.021015

  Mayer bond orders larger than 0.100000
B(  0-C ,  1-C ) :   1.0760 B(  0-C ,  8-H ) :   0.9637 B(  0-C ,  9-H ) :   0.9520
B(  0-C , 10-H ) :   0.9675 B(  1-C ,  2-H ) :   0.9276 B(  1-C ,  3-H ) :   0.9301
B(  1-C ,  4-S ) :   0.8973 B(  4-S ,  5-F ) :   0.9813 B(  4-S ,  6-O ) :   1.7772
B(  4-S ,  7-O ) :   1.7992

Dispersion correction           -0.019399097
FINAL SINGLE POINT ENERGY      -727.176934574568

DIPOLE MOMENT
-------------
                                X             Y             Z
Electronic contribution:      1.29588       2.62029      -8.93408
Nuclear contribution   :     -0.98922      -2.24849      10.35711
                        -----------------------------------------
Total Dipole Moment    :      0.30666       0.37180       1.42303
                        -----------------------------------------
Magnitude (a.u.)       :      1.50243
Magnitude (Debye)      :      3.81887

Rotational constants in cm-1:     0.151436     0.080885     0.078670
Rotational constants in MHz :  4539.936009  2424.868817  2358.476812

                             ****ORCA TERMINATED NORMALLY****
TOTAL RUN TIME: 0 days 0 hours 0 minutes 6 seconds 990 msec
