                         Program Version 5.0.0 -  RELEASE  -
|  1> !BLYP D3BJ RIJCOSX def2-SVP def2/J TightSCF
|  2> *xyz 0 1
|  3> C          5.55821       -1.99291       -6.21505
|  4> C          4.18188       -2.58967       -6.29891
|  5> C          3.14587       -1.76843       -6.48675
|  6> N          4.01910       -3.86431       -6.22743
|  7> H          4.76849       -4.59115       -5.99077
|  8> H          3.12241       -4.33339       -6.31462
|  9> H          3.28164       -0.77779       -6.56655
| 10> H          2.21255       -2.13419       -6.56225
| 11> C          6.41926       -2.54294       -5.07763
| 12> H          6.03683       -2.19819       -7.17685
| 13> H          5.46761       -0.90737       -6.12797
| 14> H          6.50056       -3.60553       -5.17358
| 15> H          5.96544       -2.30329       -4.13874
| 16> H          7.39438       -2.10494       -5.12457
| 17> *
| 18>
| 19> %MaxCore 64000
| 20>
| 21> %pal nprocs 4
| 22> end
| 23>
| 24> %scf
| 25>   MaxIter 150
| 26> end
| 27>
| 28>
| 29>                          ****END OF INPUT****

CARTESIAN COORDINATES (ANGSTROEM)
---------------------------------
  C      5.558210   -1.992910   -6.215050
  C      4.181880   -2.589670   -6.298910
  C      3.145870   -1.768430   -6.486750
  N      4.019100   -3.864310   -6.227430
  H      4.768490   -4.591150   -5.990770
  H      3.122410   -4.333390   -6.314620
  H      3.281640   -0.777790   -6.566550
  H      2.212550   -2.134190   -6.562250
  C      6.419260   -2.542940   -5.077630
  H      6.036830   -2.198190   -7.176850
  H      5.467610   -0.907370   -6.127970
  H      6.500560   -3.605530   -5.173580
  H      5.965440   -2.303290   -4.138740
  H      7.394380   -2.104940   -5.124570

 Total Charge           Charge          ....    0
 Multiplicity           Mult            ....    1
 Number of Electrons    NEL             ....   40
 Basis Dimension        Dim             ....  115

ORBITAL ENERGIES
----------------

  NO   OCC          E(Eh)            E(eV)
   0   2.0000     -14.023406      -381.5963
   1   2.0000      -9.930758      -270.2297
   2   2.0000      -9.915541      -269.8156
   3   2.0000      -9.910196      -269.6702
   4   2.0000      -9.844853      -267.8921
   5   2.0000      -0.828151       -22.5351
   6   2.0000      -0.685980       -18.6665
   7   2.0000      -0.627163       -17.0660
   8   2.0000      -0.550525       -14.9805
   9   2.0000      -0.511973       -13.9315
  10   2.0000      -0.453119       -12.3300
  11   2.0000      -0.408877       -11.1261
  12   2.0000      -0.384451       -10.4614
  13   2.0000      -0.365552        -9.9472
  14   2.0000      -0.334078        -9.0907
  15   2.0000      -0.325780        -8.8649
  16   2.0000      -0.306961        -8.3528
  17   2.0000      -0.281302        -7.6546
  18   2.0000      -0.274720        -7.4755
  19   2.0000      -0.137352        -3.7375
  20   0.0000       0.017369         0.4726
  21   0.0000       0.040042         1.0896
  22   0.0000       0.065234         1.7751
  23   0.0000       0.071651         1.9497
  24   0.0000       0.097425         2.6511

MULLIKEN ATOMIC CHARGES
-----------------------
   0 C :    0.127593
   1 C :   -0.163228
   2 C :    0.025688
   3 N :    0.027215
   4 H :    0.094672
   5 H :    0.088136
   6 H :   -0.083272
   7 H :   -0.097449
   8 C :    0.084518
   9 H :   -0.017678
  10 H :   -0.030352
  11 H :   -0.030218
  12 H :   -0.008635
  13 H :   -0.016990
Sum of atomic charges:    0.0000000

LOEWDIN ATOMIC CHARGES
----------------------
   0 C :   -0.015345
   1 C :   -0.011805
   2 C :   -0.168821
   3 N :    0.014558
   4 H :    0.081962
   5 H :    0.071213
   6 H :   -0.010640
   7 H :   -0.018080
   8 C :   -0.038850
   9 H :    0.022502
  10 H :    0.027556
  11 H :    0.006967
  12 H :    0.019487
  13 H :    0.019294

  Mayer bond orders larger than 0.100000
B(  0-C ,  1-C ) :   1.0596 B(  0-C ,  8-C ) :   1.1132 B(  0-C ,  9-H ) :   0.9093
B(  0-C , 10-H ) :   0.9096 B(  1-C ,  2-C ) :   1.8343 B(  1-C ,  3-N ) :   1.3045
B(  2-C ,  6-H ) :   0.9162 B(  2-C ,  7-H ) :   0.9238 B(  3-N ,  4-H ) :   0.9397
B(  3-N ,  5-H ) :   0.9419 B(  8-C , 11-H ) :   0.9606 B(  8-C , 12-H ) :   0.9666
B(  8-C , 13-H ) :   0.9522

Dispersion correction           -0.021294382
FINAL SINGLE POINT ENERGY      -212.288769243681

DIPOLE MOMENT
-------------
                                X             Y             Z
Electronic contribution:     -2.04100      -1.15676      -1.02750
Nuclear contribution   :      2.41345       0.31141       1.16343
                        -----------------------------------------
Total Dipole Moment    :      0.37245      -0.84535       0.13593
                        -----------------------------------------
Magnitude (a.u.)       :      0.93370
Magnitude (Debye)      :      2.37329

Rotational constants in cm-1:     0.287957     0.129204     0.097498
Rotational constants in MHz :  8632.737925  3873.424745  2922.919500

                             ****ORCA TERMINATED NORMALLY****
TOTAL RUN TIME: 0 days 0 hours 0 minutes 7 seconds 434 msec
