                         Program Version 5.0.0 -  RELEASE  -
|  1> !BLYP D3BJ RIJCOSX def2-SVP def2/J TightSCF
|  2> *xyz 0 1
|  3> C          4.93020       -7.37532       -2.64962
|  4> C          3.84189       -6.95161       -3.63283
|  5> H          3.45814       -5.95442       -3.40712
|  6> H          2.98848       -7.64361       -3.56708
|  7> S          4.31812       -6.91593       -5.36869
|  8> O          5.40615       -5.89948       -5.51297
|  9> F          3.11191       -6.44508       -6.04379
| 10> O          4.76340       -8.23942       -5.69863
| 11> H          5.27901       -8.35440       -2.90385
| 12> H          4.53000       -7.38577       -1.65734
| 13> H          5.74437       -6.68276       -2.69856
| 14> *
| 15>
| 16> %MaxCore 64000
| 17>
| 18> %pal nprocs 4
| 19> end
| 20>
| 21> %scf
| 22>   MaxIter 150
| 23> end
| 24>
| 25>
| 26>                          ****END OF INPUT****

CARTESIAN COORDINATES (ANGSTROEM)
---------------------------------
  C      4.930200   -7.375320   -2.649620
  C      3.841890   -6.951610   -3.632830
  H      3.458140   -5.954420   -3.407120
  H      2.988480   -7.643610   -3.567080
  S      4.318120   -6.915930   -5.368690
  O      5.406150   -5.899480   -5.512970
  F      3.111910   -6.445080   -6.043790
  O      4.763400   -8.239420   -5.698630
  H      5.279010   -8.354400   -2.903850
  H      4.530000   -7.385770   -1.657340
  H      5.744370   -6.682760   -2.698560

 Total Charge           Charge          ....    0
 Multiplicity           Mult            ....    1
 Number of Electrons    NEL             ....   58
 Basis Dimension        Dim             ....  113

ORBITAL ENERGIES
----------------

  NO   OCC          E(Eh)            E(eV)
   0   2.0000     -88.351150     -2404.1570
   1   2.0000     -24.386522      -663.5910
   2   2.0000     -18.781057      -511.0585
   3   2.0000     -18.763273      -510.5746
   4   2.0000      -9.976052      -271.4622
   5   2.0000      -9.941439      -270.5203
   6   2.0000      -7.897104      -214.8911
   7   2.0000      -5.935806      -161.5215
   8   2.0000      -5.929479      -161.3493
   9   2.0000      -5.928041      -161.3102
  10   2.0000      -1.233390       -33.5623
  11   2.0000      -0.994727       -27.0679
  12   2.0000      -0.888615       -24.1804
  13   2.0000      -0.732702       -19.9378
  14   2.0000      -0.646167       -17.5831
  15   2.0000      -0.591421       -16.0934
  16   2.0000      -0.505253       -13.7486
  17   2.0000      -0.492513       -13.4019
  18   2.0000      -0.474114       -12.9013
  19   2.0000      -0.434032       -11.8106
  20   2.0000      -0.411603       -11.2003
  21   2.0000      -0.374965       -10.2033
  22   2.0000      -0.369263       -10.0482
  23   2.0000      -0.357225        -9.7206
  24   2.0000      -0.337359        -9.1800
  25   2.0000      -0.316076        -8.6009
  26   2.0000      -0.271699        -7.3933
  27   2.0000      -0.254291        -6.9196
  28   2.0000      -0.234690        -6.3862
  29   0.0000       0.009281         0.2525
  30   0.0000       0.022393         0.6093
  31   0.0000       0.055888         1.5208
  32   0.0000       0.060523         1.6469
  33   0.0000       0.070805         1.9267

MULLIKEN ATOMIC CHARGES
-----------------------
   0 C :    0.096165
   1 C :   -0.064635
   2 H :    0.028820
   3 H :    0.028654
   4 S :    0.838795
   5 O :   -0.440041
   6 F :   -0.154660
   7 O :   -0.382975
   8 H :    0.018950
   9 H :    0.010709
  10 H :    0.020218
Sum of atomic charges:   -0.0000000

LOEWDIN ATOMIC CHARGES
----------------------
   0 C :   -0.035241
   1 C :   -0.147351
   2 H :    0.027011
   3 H :    0.028253
   4 S :    1.118670
   5 O :   -0.509098
   6 F :   -0.122328
   7 O :   -0.451057
   8 H :    0.029218
   9 H :    0.032222
  10 H :    0.029702

  Mayer bond orders larger than 0.100000
B(  0-C ,  1-C ) :   1.1031 B(  0-C ,  8-H ) :   0.9644 B(  0-C ,  9-H ) :   0.9535
B(  0-C , 10-H ) :   0.9653 B(  1-C ,  2-H ) :   0.9227 B(  1-C ,  3-H ) :   0.9189
B(  1-C ,  4-S ) :   0.8939 B(  4-S ,  5-O ) :   1.7398 B(  4-S ,  6-F ) :   1.0191
B(  4-S ,  7-O ) :   1.7954

Dispersion correction           -0.019472208
FINAL SINGLE POINT ENERGY      -727.165042408712

DIPOLE MOMENT
-------------
                                X             Y             Z
Electronic contribution:     -2.52812       1.71154      -9.82453
Nuclear contribution   :      1.40145      -1.67996      10.91024
                        -----------------------------------------
Total Dipole Moment    :     -1.12667       0.03157       1.08571
                        -----------------------------------------
Magnitude (a.u.)       :      1.56497
Magnitude (Debye)      :      3.97785

Rotational constants in cm-1:     0.155875     0.079864     0.077188
Rotational constants in MHz :  4673.017506  2394.277415  2314.027118

                             ****ORCA TERMINATED NORMALLY****
TOTAL RUN TIME: 0 days 0 hours 0 minutes 7 seconds 969 msec
