                         Program Version 5.0.0 -  RELEASE  -
|  1> !BLYP D3BJ RIJCOSX def2-SVP def2/J TightSCF
|  2> *xyz 0 1
|  3> C          5.55821       -1.99291       -6.21505
|  4> C          4.18188       -2.58967       -6.29891
|  5> N          3.14587       -1.76843       -6.48675
|  6> C          4.01910       -3.86431       -6.22743
|  7> H          4.76849       -4.59115       -5.99077
|  8> H          3.12241       -4.33339       -6.31462
|  9> H          3.28164       -0.77779       -6.56655
| 10> H          2.21255       -2.13419       -6.56225
| 11> C          6.41926       -2.54294       -5.07763
| 12> H          6.03683       -2.19819       -7.17685
| 13> H          5.46761       -0.90737       -6.12797
| 14> H          6.50056       -3.60553       -5.17358
| 15> H          5.96544       -2.30329       -4.13874
| 16> H          7.39438       -2.10494       -5.12457
| 17> *
| 18>
| 19> %MaxCore 64000
| 20>
| 21> %pal nprocs 4
| 22> end
| 23>
| 24> %scf
| 25>   MaxIter 150
| 26> end
| 27>
| 28>
| 29>                          ****END OF INPUT****

CARTESIAN COORDINATES (ANGSTROEM)
---------------------------------
  C      5.558210   -1.992910   -6.215050
  C      4.181880   -2.589670   -6.298910
  N      3.145870   -1.768430   -6.486750
  C      4.019100   -3.864310   -6.227430
  H      4.768490   -4.591150   -5.990770
  H      3.122410   -4.333390   -6.314620
  H      3.281640   -0.777790   -6.566550
  H      2.212550   -2.134190   -6.562250
  C      6.419260   -2.542940   -5.077630
  H      6.036830   -2.198190   -7.176850
  H      5.467610   -0.907370   -6.127970
  H      6.500560   -3.605530   -5.173580
  H      5.965440   -2.303290   -4.138740
  H      7.394380   -2.104940   -5.124570

 Total Charge           Charge          ....    0
 Multiplicity           Mult            ....    1
 Number of Electrons    NEL             ....   40
 Basis Dimension        Dim             ....  115

ORBITAL ENERGIES
----------------

  NO   OCC          E(Eh)            E(eV)
   0   2.0000     -14.012421      -381.2974
   1   2.0000      -9.928662      -270.1726
   2   2.0000      -9.916873      -269.8518
   3   2.0000      -9.903366      -269.4843
   4   2.0000      -9.851272      -268.0667
   5   2.0000      -0.817905       -22.2563
   6   2.0000      -0.688295       -18.7295
   7   2.0000      -0.622931       -16.9508
   8   2.0000      -0.560748       -15.2587
   9   2.0000      -0.486918       -13.2497
  10   2.0000      -0.458344       -12.4722
  11   2.0000      -0.421325       -11.4648
  12   2.0000      -0.388337       -10.5672
  13   2.0000      -0.360038        -9.7971
  14   2.0000      -0.329283        -8.9602
  15   2.0000      -0.316554        -8.6139
  16   2.0000      -0.299145        -8.1401
  17   2.0000      -0.283775        -7.7219
  18   2.0000      -0.269518        -7.3340
  19   2.0000      -0.143640        -3.9086
  20   0.0000       0.032376         0.8810
  21   0.0000       0.039656         1.0791
  22   0.0000       0.069997         1.9047
  23   0.0000       0.077091         2.0978
  24   0.0000       0.098316         2.6753

MULLIKEN ATOMIC CHARGES
-----------------------
   0 C :    0.124242
   1 C :   -0.102468
   2 N :    0.020196
   3 C :   -0.051683
   4 H :   -0.049684
   5 H :   -0.087441
   6 H :    0.076338
   7 H :    0.080754
   8 C :    0.090791
   9 H :   -0.004476
  10 H :   -0.055445
  11 H :   -0.002964
  12 H :   -0.013259
  13 H :   -0.024901
Sum of atomic charges:    0.0000000

LOEWDIN ATOMIC CHARGES
----------------------
   0 C :   -0.017513
   1 C :   -0.004995
   2 N :    0.011802
   3 C :   -0.169482
   4 H :    0.006083
   5 H :   -0.012733
   6 H :    0.058279
   7 H :    0.066572
   8 C :   -0.029021
   9 H :    0.030303
  10 H :    0.009188
  11 H :    0.018788
  12 H :    0.018143
  13 H :    0.014586

  Mayer bond orders larger than 0.100000
B(  0-C ,  1-C ) :   1.0219 B(  0-C ,  8-C ) :   1.1342 B(  0-C ,  9-H ) :   0.9152
B(  0-C , 10-H ) :   0.9050 B(  1-C ,  2-N ) :   1.2850 B(  1-C ,  3-C ) :   1.8735
B(  2-N ,  6-H ) :   0.9466 B(  2-N ,  7-H ) :   0.9452 B(  3-C ,  4-H ) :   0.9375
B(  3-C ,  5-H ) :   0.9239 B(  8-C , 11-H ) :   0.9644 B(  8-C , 12-H ) :   0.9673
B(  8-C , 13-H ) :   0.9505

Dispersion correction           -0.021387757
FINAL SINGLE POINT ENERGY      -212.297438779968

DIPOLE MOMENT
-------------
                                X             Y             Z
Electronic contribution:     -2.87256       0.87383      -1.31531
Nuclear contribution   :      2.61570      -0.17401       1.22349
                        -----------------------------------------
Total Dipole Moment    :     -0.25685       0.69981      -0.09182
                        -----------------------------------------
Magnitude (a.u.)       :      0.75110
Magnitude (Debye)      :      1.90913

Rotational constants in cm-1:     0.298189     0.125314     0.096441
Rotational constants in MHz :  8939.495008  3756.825352  2891.223400

                             ****ORCA TERMINATED NORMALLY****
TOTAL RUN TIME: 0 days 0 hours 0 minutes 8 seconds 236 msec
