                         Program Version 5.0.0 -  RELEASE  -
|  1> !BLYP D3BJ RIJCOSX def2-SVP def2/J TightSCF
|  2> *xyz 0 1
|  3> C          4.93020       -7.37532       -2.64962
|  4> C          3.84189       -6.95161       -3.63283
|  5> H          3.45814       -5.95442       -3.40712
|  6> H          2.98848       -7.64361       -3.56708
|  7> S          4.31812       -6.91593       -5.36869
|  8> O          5.40615       -5.89948       -5.51297
|  9> O          3.11191       -6.44508       -6.04379
| 10> F          4.76340       -8.23942       -5.69863
| 11> H          5.27901       -8.35440       -2.90385
| 12> H          4.53000       -7.38577       -1.65734
| 13> H          5.74437       -6.68276       -2.69856
| 14> *
| 15>
| 16> %MaxCore 64000
| 17>
| 18> %pal nprocs 4
| 19> end
| 20>
| 21> %scf
| 22>   MaxIter 150
| 23> end
| 24>
| 25>
| 26>                          ****END OF INPUT****

CARTESIAN COORDINATES (ANGSTROEM)
---------------------------------
  C      4.930200   -7.375320   -2.649620
  C      3.841890   -6.951610   -3.632830
  H      3.458140   -5.954420   -3.407120
  H      2.988480   -7.643610   -3.567080
  S      4.318120   -6.915930   -5.368690
  O      5.406150   -5.899480   -5.512970
  O      3.111910   -6.445080   -6.043790
  F      4.763400   -8.239420   -5.698630
  H      5.279010   -8.354400   -2.903850
  H      4.530000   -7.385770   -1.657340
  H      5.744370   -6.682760   -2.698560

 Total Charge           Charge          ....    0
 Multiplicity           Mult            ....    1
 Number of Electrons    NEL             ....   58
 Basis Dimension        Dim             ....  113

ORBITAL ENERGIES
----------------

  NO   OCC          E(Eh)            E(eV)
   0   2.0000     -88.352164     -2404.1846
   1   2.0000     -24.400110      -663.9608
   2   2.0000     -18.771321      -510.7936
   3   2.0000     -18.764400      -510.6053
   4   2.0000      -9.975958      -271.4596
   5   2.0000      -9.943722      -270.5824
   6   2.0000      -7.898151      -214.9196
   7   2.0000      -5.937152      -161.5581
   8   2.0000      -5.930255      -161.3704
   9   2.0000      -5.928936      -161.3345
  10   2.0000      -1.255565       -34.1657
  11   2.0000      -0.983473       -26.7616
  12   2.0000      -0.881099       -23.9759
  13   2.0000      -0.735087       -20.0027
  14   2.0000      -0.649091       -17.6627
  15   2.0000      -0.601667       -16.3722
  16   2.0000      -0.522305       -14.2126
  17   2.0000      -0.506778       -13.7901
  18   2.0000      -0.472141       -12.8476
  19   2.0000      -0.433271       -11.7899
  20   2.0000      -0.410196       -11.1620
  21   2.0000      -0.386287       -10.5114
  22   2.0000      -0.364332        -9.9140
  23   2.0000      -0.354627        -9.6499
  24   2.0000      -0.342796        -9.3280
  25   2.0000      -0.306401        -8.3376
  26   2.0000      -0.263143        -7.1605
  27   2.0000      -0.252765        -6.8781
  28   2.0000      -0.229194        -6.2367
  29   0.0000       0.000424         0.0115
  30   0.0000       0.029739         0.8093
  31   0.0000       0.051959         1.4139
  32   0.0000       0.063426         1.7259
  33   0.0000       0.068663         1.8684

MULLIKEN ATOMIC CHARGES
-----------------------
   0 C :    0.086546
   1 C :   -0.070262
   2 H :    0.059726
   3 H :    0.031645
   4 S :    0.832338
   5 O :   -0.435544
   6 O :   -0.404147
   7 F :   -0.129132
   8 H :   -0.002078
   9 H :    0.010891
  10 H :    0.020018
Sum of atomic charges:   -0.0000000

LOEWDIN ATOMIC CHARGES
----------------------
   0 C :   -0.049997
   1 C :   -0.143455
   2 H :    0.046633
   3 H :    0.029229
   4 S :    1.114233
   5 O :   -0.504878
   6 O :   -0.472587
   7 F :   -0.097822
   8 H :    0.019622
   9 H :    0.031508
  10 H :    0.027513

  Mayer bond orders larger than 0.100000
B(  0-C ,  1-C ) :   1.0747 B(  0-C ,  8-H ) :   0.9662 B(  0-C ,  9-H ) :   0.9519
B(  0-C , 10-H ) :   0.9643 B(  1-C ,  2-H ) :   0.9319 B(  1-C ,  3-H ) :   0.9236
B(  1-C ,  4-S ) :   0.8936 B(  4-S ,  5-O ) :   1.7370 B(  4-S ,  6-O ) :   1.7712
B(  4-S ,  7-F ) :   1.0449

Dispersion correction           -0.019379489
FINAL SINGLE POINT ENERGY      -727.153060720707

DIPOLE MOMENT
-------------
                                X             Y             Z
Electronic contribution:      0.22323      -1.26458      -9.25449
Nuclear contribution   :     -0.31946       0.18980      10.55057
                        -----------------------------------------
Total Dipole Moment    :     -0.09622      -1.07478       1.29608
                        -----------------------------------------
Magnitude (a.u.)       :      1.68649
Magnitude (Debye)      :      4.28670

Rotational constants in cm-1:     0.151421     0.081183     0.078684
Rotational constants in MHz :  4539.489207  2433.790160  2358.892966

                             ****ORCA TERMINATED NORMALLY****
TOTAL RUN TIME: 0 days 0 hours 0 minutes 8 seconds 111 msec
