                         Program Version 5.0.0 -  RELEASE  -
|  1> !BLYP D3BJ RIJCOSX def2-TZVP def2/J TightSCF xyzfile
|  2>
|  3> *xyzfile 0 1 D2.xyz
|  4>
|  5> %MaxCore 64000
|  6>
|  7> %pal nprocs 18
|  8> end
|  9>
| 10> %scf
| 11>   MaxIter 150
| 12> end
| 13>
| 14>
| 15>                          ****END OF INPUT****

CARTESIAN COORDINATES (ANGSTROEM)
---------------------------------
  C      5.558206   -1.992914   -6.215054
  C      4.930199   -7.375319   -2.649623
  C      3.841892   -6.951611   -3.632829
  H      3.458144   -5.954425   -3.407121
  H      2.988484   -7.643606   -3.567078
  S      4.318115   -6.915930   -5.368692
  C      4.181880   -2.589671   -6.298911
  N      3.145873   -1.768431   -6.486753
  C      4.019102   -3.864307   -6.227427
  H      4.768490   -4.591153   -5.990773
  H      3.122405   -4.333392   -6.314620
  H      3.281635   -0.777786   -6.566549
  H      2.212549   -2.134193   -6.562246
  F      5.406154   -5.899480   -5.512972
  O      3.111910   -6.445079   -6.043792
  C      6.419260   -2.542944   -5.077630
  C      5.872267   -5.002756   -2.427819
  C      6.173994   -6.485522   -2.606315
  H      6.734852   -6.613767   -3.534015
  H      6.821463   -6.831018   -1.793617
  H      4.469612   -7.406168   -1.655876
  H      5.230134   -8.398678   -2.885906
  C      5.896512   -2.169314   -3.694552
  H      7.428880   -2.143665   -5.208078
  H      6.505894   -3.627541   -5.175502
  C      6.807804   -2.623428   -2.551019
  H      4.894708   -2.589732   -3.557501
  H      5.778823   -1.081255   -3.635790
  C      7.111544   -4.122463   -2.520363
  H      7.751615   -2.071393   -2.614406
  H      6.345837   -2.326401   -1.604086
  H      5.362882   -4.828697   -1.471335
  H      5.174429   -4.702577   -3.211298
  H      7.778329   -4.329347   -1.677651
  H      7.673189   -4.402845   -3.417586
  O      4.763396   -8.239424   -5.698629
  H      6.036826   -2.198189   -7.176852
  H      5.467610   -0.907371   -6.127968

 Total Charge           Charge          ....    0
 Multiplicity           Mult            ....    1
 Number of Electrons    NEL             ....  136
 Basis Dimension        Dim             ....  634

ORBITAL ENERGIES
----------------

  NO   OCC          E(Eh)            E(eV)
   0   2.0000     -88.328453     -2403.5394
   1   2.0000     -24.374324      -663.2591
   2   2.0000     -18.781804      -511.0789
   3   2.0000     -18.769872      -510.7542
   4   2.0000     -13.994504      -380.8098
   5   2.0000      -9.956150      -270.9206
   6   2.0000      -9.925786      -270.0944
   7   2.0000      -9.911793      -269.7136
   8   2.0000      -9.908291      -269.6183
   9   2.0000      -9.904187      -269.5066
  10   2.0000      -9.900414      -269.4040
  11   2.0000      -9.898015      -269.3387
  12   2.0000      -9.897789      -269.3325
  13   2.0000      -9.896652      -269.3016
  14   2.0000      -9.893438      -269.2141
  15   2.0000      -9.814928      -267.0778
  16   2.0000      -7.860084      -213.8837
  17   2.0000      -5.892523      -160.3437
  18   2.0000      -5.885592      -160.1551
  19   2.0000      -5.885215      -160.1448
  20   2.0000      -1.234785       -33.6002
  21   2.0000      -1.010920       -27.5085
  22   2.0000      -0.922139       -25.0927
  23   2.0000      -0.828054       -22.5325
  24   2.0000      -0.755976       -20.5711
  25   2.0000      -0.732139       -19.9225
  26   2.0000      -0.705518       -19.1981
  27   2.0000      -0.679425       -18.4881
  28   2.0000      -0.645750       -17.5718
  29   2.0000      -0.635775       -17.3003
  30   2.0000      -0.610673       -16.6172
  31   2.0000      -0.587434       -15.9849
  32   2.0000      -0.553897       -15.0723
  33   2.0000      -0.537879       -14.6364
  34   2.0000      -0.519717       -14.1422
  35   2.0000      -0.498857       -13.5746
  36   2.0000      -0.497482       -13.5372
  37   2.0000      -0.480553       -13.0765
  38   2.0000      -0.477551       -12.9948
  39   2.0000      -0.456852       -12.4316
  40   2.0000      -0.437875       -11.9152
  41   2.0000      -0.432280       -11.7629
  42   2.0000      -0.427880       -11.6432
  43   2.0000      -0.412822       -11.2335
  44   2.0000      -0.402043       -10.9402
  45   2.0000      -0.398793       -10.8517
  46   2.0000      -0.392138       -10.6706
  47   2.0000      -0.381938       -10.3931
  48   2.0000      -0.366416        -9.9707
  49   2.0000      -0.362116        -9.8537
  50   2.0000      -0.354642        -9.6503
  51   2.0000      -0.351436        -9.5630
  52   2.0000      -0.327211        -8.9039
  53   2.0000      -0.324221        -8.8225
  54   2.0000      -0.319336        -8.6896
  55   2.0000      -0.314252        -8.5512
  56   2.0000      -0.304885        -8.2963
  57   2.0000      -0.301638        -8.2080
  58   2.0000      -0.292898        -7.9702
  59   2.0000      -0.289464        -7.8767
  60   2.0000      -0.284839        -7.7509
  61   2.0000      -0.279819        -7.6143
  62   2.0000      -0.274413        -7.4672
  63   2.0000      -0.272850        -7.4246
  64   2.0000      -0.270405        -7.3581
  65   2.0000      -0.263165        -7.1611
  66   2.0000      -0.253833        -6.9071
  67   2.0000      -0.146281        -3.9805
  68   0.0000      -0.017783        -0.4839
  69   0.0000       0.009887         0.2690
  70   0.0000       0.013247         0.3605
  71   0.0000       0.015724         0.4279
  72   0.0000       0.023508         0.6397

MULLIKEN ATOMIC CHARGES
-----------------------
   0 C :   -0.125100
   1 C :   -0.122167
   2 C :   -0.254363
   3 H :    0.146213
   4 H :    0.143118
   5 S :    0.818201
   6 C :    0.229098
   7 N :   -0.404072
   8 C :   -0.476982
   9 H :    0.122572
  10 H :    0.102687
  11 H :    0.194410
  12 H :    0.197722
  13 F :   -0.117823
  14 O :   -0.399598
  15 C :   -0.181521
  16 C :   -0.229285
  17 C :   -0.170329
  18 H :    0.096307
  19 H :    0.083182
  20 H :    0.086670
  21 H :    0.111362
  22 C :   -0.170578
  23 H :    0.065689
  24 H :    0.084925
  25 C :   -0.100002
  26 H :    0.107749
  27 H :    0.064289
  28 C :   -0.139673
  29 H :    0.074149
  30 H :    0.069222
  31 H :    0.070678
  32 H :    0.095669
  33 H :    0.073060
  34 H :    0.086395
  35 O :   -0.379818
  36 H :    0.092795
  37 H :    0.055153
Sum of atomic charges:    0.0000000

LOEWDIN ATOMIC CHARGES
----------------------
   0 C :   -0.207591
   1 C :   -0.279386
   2 C :   -0.365848
   3 H :    0.138812
   4 H :    0.151452
   5 S :    0.540826
   6 C :   -0.370090
   7 N :    0.004694
   8 C :   -0.307670
   9 H :    0.094710
  10 H :    0.100357
  11 H :    0.153865
  12 H :    0.162323
  13 F :    0.074819
  14 O :   -0.241418
  15 C :   -0.250702
  16 C :   -0.266063
  17 C :   -0.267441
  18 H :    0.131646
  19 H :    0.136877
  20 H :    0.141876
  21 H :    0.141762
  22 C :   -0.260971
  23 H :    0.132377
  24 H :    0.131346
  25 C :   -0.260724
  26 H :    0.135216
  27 H :    0.131975
  28 C :   -0.261762
  29 H :    0.132554
  30 H :    0.131779
  31 H :    0.132606
  32 H :    0.131192
  33 H :    0.132232
  34 H :    0.133181
  35 O :   -0.236519
  36 H :    0.146760
  37 H :    0.130946

  Mayer bond orders larger than 0.100000
B(  0-C ,  6-C ) :   0.9453 B(  0-C , 15-C ) :   0.9740 B(  0-C , 36-H ) :   0.9529
B(  0-C , 37-H ) :   0.9628 B(  1-C ,  2-C ) :   0.9353 B(  1-C , 17-C ) :   0.9764
B(  1-C , 20-H ) :   0.9414 B(  1-C , 21-H ) :   0.9602 B(  2-C ,  3-H ) :   0.9389
B(  2-C ,  4-H ) :   0.9410 B(  2-C ,  5-S ) :   0.8906 B(  5-S , 13-F ) :   1.0456
B(  5-S , 14-O ) :   1.8886 B(  5-S , 35-O ) :   1.9650 B(  6-C ,  7-N ) :   1.1466
B(  6-C ,  8-C ) :   1.7488 B(  7-N , 11-H ) :   0.9310 B(  7-N , 12-H ) :   0.9239
B(  8-C ,  9-H ) :   1.0124 B(  8-C , 10-H ) :   0.9657 B( 15-C , 22-C ) :   0.9602
B( 15-C , 23-H ) :   0.9518 B( 15-C , 24-H ) :   0.9704 B( 16-C , 17-C ) :   0.9261
B( 16-C , 28-C ) :   0.9676 B( 16-C , 31-H ) :   0.9539 B( 16-C , 32-H ) :   0.9765
B( 17-C , 18-H ) :   0.9740 B( 17-C , 19-H ) :   0.9647 B( 22-C , 25-C ) :   0.9666
B( 22-C , 26-H ) :   0.9747 B( 22-C , 27-H ) :   0.9562 B( 25-C , 28-C ) :   0.9644
B( 25-C , 29-H ) :   0.9619 B( 25-C , 30-H ) :   0.9648 B( 28-C , 33-H ) :   0.9602
B( 28-C , 34-H ) :   0.9692

Dispersion correction           -0.092276197
FINAL SINGLE POINT ENERGY     -1135.651992733394

DIPOLE MOMENT
-------------
                                X             Y             Z
Electronic contribution:     -7.80123     -16.94304     -13.74128
Nuclear contribution   :      7.91684      17.85507      15.13212
                        -----------------------------------------
Total Dipole Moment    :      0.11561       0.91203       1.39084
                        -----------------------------------------
Magnitude (a.u.)       :      1.66721
Magnitude (Debye)      :      4.23772

Rotational constants in cm-1:     0.018015     0.012410     0.008313
Rotational constants in MHz :   540.084467   372.038374   249.228144

                             ****ORCA TERMINATED NORMALLY****
TOTAL RUN TIME: 0 days 0 hours 0 minutes 28 seconds 992 msec
