                         Program Version 5.0.0 -  RELEASE  -
|  1> !BLYP D3BJ RIJCOSX def2-TZVP def2/J TightSCF xyzfile
|  2>
|  3> *xyzfile 0 1 D6.xyz
|  4>
|  5> %MaxCore 64000
|  6>
|  7> %pal nprocs 18
|  8> end
|  9>
| 10> %scf
| 11>   MaxIter 150
| 12> end
| 13>
| 14>
| 15>                          ****END OF INPUT****

CARTESIAN COORDINATES (ANGSTROEM)
---------------------------------
  C      5.558206   -1.992914   -6.215054
  C      4.930199   -7.375319   -2.649623
  C      3.841892   -6.951611   -3.632829
  H      3.458144   -5.954425   -3.407121
  H      2.988484   -7.643606   -3.567078
  S      4.318115   -6.915930   -5.368692
  C      4.181880   -2.589671   -6.298911
  N      3.145873   -1.768431   -6.486753
  C      4.019102   -3.864307   -6.227427
  H      4.768490   -4.591153   -5.990773
  H      3.122405   -4.333392   -6.314620
  H      3.281635   -0.777786   -6.566549
  H      2.212549   -2.134193   -6.562246
  O      5.406154   -5.899480   -5.512972
  O      3.111910   -6.445079   -6.043792
  C      6.419260   -2.542944   -5.077630
  C      5.872267   -5.002756   -2.427819
  C      6.173994   -6.485522   -2.606315
  H      6.734852   -6.613767   -3.534015
  H      6.821463   -6.831018   -1.793617
  H      4.469612   -7.406168   -1.655876
  H      5.230134   -8.398678   -2.885906
  C      5.896512   -2.169314   -3.694552
  H      7.428880   -2.143665   -5.208078
  H      6.505894   -3.627541   -5.175502
  C      6.807804   -2.623428   -2.551019
  H      4.894708   -2.589732   -3.557501
  H      5.778823   -1.081255   -3.635790
  C      7.111544   -4.122463   -2.520363
  H      7.751615   -2.071393   -2.614406
  H      6.345837   -2.326401   -1.604086
  H      5.362882   -4.828697   -1.471335
  H      5.174429   -4.702577   -3.211298
  H      7.778329   -4.329347   -1.677651
  H      7.673189   -4.402845   -3.417586
  F      4.763396   -8.239424   -5.698629
  H      6.036826   -2.198189   -7.176852
  H      5.467610   -0.907371   -6.127968

 Total Charge           Charge          ....    0
 Multiplicity           Mult            ....    1
 Number of Electrons    NEL             ....  136
 Basis Dimension        Dim             ....  634

ORBITAL ENERGIES
----------------

  NO   OCC          E(Eh)            E(eV)
   0   2.0000     -88.338232     -2403.8055
   1   2.0000     -24.403762      -664.0601
   2   2.0000     -18.777140      -510.9520
   3   2.0000     -18.773878      -510.8632
   4   2.0000     -13.978875      -380.3845
   5   2.0000      -9.960725      -271.0451
   6   2.0000      -9.929122      -270.1852
   7   2.0000      -9.903341      -269.4836
   8   2.0000      -9.893172      -269.2069
   9   2.0000      -9.889685      -269.1120
  10   2.0000      -9.889321      -269.1021
  11   2.0000      -9.887281      -269.0466
  12   2.0000      -9.882704      -268.9220
  13   2.0000      -9.880726      -268.8682
  14   2.0000      -9.879810      -268.8433
  15   2.0000      -9.791147      -266.4307
  16   2.0000      -7.869582      -214.1422
  17   2.0000      -5.901865      -160.5979
  18   2.0000      -5.895212      -160.4169
  19   2.0000      -5.894720      -160.4035
  20   2.0000      -1.276834       -34.7444
  21   2.0000      -1.003290       -27.3009
  22   2.0000      -0.910211       -24.7681
  23   2.0000      -0.812200       -22.1011
  24   2.0000      -0.755625       -20.5616
  25   2.0000      -0.722728       -19.6664
  26   2.0000      -0.696798       -18.9608
  27   2.0000      -0.675221       -18.3737
  28   2.0000      -0.649288       -17.6680
  29   2.0000      -0.627604       -17.0780
  30   2.0000      -0.603985       -16.4353
  31   2.0000      -0.576440       -15.6857
  32   2.0000      -0.547498       -14.8982
  33   2.0000      -0.534799       -14.5526
  34   2.0000      -0.523713       -14.2510
  35   2.0000      -0.515029       -14.0147
  36   2.0000      -0.493665       -13.4333
  37   2.0000      -0.484198       -13.1757
  38   2.0000      -0.468299       -12.7431
  39   2.0000      -0.447118       -12.1667
  40   2.0000      -0.438176       -11.9234
  41   2.0000      -0.431932       -11.7535
  42   2.0000      -0.416095       -11.3225
  43   2.0000      -0.407826       -11.0975
  44   2.0000      -0.402754       -10.9595
  45   2.0000      -0.393236       -10.7005
  46   2.0000      -0.388498       -10.5716
  47   2.0000      -0.368824       -10.0362
  48   2.0000      -0.364438        -9.9169
  49   2.0000      -0.359068        -9.7707
  50   2.0000      -0.356813        -9.7094
  51   2.0000      -0.342301        -9.3145
  52   2.0000      -0.324311        -8.8249
  53   2.0000      -0.317942        -8.6517
  54   2.0000      -0.308627        -8.3982
  55   2.0000      -0.299870        -8.1599
  56   2.0000      -0.296386        -8.0651
  57   2.0000      -0.293433        -7.9847
  58   2.0000      -0.283421        -7.7123
  59   2.0000      -0.277500        -7.5512
  60   2.0000      -0.272650        -7.4192
  61   2.0000      -0.271234        -7.3807
  62   2.0000      -0.268958        -7.3187
  63   2.0000      -0.262262        -7.1365
  64   2.0000      -0.257184        -6.9983
  65   2.0000      -0.248952        -6.7743
  66   2.0000      -0.221152        -6.0178
  67   2.0000      -0.127840        -3.4787
  68   0.0000      -0.016978        -0.4620
  69   0.0000       0.007159         0.1948
  70   0.0000       0.021638         0.5888
  71   0.0000       0.023556         0.6410
  72   0.0000       0.026947         0.7333

MULLIKEN ATOMIC CHARGES
-----------------------
   0 C :   -0.118128
   1 C :   -0.155986
   2 C :   -0.248294
   3 H :    0.157680
   4 H :    0.130055
   5 S :    0.812036
   6 C :    0.217475
   7 N :   -0.409025
   8 C :   -0.477262
   9 H :    0.164050
  10 H :    0.082122
  11 H :    0.188354
  12 H :    0.191101
  13 O :   -0.421746
  14 O :   -0.386117
  15 C :   -0.181569
  16 C :   -0.206190
  17 C :   -0.131176
  18 H :    0.097248
  19 H :    0.074788
  20 H :    0.092340
  21 H :    0.097667
  22 C :   -0.174874
  23 H :    0.055600
  24 H :    0.119649
  25 C :   -0.095928
  26 H :    0.103365
  27 H :    0.058032
  28 C :   -0.151931
  29 H :    0.069744
  30 H :    0.063519
  31 H :    0.061758
  32 H :    0.108557
  33 H :    0.065404
  34 H :    0.091594
  35 F :   -0.076383
  36 H :    0.085043
  37 H :    0.047426
Sum of atomic charges:   -0.0000000

LOEWDIN ATOMIC CHARGES
----------------------
   0 C :   -0.209193
   1 C :   -0.281847
   2 C :   -0.366503
   3 H :    0.149593
   4 H :    0.140439
   5 S :    0.535296
   6 C :   -0.377483
   7 N :   -0.004283
   8 C :   -0.297915
   9 H :    0.099443
  10 H :    0.095626
  11 H :    0.150423
  12 H :    0.158877
  13 O :   -0.253872
  14 O :   -0.236488
  15 C :   -0.250040
  16 C :   -0.263921
  17 C :   -0.268244
  18 H :    0.134318
  19 H :    0.133591
  20 H :    0.143072
  21 H :    0.134537
  22 C :   -0.261183
  23 H :    0.129584
  24 H :    0.139776
  25 C :   -0.261717
  26 H :    0.134648
  27 H :    0.129973
  28 C :   -0.260820
  29 H :    0.131350
  30 H :    0.129923
  31 H :    0.129267
  32 H :    0.136225
  33 H :    0.129807
  34 H :    0.135639
  35 F :    0.118793
  36 H :    0.145130
  37 H :    0.128179

  Mayer bond orders larger than 0.100000
B(  0-C ,  6-C ) :   0.9512 B(  0-C , 15-C ) :   0.9752 B(  0-C , 36-H ) :   0.9518
B(  0-C , 37-H ) :   0.9620 B(  1-C ,  2-C ) :   0.9360 B(  1-C , 17-C ) :   0.9588
B(  1-C , 20-H ) :   0.9445 B(  1-C , 21-H ) :   0.9682 B(  2-C ,  3-H ) :   0.9382
B(  2-C ,  4-H ) :   0.9433 B(  2-C ,  5-S ) :   0.8945 B(  5-S , 13-O ) :   1.7691
B(  5-S , 14-O ) :   1.9121 B(  5-S , 35-F ) :   1.1477 B(  6-C ,  7-N ) :   1.1266
B(  6-C ,  8-C ) :   1.7705 B(  7-N , 11-H ) :   0.9324 B(  7-N , 12-H ) :   0.9255
B(  8-C ,  9-H ) :   0.9856 B(  8-C , 10-H ) :   0.9668 B( 15-C , 22-C ) :   0.9652
B( 15-C , 23-H ) :   0.9500 B( 15-C , 24-H ) :   0.9654 B( 16-C , 17-C ) :   0.9388
B( 16-C , 28-C ) :   0.9788 B( 16-C , 31-H ) :   0.9550 B( 16-C , 32-H ) :   0.9642
B( 17-C , 18-H ) :   0.9635 B( 17-C , 19-H ) :   0.9632 B( 22-C , 25-C ) :   0.9685
B( 22-C , 26-H ) :   0.9750 B( 22-C , 27-H ) :   0.9562 B( 25-C , 28-C ) :   0.9658
B( 25-C , 29-H ) :   0.9609 B( 25-C , 30-H ) :   0.9639 B( 28-C , 33-H ) :   0.9591
B( 28-C , 34-H ) :   0.9696

Dispersion correction           -0.093134728
FINAL SINGLE POINT ENERGY     -1135.632221624011

DIPOLE MOMENT
-------------
                                X             Y             Z
Electronic contribution:     -8.89073     -21.40653     -14.17863
Nuclear contribution   :      8.67311      20.60825      15.35056
                        -----------------------------------------
Total Dipole Moment    :     -0.21763      -0.79828       1.17193
                        -----------------------------------------
Magnitude (a.u.)       :      1.43459
Magnitude (Debye)      :      3.64643

Rotational constants in cm-1:     0.017976     0.012151     0.008188
Rotational constants in MHz :   538.898457   364.286417   245.482451

                             ****ORCA TERMINATED NORMALLY****
TOTAL RUN TIME: 0 days 0 hours 0 minutes 27 seconds 524 msec
