                         Program Version 5.0.0 -  RELEASE  -
|  1> !PBE D3BJ RIJCOSX def2-SVPD def2/J TightSCF
|  2> *xyz -1 1
|  3> C          3.51177       -2.80621       -6.49228
|  4> S          3.00462       -1.09621       -6.38926
|  5> O          4.12886       -0.32965       -6.95372
|  6> O          1.78128       -1.00078       -7.13640
|  7> O          2.85155       -0.78368       -4.95679
|  8> H          3.63615       -3.08010       -7.51913
|  9> H          2.76397       -3.42755       -6.04548
| 10> H          4.43892       -2.93511       -5.97393
| 11> *
| 12>
| 13> %MaxCore 64000
| 14>
| 15> %pal nprocs 8
| 16> end
| 17>
| 18> %scf
| 19>   MaxIter 150
| 20> end
| 21>
| 22>
| 23>                          ****END OF INPUT****

CARTESIAN COORDINATES (ANGSTROEM)
---------------------------------
  C      3.511770   -2.806210   -6.492280
  S      3.004620   -1.096210   -6.389260
  O      4.128860   -0.329650   -6.953720
  O      1.781280   -1.000780   -7.136400
  O      2.851550   -0.783680   -4.956790
  H      3.636150   -3.080100   -7.519130
  H      2.763970   -3.427550   -6.045480
  H      4.438920   -2.935110   -5.973930

 Total Charge           Charge          ....   -1
 Multiplicity           Mult            ....    1
 Number of Electrons    NEL             ....   50
 Basis Dimension        Dim             ....  140

ORBITAL ENERGIES
----------------

  NO   OCC          E(Eh)            E(eV)
   0   2.0000     -88.054264     -2396.0783
   1   2.0000     -18.545910      -504.6599
   2   2.0000     -18.535854      -504.3862
   3   2.0000     -18.535343      -504.3723
   4   2.0000      -9.747741      -265.2495
   5   2.0000      -7.658381      -208.3951
   6   2.0000      -5.685351      -154.7063
   7   2.0000      -5.685213      -154.7025
   8   2.0000      -5.684817      -154.6917
   9   2.0000      -0.837196       -22.7813
  10   2.0000      -0.700715       -19.0674
  11   2.0000      -0.680965       -18.5300
  12   2.0000      -0.512085       -13.9345
  13   2.0000      -0.329142        -8.9564
  14   2.0000      -0.246981        -6.7207
  15   2.0000      -0.241360        -6.5677
  16   2.0000      -0.240128        -6.5342
  17   2.0000      -0.196410        -5.3446
  18   2.0000      -0.194905        -5.3036
  19   2.0000      -0.101608        -2.7649
  20   2.0000      -0.100438        -2.7331
  21   2.0000      -0.071576        -1.9477
  22   2.0000      -0.063750        -1.7347
  23   2.0000      -0.055096        -1.4992
  24   2.0000      -0.016781        -0.4566
  25   0.0000       0.135759         3.6942
  26   0.0000       0.172335         4.6895
  27   0.0000       0.172373         4.6905
  28   0.0000       0.175675         4.7804
  29   0.0000       0.197918         5.3856

MULLIKEN ATOMIC CHARGES
-----------------------
   0 C :    0.506784
   1 S :    0.925470
   2 O :   -0.741416
   3 O :   -0.700163
   4 O :   -0.739011
   5 H :   -0.079470
   6 H :   -0.087705
   7 H :   -0.084490
Sum of atomic charges:   -1.0000000

LOEWDIN ATOMIC CHARGES
----------------------
   0 C :    0.046544
   1 S :    0.778872
   2 O :   -0.575387
   3 O :   -0.556827
   4 O :   -0.573739
   5 H :   -0.039747
   6 H :   -0.040705
   7 H :   -0.039011

  Mayer bond orders larger than 0.100000
B(  0-C ,  1-S ) :   0.9424 B(  0-C ,  5-H ) :   0.9141 B(  0-C ,  6-H ) :   0.9169
B(  0-C ,  7-H ) :   0.9186 B(  1-S ,  2-O ) :   1.3461 B(  1-S ,  3-O ) :   1.3759
B(  1-S ,  4-O ) :   1.3440 B(  1-S ,  5-H ) :   0.1175 B(  1-S ,  6-H ) :   0.1187
B(  1-S ,  7-H ) :   0.1263

Dispersion correction           -0.006304190
FINAL SINGLE POINT ENERGY      -663.053403342720

DIPOLE MOMENT
-------------
                                X             Y             Z
Electronic contribution:     -1.30668       4.09860       0.19034
Nuclear contribution   :      1.59265      -5.51967      -0.35565
                        -----------------------------------------
Total Dipole Moment    :      0.28597      -1.42107      -0.16531
                        -----------------------------------------
Magnitude (a.u.)       :      1.45895
Magnitude (Debye)      :      3.70837

Rotational constants in cm-1:     0.172598     0.157065     0.154689
Rotational constants in MHz :  5174.362736  4708.699947  4637.458896

                             ****ORCA TERMINATED NORMALLY****
TOTAL RUN TIME: 0 days 0 hours 0 minutes 3 seconds 306 msec
