                         Program Version 5.0.0 -  RELEASE  -
|  1> !PBE D3BJ RIJCOSX def2-SVPD def2/J TightSCF
|  2> *xyz 1 1
|  3> C          4.49059        1.15590       -2.46929
|  4> N          4.30539        1.22276       -3.90832
|  5> C          4.63192        2.24637       -4.67096
|  6> N          4.54169        2.14399       -5.98714
|  7> N          5.08409        3.39358       -4.11855
|  8> H          4.92067        3.57050       -3.13587
|  9> H          5.25465        4.19739       -4.70696
| 10> H          3.82453        0.44911       -4.35093
| 11> H          4.34337        1.24932       -6.41665
| 12> H          4.67671        2.95662       -6.57411
| 13> H          5.00867        2.03053       -2.13534
| 14> H          5.06354        0.28631       -2.22344
| 15> H          3.53600        1.10160       -1.98897
| 16> *
| 17>
| 18> %MaxCore 64000
| 19>
| 20> %pal nprocs 8
| 21> end
| 22>
| 23> %scf
| 24>   MaxIter 150
| 25> end
| 26>
| 27>
| 28>                          ****END OF INPUT****

CARTESIAN COORDINATES (ANGSTROEM)
---------------------------------
  C      4.490590    1.155900   -2.469290
  N      4.305390    1.222760   -3.908320
  C      4.631920    2.246370   -4.670960
  N      4.541690    2.143990   -5.987140
  N      5.084090    3.393580   -4.118550
  H      4.920670    3.570500   -3.135870
  H      5.254650    4.197390   -4.706960
  H      3.824530    0.449110   -4.350930
  H      4.343370    1.249320   -6.416650
  H      4.676710    2.956620   -6.574110
  H      5.008670    2.030530   -2.135340
  H      5.063540    0.286310   -2.223440
  H      3.536000    1.101600   -1.988970

 Total Charge           Charge          ....    1
 Multiplicity           Mult            ....    1
 Number of Electrons    NEL             ....   40
 Basis Dimension        Dim             ....  164

ORBITAL ENERGIES
----------------

  NO   OCC          E(Eh)            E(eV)
   0   2.0000     -14.232375      -387.2826
   1   2.0000     -14.226137      -387.1129
   2   2.0000     -14.223242      -387.0341
   3   2.0000     -10.223158      -278.1863
   4   2.0000     -10.102077      -274.8915
   5   2.0000      -1.128214       -30.7003
   6   2.0000      -1.025407       -27.9027
   7   2.0000      -1.009609       -27.4729
   8   2.0000      -0.842113       -22.9151
   9   2.0000      -0.770763       -20.9735
  10   2.0000      -0.739285       -20.1170
  11   2.0000      -0.706435       -19.2231
  12   2.0000      -0.647500       -17.6194
  13   2.0000      -0.645733       -17.5713
  14   2.0000      -0.609151       -16.5758
  15   2.0000      -0.598671       -16.2907
  16   2.0000      -0.548982       -14.9385
  17   2.0000      -0.539752       -14.6874
  18   2.0000      -0.439725       -11.9655
  19   2.0000      -0.419482       -11.4147
  20   0.0000      -0.203599        -5.5402
  21   0.0000      -0.178557        -4.8588
  22   0.0000      -0.146247        -3.9796
  23   0.0000      -0.138217        -3.7611
  24   0.0000      -0.117876        -3.2076

MULLIKEN ATOMIC CHARGES
-----------------------
   0 C :    1.282330
   1 N :   -0.594595
   2 C :    1.466201
   3 N :   -0.028856
   4 N :   -0.027420
   5 H :   -0.063597
   6 H :   -0.140752
   7 H :   -0.300226
   8 H :   -0.075065
   9 H :   -0.048306
  10 H :   -0.223629
  11 H :   -0.110276
  12 H :   -0.135809
Sum of atomic charges:    1.0000000

LOEWDIN ATOMIC CHARGES
----------------------
   0 C :    0.268977
   1 N :    0.024602
   2 C :   -0.054946
   3 N :    0.273086
   4 N :    0.286507
   5 H :    0.009514
   6 H :    0.034836
   7 H :    0.062684
   8 H :    0.040429
   9 H :    0.040032
  10 H :   -0.016711
  11 H :    0.016203
  12 H :    0.014784

  Mayer bond orders larger than 0.100000
B(  0-C ,  1-N ) :   0.9414 B(  0-C ,  7-H ) :  -0.1993 B(  0-C , 10-H ) :   0.8196
B(  0-C , 11-H ) :   0.7433 B(  0-C , 12-H ) :   0.7662 B(  1-N ,  2-C ) :   0.9639
B(  1-N ,  3-N ) :   0.2873 B(  1-N ,  4-N ) :   0.2991 B(  1-N ,  7-H ) :   1.3717
B(  1-N , 10-H ) :   0.1996 B(  1-N , 11-H ) :   0.1996 B(  1-N , 12-H ) :   0.1819
B(  2-C ,  3-N ) :   0.8139 B(  2-C ,  4-N ) :   0.8817 B(  2-C ,  5-H ) :  -0.1257
B(  2-C ,  6-H ) :  -0.1663 B(  2-C ,  7-H ) :  -0.2628 B(  2-C ,  8-H ) :  -0.1827
B(  2-C ,  9-H ) :  -0.1300 B(  3-N ,  4-N ) :   0.2125 B(  3-N ,  8-H ) :   1.2060
B(  3-N ,  9-H ) :   1.1979 B(  4-N ,  5-H ) :   1.0901 B(  4-N ,  6-H ) :   1.2252
B(  5-H ,  6-H ) :  -0.1584 B(  5-H , 10-H ) :   0.1078 B(  8-H ,  9-H ) :  -0.1792

Dispersion correction           -0.009099307
FINAL SINGLE POINT ENERGY      -244.627691182147

DIPOLE MOMENT
-------------
                                X             Y             Z
Electronic contribution:      0.03248       0.68219      -2.67231
Nuclear contribution   :     -0.23495      -0.48067       2.19509
                        -----------------------------------------
Total Dipole Moment    :     -0.20246       0.20152      -0.47722
                        -----------------------------------------
Magnitude (a.u.)       :      0.55618
Magnitude (Debye)      :      1.41371

Rotational constants in cm-1:     0.315679     0.134071     0.096006
Rotational constants in MHz :  9463.824527  4019.347586  2878.182223

                             ****ORCA TERMINATED NORMALLY****
TOTAL RUN TIME: 0 days 0 hours 0 minutes 4 seconds 524 msec
