                         Program Version 5.0.0 -  RELEASE  -
|  1> !PBE D3BJ RIJCOSX def2-SVPD def2/J TightSCF xyzfile
|  2>
|  3> *xyzfile 0 1 B.xyz
|  4>
|  5> %MaxCore 64000
|  6>
|  7> %pal nprocs 4
|  8> end
|  9>
| 10> %scf
| 11>   MaxIter 150
| 12> end
| 13>
| 14>
| 15>                          ****END OF INPUT****

CARTESIAN COORDINATES (ANGSTROEM)
---------------------------------
  C      4.490588    1.155899   -2.469290
  N      4.305394    1.222762   -3.908317
  C      4.906458   -3.102816   -5.954844
  C      3.511771   -2.806215   -6.492283
  H      2.736044   -3.373445   -5.973736
  H      3.444904   -3.040831   -7.555281
  S      3.004618   -1.096206   -6.389259
  C      4.631918    2.246365   -4.670958
  N      4.541686    2.143990   -5.987139
  N      5.084086    3.393584   -4.118545
  H      4.920675    3.570501   -3.135870
  H      5.254652    4.197390   -4.706956
  H      3.824530    0.449113   -4.350926
  H      4.343373    1.249318   -6.416646
  H      4.676712    2.956624   -6.574113
  O      4.128856   -0.329647   -6.953717
  O      1.781285   -1.000779   -7.136399
  C      5.942129    0.939500   -2.036893
  H      3.864305    0.328532   -2.136611
  H      4.076233    2.049994   -1.989010
  C      6.462677   -3.117775   -3.944671
  C      5.024977   -3.025679   -4.437625
  H      4.423321   -3.818693   -3.977648
  H      4.579350   -2.087131   -4.108727
  H      5.201533   -4.100207   -6.296905
  H      5.605922   -2.397822   -6.413368
  C      6.559957   -0.356290   -2.559086
  H      5.967976    0.952567   -0.942444
  H      6.547184    1.788331   -2.368849
  C      6.006283   -1.615917   -1.899301
  H      7.642360   -0.318000   -2.402059
  H      6.414855   -0.403433   -3.642587
  C      6.608718   -2.917014   -2.435655
  H      6.190324   -1.561115   -0.820948
  H      4.919250   -1.651245   -2.016586
  H      7.066975   -2.374258   -4.475514
  H      6.887808   -4.089747   -4.215332
  H      6.135197   -3.755573   -1.915159
  H      7.671142   -2.955503   -2.172291
  O      2.851546   -0.783683   -4.956789

 Total Charge           Charge          ....    0
 Multiplicity           Mult            ....    1
 Number of Electrons    NEL             ....  144
 Basis Dimension        Dim             ....  540

ORBITAL ENERGIES
----------------

  NO   OCC          E(Eh)            E(eV)
   0   2.0000     -88.211770     -2400.3643
   1   2.0000     -18.706876      -509.0400
   2   2.0000     -18.706554      -509.0312
   3   2.0000     -18.693056      -508.6639
   4   2.0000     -14.074664      -382.9911
   5   2.0000     -14.044524      -382.1709
   6   2.0000     -14.040853      -382.0710
   7   2.0000     -10.054021      -273.5838
   8   2.0000      -9.960709      -271.0447
   9   2.0000      -9.917090      -269.8577
  10   2.0000      -9.901171      -269.4246
  11   2.0000      -9.894468      -269.2422
  12   2.0000      -9.889183      -269.0984
  13   2.0000      -9.888008      -269.0664
  14   2.0000      -9.882485      -268.9161
  15   2.0000      -9.880704      -268.8676
  16   2.0000      -9.873403      -268.6689
  17   2.0000      -7.815240      -212.6635
  18   2.0000      -5.843117      -158.9993
  19   2.0000      -5.842204      -158.9745
  20   2.0000      -5.840634      -158.9317
  21   2.0000      -0.999582       -27.2000
  22   2.0000      -0.960044       -26.1241
  23   2.0000      -0.862020       -23.4568
  24   2.0000      -0.859061       -23.3762
  25   2.0000      -0.852793       -23.2057
  26   2.0000      -0.842787       -22.9334
  27   2.0000      -0.745593       -20.2886
  28   2.0000      -0.721283       -19.6271
  29   2.0000      -0.696847       -18.9622
  30   2.0000      -0.663870       -18.0648
  31   2.0000      -0.631168       -17.1750
  32   2.0000      -0.611744       -16.6464
  33   2.0000      -0.584450       -15.9037
  34   2.0000      -0.571130       -15.5412
  35   2.0000      -0.556900       -15.1540
  36   2.0000      -0.534140       -14.5347
  37   2.0000      -0.518792       -14.1171
  38   2.0000      -0.492570       -13.4035
  39   2.0000      -0.490897       -13.3580
  40   2.0000      -0.487388       -13.2625
  41   2.0000      -0.463716       -12.6183
  42   2.0000      -0.452746       -12.3199
  43   2.0000      -0.438340       -11.9278
  44   2.0000      -0.430410       -11.7120
  45   2.0000      -0.416666       -11.3380
  46   2.0000      -0.410900       -11.1811
  47   2.0000      -0.403170       -10.9708
  48   2.0000      -0.389415       -10.5965
  49   2.0000      -0.385484       -10.4896
  50   2.0000      -0.377915       -10.2836
  51   2.0000      -0.371902       -10.1200
  52   2.0000      -0.360561        -9.8114
  53   2.0000      -0.354124        -9.6362
  54   2.0000      -0.345250        -9.3947
  55   2.0000      -0.337794        -9.1918
  56   2.0000      -0.324489        -8.8298
  57   2.0000      -0.316201        -8.6043
  58   2.0000      -0.307471        -8.3667
  59   2.0000      -0.294826        -8.0226
  60   2.0000      -0.285279        -7.7628
  61   2.0000      -0.281293        -7.6544
  62   2.0000      -0.275621        -7.5000
  63   2.0000      -0.271924        -7.3994
  64   2.0000      -0.270187        -7.3522
  65   2.0000      -0.265549        -7.2259
  66   2.0000      -0.258161        -7.0249
  67   2.0000      -0.249910        -6.8004
  68   2.0000      -0.227553        -6.1920
  69   2.0000      -0.219860        -5.9827
  70   2.0000      -0.214230        -5.8295
  71   2.0000      -0.184441        -5.0189
  72   0.0000      -0.043552        -1.1851
  73   0.0000      -0.042417        -1.1542
  74   0.0000      -0.013602        -0.3701
  75   0.0000       0.005621         0.1530
  76   0.0000       0.009965         0.2712

MULLIKEN ATOMIC CHARGES
-----------------------
   0 C :    1.048989
   1 N :    0.109289
   2 C :    0.210413
   3 C :    0.295395
   4 H :    0.007027
   5 H :   -0.011080
   6 S :    1.213357
   7 C :    1.303458
   8 N :    0.383137
   9 N :    0.148230
  10 H :   -0.060004
  11 H :   -0.234702
  12 H :   -0.878647
  13 H :   -0.310874
  14 H :   -0.185943
  15 O :   -0.786903
  16 O :   -0.746523
  17 C :    0.312433
  18 H :   -0.261388
  19 H :   -0.198341
  20 C :    0.018623
  21 C :    0.172571
  22 H :    0.035538
  23 H :   -0.434791
  24 H :   -0.111384
  25 H :    0.068091
  26 C :    0.099392
  27 H :   -0.115363
  28 H :   -0.045402
  29 C :   -0.197366
  30 H :   -0.164902
  31 H :   -0.081623
  32 C :    0.662779
  33 H :   -0.373816
  34 H :    0.212611
  35 H :    0.124929
  36 H :   -0.362914
  37 H :   -0.036855
  38 H :    0.004525
  39 O :   -0.831968
Sum of atomic charges:    0.0000000

LOEWDIN ATOMIC CHARGES
----------------------
   0 C :    0.076321
   1 N :    0.089951
   2 C :   -0.041391
   3 C :   -0.069812
   4 H :    0.024758
   5 H :    0.019699
   6 S :    0.910990
   7 C :   -0.048219
   8 N :    0.297826
   9 N :    0.263536
  10 H :   -0.005156
  11 H :    0.012404
  12 H :   -0.085330
  13 H :   -0.106626
  14 H :    0.024769
  15 O :   -0.503432
  16 O :   -0.485372
  17 C :   -0.020268
  18 H :    0.032813
  19 H :    0.017870
  20 C :   -0.040786
  21 C :   -0.033064
  22 H :    0.040687
  23 H :   -0.018657
  24 H :    0.028197
  25 H :    0.022180
  26 C :   -0.030457
  27 H :    0.027979
  28 H :    0.009536
  29 C :   -0.038695
  30 H :    0.030251
  31 H :    0.013614
  32 C :   -0.032208
  33 H :    0.024030
  34 H :    0.010463
  35 H :    0.017038
  36 H :    0.024261
  37 H :    0.024089
  38 H :    0.021633
  39 O :   -0.505422

  Mayer bond orders larger than 0.100000
B(  0-C ,  1-N ) :   0.9301 B(  0-C , 12-H ) :  -0.4382 B(  0-C , 17-C ) :   1.1201
B(  0-C , 18-H ) :   0.6369 B(  0-C , 19-H ) :   0.8204 B(  0-C , 26-C ) :   0.1346
B(  0-C , 27-H ) :   0.1178 B(  0-C , 28-H ) :   0.1024 B(  1-N ,  7-C ) :   1.1975
B(  1-N ,  8-N ) :   0.1642 B(  1-N ,  9-N ) :   0.2724 B(  1-N , 12-H ) :   1.0947
B(  1-N , 13-H ) :   0.1678 B(  1-N , 14-H ) :  -0.1222 B(  1-N , 18-H ) :   0.2831
B(  2-C ,  3-C ) :   1.2602 B(  2-C ,  5-H ) :   0.2668 B(  2-C , 20-C ) :   0.1327
B(  2-C , 21-C ) :   1.1706 B(  2-C , 22-H ) :   0.1140 B(  2-C , 24-H ) :   0.7831
B(  2-C , 25-H ) :   0.8238 B(  3-C ,  4-H ) :   0.8879 B(  3-C ,  5-H ) :   0.7035
B(  3-C ,  6-S ) :   0.9664 B(  3-C , 16-O ) :   0.1256 B(  3-C , 21-C ) :   0.1318
B(  3-C , 25-H ) :   0.1161 B(  6-S , 15-O ) :   1.1475 B(  6-S , 16-O ) :   1.3303
B(  6-S , 39-O ) :   1.1806 B(  7-C ,  8-N ) :   0.8910 B(  7-C ,  9-N ) :   0.8629
B(  7-C , 10-H ) :  -0.1318 B(  7-C , 12-H ) :  -0.6814 B(  7-C , 13-H ) :  -0.3109
B(  7-C , 14-H ) :  -0.1424 B(  8-N ,  9-N ) :   0.1489 B(  8-N , 13-H ) :   1.1179
B(  8-N , 14-H ) :   1.2905 B(  9-N , 10-H ) :   1.0945 B(  9-N , 11-H ) :   1.2444
B( 10-H , 11-H ) :  -0.2074 B( 12-H , 39-O ) :   0.1981 B( 13-H , 14-H ) :  -0.2782
B( 13-H , 15-O ) :   0.2165 B( 16-O , 39-O ) :   0.1181 B( 17-C , 18-H ) :   0.1097
B( 17-C , 19-H ) :   0.1183 B( 17-C , 26-C ) :   1.2396 B( 17-C , 27-H ) :   0.9026
B( 17-C , 28-H ) :   0.6877 B( 17-C , 31-H ) :   0.1083 B( 18-H , 19-H ) :  -0.1848
B( 20-C , 21-C ) :   1.2264 B( 20-C , 22-H ) :   0.1205 B( 20-C , 23-H ) :   0.1175
B( 20-C , 29-C ) :   0.1580 B( 20-C , 32-C ) :   1.1458 B( 20-C , 35-H ) :   0.8326
B( 20-C , 36-H ) :   0.9319 B( 20-C , 37-H ) :   0.1235 B( 20-C , 38-H ) :   0.2309
B( 21-C , 22-H ) :   0.6963 B( 21-C , 23-H ) :   0.8702 B( 21-C , 24-H ) :   0.2018
B( 21-C , 25-H ) :   0.1082 B( 21-C , 35-H ) :   0.1067 B( 21-C , 36-H ) :   0.2138
B( 22-H , 23-H ) :   0.1792 B( 23-H , 34-H ) :   0.1203 B( 26-C , 27-H ) :   0.1131
B( 26-C , 28-H ) :   0.2152 B( 26-C , 29-C ) :   1.2550 B( 26-C , 30-H ) :   0.8568
B( 26-C , 31-H ) :   0.8792 B( 26-C , 33-H ) :   0.1486 B( 26-C , 34-H ) :   0.1076
B( 27-H , 28-H ) :  -0.1014 B( 29-C , 30-H ) :   0.1639 B( 29-C , 31-H ) :   0.1254
B( 29-C , 32-C ) :   1.1541 B( 29-C , 33-H ) :   1.0320 B( 29-C , 34-H ) :   0.7868
B( 29-C , 37-H ) :   0.3000 B( 29-C , 38-H ) :   0.1437 B( 32-C , 37-H ) :   0.6319
B( 32-C , 38-H ) :   0.6683 B( 37-H , 38-H ) :  -0.1096

Dispersion correction           -0.048757952
FINAL SINGLE POINT ENERGY     -1181.322116900621

DIPOLE MOMENT
-------------
                                X             Y             Z
Electronic contribution:    -14.55215       8.27747     -15.35666
Nuclear contribution   :     16.79156      -5.47215      17.54258
                        -----------------------------------------
Total Dipole Moment    :      2.23942       2.80532       2.18592
                        -----------------------------------------
Magnitude (a.u.)       :      4.20274
Magnitude (Debye)      :     10.68253

Rotational constants in cm-1:     0.014207     0.012373     0.007472
Rotational constants in MHz :   425.900436   370.942493   224.006604

                             ****ORCA TERMINATED NORMALLY****
TOTAL RUN TIME: 0 days 0 hours 1 minutes 3 seconds 448 msec
