                         Program Version 5.0.0 -  RELEASE  -
|  1> !PBE D3BJ RIJCOSX def2-SVPD def2/J TightSCF
|  2> *xyz 0 1
|  3> C          3.51177       -2.80621       -6.49228
|  4> S          3.00462       -1.09621       -6.38926
|  5> F          4.12886       -0.32965       -6.95372
|  6> O          1.78128       -1.00078       -7.13640
|  7> O          2.85155       -0.78368       -4.95679
|  8> H          3.63615       -3.08010       -7.51913
|  9> H          2.76397       -3.42755       -6.04548
| 10> H          4.43892       -2.93511       -5.97393
| 11> *
| 12>
| 13> %MaxCore 64000
| 14>
| 15> %pal nprocs 8
| 16> end
| 17>
| 18> %scf
| 19>   MaxIter 150
| 20> end
| 21>
| 22>
| 23>                          ****END OF INPUT****

CARTESIAN COORDINATES (ANGSTROEM)
---------------------------------
  C      3.511770   -2.806210   -6.492280
  S      3.004620   -1.096210   -6.389260
  F      4.128860   -0.329650   -6.953720
  O      1.781280   -1.000780   -7.136400
  O      2.851550   -0.783680   -4.956790
  H      3.636150   -3.080100   -7.519130
  H      2.763970   -3.427550   -6.045480
  H      4.438920   -2.935110   -5.973930

 Total Charge           Charge          ....    0
 Multiplicity           Mult            ....    1
 Number of Electrons    NEL             ....   50
 Basis Dimension        Dim             ....  140

ORBITAL ENERGIES
----------------

  NO   OCC          E(Eh)            E(eV)
   0   2.0000     -88.315282     -2403.1810
   1   2.0000     -24.378218      -663.3650
   2   2.0000     -18.783245      -511.1181
   3   2.0000     -18.772957      -510.8381
   4   2.0000      -9.956092      -270.9190
   5   2.0000      -7.920187      -215.5193
   6   2.0000      -5.951261      -161.9420
   7   2.0000      -5.944985      -161.7713
   8   2.0000      -5.943815      -161.7394
   9   2.0000      -1.250963       -34.0404
  10   2.0000      -1.027053       -27.9475
  11   2.0000      -0.928884       -25.2762
  12   2.0000      -0.733517       -19.9600
  13   2.0000      -0.644072       -17.5261
  14   2.0000      -0.536948       -14.6111
  15   2.0000      -0.510486       -13.8910
  16   2.0000      -0.498120       -13.5545
  17   2.0000      -0.433065       -11.7843
  18   2.0000      -0.430320       -11.7096
  19   2.0000      -0.419809       -11.4236
  20   2.0000      -0.395157       -10.7528
  21   2.0000      -0.345275        -9.3954
  22   2.0000      -0.302205        -8.2234
  23   2.0000      -0.290600        -7.9076
  24   2.0000      -0.270133        -7.3507
  25   0.0000      -0.032334        -0.8798
  26   0.0000       0.000784         0.0213
  27   0.0000       0.012768         0.3474
  28   0.0000       0.031375         0.8538
  29   0.0000       0.031876         0.8674

MULLIKEN ATOMIC CHARGES
-----------------------
   0 C :    0.492843
   1 S :    1.114278
   2 F :   -0.348499
   3 O :   -0.571195
   4 O :   -0.606172
   5 H :   -0.018320
   6 H :   -0.035979
   7 H :   -0.026957
Sum of atomic charges:    0.0000000

LOEWDIN ATOMIC CHARGES
----------------------
   0 C :    0.115007
   1 S :    1.052523
   2 F :   -0.254594
   3 O :   -0.437341
   4 O :   -0.452260
   5 H :   -0.012120
   6 H :    0.000981
   7 H :   -0.012195

  Mayer bond orders larger than 0.100000
B(  0-C ,  1-S ) :   1.0044 B(  0-C ,  5-H ) :   0.9039 B(  0-C ,  6-H ) :   0.9056
B(  0-C ,  7-H ) :   0.9087 B(  1-S ,  2-F ) :   0.7106 B(  1-S ,  3-O ) :   1.5730
B(  1-S ,  4-O ) :   1.5404 B(  1-S ,  6-H ) :   0.1179 B(  1-S ,  7-H ) :   0.1011

Dispersion correction           -0.005920715
FINAL SINGLE POINT ENERGY      -687.537559134439

DIPOLE MOMENT
-------------
                                X             Y             Z
Electronic contribution:      0.53583       5.28505      -0.75283
Nuclear contribution   :      0.51040      -6.36905       0.21167
                        -----------------------------------------
Total Dipole Moment    :      1.04623      -1.08399      -0.54116
                        -----------------------------------------
Magnitude (a.u.)       :      1.60078
Magnitude (Debye)      :      4.06885

Rotational constants in cm-1:     0.163860     0.154073     0.147119
Rotational constants in MHz :  4912.396151  4618.979177  4410.507958

                             ****ORCA TERMINATED NORMALLY****
TOTAL RUN TIME: 0 days 0 hours 0 minutes 3 seconds 443 msec
