                         Program Version 5.0.0 -  RELEASE  -
|  1> !PBE D3BJ RIJCOSX def2-SVPD def2/J TightSCF
|  2> *xyz 0 1
|  3> C          4.49059        1.15590       -2.46929
|  4> C          4.30539        1.22276       -3.90832
|  5> C          4.63192        2.24637       -4.67096
|  6> N          4.54169        2.14399       -5.98714
|  7> N          5.08409        3.39358       -4.11855
|  8> H          4.92067        3.57050       -3.13587
|  9> H          5.25465        4.19739       -4.70696
| 10> H          3.82453        0.44911       -4.35093
| 11> H          4.34337        1.24932       -6.41665
| 12> H          4.67671        2.95662       -6.57411
| 13> H          5.00867        2.03053       -2.13534
| 14> H          5.06354        0.28631       -2.22344
| 15> H          3.53600        1.10160       -1.98897
| 16> *
| 17>
| 18> %MaxCore 64000
| 19>
| 20> %pal nprocs 8
| 21> end
| 22>
| 23> %scf
| 24>   MaxIter 150
| 25> end
| 26>
| 27>
| 28>                          ****END OF INPUT****

CARTESIAN COORDINATES (ANGSTROEM)
---------------------------------
  C      4.490590    1.155900   -2.469290
  C      4.305390    1.222760   -3.908320
  C      4.631920    2.246370   -4.670960
  N      4.541690    2.143990   -5.987140
  N      5.084090    3.393580   -4.118550
  H      4.920670    3.570500   -3.135870
  H      5.254650    4.197390   -4.706960
  H      3.824530    0.449110   -4.350930
  H      4.343370    1.249320   -6.416650
  H      4.676710    2.956620   -6.574110
  H      5.008670    2.030530   -2.135340
  H      5.063540    0.286310   -2.223440
  H      3.536000    1.101600   -1.988970

 Total Charge           Charge          ....    0
 Multiplicity           Mult            ....    1
 Number of Electrons    NEL             ....   40
 Basis Dimension        Dim             ....  164

ORBITAL ENERGIES
----------------

  NO   OCC          E(Eh)            E(eV)
   0   2.0000     -13.998097      -380.9076
   1   2.0000     -13.997423      -380.8892
   2   2.0000      -9.928452      -270.1669
   3   2.0000      -9.860395      -268.3150
   4   2.0000      -9.819140      -267.1924
   5   2.0000      -0.867569       -23.6078
   6   2.0000      -0.783549       -21.3215
   7   2.0000      -0.675046       -18.3689
   8   2.0000      -0.588487       -16.0136
   9   2.0000      -0.525746       -14.3063
  10   2.0000      -0.488620       -13.2960
  11   2.0000      -0.458577       -12.4785
  12   2.0000      -0.426151       -11.5962
  13   2.0000      -0.375919       -10.2293
  14   2.0000      -0.359651        -9.7866
  15   2.0000      -0.328823        -8.9477
  16   2.0000      -0.316425        -8.6104
  17   2.0000      -0.299669        -8.1544
  18   2.0000      -0.220310        -5.9950
  19   2.0000      -0.126321        -3.4374
  20   0.0000      -0.004507        -0.1226
  21   0.0000       0.023661         0.6438
  22   0.0000       0.035590         0.9684
  23   0.0000       0.053168         1.4468
  24   0.0000       0.063621         1.7312

MULLIKEN ATOMIC CHARGES
-----------------------
   0 C :    1.001012
   1 C :   -0.783135
   2 C :    1.099562
   3 N :    0.066924
   4 N :    0.025453
   5 H :   -0.081270
   6 H :   -0.276925
   7 H :   -0.377269
   8 H :   -0.093062
   9 H :   -0.173106
  10 H :   -0.304906
  11 H :   -0.021560
  12 H :   -0.081717
Sum of atomic charges:    0.0000000

LOEWDIN ATOMIC CHARGES
----------------------
   0 C :    0.101282
   1 C :   -0.070736
   2 C :   -0.239002
   3 N :    0.185207
   4 N :    0.205150
   5 H :   -0.023125
   6 H :   -0.017612
   7 H :   -0.047471
   8 H :    0.004547
   9 H :   -0.014069
  10 H :   -0.046258
  11 H :   -0.018529
  12 H :   -0.019385

  Mayer bond orders larger than 0.100000
B(  0-C ,  1-C ) :   1.1244 B(  0-C ,  7-H ) :   0.1923 B(  0-C , 10-H ) :   0.7592
B(  0-C , 11-H ) :   0.6745 B(  0-C , 12-H ) :   0.7014 B(  1-C ,  2-C ) :   1.4347
B(  1-C ,  3-N ) :   0.4491 B(  1-C ,  4-N ) :   0.3063 B(  1-C ,  7-H ) :   0.9814
B(  1-C , 10-H ) :   0.4237 B(  1-C , 11-H ) :   0.2079 B(  1-C , 12-H ) :   0.1809
B(  2-C ,  3-N ) :   0.8264 B(  2-C ,  4-N ) :   0.9402 B(  2-C ,  6-H ) :  -0.1708
B(  2-C ,  7-H ) :   0.1255 B(  2-C ,  8-H ) :  -0.1080 B(  2-C , 10-H ) :  -0.1346
B(  3-N ,  4-N ) :   0.1540 B(  3-N ,  8-H ) :   1.1956 B(  3-N ,  9-H ) :   1.1923
B(  4-N ,  5-H ) :   1.0707 B(  4-N ,  6-H ) :   1.2754 B(  5-H ,  6-H ) :  -0.1447
B(  8-H ,  9-H ) :  -0.1681 B( 10-H , 11-H ) :   0.1501

Dispersion correction           -0.009486378
FINAL SINGLE POINT ENERGY      -228.166009735688

DIPOLE MOMENT
-------------
                                X             Y             Z
Electronic contribution:      0.30220       1.33210      -2.87003
Nuclear contribution   :     -0.29662      -0.64714       2.26125
                        -----------------------------------------
Total Dipole Moment    :      0.00558       0.68496      -0.60878
                        -----------------------------------------
Magnitude (a.u.)       :      0.91641
Magnitude (Debye)      :      2.32934

Rotational constants in cm-1:     0.320965     0.135060     0.096994
Rotational constants in MHz :  9622.302637  4048.999301  2907.812202

                             ****ORCA TERMINATED NORMALLY****
TOTAL RUN TIME: 0 days 0 hours 0 minutes 4 seconds 842 msec
