                         Program Version 5.0.0 -  RELEASE  -
|  1> !PBE D3BJ RIJCOSX def2-SVPD def2/J TightSCF
|  2> *xyz 0 1
|  3> C          3.51177       -2.80621       -6.49228
|  4> S          3.00462       -1.09621       -6.38926
|  5> O          4.12886       -0.32965       -6.95372
|  6> F          1.78128       -1.00078       -7.13640
|  7> O          2.85155       -0.78368       -4.95679
|  8> H          3.63615       -3.08010       -7.51913
|  9> H          2.76397       -3.42755       -6.04548
| 10> H          4.43892       -2.93511       -5.97393
| 11> *
| 12>
| 13> %MaxCore 64000
| 14>
| 15> %pal nprocs 8
| 16> end
| 17>
| 18> %scf
| 19>   MaxIter 150
| 20> end
| 21>
| 22>
| 23>                          ****END OF INPUT****

CARTESIAN COORDINATES (ANGSTROEM)
---------------------------------
  C      3.511770   -2.806210   -6.492280
  S      3.004620   -1.096210   -6.389260
  O      4.128860   -0.329650   -6.953720
  F      1.781280   -1.000780   -7.136400
  O      2.851550   -0.783680   -4.956790
  H      3.636150   -3.080100   -7.519130
  H      2.763970   -3.427550   -6.045480
  H      4.438920   -2.935110   -5.973930

 Total Charge           Charge          ....    0
 Multiplicity           Mult            ....    1
 Number of Electrons    NEL             ....   50
 Basis Dimension        Dim             ....  140

ORBITAL ENERGIES
----------------

  NO   OCC          E(Eh)            E(eV)
   0   2.0000     -88.317541     -2403.2425
   1   2.0000     -24.395464      -663.8343
   2   2.0000     -18.773376      -510.8495
   3   2.0000     -18.772689      -510.8308
   4   2.0000      -9.956773      -270.9376
   5   2.0000      -7.922350      -215.5781
   6   2.0000      -5.953693      -162.0082
   7   2.0000      -5.946914      -161.8238
   8   2.0000      -5.945801      -161.7935
   9   2.0000      -1.281056       -34.8593
  10   2.0000      -1.014595       -27.6085
  11   2.0000      -0.915732       -24.9183
  12   2.0000      -0.735493       -20.0138
  13   2.0000      -0.658074       -17.9071
  14   2.0000      -0.549122       -14.9424
  15   2.0000      -0.531042       -14.4504
  16   2.0000      -0.502972       -13.6866
  17   2.0000      -0.433563       -11.7978
  18   2.0000      -0.428625       -11.6635
  19   2.0000      -0.420910       -11.4535
  20   2.0000      -0.390590       -10.6285
  21   2.0000      -0.337979        -9.1969
  22   2.0000      -0.294020        -8.0007
  23   2.0000      -0.285450        -7.7675
  24   2.0000      -0.259848        -7.0708
  25   0.0000      -0.032917        -0.8957
  26   0.0000       0.003015         0.0821
  27   0.0000       0.011366         0.3093
  28   0.0000       0.025580         0.6961
  29   0.0000       0.030982         0.8431

MULLIKEN ATOMIC CHARGES
-----------------------
   0 C :    0.494202
   1 S :    1.107333
   2 O :   -0.598037
   3 F :   -0.327055
   4 O :   -0.596795
   5 H :   -0.018833
   6 H :   -0.026316
   7 H :   -0.034499
Sum of atomic charges:   -0.0000000

LOEWDIN ATOMIC CHARGES
----------------------
   0 C :    0.114312
   1 S :    1.054026
   2 O :   -0.453697
   3 F :   -0.239319
   4 O :   -0.451854
   5 H :   -0.012409
   6 H :   -0.013062
   7 H :    0.002003

  Mayer bond orders larger than 0.100000
B(  0-C ,  1-S ) :   1.0052 B(  0-C ,  5-H ) :   0.9025 B(  0-C ,  6-H ) :   0.9058
B(  0-C ,  7-H ) :   0.9086 B(  1-S ,  2-O ) :   1.5462 B(  1-S ,  3-F ) :   0.7534
B(  1-S ,  4-O ) :   1.5429 B(  1-S ,  7-H ) :   0.1239

Dispersion correction           -0.005920403
FINAL SINGLE POINT ENERGY      -687.522926917849

DIPOLE MOMENT
-------------
                                X             Y             Z
Electronic contribution:     -3.29933       4.18842      -1.04068
Nuclear contribution   :      2.85578      -5.69854       0.39418
                        -----------------------------------------
Total Dipole Moment    :     -0.44354      -1.51012      -0.64650
                        -----------------------------------------
Magnitude (a.u.)       :      1.70151
Magnitude (Debye)      :      4.32491

Rotational constants in cm-1:     0.163257     0.155833     0.146211
Rotational constants in MHz :  4894.333085  4671.750883  4383.281537

                             ****ORCA TERMINATED NORMALLY****
TOTAL RUN TIME: 0 days 0 hours 0 minutes 3 seconds 451 msec
