                         Program Version 5.0.0 -  RELEASE  -
|  1> !PBE D3BJ RIJCOSX def2-SVPD def2/J TightSCF
|  2> *xyz 0 1
|  3> C          4.49059        1.15590       -2.46929
|  4> N          4.30539        1.22276       -3.90832
|  5> C          4.63192        2.24637       -4.67096
|  6> C          4.54169        2.14399       -5.98714
|  7> N          5.08409        3.39358       -4.11855
|  8> H          4.92067        3.57050       -3.13587
|  9> H          5.25465        4.19739       -4.70696
| 10> H          3.82453        0.44911       -4.35093
| 11> H          4.34337        1.24932       -6.41665
| 12> H          4.67671        2.95662       -6.57411
| 13> H          5.00867        2.03053       -2.13534
| 14> H          5.06354        0.28631       -2.22344
| 15> H          3.53600        1.10160       -1.98897
| 16> *
| 17>
| 18> %MaxCore 64000
| 19>
| 20> %pal nprocs 8
| 21> end
| 22>
| 23> %scf
| 24>   MaxIter 150
| 25> end
| 26>
| 27>
| 28>                          ****END OF INPUT****

CARTESIAN COORDINATES (ANGSTROEM)
---------------------------------
  C      4.490590    1.155900   -2.469290
  N      4.305390    1.222760   -3.908320
  C      4.631920    2.246370   -4.670960
  C      4.541690    2.143990   -5.987140
  N      5.084090    3.393580   -4.118550
  H      4.920670    3.570500   -3.135870
  H      5.254650    4.197390   -4.706960
  H      3.824530    0.449110   -4.350930
  H      4.343370    1.249320   -6.416650
  H      4.676710    2.956620   -6.574110
  H      5.008670    2.030530   -2.135340
  H      5.063540    0.286310   -2.223440
  H      3.536000    1.101600   -1.988970

 Total Charge           Charge          ....    0
 Multiplicity           Mult            ....    1
 Number of Electrons    NEL             ....   40
 Basis Dimension        Dim             ....  164

ORBITAL ENERGIES
----------------

  NO   OCC          E(Eh)            E(eV)
   0   2.0000     -14.003651      -381.0587
   1   2.0000     -13.998998      -380.9321
   2   2.0000      -9.933040      -270.2918
   3   2.0000      -9.926838      -270.1230
   4   2.0000      -9.806406      -266.8459
   5   2.0000      -0.877993       -23.8914
   6   2.0000      -0.795838       -21.6559
   7   2.0000      -0.671316       -18.2674
   8   2.0000      -0.595541       -16.2055
   9   2.0000      -0.545640       -14.8476
  10   2.0000      -0.485366       -13.2075
  11   2.0000      -0.443023       -12.0553
  12   2.0000      -0.428240       -11.6530
  13   2.0000      -0.404859       -11.0168
  14   2.0000      -0.364576        -9.9206
  15   2.0000      -0.346065        -9.4169
  16   2.0000      -0.336338        -9.1522
  17   2.0000      -0.314715        -8.5638
  18   2.0000      -0.212087        -5.7712
  19   2.0000      -0.130660        -3.5554
  20   0.0000      -0.005567        -0.1515
  21   0.0000       0.023821         0.6482
  22   0.0000       0.030284         0.8241
  23   0.0000       0.047948         1.3047
  24   0.0000       0.068615         1.8671

MULLIKEN ATOMIC CHARGES
-----------------------
   0 C :    1.305850
   1 N :   -0.533326
   2 C :    0.879167
   3 C :    0.292877
   4 N :    0.055511
   5 H :   -0.153834
   6 H :   -0.154045
   7 H :   -0.346876
   8 H :   -0.334480
   9 H :   -0.371618
  10 H :   -0.263660
  11 H :   -0.175105
  12 H :   -0.200461
Sum of atomic charges:   -0.0000000

LOEWDIN ATOMIC CHARGES
----------------------
   0 C :    0.214333
   1 N :   -0.034072
   2 C :   -0.251417
   3 C :    0.137853
   4 N :    0.206090
   5 H :   -0.037939
   6 H :    0.001910
   7 H :    0.036179
   8 H :   -0.100806
   9 H :   -0.102630
  10 H :   -0.035729
  11 H :   -0.016347
  12 H :   -0.017424

  Mayer bond orders larger than 0.100000
B(  0-C ,  1-N ) :   0.9148 B(  0-C ,  7-H ) :  -0.2019 B(  0-C , 10-H ) :   0.8190
B(  0-C , 11-H ) :   0.7402 B(  0-C , 12-H ) :   0.7642 B(  1-N ,  2-C ) :   1.0054
B(  1-N ,  3-C ) :   0.2738 B(  1-N ,  4-N ) :   0.2399 B(  1-N ,  7-H ) :   1.3462
B(  1-N , 10-H ) :   0.2245 B(  1-N , 11-H ) :   0.2029 B(  1-N , 12-H ) :   0.2011
B(  2-C ,  3-C ) :   1.2658 B(  2-C ,  4-N ) :   0.9126 B(  2-C ,  6-H ) :  -0.1075
B(  2-C ,  7-H ) :  -0.2415 B(  2-C ,  9-H ) :   0.1660 B(  3-C ,  4-N ) :   0.2504
B(  3-C ,  8-H ) :   0.8711 B(  3-C ,  9-H ) :   0.7944 B(  4-N ,  5-H ) :   1.0898
B(  4-N ,  6-H ) :   1.1875 B(  4-N , 10-H ) :   0.1003 B(  5-H ,  6-H ) :  -0.1486
B(  5-H , 10-H ) :   0.1031

Dispersion correction           -0.009428124
FINAL SINGLE POINT ENERGY      -228.153592480559

DIPOLE MOMENT
-------------
                                X             Y             Z
Electronic contribution:      0.09671       0.50089      -0.78448
Nuclear contribution   :     -0.24876      -0.46055       1.84019
                        -----------------------------------------
Total Dipole Moment    :     -0.15205       0.04034       1.05571
                        -----------------------------------------
Magnitude (a.u.)       :      1.06737
Magnitude (Debye)      :      2.71304

Rotational constants in cm-1:     0.322158     0.139919     0.099594
Rotational constants in MHz :  9658.057362  4194.660927  2985.745059

                             ****ORCA TERMINATED NORMALLY****
TOTAL RUN TIME: 0 days 0 hours 0 minutes 4 seconds 544 msec
