                         Program Version 5.0.0 -  RELEASE  -
|  1> !PBE D3BJ RIJCOSX def2-SVPD def2/J TightSCF
|  2> *xyz 0 1
|  3> C          3.51177       -2.80621       -6.49228
|  4> S          3.00462       -1.09621       -6.38926
|  5> O          4.12886       -0.32965       -6.95372
|  6> O          1.78128       -1.00078       -7.13640
|  7> F          2.85155       -0.78368       -4.95679
|  8> H          3.63615       -3.08010       -7.51913
|  9> H          2.76397       -3.42755       -6.04548
| 10> H          4.43892       -2.93511       -5.97393
| 11> *
| 12>
| 13> %MaxCore 64000
| 14>
| 15> %pal nprocs 8
| 16> end
| 17>
| 18> %scf
| 19>   MaxIter 150
| 20> end
| 21>
| 22>
| 23>                          ****END OF INPUT****

CARTESIAN COORDINATES (ANGSTROEM)
---------------------------------
  C      3.511770   -2.806210   -6.492280
  S      3.004620   -1.096210   -6.389260
  O      4.128860   -0.329650   -6.953720
  O      1.781280   -1.000780   -7.136400
  F      2.851550   -0.783680   -4.956790
  H      3.636150   -3.080100   -7.519130
  H      2.763970   -3.427550   -6.045480
  H      4.438920   -2.935110   -5.973930

 Total Charge           Charge          ....    0
 Multiplicity           Mult            ....    1
 Number of Electrons    NEL             ....   50
 Basis Dimension        Dim             ....  140

ORBITAL ENERGIES
----------------

  NO   OCC          E(Eh)            E(eV)
   0   2.0000     -88.315276     -2403.1808
   1   2.0000     -24.378360      -663.3689
   2   2.0000     -18.783493      -511.1248
   3   2.0000     -18.772537      -510.8267
   4   2.0000      -9.955915      -270.9142
   5   2.0000      -7.920179      -215.5190
   6   2.0000      -5.951249      -161.9417
   7   2.0000      -5.944938      -161.7700
   8   2.0000      -5.943847      -161.7403
   9   2.0000      -1.250480       -34.0273
  10   2.0000      -1.026960       -27.9450
  11   2.0000      -0.930019       -25.3071
  12   2.0000      -0.732335       -19.9279
  13   2.0000      -0.644157       -17.5284
  14   2.0000      -0.536899       -14.6098
  15   2.0000      -0.509777       -13.8717
  16   2.0000      -0.498198       -13.5566
  17   2.0000      -0.432834       -11.7780
  18   2.0000      -0.429518       -11.6878
  19   2.0000      -0.421143       -11.4599
  20   2.0000      -0.395206       -10.7541
  21   2.0000      -0.344785        -9.3821
  22   2.0000      -0.301892        -8.2149
  23   2.0000      -0.289668        -7.8823
  24   2.0000      -0.271312        -7.3828
  25   0.0000      -0.034022        -0.9258
  26   0.0000      -0.001141        -0.0310
  27   0.0000       0.013053         0.3552
  28   0.0000       0.031250         0.8504
  29   0.0000       0.031929         0.8688

MULLIKEN ATOMIC CHARGES
-----------------------
   0 C :    0.493706
   1 S :    1.116346
   2 O :   -0.608798
   3 O :   -0.572521
   4 F :   -0.347558
   5 H :   -0.028554
   6 H :   -0.027424
   7 H :   -0.025198
Sum of atomic charges:   -0.0000000

LOEWDIN ATOMIC CHARGES
----------------------
   0 C :    0.114880
   1 S :    1.053055
   2 O :   -0.453949
   3 O :   -0.437289
   4 F :   -0.253066
   5 H :    0.001574
   6 H :   -0.013353
   7 H :   -0.011852

  Mayer bond orders larger than 0.100000
B(  0-C ,  1-S ) :   1.0057 B(  0-C ,  5-H ) :   0.9028 B(  0-C ,  6-H ) :   0.9061
B(  0-C ,  7-H ) :   0.9091 B(  1-S ,  2-O ) :   1.5428 B(  1-S ,  3-O ) :   1.5722
B(  1-S ,  4-F ) :   0.7059 B(  1-S ,  5-H ) :   0.1163 B(  1-S ,  7-H ) :   0.1008
B(  2-O ,  3-O ) :   0.1003

Dispersion correction           -0.005922603
FINAL SINGLE POINT ENERGY      -687.537263548654

DIPOLE MOMENT
-------------
                                X             Y             Z
Electronic contribution:     -1.55981       4.53767       2.52673
Nuclear contribution   :      1.78651      -5.91544      -1.78339
                        -----------------------------------------
Total Dipole Moment    :      0.22670      -1.37777       0.74333
                        -----------------------------------------
Magnitude (a.u.)       :      1.58183
Magnitude (Debye)      :      4.02070

Rotational constants in cm-1:     0.165193     0.152051     0.147788
Rotational constants in MHz :  4952.361749  4558.380225  4430.570551

                             ****ORCA TERMINATED NORMALLY****
TOTAL RUN TIME: 0 days 0 hours 0 minutes 3 seconds 447 msec
