                         Program Version 5.0.0 -  RELEASE  -
|  1> !PBE D3BJ RIJCOSX def2-SVPD def2/J TightSCF
|  2> *xyz 0 1
|  3> C          4.49059        1.15590       -2.46929
|  4> N          4.30539        1.22276       -3.90832
|  5> C          4.63192        2.24637       -4.67096
|  6> N          4.54169        2.14399       -5.98714
|  7> C          5.08409        3.39358       -4.11855
|  8> H          4.92067        3.57050       -3.13587
|  9> H          5.25465        4.19739       -4.70696
| 10> H          3.82453        0.44911       -4.35093
| 11> H          4.34337        1.24932       -6.41665
| 12> H          4.67671        2.95662       -6.57411
| 13> H          5.00867        2.03053       -2.13534
| 14> H          5.06354        0.28631       -2.22344
| 15> H          3.53600        1.10160       -1.98897
| 16> *
| 17>
| 18> %MaxCore 64000
| 19>
| 20> %pal nprocs 8
| 21> end
| 22>
| 23> %scf
| 24>   MaxIter 150
| 25> end
| 26>
| 27>
| 28>                          ****END OF INPUT****

CARTESIAN COORDINATES (ANGSTROEM)
---------------------------------
  C      4.490590    1.155900   -2.469290
  N      4.305390    1.222760   -3.908320
  C      4.631920    2.246370   -4.670960
  N      4.541690    2.143990   -5.987140
  C      5.084090    3.393580   -4.118550
  H      4.920670    3.570500   -3.135870
  H      5.254650    4.197390   -4.706960
  H      3.824530    0.449110   -4.350930
  H      4.343370    1.249320   -6.416650
  H      4.676710    2.956620   -6.574110
  H      5.008670    2.030530   -2.135340
  H      5.063540    0.286310   -2.223440
  H      3.536000    1.101600   -1.988970

 Total Charge           Charge          ....    0
 Multiplicity           Mult            ....    1
 Number of Electrons    NEL             ....   40
 Basis Dimension        Dim             ....  164

ORBITAL ENERGIES
----------------

  NO   OCC          E(Eh)            E(eV)
   0   2.0000     -14.006601      -381.1390
   1   2.0000     -14.001971      -381.0130
   2   2.0000      -9.935877      -270.3690
   3   2.0000      -9.917111      -269.8583
   4   2.0000      -9.807439      -266.8740
   5   2.0000      -0.881416       -23.9846
   6   2.0000      -0.802218       -21.8295
   7   2.0000      -0.645955       -17.5773
   8   2.0000      -0.624491       -16.9933
   9   2.0000      -0.513907       -13.9841
  10   2.0000      -0.500920       -13.6307
  11   2.0000      -0.468863       -12.7584
  12   2.0000      -0.409294       -11.1374
  13   2.0000      -0.396951       -10.8016
  14   2.0000      -0.368319       -10.0225
  15   2.0000      -0.338253        -9.2043
  16   2.0000      -0.330679        -8.9982
  17   2.0000      -0.313423        -8.5287
  18   2.0000      -0.210055        -5.7159
  19   2.0000      -0.131437        -3.5766
  20   0.0000      -0.005010        -0.1363
  21   0.0000       0.021324         0.5803
  22   0.0000       0.033850         0.9211
  23   0.0000       0.044892         1.2216
  24   0.0000       0.062716         1.7066

MULLIKEN ATOMIC CHARGES
-----------------------
   0 C :    1.279200
   1 N :   -0.520015
   2 C :    0.812316
   3 N :    0.103818
   4 C :    0.236868
   5 H :   -0.183049
   6 H :   -0.483130
   7 H :   -0.418353
   8 H :   -0.207399
   9 H :   -0.061091
  10 H :   -0.209483
  11 H :   -0.155751
  12 H :   -0.193930
Sum of atomic charges:    0.0000000

LOEWDIN ATOMIC CHARGES
----------------------
   0 C :    0.222551
   1 N :   -0.042377
   2 C :   -0.252570
   3 N :    0.192342
   4 C :    0.155134
   5 H :   -0.123067
   6 H :   -0.107577
   7 H :    0.020157
   8 H :   -0.011264
   9 H :    0.007152
  10 H :   -0.032875
  11 H :   -0.014277
  12 H :   -0.013330

  Mayer bond orders larger than 0.100000
B(  0-C ,  1-N ) :   0.9056 B(  0-C ,  7-H ) :  -0.1830 B(  0-C , 10-H ) :   0.8419
B(  0-C , 11-H ) :   0.7097 B(  0-C , 12-H ) :   0.7347 B(  1-N ,  2-C ) :   0.9561
B(  1-N ,  3-N ) :   0.1874 B(  1-N ,  4-C ) :   0.3540 B(  1-N ,  7-H ) :   1.4060
B(  1-N , 10-H ) :   0.1798 B(  1-N , 11-H ) :   0.2400 B(  1-N , 12-H ) :   0.2222
B(  2-C ,  3-N ) :   0.9406 B(  2-C ,  4-C ) :   1.5572 B(  2-C ,  5-H ) :   0.1934
B(  2-C ,  6-H ) :   0.1346 B(  2-C ,  7-H ) :  -0.2828 B(  2-C ,  8-H ) :  -0.1153
B(  3-N ,  4-C ) :   0.2587 B(  3-N ,  8-H ) :   1.2272 B(  3-N ,  9-H ) :   1.1744
B(  4-C ,  5-H ) :   0.7143 B(  4-C ,  6-H ) :   0.9612 B(  5-H ,  6-H ) :   0.1215
B(  5-H , 10-H ) :   0.1612 B(  8-H ,  9-H ) :  -0.1746

Dispersion correction           -0.009466632
FINAL SINGLE POINT ENERGY      -228.152782857182

DIPOLE MOMENT
-------------
                                X             Y             Z
Electronic contribution:     -0.38337      -0.71585      -2.64397
Nuclear contribution   :     -0.13890      -0.20745       2.21867
                        -----------------------------------------
Total Dipole Moment    :     -0.52227      -0.92330      -0.42530
                        -----------------------------------------
Magnitude (a.u.)       :      1.14286
Magnitude (Debye)      :      2.90492

Rotational constants in cm-1:     0.339212     0.134625     0.098371
Rotational constants in MHz : 10169.318272  4035.946597  2949.073953

                             ****ORCA TERMINATED NORMALLY****
TOTAL RUN TIME: 0 days 0 hours 0 minutes 4 seconds 761 msec
