                         Program Version 5.0.0 -  RELEASE  -
|  1> !PBE D3BJ RIJCOSX def2-SVPD def2/J TightSCF xyzfile
|  2>
|  3> *xyzfile 0 1 D2.xyz
|  4>
|  5> %MaxCore 64000
|  6>
|  7> %pal nprocs 4
|  8> end
|  9>
| 10> %scf
| 11>   MaxIter 150
| 12> end
| 13>
| 14>
| 15>                          ****END OF INPUT****

CARTESIAN COORDINATES (ANGSTROEM)
---------------------------------
  C      4.490588    1.155899   -2.469290
  N      4.305394    1.222762   -3.908317
  C      4.906458   -3.102816   -5.954844
  C      3.511771   -2.806215   -6.492283
  H      2.736044   -3.373445   -5.973736
  H      3.444904   -3.040831   -7.555281
  S      3.004618   -1.096206   -6.389259
  C      4.631918    2.246365   -4.670958
  C      4.541686    2.143990   -5.987139
  N      5.084086    3.393584   -4.118545
  H      4.920675    3.570501   -3.135870
  H      5.254652    4.197390   -4.706956
  H      3.824530    0.449113   -4.350926
  H      4.343373    1.249318   -6.416646
  H      4.676712    2.956624   -6.574113
  F      4.128856   -0.329647   -6.953717
  O      1.781285   -1.000779   -7.136399
  C      5.942129    0.939500   -2.036893
  H      3.864305    0.328532   -2.136611
  H      4.076233    2.049994   -1.989010
  C      6.462677   -3.117775   -3.944671
  C      5.024977   -3.025679   -4.437625
  H      4.423321   -3.818693   -3.977648
  H      4.579350   -2.087131   -4.108727
  H      5.201533   -4.100207   -6.296905
  H      5.605922   -2.397822   -6.413368
  C      6.559957   -0.356290   -2.559086
  H      5.967976    0.952567   -0.942444
  H      6.547184    1.788331   -2.368849
  C      6.006283   -1.615917   -1.899301
  H      7.642360   -0.318000   -2.402059
  H      6.414855   -0.403433   -3.642587
  C      6.608718   -2.917014   -2.435655
  H      6.190324   -1.561115   -0.820948
  H      4.919250   -1.651245   -2.016586
  H      7.066975   -2.374258   -4.475514
  H      6.887808   -4.089747   -4.215332
  H      6.135197   -3.755573   -1.915159
  H      7.671142   -2.955503   -2.172291
  O      2.851546   -0.783683   -4.956789

 Total Charge           Charge          ....    0
 Multiplicity           Mult            ....    1
 Number of Electrons    NEL             ....  144
 Basis Dimension        Dim             ....  540

ORBITAL ENERGIES
----------------

  NO   OCC          E(Eh)            E(eV)
   0   2.0000     -88.320958     -2403.3354
   1   2.0000     -24.380517      -663.4276
   2   2.0000     -18.788556      -511.2626
   3   2.0000     -18.786827      -511.2155
   4   2.0000     -13.988559      -380.6480
   5   2.0000     -13.974076      -380.2539
   6   2.0000      -9.962343      -271.0891
   7   2.0000      -9.929718      -270.2014
   8   2.0000      -9.919970      -269.9361
   9   2.0000      -9.918981      -269.9092
  10   2.0000      -9.903874      -269.4981
  11   2.0000      -9.899415      -269.3768
  12   2.0000      -9.895180      -269.2615
  13   2.0000      -9.890588      -269.1366
  14   2.0000      -9.886695      -269.0307
  15   2.0000      -9.885870      -269.0082
  16   2.0000      -9.792864      -266.4774
  17   2.0000      -7.924699      -215.6420
  18   2.0000      -5.955927      -162.0690
  19   2.0000      -5.949936      -161.9060
  20   2.0000      -5.947918      -161.8511
  21   2.0000      -1.255606       -34.1668
  22   2.0000      -1.034732       -28.1565
  23   2.0000      -0.941576       -25.6216
  24   2.0000      -0.862097       -23.4589
  25   2.0000      -0.783164       -21.3110
  26   2.0000      -0.770177       -20.9576
  27   2.0000      -0.736211       -20.0333
  28   2.0000      -0.709085       -19.2952
  29   2.0000      -0.677820       -18.4444
  30   2.0000      -0.658137       -17.9088
  31   2.0000      -0.633224       -17.2309
  32   2.0000      -0.610256       -16.6059
  33   2.0000      -0.581839       -15.8327
  34   2.0000      -0.561192       -15.2708
  35   2.0000      -0.541709       -14.7407
  36   2.0000      -0.531603       -14.4656
  37   2.0000      -0.522454       -14.2167
  38   2.0000      -0.519607       -14.1392
  39   2.0000      -0.499738       -13.5986
  40   2.0000      -0.496832       -13.5195
  41   2.0000      -0.465785       -12.6747
  42   2.0000      -0.450636       -12.2624
  43   2.0000      -0.443026       -12.0554
  44   2.0000      -0.435352       -11.8465
  45   2.0000      -0.431120       -11.7314
  46   2.0000      -0.420871       -11.4525
  47   2.0000      -0.417121       -11.3504
  48   2.0000      -0.412533       -11.2256
  49   2.0000      -0.397484       -10.8161
  50   2.0000      -0.391373       -10.6498
  51   2.0000      -0.386927       -10.5288
  52   2.0000      -0.375703       -10.2234
  53   2.0000      -0.354556        -9.6479
  54   2.0000      -0.350981        -9.5507
  55   2.0000      -0.348987        -9.4964
  56   2.0000      -0.339957        -9.2507
  57   2.0000      -0.329483        -8.9657
  58   2.0000      -0.326422        -8.8824
  59   2.0000      -0.321306        -8.7432
  60   2.0000      -0.314791        -8.5659
  61   2.0000      -0.307965        -8.3801
  62   2.0000      -0.303095        -8.2476
  63   2.0000      -0.297956        -8.1078
  64   2.0000      -0.294535        -8.0147
  65   2.0000      -0.286365        -7.7924
  66   2.0000      -0.283430        -7.7125
  67   2.0000      -0.275258        -7.4901
  68   2.0000      -0.273737        -7.4488
  69   2.0000      -0.270695        -7.3660
  70   2.0000      -0.198809        -5.4099
  71   2.0000      -0.120319        -3.2740
  72   0.0000      -0.033441        -0.9100
  73   0.0000      -0.003987        -0.1085
  74   0.0000       0.001781         0.0485
  75   0.0000       0.004423         0.1204
  76   0.0000       0.005841         0.1589

MULLIKEN ATOMIC CHARGES
-----------------------
   0 C :    1.028393
   1 N :    0.269204
   2 C :    0.249264
   3 C :    0.290241
   4 H :    0.035312
   5 H :   -0.018953
   6 S :    1.315007
   7 C :    1.044515
   8 C :    0.588508
   9 N :    0.264888
  10 H :   -0.079493
  11 H :   -0.246475
  12 H :   -1.033319
  13 H :   -0.428251
  14 H :   -0.662993
  15 F :   -0.463183
  16 O :   -0.659824
  17 C :    0.298409
  18 H :   -0.314537
  19 H :   -0.197592
  20 C :    0.003888
  21 C :    0.203851
  22 H :    0.046677
  23 H :   -0.444543
  24 H :   -0.118442
  25 H :    0.042051
  26 C :    0.128477
  27 H :   -0.169626
  28 H :   -0.039172
  29 C :   -0.182390
  30 H :   -0.170931
  31 H :   -0.092747
  32 C :    0.659750
  33 H :   -0.368225
  34 H :    0.193298
  35 H :    0.144303
  36 H :   -0.357800
  37 H :   -0.039732
  38 H :    0.007284
  39 O :   -0.725093
Sum of atomic charges:    0.0000000

LOEWDIN ATOMIC CHARGES
----------------------
   0 C :    0.056564
   1 N :    0.023701
   2 C :   -0.036792
   3 C :   -0.045598
   4 H :    0.042699
   5 H :    0.026436
   6 S :    1.114990
   7 C :   -0.220075
   8 C :    0.168729
   9 N :    0.215149
  10 H :   -0.030390
  11 H :   -0.000863
  12 H :   -0.094168
  13 H :   -0.166514
  14 H :   -0.096443
  15 F :   -0.250544
  16 O :   -0.409726
  17 C :   -0.023558
  18 H :    0.018457
  19 H :    0.009875
  20 C :   -0.037531
  21 C :   -0.030581
  22 H :    0.043938
  23 H :   -0.015180
  24 H :    0.038116
  25 H :    0.029480
  26 C :   -0.033201
  27 H :    0.020417
  28 H :    0.011230
  29 C :   -0.039888
  30 H :    0.027521
  31 H :    0.009959
  32 C :   -0.031146
  33 H :    0.025292
  34 H :    0.007699
  35 H :    0.019609
  36 H :    0.024850
  37 H :    0.023030
  38 H :    0.024249
  39 O :   -0.419790

  Mayer bond orders larger than 0.100000
B(  0-C ,  1-N ) :   0.9912 B(  0-C , 12-H ) :  -0.5181 B(  0-C , 17-C ) :   1.1093
B(  0-C , 18-H ) :   0.6118 B(  0-C , 19-H ) :   0.8257 B(  0-C , 26-C ) :   0.1492
B(  0-C , 27-H ) :   0.1288 B(  0-C , 28-H ) :   0.1075 B(  1-N ,  7-C ) :   1.1349
B(  1-N ,  8-C ) :   0.1681 B(  1-N ,  9-N ) :   0.3468 B(  1-N , 12-H ) :   0.8848
B(  1-N , 18-H ) :   0.2779 B(  2-C ,  3-C ) :   1.2269 B(  2-C ,  5-H ) :   0.2465
B(  2-C , 20-C ) :   0.1286 B(  2-C , 21-C ) :   1.1437 B(  2-C , 22-H ) :   0.1154
B(  2-C , 24-H ) :   0.8045 B(  2-C , 25-H ) :   0.8249 B(  3-C ,  4-H ) :   0.8854
B(  3-C ,  5-H ) :   0.7334 B(  3-C ,  6-S ) :   0.9968 B(  3-C , 16-O ) :   0.1012
B(  3-C , 21-C ) :   0.1097 B(  3-C , 25-H ) :   0.1037 B(  6-S , 15-F ) :   0.6668
B(  6-S , 16-O ) :   1.4608 B(  6-S , 39-O ) :   1.4280 B(  7-C ,  8-C ) :   1.1798
B(  7-C ,  9-N ) :   0.7936 B(  7-C , 12-H ) :  -0.8020 B(  7-C , 14-H ) :   0.2168
B(  8-C ,  9-N ) :   0.3338 B(  8-C , 13-H ) :   0.3244 B(  8-C , 14-H ) :   0.7539
B(  9-N , 10-H ) :   0.9754 B(  9-N , 11-H ) :   1.2285 B( 10-H , 11-H ) :  -0.1916
B( 12-H , 39-O ) :   0.1180 B( 13-H , 14-H ) :  -0.1908 B( 13-H , 15-F ) :   0.2277
B( 16-O , 39-O ) :   0.1685 B( 17-C , 18-H ) :   0.1236 B( 17-C , 19-H ) :   0.1179
B( 17-C , 26-C ) :   1.2312 B( 17-C , 27-H ) :   0.9172 B( 17-C , 28-H ) :   0.6980
B( 17-C , 31-H ) :   0.1366 B( 18-H , 19-H ) :  -0.1926 B( 20-C , 21-C ) :   1.2358
B( 20-C , 22-H ) :   0.1216 B( 20-C , 23-H ) :   0.1286 B( 20-C , 29-C ) :   0.1573
B( 20-C , 32-C ) :   1.1555 B( 20-C , 35-H ) :   0.8215 B( 20-C , 36-H ) :   0.9382
B( 20-C , 37-H ) :   0.1219 B( 20-C , 38-H ) :   0.2306 B( 21-C , 22-H ) :   0.6977
B( 21-C , 23-H ) :   0.8600 B( 21-C , 24-H ) :   0.1997 B( 21-C , 25-H ) :   0.1113
B( 21-C , 35-H ) :   0.1029 B( 21-C , 36-H ) :   0.2090 B( 22-H , 23-H ) :   0.1767
B( 23-H , 34-H ) :   0.1281 B( 26-C , 28-H ) :   0.2169 B( 26-C , 29-C ) :   1.2451
B( 26-C , 30-H ) :   0.8402 B( 26-C , 31-H ) :   0.8896 B( 26-C , 33-H ) :   0.1511
B( 26-C , 34-H ) :   0.1024 B( 27-H , 28-H ) :  -0.1106 B( 29-C , 30-H ) :   0.1675
B( 29-C , 31-H ) :   0.1199 B( 29-C , 32-C ) :   1.1479 B( 29-C , 33-H ) :   1.0279
B( 29-C , 34-H ) :   0.7980 B( 29-C , 37-H ) :   0.2982 B( 29-C , 38-H ) :   0.1439
B( 32-C , 37-H ) :   0.6357 B( 32-C , 38-H ) :   0.6672 B( 37-H , 38-H ) :  -0.1091

Dispersion correction           -0.048514984
FINAL SINGLE POINT ENERGY     -1189.147314927939

DIPOLE MOMENT
-------------
                                X             Y             Z
Electronic contribution:    -16.41211       3.97755     -19.60383
Nuclear contribution   :     17.27667      -5.32157      20.03034
                        -----------------------------------------
Total Dipole Moment    :      0.86456      -1.34401       0.42651
                        -----------------------------------------
Magnitude (a.u.)       :      1.65401
Magnitude (Debye)      :      4.20415

Rotational constants in cm-1:     0.014355     0.012269     0.007481
Rotational constants in MHz :   430.360270   367.823451   224.273399

                             ****ORCA TERMINATED NORMALLY****
TOTAL RUN TIME: 0 days 0 hours 1 minutes 12 seconds 227 msec
