                         Program Version 5.0.0 -  RELEASE  -
|  1> !PBE D3BJ RIJCOSX def2-SVPD def2/J TightSCF xyzfile
|  2>
|  3> *xyzfile 0 1 D3.xyz
|  4>
|  5> %MaxCore 64000
|  6>
|  7> %pal nprocs 4
|  8> end
|  9>
| 10> %scf
| 11>   MaxIter 150
| 12> end
| 13>
| 14>
| 15>                          ****END OF INPUT****

CARTESIAN COORDINATES (ANGSTROEM)
---------------------------------
  C      4.490588    1.155899   -2.469290
  N      4.305394    1.222762   -3.908317
  C      4.906458   -3.102816   -5.954844
  C      3.511771   -2.806215   -6.492283
  H      2.736044   -3.373445   -5.973736
  H      3.444904   -3.040831   -7.555281
  S      3.004618   -1.096206   -6.389259
  C      4.631918    2.246365   -4.670958
  N      4.541686    2.143990   -5.987139
  C      5.084086    3.393584   -4.118545
  H      4.920675    3.570501   -3.135870
  H      5.254652    4.197390   -4.706956
  H      3.824530    0.449113   -4.350926
  H      4.343373    1.249318   -6.416646
  H      4.676712    2.956624   -6.574113
  F      4.128856   -0.329647   -6.953717
  O      1.781285   -1.000779   -7.136399
  C      5.942129    0.939500   -2.036893
  H      3.864305    0.328532   -2.136611
  H      4.076233    2.049994   -1.989010
  C      6.462677   -3.117775   -3.944671
  C      5.024977   -3.025679   -4.437625
  H      4.423321   -3.818693   -3.977648
  H      4.579350   -2.087131   -4.108727
  H      5.201533   -4.100207   -6.296905
  H      5.605922   -2.397822   -6.413368
  C      6.559957   -0.356290   -2.559086
  H      5.967976    0.952567   -0.942444
  H      6.547184    1.788331   -2.368849
  C      6.006283   -1.615917   -1.899301
  H      7.642360   -0.318000   -2.402059
  H      6.414855   -0.403433   -3.642587
  C      6.608718   -2.917014   -2.435655
  H      6.190324   -1.561115   -0.820948
  H      4.919250   -1.651245   -2.016586
  H      7.066975   -2.374258   -4.475514
  H      6.887808   -4.089747   -4.215332
  H      6.135197   -3.755573   -1.915159
  H      7.671142   -2.955503   -2.172291
  O      2.851546   -0.783683   -4.956789

 Total Charge           Charge          ....    0
 Multiplicity           Mult            ....    1
 Number of Electrons    NEL             ....  144
 Basis Dimension        Dim             ....  540

ORBITAL ENERGIES
----------------

  NO   OCC          E(Eh)            E(eV)
   0   2.0000     -88.335827     -2403.7401
   1   2.0000     -24.407848      -664.1713
   2   2.0000     -18.804063      -511.6846
   3   2.0000     -18.800925      -511.5992
   4   2.0000     -13.986331      -380.5874
   5   2.0000     -13.975737      -380.2991
   6   2.0000      -9.974203      -271.4118
   7   2.0000      -9.938092      -270.4292
   8   2.0000      -9.919287      -269.9175
   9   2.0000      -9.910641      -269.6823
  10   2.0000      -9.909044      -269.6388
  11   2.0000      -9.902244      -269.4538
  12   2.0000      -9.895397      -269.2674
  13   2.0000      -9.888447      -269.0783
  14   2.0000      -9.882416      -268.9142
  15   2.0000      -9.876218      -268.7456
  16   2.0000      -9.794815      -266.5305
  17   2.0000      -7.940095      -216.0610
  18   2.0000      -5.971527      -162.4935
  19   2.0000      -5.965172      -162.3206
  20   2.0000      -5.963063      -162.2632
  21   2.0000      -1.281621       -34.8747
  22   2.0000      -1.050735       -28.5920
  23   2.0000      -0.956290       -26.0220
  24   2.0000      -0.864455       -23.5230
  25   2.0000      -0.788714       -21.4620
  26   2.0000      -0.780200       -21.2303
  27   2.0000      -0.738793       -20.1036
  28   2.0000      -0.707972       -19.2649
  29   2.0000      -0.686291       -18.6749
  30   2.0000      -0.659912       -17.9571
  31   2.0000      -0.630210       -17.1489
  32   2.0000      -0.617854       -16.8127
  33   2.0000      -0.592343       -16.1185
  34   2.0000      -0.568194       -15.4613
  35   2.0000      -0.554538       -15.0897
  36   2.0000      -0.545213       -14.8360
  37   2.0000      -0.532694       -14.4953
  38   2.0000      -0.523120       -14.2348
  39   2.0000      -0.502997       -13.6873
  40   2.0000      -0.484780       -13.1915
  41   2.0000      -0.475958       -12.9515
  42   2.0000      -0.467063       -12.7094
  43   2.0000      -0.453065       -12.3285
  44   2.0000      -0.447184       -12.1685
  45   2.0000      -0.434162       -11.8142
  46   2.0000      -0.427366       -11.6292
  47   2.0000      -0.419210       -11.4073
  48   2.0000      -0.411616       -11.2006
  49   2.0000      -0.401373       -10.9219
  50   2.0000      -0.391226       -10.6458
  51   2.0000      -0.387868       -10.5544
  52   2.0000      -0.375637       -10.2216
  53   2.0000      -0.364425        -9.9165
  54   2.0000      -0.352164        -9.5829
  55   2.0000      -0.347318        -9.4510
  56   2.0000      -0.342851        -9.3294
  57   2.0000      -0.334445        -9.1007
  58   2.0000      -0.325964        -8.8699
  59   2.0000      -0.324159        -8.8208
  60   2.0000      -0.316586        -8.6147
  61   2.0000      -0.309887        -8.4325
  62   2.0000      -0.308429        -8.3928
  63   2.0000      -0.302681        -8.2364
  64   2.0000      -0.296519        -8.0687
  65   2.0000      -0.290553        -7.9063
  66   2.0000      -0.289369        -7.8741
  67   2.0000      -0.275581        -7.4989
  68   2.0000      -0.273438        -7.4406
  69   2.0000      -0.265571        -7.2265
  70   2.0000      -0.193981        -5.2785
  71   2.0000      -0.119635        -3.2554
  72   0.0000      -0.050748        -1.3809
  73   0.0000      -0.013457        -0.3662
  74   0.0000      -0.005664        -0.1541
  75   0.0000      -0.002711        -0.0738
  76   0.0000       0.003581         0.0974

MULLIKEN ATOMIC CHARGES
-----------------------
   0 C :    0.988569
   1 N :    0.387981
   2 C :    0.251094
   3 C :    0.294105
   4 H :    0.045130
   5 H :   -0.009038
   6 S :    1.273047
   7 C :    0.614411
   8 N :    0.644526
   9 C :    0.467479
  10 H :    0.125175
  11 H :   -0.689896
  12 H :   -1.234330
  13 H :   -0.445751
  14 H :   -0.218056
  15 F :   -0.437164
  16 O :   -0.641464
  17 C :    0.321515
  18 H :   -0.335335
  19 H :   -0.107376
  20 C :   -0.004795
  21 C :    0.212180
  22 H :    0.044493
  23 H :   -0.445951
  24 H :   -0.119218
  25 H :    0.043778
  26 C :    0.087107
  27 H :   -0.136873
  28 H :   -0.042556
  29 C :   -0.191126
  30 H :   -0.173402
  31 H :   -0.093263
  32 C :    0.666346
  33 H :   -0.364000
  34 H :    0.188102
  35 H :    0.151222
  36 H :   -0.361956
  37 H :   -0.040671
  38 H :    0.009039
  39 O :   -0.723077
Sum of atomic charges:    0.0000000

LOEWDIN ATOMIC CHARGES
----------------------
   0 C :    0.063622
   1 N :    0.020802
   2 C :   -0.036829
   3 C :   -0.042780
   4 H :    0.045135
   5 H :    0.027148
   6 S :    1.114982
   7 C :   -0.228397
   8 N :    0.221115
   9 C :    0.160784
  10 H :   -0.116185
  11 H :   -0.109993
  12 H :   -0.103237
  13 H :   -0.094661
  14 H :    0.010589
  15 F :   -0.244966
  16 O :   -0.405633
  17 C :   -0.015761
  18 H :    0.017006
  19 H :    0.018048
  20 C :   -0.037548
  21 C :   -0.030297
  22 H :    0.044633
  23 H :   -0.014967
  24 H :    0.039524
  25 H :    0.028424
  26 C :   -0.035208
  27 H :    0.022851
  28 H :    0.012421
  29 C :   -0.040437
  30 H :    0.027235
  31 H :    0.005916
  32 C :   -0.031234
  33 H :    0.025900
  34 H :    0.007010
  35 H :    0.019186
  36 H :    0.024780
  37 H :    0.022713
  38 H :    0.024645
  39 O :   -0.416336

  Mayer bond orders larger than 0.100000
B(  0-C ,  1-N ) :   1.0452 B(  0-C , 10-H ) :   0.1190 B(  0-C , 12-H ) :  -0.5532
B(  0-C , 17-C ) :   1.0969 B(  0-C , 18-H ) :   0.6850 B(  0-C , 19-H ) :   0.8251
B(  0-C , 26-C ) :   0.1442 B(  0-C , 27-H ) :   0.1124 B(  0-C , 28-H ) :   0.1011
B(  1-N ,  7-C ) :   1.0130 B(  1-N ,  9-C ) :   0.3137 B(  1-N , 11-H ) :   0.1423
B(  1-N , 12-H ) :   0.6609 B(  1-N , 13-H ) :   0.1775 B(  1-N , 14-H ) :  -0.1281
B(  1-N , 18-H ) :   0.3037 B(  2-C ,  3-C ) :   1.2288 B(  2-C ,  5-H ) :   0.2542
B(  2-C , 20-C ) :   0.1292 B(  2-C , 21-C ) :   1.1393 B(  2-C , 22-H ) :   0.1118
B(  2-C , 24-H ) :   0.8112 B(  2-C , 25-H ) :   0.8166 B(  3-C ,  4-H ) :   0.8785
B(  3-C ,  5-H ) :   0.7229 B(  3-C ,  6-S ) :   1.0203 B(  3-C , 21-C ) :   0.1143
B(  3-C , 25-H ) :   0.1062 B(  6-S , 15-F ) :   0.6258 B(  6-S , 16-O ) :   1.4979
B(  6-S , 39-O ) :   1.4567 B(  7-C ,  8-N ) :   0.9618 B(  7-C ,  9-C ) :   1.5385
B(  7-C , 10-H ) :   0.3731 B(  7-C , 11-H ) :   0.3965 B(  7-C , 12-H ) :  -0.7765
B(  7-C , 13-H ) :  -0.1944 B(  7-C , 14-H ) :  -0.1085 B(  7-C , 18-H ) :   0.1368
B(  8-N ,  9-C ) :   0.2348 B(  8-N , 13-H ) :   0.8780 B(  8-N , 14-H ) :   1.2651
B(  9-C , 10-H ) :   0.5141 B(  9-C , 11-H ) :   0.6445 B( 10-H , 13-H ) :   0.1693
B( 10-H , 18-H ) :  -0.1178 B( 10-H , 19-H ) :   0.1307 B( 11-H , 12-H ) :  -0.1303
B( 12-H , 39-O ) :   0.1837 B( 13-H , 14-H ) :  -0.2481 B( 13-H , 15-F ) :   0.2043
B( 16-O , 39-O ) :   0.1726 B( 17-C , 18-H ) :   0.1234 B( 17-C , 26-C ) :   1.2087
B( 17-C , 27-H ) :   0.8863 B( 17-C , 28-H ) :   0.7389 B( 17-C , 31-H ) :   0.1350
B( 18-H , 19-H ) :  -0.2241 B( 20-C , 21-C ) :   1.2389 B( 20-C , 22-H ) :   0.1207
B( 20-C , 23-H ) :   0.1291 B( 20-C , 29-C ) :   0.1575 B( 20-C , 32-C ) :   1.1552
B( 20-C , 35-H ) :   0.8201 B( 20-C , 36-H ) :   0.9440 B( 20-C , 37-H ) :   0.1240
B( 20-C , 38-H ) :   0.2305 B( 21-C , 22-H ) :   0.6992 B( 21-C , 23-H ) :   0.8530
B( 21-C , 24-H ) :   0.1952 B( 21-C , 25-H ) :   0.1114 B( 21-C , 35-H ) :   0.1070
B( 21-C , 36-H ) :   0.2100 B( 22-H , 23-H ) :   0.1775 B( 23-H , 34-H ) :   0.1245
B( 26-C , 27-H ) :   0.1129 B( 26-C , 28-H ) :   0.2192 B( 26-C , 29-C ) :   1.2437
B( 26-C , 30-H ) :   0.8511 B( 26-C , 31-H ) :   0.8974 B( 26-C , 33-H ) :   0.1526
B( 26-C , 34-H ) :   0.1098 B( 27-H , 28-H ) :  -0.1369 B( 29-C , 30-H ) :   0.1684
B( 29-C , 31-H ) :   0.1305 B( 29-C , 32-C ) :   1.1475 B( 29-C , 33-H ) :   1.0275
B( 29-C , 34-H ) :   0.8042 B( 29-C , 37-H ) :   0.3026 B( 29-C , 38-H ) :   0.1443
B( 32-C , 37-H ) :   0.6327 B( 32-C , 38-H ) :   0.6684 B( 37-H , 38-H ) :  -0.1093

Dispersion correction           -0.048456167
FINAL SINGLE POINT ENERGY     -1189.150015447198

DIPOLE MOMENT
-------------
                                X             Y             Z
Electronic contribution:    -16.91280       2.73429     -21.28768
Nuclear contribution   :     17.35766      -5.13497      20.30937
                        -----------------------------------------
Total Dipole Moment    :      0.44486      -2.40067      -0.97831
                        -----------------------------------------
Magnitude (a.u.)       :      2.63025
Magnitude (Debye)      :      6.68557

Rotational constants in cm-1:     0.014431     0.012329     0.007535
Rotational constants in MHz :   432.628327   369.619539   225.898827

                             ****ORCA TERMINATED NORMALLY****
TOTAL RUN TIME: 0 days 0 hours 1 minutes 23 seconds 677 msec
