                         Program Version 5.0.0 -  RELEASE  -
|  1> !PBE D3BJ RIJCOSX def2-SVPD def2/J TightSCF xyzfile
|  2>
|  3> *xyzfile 0 1 D5.xyz
|  4>
|  5> %MaxCore 64000
|  6>
|  7> %pal nprocs 4
|  8> end
|  9>
| 10> %scf
| 11>   MaxIter 150
| 12> end
| 13>
| 14>
| 15>                          ****END OF INPUT****

CARTESIAN COORDINATES (ANGSTROEM)
---------------------------------
  C      4.490588    1.155899   -2.469290
  N      4.305394    1.222762   -3.908317
  C      4.906458   -3.102816   -5.954844
  C      3.511771   -2.806215   -6.492283
  H      2.736044   -3.373445   -5.973736
  H      3.444904   -3.040831   -7.555281
  S      3.004618   -1.096206   -6.389259
  C      4.631918    2.246365   -4.670958
  C      4.541686    2.143990   -5.987139
  N      5.084086    3.393584   -4.118545
  H      4.920675    3.570501   -3.135870
  H      5.254652    4.197390   -4.706956
  H      3.824530    0.449113   -4.350926
  H      4.343373    1.249318   -6.416646
  H      4.676712    2.956624   -6.574113
  O      4.128856   -0.329647   -6.953717
  F      1.781285   -1.000779   -7.136399
  C      5.942129    0.939500   -2.036893
  H      3.864305    0.328532   -2.136611
  H      4.076233    2.049994   -1.989010
  C      6.462677   -3.117775   -3.944671
  C      5.024977   -3.025679   -4.437625
  H      4.423321   -3.818693   -3.977648
  H      4.579350   -2.087131   -4.108727
  H      5.201533   -4.100207   -6.296905
  H      5.605922   -2.397822   -6.413368
  C      6.559957   -0.356290   -2.559086
  H      5.967976    0.952567   -0.942444
  H      6.547184    1.788331   -2.368849
  C      6.006283   -1.615917   -1.899301
  H      7.642360   -0.318000   -2.402059
  H      6.414855   -0.403433   -3.642587
  C      6.608718   -2.917014   -2.435655
  H      6.190324   -1.561115   -0.820948
  H      4.919250   -1.651245   -2.016586
  H      7.066975   -2.374258   -4.475514
  H      6.887808   -4.089747   -4.215332
  H      6.135197   -3.755573   -1.915159
  H      7.671142   -2.955503   -2.172291
  O      2.851546   -0.783683   -4.956789

 Total Charge           Charge          ....    0
 Multiplicity           Mult            ....    1
 Number of Electrons    NEL             ....  144
 Basis Dimension        Dim             ....  540

ORBITAL ENERGIES
----------------

  NO   OCC          E(Eh)            E(eV)
   0   2.0000     -88.325357     -2403.4551
   1   2.0000     -24.402140      -664.0160
   2   2.0000     -18.789156      -511.2789
   3   2.0000     -18.778775      -510.9964
   4   2.0000     -13.975990      -380.3060
   5   2.0000     -13.963089      -379.9550
   6   2.0000      -9.964880      -271.1582
   7   2.0000      -9.927390      -270.1380
   8   2.0000      -9.911201      -269.6975
   9   2.0000      -9.903767      -269.4952
  10   2.0000      -9.900501      -269.4063
  11   2.0000      -9.895151      -269.2608
  12   2.0000      -9.891060      -269.1494
  13   2.0000      -9.885674      -269.0029
  14   2.0000      -9.879849      -268.8444
  15   2.0000      -9.878591      -268.8101
  16   2.0000      -9.770331      -265.8642
  17   2.0000      -7.929134      -215.7627
  18   2.0000      -5.960503      -162.1935
  19   2.0000      -5.954143      -162.0205
  20   2.0000      -5.952246      -161.9689
  21   2.0000      -1.286062       -34.9955
  22   2.0000      -1.028311       -27.9818
  23   2.0000      -0.930081       -25.3088
  24   2.0000      -0.849750       -23.1229
  25   2.0000      -0.771795       -21.0016
  26   2.0000      -0.767896       -20.8955
  27   2.0000      -0.732724       -19.9384
  28   2.0000      -0.706612       -19.2279
  29   2.0000      -0.680622       -18.5207
  30   2.0000      -0.657056       -17.8794
  31   2.0000      -0.630362       -17.1530
  32   2.0000      -0.601944       -16.3797
  33   2.0000      -0.577017       -15.7014
  34   2.0000      -0.557040       -15.1578
  35   2.0000      -0.540638       -14.7115
  36   2.0000      -0.531983       -14.4760
  37   2.0000      -0.528232       -14.3739
  38   2.0000      -0.518249       -14.1023
  39   2.0000      -0.503295       -13.6954
  40   2.0000      -0.489967       -13.3327
  41   2.0000      -0.461719       -12.5640
  42   2.0000      -0.454416       -12.3653
  43   2.0000      -0.441858       -12.0236
  44   2.0000      -0.429420       -11.6851
  45   2.0000      -0.425442       -11.5769
  46   2.0000      -0.416190       -11.3251
  47   2.0000      -0.414247       -11.2722
  48   2.0000      -0.402175       -10.9437
  49   2.0000      -0.398644       -10.8477
  50   2.0000      -0.385803       -10.4982
  51   2.0000      -0.379811       -10.3352
  52   2.0000      -0.368799       -10.0355
  53   2.0000      -0.352929        -9.6037
  54   2.0000      -0.344794        -9.3823
  55   2.0000      -0.343142        -9.3374
  56   2.0000      -0.333578        -9.0771
  57   2.0000      -0.327424        -8.9097
  58   2.0000      -0.316895        -8.6232
  59   2.0000      -0.313815        -8.5393
  60   2.0000      -0.311960        -8.4889
  61   2.0000      -0.302729        -8.2377
  62   2.0000      -0.296664        -8.0726
  63   2.0000      -0.292170        -7.9503
  64   2.0000      -0.283961        -7.7270
  65   2.0000      -0.276353        -7.5199
  66   2.0000      -0.272287        -7.4093
  67   2.0000      -0.269579        -7.3356
  68   2.0000      -0.265143        -7.2149
  69   2.0000      -0.248858        -6.7718
  70   2.0000      -0.187284        -5.0963
  71   2.0000      -0.103997        -2.8299
  72   0.0000      -0.033352        -0.9075
  73   0.0000      -0.014981        -0.4076
  74   0.0000       0.005364         0.1460
  75   0.0000       0.006776         0.1844
  76   0.0000       0.010560         0.2873

MULLIKEN ATOMIC CHARGES
-----------------------
   0 C :    1.038958
   1 N :    0.223107
   2 C :    0.176743
   3 C :    0.262482
   4 H :    0.038548
   5 H :    0.015847
   6 S :    1.484155
   7 C :    1.013717
   8 C :    0.496854
   9 N :    0.252687
  10 H :   -0.082287
  11 H :   -0.248001
  12 H :   -0.999675
  13 H :   -0.312297
  14 H :   -0.698817
  15 O :   -0.673715
  16 F :   -0.479405
  17 C :    0.291174
  18 H :   -0.321140
  19 H :   -0.198171
  20 C :   -0.000554
  21 C :    0.168145
  22 H :    0.044326
  23 H :   -0.444137
  24 H :   -0.095094
  25 H :    0.077934
  26 C :    0.141851
  27 H :   -0.176359
  28 H :   -0.037718
  29 C :   -0.182962
  30 H :   -0.171756
  31 H :   -0.096016
  32 C :    0.659882
  33 H :   -0.371594
  34 H :    0.195071
  35 H :    0.149720
  36 H :   -0.360362
  37 H :   -0.040939
  38 H :    0.010087
  39 O :   -0.750293
Sum of atomic charges:    0.0000000

LOEWDIN ATOMIC CHARGES
----------------------
   0 C :    0.053480
   1 N :    0.024668
   2 C :   -0.021537
   3 C :   -0.057654
   4 H :    0.028477
   5 H :    0.024122
   6 S :    1.146270
   7 C :   -0.223377
   8 C :    0.171962
   9 N :    0.209475
  10 H :   -0.034705
  11 H :   -0.003688
  12 H :   -0.088891
  13 H :   -0.193001
  14 H :   -0.099017
  15 O :   -0.419648
  16 F :   -0.220191
  17 C :   -0.024235
  18 H :    0.016302
  19 H :    0.007828
  20 C :   -0.036211
  21 C :   -0.028142
  22 H :    0.041988
  23 H :   -0.011975
  24 H :    0.041450
  25 H :    0.034807
  26 C :   -0.032343
  27 H :    0.018812
  28 H :    0.011154
  29 C :   -0.040817
  30 H :    0.026998
  31 H :    0.012462
  32 C :   -0.031832
  33 H :    0.024488
  34 H :    0.006917
  35 H :    0.021764
  36 H :    0.024361
  37 H :    0.022025
  38 H :    0.024026
  39 O :   -0.426570

  Mayer bond orders larger than 0.100000
B(  0-C ,  1-N ) :   0.9783 B(  0-C , 12-H ) :  -0.5189 B(  0-C , 17-C ) :   1.1051
B(  0-C , 18-H ) :   0.6051 B(  0-C , 19-H ) :   0.8307 B(  0-C , 26-C ) :   0.1526
B(  0-C , 27-H ) :   0.1270 B(  0-C , 28-H ) :   0.1082 B(  1-N ,  7-C ) :   1.1119
B(  1-N ,  8-C ) :   0.1889 B(  1-N ,  9-N ) :   0.3491 B(  1-N , 12-H ) :   0.9198
B(  1-N , 18-H ) :   0.2808 B(  2-C ,  3-C ) :   1.2940 B(  2-C ,  5-H ) :   0.2851
B(  2-C , 20-C ) :   0.1353 B(  2-C , 21-C ) :   1.1602 B(  2-C , 22-H ) :   0.1151
B(  2-C , 24-H ) :   0.7832 B(  2-C , 25-H ) :   0.8350 B(  3-C ,  4-H ) :   0.8823
B(  3-C ,  5-H ) :   0.6610 B(  3-C ,  6-S ) :   0.9749 B(  3-C , 16-F ) :   0.1143
B(  3-C , 21-C ) :   0.1390 B(  3-C , 25-H ) :   0.1138 B(  6-S , 15-O ) :   1.4519
B(  6-S , 16-F ) :   0.5181 B(  6-S , 39-O ) :   1.3579 B(  7-C ,  8-C ) :   1.1412
B(  7-C ,  9-N ) :   0.7657 B(  7-C , 12-H ) :  -0.7820 B(  7-C , 14-H ) :   0.1620
B(  8-C ,  9-N ) :   0.3456 B(  8-C , 13-H ) :   0.5074 B(  8-C , 14-H ) :   0.7868
B(  9-N , 10-H ) :   0.9762 B(  9-N , 11-H ) :   1.2347 B( 10-H , 11-H ) :  -0.1916
B( 12-H , 39-O ) :   0.1074 B( 13-H , 14-H ) :  -0.1965 B( 13-H , 15-O ) :   0.1513
B( 15-O , 39-O ) :   0.1162 B( 16-F , 39-O ) :   0.1079 B( 17-C , 18-H ) :   0.1258
B( 17-C , 19-H ) :   0.1188 B( 17-C , 26-C ) :   1.2288 B( 17-C , 27-H ) :   0.9232
B( 17-C , 28-H ) :   0.7005 B( 17-C , 31-H ) :   0.1381 B( 18-H , 19-H ) :  -0.1931
B( 20-C , 21-C ) :   1.2461 B( 20-C , 22-H ) :   0.1222 B( 20-C , 23-H ) :   0.1274
B( 20-C , 29-C ) :   0.1585 B( 20-C , 32-C ) :   1.1552 B( 20-C , 35-H ) :   0.8195
B( 20-C , 36-H ) :   0.9356 B( 20-C , 37-H ) :   0.1223 B( 20-C , 38-H ) :   0.2301
B( 21-C , 22-H ) :   0.6947 B( 21-C , 23-H ) :   0.8693 B( 21-C , 24-H ) :   0.2036
B( 21-C , 25-H ) :   0.1078 B( 21-C , 35-H ) :   0.1084 B( 21-C , 36-H ) :   0.2115
B( 22-H , 23-H ) :   0.1855 B( 23-H , 34-H ) :   0.1279 B( 26-C , 28-H ) :   0.2170
B( 26-C , 29-C ) :   1.2427 B( 26-C , 30-H ) :   0.8376 B( 26-C , 31-H ) :   0.8840
B( 26-C , 33-H ) :   0.1489 B( 26-C , 34-H ) :   0.1023 B( 27-H , 28-H ) :  -0.1118
B( 29-C , 30-H ) :   0.1691 B( 29-C , 31-H ) :   0.1188 B( 29-C , 32-C ) :   1.1464
B( 29-C , 33-H ) :   1.0301 B( 29-C , 34-H ) :   0.7977 B( 29-C , 37-H ) :   0.2984
B( 29-C , 38-H ) :   0.1446 B( 32-C , 37-H ) :   0.6353 B( 32-C , 38-H ) :   0.6674
B( 37-H , 38-H ) :  -0.1087

Dispersion correction           -0.048812875
FINAL SINGLE POINT ENERGY     -1189.130250220247

DIPOLE MOMENT
-------------
                                X             Y             Z
Electronic contribution:    -20.56626       2.69577     -20.17527
Nuclear contribution   :     20.03262      -4.53368      20.24480
                        -----------------------------------------
Total Dipole Moment    :     -0.53363      -1.83792       0.06953
                        -----------------------------------------
Magnitude (a.u.)       :      1.91508
Magnitude (Debye)      :      4.86775

Rotational constants in cm-1:     0.014367     0.012055     0.007393
Rotational constants in MHz :   430.711297   361.391195   221.649333

                             ****ORCA TERMINATED NORMALLY****
TOTAL RUN TIME: 0 days 0 hours 1 minutes 17 seconds 280 msec
