                         Program Version 5.0.0 -  RELEASE  -
|  1> !PBE D3BJ RIJCOSX def2-SVPD def2/J TightSCF xyzfile
|  2>
|  3> *xyzfile 0 1 D6.xyz
|  4>
|  5> %MaxCore 64000
|  6>
|  7> %pal nprocs 4
|  8> end
|  9>
| 10> %scf
| 11>   MaxIter 150
| 12> end
| 13>
| 14>
| 15>                          ****END OF INPUT****

CARTESIAN COORDINATES (ANGSTROEM)
---------------------------------
  C      4.490588    1.155899   -2.469290
  N      4.305394    1.222762   -3.908317
  C      4.906458   -3.102816   -5.954844
  C      3.511771   -2.806215   -6.492283
  H      2.736044   -3.373445   -5.973736
  H      3.444904   -3.040831   -7.555281
  S      3.004618   -1.096206   -6.389259
  C      4.631918    2.246365   -4.670958
  N      4.541686    2.143990   -5.987139
  C      5.084086    3.393584   -4.118545
  H      4.920675    3.570501   -3.135870
  H      5.254652    4.197390   -4.706956
  H      3.824530    0.449113   -4.350926
  H      4.343373    1.249318   -6.416646
  H      4.676712    2.956624   -6.574113
  O      4.128856   -0.329647   -6.953717
  F      1.781285   -1.000779   -7.136399
  C      5.942129    0.939500   -2.036893
  H      3.864305    0.328532   -2.136611
  H      4.076233    2.049994   -1.989010
  C      6.462677   -3.117775   -3.944671
  C      5.024977   -3.025679   -4.437625
  H      4.423321   -3.818693   -3.977648
  H      4.579350   -2.087131   -4.108727
  H      5.201533   -4.100207   -6.296905
  H      5.605922   -2.397822   -6.413368
  C      6.559957   -0.356290   -2.559086
  H      5.967976    0.952567   -0.942444
  H      6.547184    1.788331   -2.368849
  C      6.006283   -1.615917   -1.899301
  H      7.642360   -0.318000   -2.402059
  H      6.414855   -0.403433   -3.642587
  C      6.608718   -2.917014   -2.435655
  H      6.190324   -1.561115   -0.820948
  H      4.919250   -1.651245   -2.016586
  H      7.066975   -2.374258   -4.475514
  H      6.887808   -4.089747   -4.215332
  H      6.135197   -3.755573   -1.915159
  H      7.671142   -2.955503   -2.172291
  O      2.851546   -0.783683   -4.956789

 Total Charge           Charge          ....    0
 Multiplicity           Mult            ....    1
 Number of Electrons    NEL             ....  144
 Basis Dimension        Dim             ....  540

ORBITAL ENERGIES
----------------

  NO   OCC          E(Eh)            E(eV)
   0   2.0000     -88.344036     -2403.9634
   1   2.0000     -24.418594      -664.4637
   2   2.0000     -18.804681      -511.7014
   3   2.0000     -18.804357      -511.6926
   4   2.0000     -13.965136      -380.0107
   5   2.0000     -13.959496      -379.8572
   6   2.0000      -9.978529      -271.5296
   7   2.0000      -9.936882      -270.3963
   8   2.0000      -9.906477      -269.5689
   9   2.0000      -9.904765      -269.5224
  10   2.0000      -9.903014      -269.4747
  11   2.0000      -9.898509      -269.3521
  12   2.0000      -9.891665      -269.1659
  13   2.0000      -9.883836      -268.9529
  14   2.0000      -9.875773      -268.7334
  15   2.0000      -9.869052      -268.5506
  16   2.0000      -9.781551      -266.1695
  17   2.0000      -7.947987      -216.2757
  18   2.0000      -5.979297      -162.7049
  19   2.0000      -5.973181      -162.5385
  20   2.0000      -5.970949      -162.4778
  21   2.0000      -1.302796       -35.4509
  22   2.0000      -1.048159       -28.5219
  23   2.0000      -0.950597       -25.8671
  24   2.0000      -0.848573       -23.0908
  25   2.0000      -0.780153       -21.2290
  26   2.0000      -0.770935       -20.9782
  27   2.0000      -0.736778       -20.0488
  28   2.0000      -0.708906       -19.2903
  29   2.0000      -0.684595       -18.6288
  30   2.0000      -0.658208       -17.9108
  31   2.0000      -0.623636       -16.9700
  32   2.0000      -0.606506       -16.5039
  33   2.0000      -0.589310       -16.0359
  34   2.0000      -0.565198       -15.3798
  35   2.0000      -0.556783       -15.1508
  36   2.0000      -0.541621       -14.7383
  37   2.0000      -0.534291       -14.5388
  38   2.0000      -0.525354       -14.2956
  39   2.0000      -0.496755       -13.5174
  40   2.0000      -0.482567       -13.1313
  41   2.0000      -0.468507       -12.7487
  42   2.0000      -0.465124       -12.6567
  43   2.0000      -0.453555       -12.3419
  44   2.0000      -0.443248       -12.0614
  45   2.0000      -0.431272       -11.7355
  46   2.0000      -0.424495       -11.5511
  47   2.0000      -0.415768       -11.3136
  48   2.0000      -0.406323       -11.0566
  49   2.0000      -0.392422       -10.6783
  50   2.0000      -0.385354       -10.4860
  51   2.0000      -0.382270       -10.4021
  52   2.0000      -0.371891       -10.1197
  53   2.0000      -0.361122        -9.8266
  54   2.0000      -0.347229        -9.4486
  55   2.0000      -0.341622        -9.2960
  56   2.0000      -0.340394        -9.2626
  57   2.0000      -0.328152        -8.9295
  58   2.0000      -0.322263        -8.7692
  59   2.0000      -0.315086        -8.5739
  60   2.0000      -0.309089        -8.4107
  61   2.0000      -0.303034        -8.2460
  62   2.0000      -0.301469        -8.2034
  63   2.0000      -0.295195        -8.0327
  64   2.0000      -0.289665        -7.8822
  65   2.0000      -0.287212        -7.8154
  66   2.0000      -0.282140        -7.6774
  67   2.0000      -0.270137        -7.3508
  68   2.0000      -0.267328        -7.2744
  69   2.0000      -0.259484        -7.0609
  70   2.0000      -0.177983        -4.8432
  71   2.0000      -0.106087        -2.8868
  72   0.0000      -0.048532        -1.3206
  73   0.0000      -0.025028        -0.6810
  74   0.0000      -0.004009        -0.1091
  75   0.0000      -0.001232        -0.0335
  76   0.0000       0.001644         0.0447

MULLIKEN ATOMIC CHARGES
-----------------------
   0 C :    0.998509
   1 N :    0.369247
   2 C :    0.180226
   3 C :    0.259882
   4 H :    0.049386
   5 H :    0.020792
   6 S :    1.461536
   7 C :    0.590228
   8 N :    0.624263
   9 C :    0.467337
  10 H :    0.119191
  11 H :   -0.700910
  12 H :   -1.203245
  13 H :   -0.434308
  14 H :   -0.228882
  15 O :   -0.680345
  16 F :   -0.468881
  17 C :    0.315283
  18 H :   -0.340558
  19 H :   -0.109010
  20 C :   -0.009085
  21 C :    0.177086
  22 H :    0.043288
  23 H :   -0.443959
  24 H :   -0.094681
  25 H :    0.079075
  26 C :    0.098829
  27 H :   -0.140569
  28 H :   -0.040851
  29 C :   -0.190614
  30 H :   -0.174556
  31 H :   -0.097982
  32 C :    0.667329
  33 H :   -0.368007
  34 H :    0.188052
  35 H :    0.156265
  36 H :   -0.364317
  37 H :   -0.041700
  38 H :    0.011511
  39 O :   -0.744855
Sum of atomic charges:    0.0000000

LOEWDIN ATOMIC CHARGES
----------------------
   0 C :    0.060567
   1 N :    0.023300
   2 C :   -0.020786
   3 C :   -0.053180
   4 H :    0.032186
   5 H :    0.025219
   6 S :    1.151145
   7 C :   -0.229195
   8 N :    0.224502
   9 C :    0.154375
  10 H :   -0.121492
  11 H :   -0.113337
  12 H :   -0.097575
  13 H :   -0.130480
  14 H :    0.005731
  15 O :   -0.417140
  16 F :   -0.216702
  17 C :   -0.016369
  18 H :    0.014757
  19 H :    0.016137
  20 C :   -0.036087
  21 C :   -0.027735
  22 H :    0.042746
  23 H :   -0.011712
  24 H :    0.043167
  25 H :    0.034454
  26 C :   -0.034186
  27 H :    0.021444
  28 H :    0.012241
  29 C :   -0.041380
  30 H :    0.026815
  31 H :    0.008814
  32 C :   -0.031827
  33 H :    0.025165
  34 H :    0.006175
  35 H :    0.021508
  36 H :    0.024350
  37 H :    0.021722
  38 H :    0.024515
  39 O :   -0.421853

  Mayer bond orders larger than 0.100000
B(  0-C ,  1-N ) :   1.0288 B(  0-C , 10-H ) :   0.1236 B(  0-C , 12-H ) :  -0.5491
B(  0-C , 17-C ) :   1.0959 B(  0-C , 18-H ) :   0.6807 B(  0-C , 19-H ) :   0.8326
B(  0-C , 26-C ) :   0.1467 B(  0-C , 27-H ) :   0.1114 B(  1-N ,  7-C ) :   1.0047
B(  1-N ,  9-C ) :   0.3205 B(  1-N , 11-H ) :   0.1535 B(  1-N , 12-H ) :   0.6862
B(  1-N , 13-H ) :   0.1813 B(  1-N , 14-H ) :  -0.1339 B(  1-N , 18-H ) :   0.3038
B(  2-C ,  3-C ) :   1.2985 B(  2-C ,  5-H ) :   0.2887 B(  2-C , 20-C ) :   0.1352
B(  2-C , 21-C ) :   1.1550 B(  2-C , 22-H ) :   0.1130 B(  2-C , 24-H ) :   0.7870
B(  2-C , 25-H ) :   0.8282 B(  3-C ,  4-H ) :   0.8798 B(  3-C ,  5-H ) :   0.6528
B(  3-C ,  6-S ) :   1.0047 B(  3-C , 16-F ) :   0.1067 B(  3-C , 21-C ) :   0.1417
B(  3-C , 25-H ) :   0.1155 B(  6-S , 15-O ) :   1.3841 B(  6-S , 16-F ) :   0.5446
B(  6-S , 39-O ) :   1.3866 B(  7-C ,  8-N ) :   0.9725 B(  7-C ,  9-C ) :   1.5225
B(  7-C , 10-H ) :   0.3811 B(  7-C , 11-H ) :   0.3890 B(  7-C , 12-H ) :  -0.7559
B(  7-C , 13-H ) :  -0.1977 B(  7-C , 14-H ) :  -0.1055 B(  7-C , 18-H ) :   0.1399
B(  8-N ,  9-C ) :   0.2371 B(  8-N , 11-H ) :   0.1033 B(  8-N , 13-H ) :   0.8808
B(  8-N , 14-H ) :   1.2715 B(  9-C , 10-H ) :   0.5119 B(  9-C , 11-H ) :   0.6480
B( 10-H , 13-H ) :   0.1868 B( 10-H , 18-H ) :  -0.1195 B( 10-H , 19-H ) :   0.1306
B( 11-H , 12-H ) :  -0.1319 B( 12-H , 39-O ) :   0.1754 B( 13-H , 14-H ) :  -0.2767
B( 13-H , 15-O ) :   0.1692 B( 16-F , 39-O ) :   0.1139 B( 17-C , 18-H ) :   0.1249
B( 17-C , 26-C ) :   1.2076 B( 17-C , 27-H ) :   0.8900 B( 17-C , 28-H ) :   0.7439
B( 17-C , 31-H ) :   0.1351 B( 18-H , 19-H ) :  -0.2267 B( 20-C , 21-C ) :   1.2480
B( 20-C , 22-H ) :   0.1214 B( 20-C , 23-H ) :   0.1303 B( 20-C , 29-C ) :   0.1584
B( 20-C , 32-C ) :   1.1542 B( 20-C , 35-H ) :   0.8183 B( 20-C , 36-H ) :   0.9417
B( 20-C , 37-H ) :   0.1238 B( 20-C , 38-H ) :   0.2299 B( 21-C , 22-H ) :   0.6968
B( 21-C , 23-H ) :   0.8634 B( 21-C , 24-H ) :   0.1991 B( 21-C , 25-H ) :   0.1067
B( 21-C , 35-H ) :   0.1127 B( 21-C , 36-H ) :   0.2126 B( 22-H , 23-H ) :   0.1834
B( 23-H , 34-H ) :   0.1264 B( 26-C , 27-H ) :   0.1111 B( 26-C , 28-H ) :   0.2194
B( 26-C , 29-C ) :   1.2401 B( 26-C , 30-H ) :   0.8497 B( 26-C , 31-H ) :   0.8926
B( 26-C , 33-H ) :   0.1512 B( 26-C , 34-H ) :   0.1089 B( 27-H , 28-H ) :  -0.1373
B( 29-C , 30-H ) :   0.1707 B( 29-C , 31-H ) :   0.1292 B( 29-C , 32-C ) :   1.1460
B( 29-C , 33-H ) :   1.0302 B( 29-C , 34-H ) :   0.8044 B( 29-C , 37-H ) :   0.3031
B( 29-C , 38-H ) :   0.1450 B( 32-C , 37-H ) :   0.6324 B( 32-C , 38-H ) :   0.6689
B( 37-H , 38-H ) :  -0.1088

Dispersion correction           -0.048747806
FINAL SINGLE POINT ENERGY     -1189.144963025678

DIPOLE MOMENT
-------------
                                X             Y             Z
Electronic contribution:    -21.09124       1.37396     -21.83865
Nuclear contribution   :     20.11362      -4.34709      20.52383
                        -----------------------------------------
Total Dipole Moment    :     -0.97762      -2.97313      -1.31482
                        -----------------------------------------
Magnitude (a.u.)       :      3.39470
Magnitude (Debye)      :      8.62864

Rotational constants in cm-1:     0.014449     0.012108     0.007447
Rotational constants in MHz :   433.168496   362.988632   223.260798

                             ****ORCA TERMINATED NORMALLY****
TOTAL RUN TIME: 0 days 0 hours 1 minutes 8 seconds 915 msec
