                         Program Version 5.0.0 -  RELEASE  -
|  1> !PBE D3BJ RIJCOSX def2-SVPD def2/J TightSCF xyzfile
|  2>
|  3> *xyzfile 0 1 D7.xyz
|  4>
|  5> %MaxCore 64000
|  6>
|  7> %pal nprocs 4
|  8> end
|  9>
| 10> %scf
| 11>   MaxIter 150
| 12> end
| 13>
| 14>
| 15>                          ****END OF INPUT****

CARTESIAN COORDINATES (ANGSTROEM)
---------------------------------
  C      4.490588    1.155899   -2.469290
  C      4.305394    1.222762   -3.908317
  C      4.906458   -3.102816   -5.954844
  C      3.511771   -2.806215   -6.492283
  H      2.736044   -3.373445   -5.973736
  H      3.444904   -3.040831   -7.555281
  S      3.004618   -1.096206   -6.389259
  C      4.631918    2.246365   -4.670958
  N      4.541686    2.143990   -5.987139
  N      5.084086    3.393584   -4.118545
  H      4.920675    3.570501   -3.135870
  H      5.254652    4.197390   -4.706956
  H      3.824530    0.449113   -4.350926
  H      4.343373    1.249318   -6.416646
  H      4.676712    2.956624   -6.574113
  O      4.128856   -0.329647   -6.953717
  O      1.781285   -1.000779   -7.136399
  C      5.942129    0.939500   -2.036893
  H      3.864305    0.328532   -2.136611
  H      4.076233    2.049994   -1.989010
  C      6.462677   -3.117775   -3.944671
  C      5.024977   -3.025679   -4.437625
  H      4.423321   -3.818693   -3.977648
  H      4.579350   -2.087131   -4.108727
  H      5.201533   -4.100207   -6.296905
  H      5.605922   -2.397822   -6.413368
  C      6.559957   -0.356290   -2.559086
  H      5.967976    0.952567   -0.942444
  H      6.547184    1.788331   -2.368849
  C      6.006283   -1.615917   -1.899301
  H      7.642360   -0.318000   -2.402059
  H      6.414855   -0.403433   -3.642587
  C      6.608718   -2.917014   -2.435655
  H      6.190324   -1.561115   -0.820948
  H      4.919250   -1.651245   -2.016586
  H      7.066975   -2.374258   -4.475514
  H      6.887808   -4.089747   -4.215332
  H      6.135197   -3.755573   -1.915159
  H      7.671142   -2.955503   -2.172291
  F      2.851546   -0.783683   -4.956789

 Total Charge           Charge          ....    0
 Multiplicity           Mult            ....    1
 Number of Electrons    NEL             ....  144
 Basis Dimension        Dim             ....  540

ORBITAL ENERGIES
----------------

  NO   OCC          E(Eh)            E(eV)
   0   2.0000     -88.320790     -2403.3309
   1   2.0000     -24.380763      -663.4343
   2   2.0000     -18.789645      -511.2922
   3   2.0000     -18.786202      -511.1985
   4   2.0000     -13.991938      -380.7400
   5   2.0000     -13.970132      -380.1466
   6   2.0000      -9.961355      -271.0623
   7   2.0000      -9.923798      -270.0403
   8   2.0000      -9.919670      -269.9279
   9   2.0000      -9.905418      -269.5401
  10   2.0000      -9.895856      -269.2799
  11   2.0000      -9.889539      -269.1080
  12   2.0000      -9.881878      -268.8996
  13   2.0000      -9.873065      -268.6598
  14   2.0000      -9.868382      -268.5323
  15   2.0000      -9.865356      -268.4500
  16   2.0000      -9.803916      -266.7781
  17   2.0000      -7.924606      -215.6395
  18   2.0000      -5.955817      -162.0660
  19   2.0000      -5.949823      -161.9029
  20   2.0000      -5.947810      -161.8481
  21   2.0000      -1.255300       -34.1584
  22   2.0000      -1.035309       -28.1722
  23   2.0000      -0.942579       -25.6489
  24   2.0000      -0.854611       -23.2551
  25   2.0000      -0.770413       -20.9640
  26   2.0000      -0.766163       -20.8483
  27   2.0000      -0.731731       -19.9114
  28   2.0000      -0.704689       -19.1756
  29   2.0000      -0.682973       -18.5846
  30   2.0000      -0.651847       -17.7377
  31   2.0000      -0.637559       -17.3489
  32   2.0000      -0.602970       -16.4077
  33   2.0000      -0.578535       -15.7427
  34   2.0000      -0.558504       -15.1977
  35   2.0000      -0.531729       -14.4691
  36   2.0000      -0.527068       -14.3423
  37   2.0000      -0.518354       -14.1051
  38   2.0000      -0.514980       -14.0133
  39   2.0000      -0.496818       -13.5191
  40   2.0000      -0.487015       -13.2523
  41   2.0000      -0.475749       -12.9458
  42   2.0000      -0.448830       -12.2133
  43   2.0000      -0.438925       -11.9438
  44   2.0000      -0.436643       -11.8817
  45   2.0000      -0.428570       -11.6620
  46   2.0000      -0.426329       -11.6010
  47   2.0000      -0.411251       -11.1907
  48   2.0000      -0.403865       -10.9897
  49   2.0000      -0.395739       -10.7686
  50   2.0000      -0.384462       -10.4618
  51   2.0000      -0.378043       -10.2871
  52   2.0000      -0.375291       -10.2122
  53   2.0000      -0.358637        -9.7590
  54   2.0000      -0.350644        -9.5415
  55   2.0000      -0.339708        -9.2439
  56   2.0000      -0.334237        -9.0950
  57   2.0000      -0.329063        -8.9543
  58   2.0000      -0.321245        -8.7415
  59   2.0000      -0.314929        -8.5696
  60   2.0000      -0.304706        -8.2915
  61   2.0000      -0.302197        -8.2232
  62   2.0000      -0.296291        -8.0625
  63   2.0000      -0.289793        -7.8857
  64   2.0000      -0.287631        -7.8268
  65   2.0000      -0.282124        -7.6770
  66   2.0000      -0.281230        -7.6526
  67   2.0000      -0.266790        -7.2597
  68   2.0000      -0.259568        -7.0632
  69   2.0000      -0.254998        -6.9388
  70   2.0000      -0.206525        -5.6198
  71   2.0000      -0.120242        -3.2719
  72   0.0000      -0.031580        -0.8593
  73   0.0000      -0.005363        -0.1459
  74   0.0000       0.002138         0.0582
  75   0.0000       0.004018         0.1093
  76   0.0000       0.011085         0.3016

MULLIKEN ATOMIC CHARGES
-----------------------
   0 C :    0.118514
   1 C :    0.248691
   2 C :    0.248493
   3 C :    0.267066
   4 H :    0.027367
   5 H :    0.007992
   6 S :    1.406513
   7 C :    1.006627
   8 N :    0.238249
   9 N :    0.027122
  10 H :   -0.057046
  11 H :   -0.296897
  12 H :   -0.679113
  13 H :   -0.252411
  14 H :   -0.236844
  15 O :   -0.661403
  16 O :   -0.646198
  17 C :    0.390330
  18 H :    0.121127
  19 H :   -0.213595
  20 C :   -0.007335
  21 C :    0.229774
  22 H :    0.040113
  23 H :   -0.535451
  24 H :   -0.092958
  25 H :    0.083874
  26 C :    0.061139
  27 H :   -0.066957
  28 H :   -0.118068
  29 C :   -0.117682
  30 H :   -0.124147
  31 H :   -0.025480
  32 C :    0.651163
  33 H :   -0.359578
  34 H :    0.140671
  35 H :    0.150412
  36 H :   -0.364478
  37 H :   -0.041745
  38 H :    0.009209
  39 F :   -0.577060
Sum of atomic charges:   -0.0000000

LOEWDIN ATOMIC CHARGES
----------------------
   0 C :   -0.051256
   1 C :   -0.021335
   2 C :   -0.035898
   3 C :   -0.046465
   4 H :    0.031078
   5 H :    0.036811
   6 S :    1.114538
   7 C :   -0.200228
   8 N :    0.220699
   9 N :    0.218895
  10 H :   -0.018023
  11 H :   -0.016361
  12 H :   -0.116789
  13 H :   -0.118768
  14 H :   -0.008203
  15 O :   -0.415994
  16 O :   -0.413946
  17 C :   -0.032085
  18 H :    0.008167
  19 H :    0.005556
  20 C :   -0.035378
  21 C :   -0.032471
  22 H :    0.041496
  23 H :   -0.009623
  24 H :    0.038931
  25 H :    0.031224
  26 C :   -0.033721
  27 H :    0.015868
  28 H :    0.011772
  29 C :   -0.039834
  30 H :    0.025624
  31 H :    0.009046
  32 C :   -0.032913
  33 H :    0.024731
  34 H :    0.005613
  35 H :    0.021676
  36 H :    0.025360
  37 H :    0.021394
  38 H :    0.023840
  39 F :   -0.253029

  Mayer bond orders larger than 0.100000
B(  0-C ,  1-C ) :   1.1339 B(  0-C , 12-H ) :   0.8606 B(  0-C , 17-C ) :   1.1357
B(  0-C , 18-H ) :   0.6618 B(  0-C , 19-H ) :   0.8957 B(  0-C , 26-C ) :   0.1145
B(  0-C , 27-H ) :   0.2032 B(  0-C , 28-H ) :   0.1737 B(  0-C , 30-H ) :  -0.1214
B(  1-C ,  7-C ) :   1.5713 B(  1-C ,  8-N ) :   0.3779 B(  1-C ,  9-N ) :   0.3423
B(  1-C , 12-H ) :  -0.4702 B(  1-C , 17-C ) :   0.1137 B(  1-C , 18-H ) :   0.3896
B(  1-C , 19-H ) :   0.1917 B(  2-C ,  3-C ) :   1.2574 B(  2-C ,  5-H ) :   0.2622
B(  2-C , 20-C ) :   0.1310 B(  2-C , 21-C ) :   1.1593 B(  2-C , 22-H ) :   0.1117
B(  2-C , 24-H ) :   0.7753 B(  2-C , 25-H ) :   0.8411 B(  3-C ,  4-H ) :   0.8947
B(  3-C ,  5-H ) :   0.6929 B(  3-C ,  6-S ) :   0.9651 B(  3-C , 16-O ) :   0.1088
B(  3-C , 21-C ) :   0.1373 B(  3-C , 25-H ) :   0.1152 B(  6-S , 15-O ) :   1.4056
B(  6-S , 16-O ) :   1.4661 B(  6-S , 39-F ) :   0.6789 B(  7-C ,  8-N ) :   0.7832
B(  7-C ,  9-N ) :   0.7993 B(  7-C , 11-H ) :  -0.1801 B(  7-C , 12-H ) :  -0.1357
B(  7-C , 13-H ) :  -0.2694 B(  7-C , 14-H ) :  -0.1642 B(  8-N ,  9-N ) :   0.1314
B(  8-N , 13-H ) :   1.1714 B(  8-N , 14-H ) :   1.3437 B(  9-N , 10-H ) :   1.0649
B(  9-N , 11-H ) :   1.3381 B( 10-H , 11-H ) :  -0.1989 B( 11-H , 12-H ) :  -0.1048
B( 12-H , 18-H ) :  -0.1890 B( 12-H , 39-F ) :   0.2199 B( 13-H , 14-H ) :  -0.2645
B( 13-H , 15-O ) :   0.1338 B( 16-O , 39-F ) :   0.1046 B( 17-C , 18-H ) :   0.1348
B( 17-C , 26-C ) :   1.3087 B( 17-C , 27-H ) :   0.7747 B( 17-C , 28-H ) :   0.6823
B( 17-C , 30-H ) :   0.1152 B( 17-C , 31-H ) :   0.1721 B( 18-H , 19-H ) :  -0.1163
B( 20-C , 21-C ) :   1.2475 B( 20-C , 22-H ) :   0.1197 B( 20-C , 23-H ) :   0.1461
B( 20-C , 29-C ) :   0.1596 B( 20-C , 32-C ) :   1.1497 B( 20-C , 35-H ) :   0.8177
B( 20-C , 36-H ) :   0.9450 B( 20-C , 37-H ) :   0.1173 B( 20-C , 38-H ) :   0.2338
B( 21-C , 22-H ) :   0.6961 B( 21-C , 23-H ) :   0.7805 B( 21-C , 24-H ) :   0.1996
B( 21-C , 25-H ) :   0.1090 B( 21-C , 35-H ) :   0.1135 B( 21-C , 36-H ) :   0.2090
B( 22-H , 23-H ) :   0.2024 B( 23-H , 34-H ) :   0.1290 B( 26-C , 27-H ) :   0.1468
B( 26-C , 28-H ) :   0.2298 B( 26-C , 29-C ) :   1.2403 B( 26-C , 30-H ) :   0.8057
B( 26-C , 31-H ) :   0.8633 B( 26-C , 33-H ) :   0.1445 B( 27-H , 28-H ) :  -0.1240
B( 29-C , 30-H ) :   0.1501 B( 29-C , 31-H ) :   0.1062 B( 29-C , 32-C ) :   1.1382
B( 29-C , 33-H ) :   1.0123 B( 29-C , 34-H ) :   0.8128 B( 29-C , 37-H ) :   0.3007
B( 29-C , 38-H ) :   0.1450 B( 32-C , 37-H ) :   0.6410 B( 32-C , 38-H ) :   0.6662
B( 37-H , 38-H ) :  -0.1058

Dispersion correction           -0.048638824
FINAL SINGLE POINT ENERGY     -1189.157831114164

DIPOLE MOMENT
-------------
                                X             Y             Z
Electronic contribution:    -18.42546       4.07368     -18.06350
Nuclear contribution   :     18.74089      -4.92611      17.99644
                        -----------------------------------------
Total Dipole Moment    :      0.31543      -0.85243      -0.06705
                        -----------------------------------------
Magnitude (a.u.)       :      0.91139
Magnitude (Debye)      :      2.31657

Rotational constants in cm-1:     0.014210     0.012324     0.007480
Rotational constants in MHz :   425.991442   369.455467   224.259162

                             ****ORCA TERMINATED NORMALLY****
TOTAL RUN TIME: 0 days 0 hours 1 minutes 20 seconds 667 msec
