                         Program Version 5.0.0 -  RELEASE  -
|  1> !BLYP D3BJ RIJCOSX def2-SVPD def2/J TightSCF
|  2> *xyz -1 1
|  3> C          4.08422        1.74208       -2.11472
|  4> C          4.26524        2.50052       -0.79589
|  5> H          4.86853        3.39267       -0.98113
|  6> H          3.30764        2.82457       -0.38781
|  7> C          4.98224        1.65026        0.24742
|  8> O          4.36806        1.38927        1.31371
|  9> O          6.12892        1.23351       -0.04562
| 10> H          3.57911        2.36849       -2.81997
| 11> H          3.50424        0.85965       -1.94198
| 12> H          5.04288        1.46841       -2.50327
| 13> *
| 14> %MaxCore 64000
| 15> %pal nprocs 8
| 16> end
| 17> %scf
| 18>   MaxIter 150
| 19> end
| 20>
| 21>
| 22>                          ****END OF INPUT****

CARTESIAN COORDINATES (ANGSTROEM)
---------------------------------
  C      4.084220    1.742080   -2.114720
  C      4.265240    2.500520   -0.795890
  H      4.868530    3.392670   -0.981130
  H      3.307640    2.824570   -0.387810
  C      4.982240    1.650260    0.247420
  O      4.368060    1.389270    1.313710
  O      6.128920    1.233510   -0.045620
  H      3.579110    2.368490   -2.819970
  H      3.504240    0.859650   -1.941980
  H      5.042880    1.468410   -2.503270

 Total Charge           Charge          ....   -1
 Multiplicity           Mult            ....    1
 Number of Electrons    NEL             ....   40
 Basis Dimension        Dim             ....  146

ORBITAL ENERGIES
----------------

  NO   OCC          E(Eh)            E(eV)
   0   2.0000     -18.531641      -504.2716
   1   2.0000     -18.531296      -504.2622
   2   2.0000      -9.801789      -266.7202
   3   2.0000      -9.761336      -265.6195
   4   2.0000      -9.747907      -265.2540
   5   2.0000      -0.717941       -19.5362
   6   2.0000      -0.629748       -17.1363
   7   2.0000      -0.521914       -14.2020
   8   2.0000      -0.400382       -10.8949
   9   2.0000      -0.261831        -7.1248
  10   2.0000      -0.239785        -6.5249
  11   2.0000      -0.203120        -5.5272
  12   2.0000      -0.180219        -4.9040
  13   2.0000      -0.164134        -4.4663
  14   2.0000      -0.156513        -4.2589
  15   2.0000      -0.128689        -3.5018
  16   2.0000      -0.117096        -3.1864
  17   2.0000      -0.010083        -0.2744
  18   2.0000       0.002877         0.0783
  19   2.0000       0.020361         0.5540
  20   0.0000       0.138249         3.7619
  21   0.0000       0.171473         4.6660
  22   0.0000       0.188474         5.1286
  23   0.0000       0.198578         5.4036
  24   0.0000       0.216095         5.8802

MULLIKEN ATOMIC CHARGES
-----------------------
   0 C :    0.902946
   1 C :    0.023370
   2 H :   -0.134796
   3 H :   -0.207221
   4 C :    0.224431
   5 O :   -0.592460
   6 O :   -0.625199
   7 H :   -0.224874
   8 H :   -0.210213
   9 H :   -0.155983
Sum of atomic charges:   -1.0000000

LOEWDIN ATOMIC CHARGES
----------------------
   0 C :    0.113133
   1 C :   -0.032534
   2 H :   -0.000052
   3 H :   -0.009649
   4 C :   -0.335111
   5 O :   -0.314070
   6 O :   -0.305469
   7 H :   -0.052023
   8 H :   -0.029287
   9 H :   -0.034938

  Mayer bond orders larger than 0.100000
B(  0-C ,  1-C ) :   1.2813 B(  0-C ,  2-H ) :   0.1222 B(  0-C ,  3-H ) :   0.1188
B(  0-C ,  7-H ) :   0.7638 B(  0-C ,  8-H ) :   0.7595 B(  0-C ,  9-H ) :   0.7497
B(  1-C ,  2-H ) :   0.8131 B(  1-C ,  3-H ) :   0.9040 B(  1-C ,  4-C ) :   1.0532
B(  1-C ,  7-H ) :   0.2134 B(  1-C ,  8-H ) :   0.2194 B(  1-C ,  9-H ) :   0.2420
B(  2-H ,  4-C ) :   0.1071 B(  3-H ,  4-C ) :   0.2221 B(  4-C ,  5-O ) :   1.5234
B(  4-C ,  6-O ) :   1.5609

Dispersion correction           -0.013577229
FINAL SINGLE POINT ENERGY      -267.591025141974

DIPOLE MOMENT
-------------
                                X             Y             Z
Electronic contribution:      2.45847      -1.48901       5.14297
Nuclear contribution   :     -3.31311       2.28398      -6.76358
                        -----------------------------------------
Total Dipole Moment    :     -0.85465       0.79497      -1.62061
                        -----------------------------------------
Magnitude (a.u.)       :      1.99720
Magnitude (Debye)      :      5.07647

Rotational constants in cm-1:     0.309287     0.135287     0.107346
Rotational constants in MHz :  9272.201029  4055.789113  3218.155789

                             ****ORCA TERMINATED NORMALLY****
TOTAL RUN TIME: 0 days 0 hours 0 minutes 8 seconds 848 msec
