                         Program Version 5.0.0 -  RELEASE  -
|  1> !BLYP D3BJ RIJCOSX def2-SVPD def2/J TightSCF
|  2> *xyz 1 1
|  3> C          3.91385       -1.65829        3.01513
|  4> N          5.03927       -0.90115        2.49282
|  5> C          6.21038       -1.41726        2.17824
|  6> N          6.53591       -2.67712        2.55608
|  7> N          7.07675       -0.70082        1.47891
|  8> H          7.95464       -1.12155        1.20755
|  9> H          6.75616        0.10664        0.96028
| 10> H          4.84217        0.01761        2.11519
| 11> H          5.99388       -3.12692        3.28278
| 12> C          3.13916       -2.37657        1.91061
| 13> H          3.26723       -0.93940        3.52069
| 14> H          4.24720       -2.35509        3.79006
| 15> H          7.49844       -2.97548        2.46878
| 16> H          2.82969       -1.66654        1.17238
| 17> H          2.27790       -2.85264        2.33072
| 18> H          3.76754       -3.11338        1.45548
| 19> *
| 20> %MaxCore 64000
| 21> %pal nprocs 8
| 22> end
| 23> %scf
| 24>   MaxIter 150
| 25> end
| 26>
| 27>
| 28>                          ****END OF INPUT****

CARTESIAN COORDINATES (ANGSTROEM)
---------------------------------
  C      3.913850   -1.658290    3.015130
  N      5.039270   -0.901150    2.492820
  C      6.210380   -1.417260    2.178240
  N      6.535910   -2.677120    2.556080
  N      7.076750   -0.700820    1.478910
  H      7.954640   -1.121550    1.207550
  H      6.756160    0.106640    0.960280
  H      4.842170    0.017610    2.115190
  H      5.993880   -3.126920    3.282780
  C      3.139160   -2.376570    1.910610
  H      3.267230   -0.939400    3.520690
  H      4.247200   -2.355090    3.790060
  H      7.498440   -2.975480    2.468780
  H      2.829690   -1.666540    1.172380
  H      2.277900   -2.852640    2.330720
  H      3.767540   -3.113380    1.455480

 Total Charge           Charge          ....    1
 Multiplicity           Mult            ....    1
 Number of Electrons    NEL             ....   48
 Basis Dimension        Dim             ....  200

ORBITAL ENERGIES
----------------

  NO   OCC          E(Eh)            E(eV)
   0   2.0000     -14.248006      -387.7080
   1   2.0000     -14.247530      -387.6950
   2   2.0000     -14.245131      -387.6297
   3   2.0000     -10.248289      -278.8701
   4   2.0000     -10.130965      -275.6776
   5   2.0000     -10.060586      -273.7624
   6   2.0000      -1.116674       -30.3863
   7   2.0000      -1.015467       -27.6323
   8   2.0000      -0.999933       -27.2096
   9   2.0000      -0.851464       -23.1695
  10   2.0000      -0.772809       -21.0292
  11   2.0000      -0.736988       -20.0545
  12   2.0000      -0.728378       -19.8202
  13   2.0000      -0.685607       -18.6563
  14   2.0000      -0.641129       -17.4460
  15   2.0000      -0.635557       -17.2944
  16   2.0000      -0.603537       -16.4231
  17   2.0000      -0.577706       -15.7202
  18   2.0000      -0.552377       -15.0310
  19   2.0000      -0.514889       -14.0108
  20   2.0000      -0.486737       -13.2448
  21   2.0000      -0.469017       -12.7626
  22   2.0000      -0.433973       -11.8090
  23   2.0000      -0.410625       -11.1737
  24   0.0000      -0.201770        -5.4904
  25   0.0000      -0.178895        -4.8680
  26   0.0000      -0.147777        -4.0212
  27   0.0000      -0.138779        -3.7764
  28   0.0000      -0.118417        -3.2223

MULLIKEN ATOMIC CHARGES
-----------------------
   0 C :    0.560397
   1 N :   -0.145327
   2 C :    1.008608
   3 N :    0.280830
   4 N :    0.240698
   5 H :   -0.092953
   6 H :   -0.132259
   7 H :   -0.300214
   8 H :   -0.112511
   9 C :    1.077859
  10 H :   -0.471647
  11 H :   -0.211745
  12 H :   -0.245096
  13 H :   -0.167116
  14 H :   -0.110835
  15 H :   -0.178689
Sum of atomic charges:    1.0000000

LOEWDIN ATOMIC CHARGES
----------------------
   0 C :    0.044240
   1 N :    0.062045
   2 C :   -0.061710
   3 N :    0.300938
   4 N :    0.282284
   5 H :    0.034342
   6 H :    0.036004
   7 H :    0.059056
   8 H :    0.008292
   9 C :    0.178153
  10 H :    0.038064
  11 H :    0.020493
  12 H :    0.029680
  13 H :   -0.010554
  14 H :   -0.001136
  15 H :   -0.020193

  Mayer bond orders larger than 0.100000
B(  0-C ,  1-N ) :   1.0415 B(  0-C ,  2-C ) :  -0.1074 B(  0-C ,  7-H ) :  -0.1679
B(  0-C ,  9-C ) :   1.2431 B(  0-C , 10-H ) :   0.7154 B(  0-C , 11-H ) :   0.8191
B(  0-C , 13-H ) :   0.3026 B(  0-C , 14-H ) :   0.2135 B(  0-C , 15-H ) :   0.2353
B(  1-N ,  2-C ) :   1.1211 B(  1-N ,  3-N ) :   0.2204 B(  1-N ,  4-N ) :   0.2639
B(  1-N ,  7-H ) :   1.2492 B(  1-N , 10-H ) :   0.2327 B(  1-N , 11-H ) :   0.1468
B(  2-C ,  3-N ) :   1.0098 B(  2-C ,  4-N ) :   0.9373 B(  2-C ,  6-H ) :  -0.1780
B(  2-C ,  7-H ) :  -0.2835 B(  2-C ,  8-H ) :  -0.1297 B(  2-C , 12-H ) :  -0.1600
B(  3-N ,  4-N ) :   0.1527 B(  3-N ,  8-H ) :   1.0762 B(  3-N , 12-H ) :   1.2428
B(  4-N ,  5-H ) :   1.1466 B(  4-N ,  6-H ) :   1.1995 B(  5-H ,  6-H ) :  -0.1780
B(  8-H , 12-H ) :  -0.2129 B(  9-C , 13-H ) :   0.6913 B(  9-C , 14-H ) :   0.7156
B(  9-C , 15-H ) :   0.7522

Dispersion correction           -0.025087524
FINAL SINGLE POINT ENERGY      -284.107602681940

DIPOLE MOMENT
-------------
                                X             Y             Z
Electronic contribution:      4.67893       1.90228       0.08299
Nuclear contribution   :     -3.67981      -1.62355      -0.28562
                        -----------------------------------------
Total Dipole Moment    :      0.99912       0.27873      -0.20263
                        -----------------------------------------
Magnitude (a.u.)       :      1.05688
Magnitude (Debye)      :      2.68636

Rotational constants in cm-1:     0.222027     0.074735     0.065694
Rotational constants in MHz :  6656.200457  2240.503315  1969.451902

                             ****ORCA TERMINATED NORMALLY****
TOTAL RUN TIME: 0 days 0 hours 0 minutes 11 seconds 616 msec
