                         Program Version 5.0.0 -  RELEASE  -
|  1> !BLYP D3BJ RIJCOSX def2-SVPD def2/J TightSCF
|  2> *xyz 0 1
|  3> C          4.08422        1.74208       -2.11472
|  4> C          4.26524        2.50052       -0.79589
|  5> H          4.86853        3.39267       -0.98113
|  6> H          3.30764        2.82457       -0.38781
|  7> C          4.98224        1.65026        0.24742
|  8> F          4.36806        1.38927        1.31371
|  9> O          6.12892        1.23351       -0.04562
| 10> H          3.57911        2.36849       -2.81997
| 11> H          3.50424        0.85965       -1.94198
| 12> H          5.04288        1.46841       -2.50327
| 13> *
| 14> %MaxCore 64000
| 15> %pal nprocs 8
| 16> end
| 17> %scf
| 18>   MaxIter 150
| 19> end
| 20>
| 21>
| 22>                          ****END OF INPUT****

CARTESIAN COORDINATES (ANGSTROEM)
---------------------------------
  C      4.084220    1.742080   -2.114720
  C      4.265240    2.500520   -0.795890
  H      4.868530    3.392670   -0.981130
  H      3.307640    2.824570   -0.387810
  C      4.982240    1.650260    0.247420
  F      4.368060    1.389270    1.313710
  O      6.128920    1.233510   -0.045620
  H      3.579110    2.368490   -2.819970
  H      3.504240    0.859650   -1.941980
  H      5.042880    1.468410   -2.503270

 Total Charge           Charge          ....    0
 Multiplicity           Mult            ....    1
 Number of Electrons    NEL             ....   40
 Basis Dimension        Dim             ....  146

ORBITAL ENERGIES
----------------

  NO   OCC          E(Eh)            E(eV)
   0   2.0000     -24.374979      -663.2769
   1   2.0000     -18.799083      -511.5491
   2   2.0000     -10.096270      -274.7335
   3   2.0000      -9.955202      -270.8948
   4   2.0000      -9.930545      -270.2239
   5   2.0000      -1.195927       -32.5428
   6   2.0000      -0.933004       -25.3883
   7   2.0000      -0.717616       -19.5273
   8   2.0000      -0.614615       -16.7245
   9   2.0000      -0.570767       -15.5314
  10   2.0000      -0.488066       -13.2810
  11   2.0000      -0.472188       -12.8489
  12   2.0000      -0.446099       -12.1390
  13   2.0000      -0.413713       -11.2577
  14   2.0000      -0.382614       -10.4115
  15   2.0000      -0.354107        -9.6357
  16   2.0000      -0.333285        -9.0691
  17   2.0000      -0.329271        -8.9599
  18   2.0000      -0.306528        -8.3411
  19   2.0000      -0.245071        -6.6687
  20   0.0000      -0.069270        -1.8849
  21   0.0000      -0.004433        -0.1206
  22   0.0000       0.026258         0.7145
  23   0.0000       0.038630         1.0512
  24   0.0000       0.052000         1.4150

MULLIKEN ATOMIC CHARGES
-----------------------
   0 C :    0.945614
   1 C :   -0.009789
   2 H :   -0.074540
   3 H :   -0.187036
   4 C :    0.544722
   5 F :   -0.298961
   6 O :   -0.399877
   7 H :   -0.188195
   8 H :   -0.187171
   9 H :   -0.144767
Sum of atomic charges:   -0.0000000

LOEWDIN ATOMIC CHARGES
----------------------
   0 C :    0.156242
   1 C :    0.012019
   2 H :    0.034842
   3 H :    0.015685
   4 C :   -0.045191
   5 F :   -0.015394
   6 O :   -0.112644
   7 H :   -0.017877
   8 H :   -0.014107
   9 H :   -0.013575

  Mayer bond orders larger than 0.100000
B(  0-C ,  1-C ) :   1.3199 B(  0-C ,  2-H ) :   0.1138 B(  0-C ,  3-H ) :   0.1166
B(  0-C ,  7-H ) :   0.7598 B(  0-C ,  8-H ) :   0.7574 B(  0-C ,  9-H ) :   0.7477
B(  1-C ,  2-H ) :   0.8014 B(  1-C ,  3-H ) :   0.9050 B(  1-C ,  4-C ) :   1.0853
B(  1-C ,  7-H ) :   0.2033 B(  1-C ,  8-H ) :   0.2032 B(  1-C ,  9-H ) :   0.2199
B(  3-H ,  4-C ) :   0.1191 B(  4-C ,  5-F ) :   0.8252 B(  4-C ,  6-O ) :   1.8776
B(  5-F ,  6-O ) :   0.1248

Dispersion correction           -0.012878436
FINAL SINGLE POINT ENERGY      -292.127881372966

DIPOLE MOMENT
-------------
                                X             Y             Z
Electronic contribution:      1.93992      -2.05317       8.14018
Nuclear contribution   :     -2.87511       2.61564      -8.50037
                        -----------------------------------------
Total Dipole Moment    :     -0.93519       0.56246      -0.36019
                        -----------------------------------------
Magnitude (a.u.)       :      1.14921
Magnitude (Debye)      :      2.92105

Rotational constants in cm-1:     0.297822     0.128965     0.102219
Rotational constants in MHz :  8928.481997  3866.271686  3064.463504

                             ****ORCA TERMINATED NORMALLY****
TOTAL RUN TIME: 0 days 0 hours 0 minutes 8 seconds 575 msec
