                         Program Version 5.0.0 -  RELEASE  -
|  1> !BLYP D3BJ RIJCOSX def2-SVPD def2/J TightSCF
|  2> *xyz 0 1
|  3> C          3.91385       -1.65829        3.01513
|  4> C          5.03927       -0.90115        2.49282
|  5> C          6.21038       -1.41726        2.17824
|  6> N          6.53591       -2.67712        2.55608
|  7> N          7.07675       -0.70082        1.47891
|  8> H          7.95464       -1.12155        1.20755
|  9> H          6.75616        0.10664        0.96028
| 10> H          4.84217        0.01761        2.11519
| 11> H          5.99388       -3.12692        3.28278
| 12> C          3.13916       -2.37657        1.91061
| 13> H          3.26723       -0.93940        3.52069
| 14> H          4.24720       -2.35509        3.79006
| 15> H          7.49844       -2.97548        2.46878
| 16> H          2.82969       -1.66654        1.17238
| 17> H          2.27790       -2.85264        2.33072
| 18> H          3.76754       -3.11338        1.45548
| 19> *
| 20> %MaxCore 64000
| 21> %pal nprocs 8
| 22> end
| 23> %scf
| 24>   MaxIter 150
| 25> end
| 26>
| 27>
| 28>                          ****END OF INPUT****

CARTESIAN COORDINATES (ANGSTROEM)
---------------------------------
  C      3.913850   -1.658290    3.015130
  C      5.039270   -0.901150    2.492820
  C      6.210380   -1.417260    2.178240
  N      6.535910   -2.677120    2.556080
  N      7.076750   -0.700820    1.478910
  H      7.954640   -1.121550    1.207550
  H      6.756160    0.106640    0.960280
  H      4.842170    0.017610    2.115190
  H      5.993880   -3.126920    3.282780
  C      3.139160   -2.376570    1.910610
  H      3.267230   -0.939400    3.520690
  H      4.247200   -2.355090    3.790060
  H      7.498440   -2.975480    2.468780
  H      2.829690   -1.666540    1.172380
  H      2.277900   -2.852640    2.330720
  H      3.767540   -3.113380    1.455480

 Total Charge           Charge          ....    0
 Multiplicity           Mult            ....    1
 Number of Electrons    NEL             ....   48
 Basis Dimension        Dim             ....  200

ORBITAL ENERGIES
----------------

  NO   OCC          E(Eh)            E(eV)
   0   2.0000     -14.025589      -381.6557
   1   2.0000     -14.024058      -381.6140
   2   2.0000      -9.959240      -271.0047
   3   2.0000      -9.897829      -269.3336
   4   2.0000      -9.887704      -269.0581
   5   2.0000      -9.845615      -267.9128
   6   2.0000      -0.862873       -23.4800
   7   2.0000      -0.779573       -21.2133
   8   2.0000      -0.688274       -18.7289
   9   2.0000      -0.614996       -16.7349
  10   2.0000      -0.547094       -14.8872
  11   2.0000      -0.514764       -14.0074
  12   2.0000      -0.484131       -13.1739
  13   2.0000      -0.452755       -12.3201
  14   2.0000      -0.423042       -11.5116
  15   2.0000      -0.386855       -10.5269
  16   2.0000      -0.366945        -9.9851
  17   2.0000      -0.337398        -9.1811
  18   2.0000      -0.332919        -9.0592
  19   2.0000      -0.308031        -8.3819
  20   2.0000      -0.283878        -7.7247
  21   2.0000      -0.275836        -7.5059
  22   2.0000      -0.220591        -6.0026
  23   2.0000      -0.127440        -3.4678
  24   0.0000      -0.008385        -0.2282
  25   0.0000       0.019772         0.5380
  26   0.0000       0.024825         0.6755
  27   0.0000       0.039946         1.0870
  28   0.0000       0.052532         1.4295

MULLIKEN ATOMIC CHARGES
-----------------------
   0 C :    0.128031
   1 C :   -0.328285
   2 C :    0.719887
   3 N :    0.232993
   4 N :    0.265233
   5 H :   -0.225996
   6 H :   -0.121205
   7 H :   -0.317401
   8 H :   -0.098290
   9 C :    1.052573
  10 H :   -0.233885
  11 H :   -0.215790
  12 H :   -0.367171
  13 H :   -0.165307
  14 H :   -0.141422
  15 H :   -0.183965
Sum of atomic charges:    0.0000000

LOEWDIN ATOMIC CHARGES
----------------------
   0 C :   -0.092657
   1 C :   -0.031765
   2 C :   -0.234746
   3 N :    0.223049
   4 N :    0.198209
   5 H :   -0.017985
   6 H :    0.001399
   7 H :   -0.050235
   8 H :   -0.022765
   9 C :    0.134924
  10 H :    0.008505
  11 H :   -0.004533
  12 H :   -0.022241
  13 H :   -0.024599
  14 H :   -0.033570
  15 H :   -0.030990

  Mayer bond orders larger than 0.100000
B(  0-C ,  1-C ) :   1.2848 B(  0-C ,  7-H ) :   0.4163 B(  0-C ,  9-C ) :   1.2113
B(  0-C , 10-H ) :   0.6476 B(  0-C , 11-H ) :   0.7705 B(  0-C , 13-H ) :   0.2992
B(  0-C , 14-H ) :   0.2261 B(  0-C , 15-H ) :   0.2494 B(  1-C ,  2-C ) :   1.5158
B(  1-C ,  3-N ) :   0.2595 B(  1-C ,  4-N ) :   0.3739 B(  1-C ,  7-H ) :   0.7146
B(  1-C , 10-H ) :   0.3704 B(  1-C , 11-H ) :   0.3010 B(  2-C ,  3-N ) :   0.9930
B(  2-C ,  4-N ) :   0.8672 B(  2-C ,  6-H ) :  -0.1195 B(  2-C ,  7-H ) :   0.2490
B(  2-C , 11-H ) :  -0.1206 B(  2-C , 12-H ) :  -0.1721 B(  3-N ,  4-N ) :   0.1127
B(  3-N ,  8-H ) :   1.0364 B(  3-N , 12-H ) :   1.2867 B(  4-N ,  5-H ) :   1.1296
B(  4-N ,  6-H ) :   1.1686 B(  5-H ,  6-H ) :  -0.1717 B(  8-H , 12-H ) :  -0.2035
B(  9-C , 13-H ) :   0.7236 B(  9-C , 14-H ) :   0.7149 B(  9-C , 15-H ) :   0.7472

Dispersion correction           -0.026214337
FINAL SINGLE POINT ENERGY      -267.627447633917

DIPOLE MOMENT
-------------
                                X             Y             Z
Electronic contribution:      4.61540       1.24854      -0.03168
Nuclear contribution   :     -3.74303      -1.46908      -0.23637
                        -----------------------------------------
Total Dipole Moment    :      0.87237      -0.22054      -0.26806
                        -----------------------------------------
Magnitude (a.u.)       :      0.93889
Magnitude (Debye)      :      2.38648

Rotational constants in cm-1:     0.225937     0.074877     0.065953
Rotational constants in MHz :  6773.424301  2244.750632  1977.214101

                             ****ORCA TERMINATED NORMALLY****
TOTAL RUN TIME: 0 days 0 hours 0 minutes 12 seconds 167 msec
