                         Program Version 5.0.0 -  RELEASE  -
|  1> !BLYP D3BJ RIJCOSX def2-SVPD def2/J TightSCF
|  2> *xyz 0 1
|  3> C          4.08422        1.74208       -2.11472
|  4> C          4.26524        2.50052       -0.79589
|  5> H          4.86853        3.39267       -0.98113
|  6> H          3.30764        2.82457       -0.38781
|  7> C          4.98224        1.65026        0.24742
|  8> O          4.36806        1.38927        1.31371
|  9> F          6.12892        1.23351       -0.04562
| 10> H          3.57911        2.36849       -2.81997
| 11> H          3.50424        0.85965       -1.94198
| 12> H          5.04288        1.46841       -2.50327
| 13> *
| 14> %MaxCore 64000
| 15> %pal nprocs 8
| 16> end
| 17> %scf
| 18>   MaxIter 150
| 19> end
| 20>
| 21>
| 22>                          ****END OF INPUT****

CARTESIAN COORDINATES (ANGSTROEM)
---------------------------------
  C      4.084220    1.742080   -2.114720
  C      4.265240    2.500520   -0.795890
  H      4.868530    3.392670   -0.981130
  H      3.307640    2.824570   -0.387810
  C      4.982240    1.650260    0.247420
  O      4.368060    1.389270    1.313710
  F      6.128920    1.233510   -0.045620
  H      3.579110    2.368490   -2.819970
  H      3.504240    0.859650   -1.941980
  H      5.042880    1.468410   -2.503270

 Total Charge           Charge          ....    0
 Multiplicity           Mult            ....    1
 Number of Electrons    NEL             ....   40
 Basis Dimension        Dim             ....  146

ORBITAL ENERGIES
----------------

  NO   OCC          E(Eh)            E(eV)
   0   2.0000     -24.376275      -663.3122
   1   2.0000     -18.798219      -511.5256
   2   2.0000     -10.095914      -274.7238
   3   2.0000      -9.954964      -270.8883
   4   2.0000      -9.935082      -270.3473
   5   2.0000      -1.198642       -32.6167
   6   2.0000      -0.929875       -25.3032
   7   2.0000      -0.721465       -19.6321
   8   2.0000      -0.612562       -16.6687
   9   2.0000      -0.575623       -15.6635
  10   2.0000      -0.490701       -13.3527
  11   2.0000      -0.477305       -12.9881
  12   2.0000      -0.441468       -12.0130
  13   2.0000      -0.413327       -11.2472
  14   2.0000      -0.384270       -10.4565
  15   2.0000      -0.356677        -9.7057
  16   2.0000      -0.336450        -9.1553
  17   2.0000      -0.332468        -9.0469
  18   2.0000      -0.310178        -8.4404
  19   2.0000      -0.240243        -6.5373
  20   0.0000      -0.066746        -1.8162
  21   0.0000      -0.006638        -0.1806
  22   0.0000       0.027131         0.7383
  23   0.0000       0.037769         1.0278
  24   0.0000       0.052548         1.4299

MULLIKEN ATOMIC CHARGES
-----------------------
   0 C :    0.933499
   1 C :    0.021043
   2 H :   -0.090657
   3 H :   -0.193234
   4 C :    0.551188
   5 O :   -0.371766
   6 F :   -0.321472
   7 H :   -0.184888
   8 H :   -0.186517
   9 H :   -0.157196
Sum of atomic charges:   -0.0000000

LOEWDIN ATOMIC CHARGES
----------------------
   0 C :    0.151398
   1 C :    0.016393
   2 H :    0.029431
   3 H :    0.028277
   4 C :   -0.050017
   5 O :   -0.115058
   6 F :   -0.011674
   7 H :   -0.017493
   8 H :   -0.012284
   9 H :   -0.018973

  Mayer bond orders larger than 0.100000
B(  0-C ,  1-C ) :   1.3011 B(  0-C ,  2-H ) :   0.1121 B(  0-C ,  3-H ) :   0.1033
B(  0-C ,  7-H ) :   0.7691 B(  0-C ,  8-H ) :   0.7699 B(  0-C ,  9-H ) :   0.7392
B(  1-C ,  2-H ) :   0.8023 B(  1-C ,  3-H ) :   0.9121 B(  1-C ,  4-C ) :   1.0620
B(  1-C ,  7-H ) :   0.2014 B(  1-C ,  8-H ) :   0.1984 B(  1-C ,  9-H ) :   0.2141
B(  3-H ,  4-C ) :   0.1690 B(  4-C ,  5-O ) :   1.8714 B(  4-C ,  6-F ) :   0.7990
B(  5-O ,  6-F ) :   0.1347

Dispersion correction           -0.012793854
FINAL SINGLE POINT ENERGY      -292.127098887986

DIPOLE MOMENT
-------------
                                X             Y             Z
Electronic contribution:      4.84140      -2.29971       5.86847
Nuclear contribution   :     -4.79499       2.78546      -7.01827
                        -----------------------------------------
Total Dipole Moment    :      0.04640       0.48575      -1.14980
                        -----------------------------------------
Magnitude (a.u.)       :      1.24906
Magnitude (Debye)      :      3.17486

Rotational constants in cm-1:     0.286098     0.133492     0.103343
Rotational constants in MHz :  8577.003657  4001.981591  3098.148068

                             ****ORCA TERMINATED NORMALLY****
TOTAL RUN TIME: 0 days 0 hours 0 minutes 8 seconds 374 msec
