                         Program Version 5.0.0 -  RELEASE  -
|  1> !BLYP D3BJ RIJCOSX def2-SVPD def2/J TightSCF
|  2> *xyz 0 1
|  3> C          3.91385       -1.65829        3.01513
|  4> N          5.03927       -0.90115        2.49282
|  5> C          6.21038       -1.41726        2.17824
|  6> C          6.53591       -2.67712        2.55608
|  7> N          7.07675       -0.70082        1.47891
|  8> H          7.95464       -1.12155        1.20755
|  9> H          6.75616        0.10664        0.96028
| 10> H          4.84217        0.01761        2.11519
| 11> H          5.99388       -3.12692        3.28278
| 12> C          3.13916       -2.37657        1.91061
| 13> H          3.26723       -0.93940        3.52069
| 14> H          4.24720       -2.35509        3.79006
| 15> H          7.49844       -2.97548        2.46878
| 16> H          2.82969       -1.66654        1.17238
| 17> H          2.27790       -2.85264        2.33072
| 18> H          3.76754       -3.11338        1.45548
| 19> *
| 20> %MaxCore 64000
| 21> %pal nprocs 8
| 22> end
| 23> %scf
| 24>   MaxIter 150
| 25> end
| 26>
| 27>
| 28>                          ****END OF INPUT****

CARTESIAN COORDINATES (ANGSTROEM)
---------------------------------
  C      3.913850   -1.658290    3.015130
  N      5.039270   -0.901150    2.492820
  C      6.210380   -1.417260    2.178240
  C      6.535910   -2.677120    2.556080
  N      7.076750   -0.700820    1.478910
  H      7.954640   -1.121550    1.207550
  H      6.756160    0.106640    0.960280
  H      4.842170    0.017610    2.115190
  H      5.993880   -3.126920    3.282780
  C      3.139160   -2.376570    1.910610
  H      3.267230   -0.939400    3.520690
  H      4.247200   -2.355090    3.790060
  H      7.498440   -2.975480    2.468780
  H      2.829690   -1.666540    1.172380
  H      2.277900   -2.852640    2.330720
  H      3.767540   -3.113380    1.455480

 Total Charge           Charge          ....    0
 Multiplicity           Mult            ....    1
 Number of Electrons    NEL             ....   48
 Basis Dimension        Dim             ....  200

ORBITAL ENERGIES
----------------

  NO   OCC          E(Eh)            E(eV)
   0   2.0000     -14.027867      -381.7177
   1   2.0000     -14.026472      -381.6797
   2   2.0000      -9.964109      -271.1372
   3   2.0000      -9.954720      -270.8817
   4   2.0000      -9.905340      -269.5380
   5   2.0000      -9.836213      -267.6570
   6   2.0000      -0.875324       -23.8188
   7   2.0000      -0.797722       -21.7071
   8   2.0000      -0.672117       -18.2892
   9   2.0000      -0.625982       -17.0338
  10   2.0000      -0.570960       -15.5366
  11   2.0000      -0.501978       -13.6595
  12   2.0000      -0.494504       -13.4561
  13   2.0000      -0.464154       -12.6303
  14   2.0000      -0.415590       -11.3088
  15   2.0000      -0.388634       -10.5753
  16   2.0000      -0.367084        -9.9889
  17   2.0000      -0.349045        -9.4980
  18   2.0000      -0.331961        -9.0331
  19   2.0000      -0.319252        -8.6873
  20   2.0000      -0.314635        -8.5617
  21   2.0000      -0.301158        -8.1949
  22   2.0000      -0.208240        -5.6665
  23   2.0000      -0.129837        -3.5331
  24   0.0000      -0.008622        -0.2346
  25   0.0000       0.016803         0.4572
  26   0.0000       0.026486         0.7207
  27   0.0000       0.032832         0.8934
  28   0.0000       0.055145         1.5006

MULLIKEN ATOMIC CHARGES
-----------------------
   0 C :    0.563173
   1 N :   -0.147444
   2 C :    0.556204
   3 C :    0.686004
   4 N :    0.277136
   5 H :   -0.093718
   6 H :   -0.260201
   7 H :   -0.425859
   8 H :   -0.306741
   9 C :    1.070074
  10 H :   -0.531839
  11 H :   -0.104719
  12 H :   -0.705383
  13 H :   -0.207182
  14 H :   -0.157054
  15 H :   -0.212450
Sum of atomic charges:   -0.0000000

LOEWDIN ATOMIC CHARGES
----------------------
   0 C :    0.020400
   1 N :   -0.001691
   2 C :   -0.250165
   3 C :    0.172830
   4 N :    0.203070
   5 H :    0.002162
   6 H :   -0.016075
   7 H :    0.017236
   8 H :   -0.126441
   9 C :    0.151894
  10 H :    0.012933
  11 H :    0.009937
  12 H :   -0.113489
  13 H :   -0.027887
  14 H :   -0.025810
  15 H :   -0.028903

  Mayer bond orders larger than 0.100000
B(  0-C ,  1-N ) :   0.9932 B(  0-C ,  2-C ) :  -0.1115 B(  0-C ,  3-C ) :   0.1185
B(  0-C ,  7-H ) :  -0.1633 B(  0-C ,  9-C ) :   1.1964 B(  0-C , 10-H ) :   0.7540
B(  0-C , 11-H ) :   0.8046 B(  0-C , 13-H ) :   0.2873 B(  0-C , 14-H ) :   0.2251
B(  0-C , 15-H ) :   0.2404 B(  1-N ,  2-C ) :   1.0266 B(  1-N ,  3-C ) :   0.4215
B(  1-N ,  4-N ) :   0.1603 B(  1-N ,  7-H ) :   1.2940 B(  1-N , 10-H ) :   0.2036
B(  1-N , 11-H ) :   0.1273 B(  2-C ,  3-C ) :   1.5482 B(  2-C ,  4-N ) :   0.9245
B(  2-C ,  7-H ) :  -0.2940 B(  2-C ,  8-H ) :   0.3608 B(  2-C , 12-H ) :   0.2046
B(  3-C ,  4-N ) :   0.2670 B(  3-C ,  8-H ) :   0.5286 B(  3-C , 12-H ) :   0.6429
B(  4-N ,  5-H ) :   1.1296 B(  4-N ,  6-H ) :   1.2012 B(  5-H ,  6-H ) :  -0.1734
B(  8-H , 11-H ) :   0.1046 B(  8-H , 12-H ) :   0.1052 B(  9-C , 13-H ) :   0.7033
B(  9-C , 14-H ) :   0.7301 B(  9-C , 15-H ) :   0.7637 B( 10-H , 11-H ) :  -0.1414

Dispersion correction           -0.026098825
FINAL SINGLE POINT ENERGY      -267.619005240508

DIPOLE MOMENT
-------------
                                X             Y             Z
Electronic contribution:      3.07860       2.78859      -0.19038
Nuclear contribution   :     -3.42552      -1.84584      -0.22295
                        -----------------------------------------
Total Dipole Moment    :     -0.34692       0.94275      -0.41333
                        -----------------------------------------
Magnitude (a.u.)       :      1.08627
Magnitude (Debye)      :      2.76107

Rotational constants in cm-1:     0.233526     0.075277     0.067092
Rotational constants in MHz :  7000.931279  2256.752901  2011.361214

                             ****ORCA TERMINATED NORMALLY****
TOTAL RUN TIME: 0 days 0 hours 0 minutes 11 seconds 964 msec
