                         Program Version 5.0.0 -  RELEASE  -
|  1> !BLYP D3BJ RIJCOSX def2-SVPD def2/J TightSCF
|  2> *xyz 0 1
|  3> C          3.91385       -1.65829        3.01513
|  4> N          5.03927       -0.90115        2.49282
|  5> C          6.21038       -1.41726        2.17824
|  6> N          6.53591       -2.67712        2.55608
|  7> C          7.07675       -0.70082        1.47891
|  8> H          7.95464       -1.12155        1.20755
|  9> H          6.75616        0.10664        0.96028
| 10> H          4.84217        0.01761        2.11519
| 11> H          5.99388       -3.12692        3.28278
| 12> C          3.13916       -2.37657        1.91061
| 13> H          3.26723       -0.93940        3.52069
| 14> H          4.24720       -2.35509        3.79006
| 15> H          7.49844       -2.97548        2.46878
| 16> H          2.82969       -1.66654        1.17238
| 17> H          2.27790       -2.85264        2.33072
| 18> H          3.76754       -3.11338        1.45548
| 19> *
| 20> %MaxCore 64000
| 21> %pal nprocs 8
| 22> end
| 23> %scf
| 24>   MaxIter 150
| 25> end
| 26>
| 27>
| 28>                          ****END OF INPUT****

CARTESIAN COORDINATES (ANGSTROEM)
---------------------------------
  C      3.913850   -1.658290    3.015130
  N      5.039270   -0.901150    2.492820
  C      6.210380   -1.417260    2.178240
  N      6.535910   -2.677120    2.556080
  C      7.076750   -0.700820    1.478910
  H      7.954640   -1.121550    1.207550
  H      6.756160    0.106640    0.960280
  H      4.842170    0.017610    2.115190
  H      5.993880   -3.126920    3.282780
  C      3.139160   -2.376570    1.910610
  H      3.267230   -0.939400    3.520690
  H      4.247200   -2.355090    3.790060
  H      7.498440   -2.975480    2.468780
  H      2.829690   -1.666540    1.172380
  H      2.277900   -2.852640    2.330720
  H      3.767540   -3.113380    1.455480

 Total Charge           Charge          ....    0
 Multiplicity           Mult            ....    1
 Number of Electrons    NEL             ....   48
 Basis Dimension        Dim             ....  200

ORBITAL ENERGIES
----------------

  NO   OCC          E(Eh)            E(eV)
   0   2.0000     -14.024277      -381.6200
   1   2.0000     -14.024156      -381.6167
   2   2.0000      -9.962822      -271.1022
   3   2.0000      -9.961286      -271.0604
   4   2.0000      -9.912690      -269.7380
   5   2.0000      -9.834410      -267.6079
   6   2.0000      -0.870714       -23.6933
   7   2.0000      -0.790940       -21.5226
   8   2.0000      -0.688200       -18.7269
   9   2.0000      -0.622004       -16.9256
  10   2.0000      -0.558738       -15.2040
  11   2.0000      -0.537469       -14.6253
  12   2.0000      -0.478714       -13.0265
  13   2.0000      -0.442413       -12.0387
  14   2.0000      -0.427239       -11.6258
  15   2.0000      -0.390047       -10.6137
  16   2.0000      -0.378720       -10.3055
  17   2.0000      -0.355006        -9.6602
  18   2.0000      -0.332873        -9.0579
  19   2.0000      -0.325011        -8.8440
  20   2.0000      -0.314020        -8.5449
  21   2.0000      -0.309627        -8.4254
  22   2.0000      -0.211038        -5.7426
  23   2.0000      -0.128238        -3.4895
  24   0.0000      -0.008476        -0.2306
  25   0.0000       0.017279         0.4702
  26   0.0000       0.023273         0.6333
  27   0.0000       0.031470         0.8563
  28   0.0000       0.051393         1.3985

MULLIKEN ATOMIC CHARGES
-----------------------
   0 C :    0.569684
   1 N :   -0.052760
   2 C :    0.599733
   3 N :    0.360942
   4 C :    0.565779
   5 H :   -0.519406
   6 H :   -0.427724
   7 H :   -0.363784
   8 H :   -0.232437
   9 C :    1.063235
  10 H :   -0.521745
  11 H :   -0.248190
  12 H :   -0.248377
  13 H :   -0.194301
  14 H :   -0.177133
  15 H :   -0.173515
Sum of atomic charges:   -0.0000000

LOEWDIN ATOMIC CHARGES
----------------------
   0 C :    0.012856
   1 N :    0.003301
   2 C :   -0.249768
   3 N :    0.222209
   4 C :    0.151782
   5 H :   -0.109552
   6 H :   -0.107172
   7 H :    0.032666
   8 H :   -0.038736
   9 C :    0.149099
  10 H :    0.013124
  11 H :    0.001919
  12 H :   -0.002897
  13 H :   -0.023411
  14 H :   -0.027451
  15 H :   -0.027970

  Mayer bond orders larger than 0.100000
B(  0-C ,  1-N ) :   0.9961 B(  0-C ,  7-H ) :  -0.1785 B(  0-C ,  9-C ) :   1.2142
B(  0-C , 10-H ) :   0.6993 B(  0-C , 11-H ) :   0.8145 B(  0-C , 13-H ) :   0.3188
B(  0-C , 14-H ) :   0.2336 B(  0-C , 15-H ) :   0.2313 B(  1-N ,  2-C ) :   1.1194
B(  1-N ,  3-N ) :   0.1478 B(  1-N ,  4-C ) :   0.2922 B(  1-N ,  7-H ) :   1.1887
B(  1-N , 10-H ) :   0.2407 B(  1-N , 11-H ) :   0.1609 B(  2-C ,  3-N ) :   0.9723
B(  2-C ,  4-C ) :   1.2454 B(  2-C ,  5-H ) :   0.2015 B(  2-C ,  6-H ) :   0.1259
B(  2-C ,  7-H ) :  -0.2157 B(  3-N ,  4-C ) :   0.2310 B(  3-N ,  8-H ) :   1.0282
B(  3-N , 12-H ) :   1.2031 B(  4-C ,  5-H ) :   0.6480 B(  4-C ,  6-H ) :   0.7552
B(  5-H ,  6-H ) :   0.1425 B(  8-H , 12-H ) :  -0.2055 B(  9-C , 13-H ) :   0.6855
B(  9-C , 14-H ) :   0.7330 B(  9-C , 15-H ) :   0.7526

Dispersion correction           -0.025919437
FINAL SINGLE POINT ENERGY      -267.618597728418

DIPOLE MOMENT
-------------
                                X             Y             Z
Electronic contribution:      2.54381       0.93622       0.95684
Nuclear contribution   :     -3.31079      -1.42658      -0.45147
                        -----------------------------------------
Total Dipole Moment    :     -0.76698      -0.49037       0.50538
                        -----------------------------------------
Magnitude (a.u.)       :      1.04121
Magnitude (Debye)      :      2.64655

Rotational constants in cm-1:     0.225507     0.077571     0.068070
Rotational constants in MHz :  6760.542142  2325.533779  2040.680522

                             ****ORCA TERMINATED NORMALLY****
TOTAL RUN TIME: 0 days 0 hours 0 minutes 12 seconds 57 msec
