                         Program Version 5.0.0 -  RELEASE  -
|  1> !BLYP D3BJ RIJCOSX def2-SVPD def2/J TightSCF xyzfile
|  2>
|  3> *xyzfile 0 1 D2.xyz
|  4>
|  5> %MaxCore 64000
|  6>
|  7> %pal nprocs 4
|  8> end
|  9>
| 10> %scf
| 11>   MaxIter 150
| 12> end
| 13>
| 14>
| 15>                          ****END OF INPUT****

CARTESIAN COORDINATES (ANGSTROEM)
---------------------------------
  C      3.913853   -1.658291    3.015134
  N      5.039266   -0.901154    2.492821
  C      4.084215    1.742081   -2.114724
  C      4.265245    2.500518   -0.795890
  H      4.868534    3.392674   -0.981134
  H      3.307640    2.824571   -0.387809
  C      4.982240    1.650257    0.247422
  C      6.210384   -1.417261    2.178244
  C      6.535913   -2.677122    2.556078
  N      7.076754   -0.700820    1.478906
  H      7.954643   -1.121554    1.207554
  H      6.756161    0.106637    0.960278
  H      4.842168    0.017609    2.115191
  H      5.993876   -3.126918    3.282784
  H      7.498441   -2.975482    2.468776
  F      4.368065    1.389270    1.313706
  O      6.128919    1.233512   -0.045620
  C      3.139159   -2.376572    1.910609
  H      3.267235   -0.939401    3.520693
  H      4.247195   -2.355095    3.790065
  C      1.997274    0.430918   -1.399218
  C      3.412746    0.376886   -1.965497
  H      4.047407   -0.246590   -1.326706
  H      3.390774   -0.118719   -2.942839
  H      5.068475    1.598504   -2.565728
  H      3.503356    2.363939   -2.804565
  C      2.399946   -1.389579    1.009490
  H      2.440750   -3.087118    2.362976
  H      3.844475   -2.970462    1.318677
  C      2.070177   -1.936705   -0.372401
  H      1.481611   -1.061542    1.509912
  H      3.008628   -0.490001    0.897451
  C      1.322238   -0.935775   -1.256413
  H      1.472747   -2.850902   -0.283997
  H      3.003539   -2.234041   -0.862535
  H      1.376444    1.058920   -2.047420
  H      2.015341    0.929780   -0.426535
  H      0.316648   -0.787213   -0.848278
  H      1.185611   -1.379252   -2.248613

 Total Charge           Charge          ....    0
 Multiplicity           Mult            ....    1
 Number of Electrons    NEL             ....  126
 Basis Dimension        Dim             ....  510

ORBITAL ENERGIES
----------------

  NO   OCC          E(Eh)            E(eV)
   0   2.0000     -24.409119      -664.2059
   1   2.0000     -18.826864      -512.3050
   2   2.0000     -14.006822      -381.1450
   3   2.0000     -13.989008      -380.6603
   4   2.0000     -10.118120      -275.3280
   5   2.0000      -9.965060      -271.1631
   6   2.0000      -9.946539      -270.6591
   7   2.0000      -9.945150      -270.6213
   8   2.0000      -9.942783      -270.5569
   9   2.0000      -9.931220      -270.2422
  10   2.0000      -9.926898      -270.1246
  11   2.0000      -9.921289      -269.9720
  12   2.0000      -9.915993      -269.8279
  13   2.0000      -9.914721      -269.7933
  14   2.0000      -9.907511      -269.5971
  15   2.0000      -9.823867      -267.3210
  16   2.0000      -1.232140       -33.5282
  17   2.0000      -0.965806       -26.2809
  18   2.0000      -0.856398       -23.3038
  19   2.0000      -0.776492       -21.1294
  20   2.0000      -0.751673       -20.4541
  21   2.0000      -0.724110       -19.7040
  22   2.0000      -0.692710       -18.8496
  23   2.0000      -0.661826       -18.0092
  24   2.0000      -0.637277       -17.3412
  25   2.0000      -0.616812       -16.7843
  26   2.0000      -0.604491       -16.4490
  27   2.0000      -0.581612       -15.8265
  28   2.0000      -0.549269       -14.9464
  29   2.0000      -0.531938       -14.4748
  30   2.0000      -0.520747       -14.1702
  31   2.0000      -0.508548       -13.8383
  32   2.0000      -0.501583       -13.6488
  33   2.0000      -0.486134       -13.2284
  34   2.0000      -0.474386       -12.9087
  35   2.0000      -0.456710       -12.4277
  36   2.0000      -0.441806       -12.0221
  37   2.0000      -0.432193       -11.7606
  38   2.0000      -0.431629       -11.7452
  39   2.0000      -0.413361       -11.2481
  40   2.0000      -0.400361       -10.8944
  41   2.0000      -0.396691       -10.7945
  42   2.0000      -0.381139       -10.3713
  43   2.0000      -0.378088       -10.2883
  44   2.0000      -0.370035       -10.0692
  45   2.0000      -0.359729        -9.7887
  46   2.0000      -0.354292        -9.6408
  47   2.0000      -0.345317        -9.3966
  48   2.0000      -0.332479        -9.0472
  49   2.0000      -0.329972        -8.9790
  50   2.0000      -0.324185        -8.8215
  51   2.0000      -0.317555        -8.6411
  52   2.0000      -0.314571        -8.5599
  53   2.0000      -0.307395        -8.3646
  54   2.0000      -0.299024        -8.1369
  55   2.0000      -0.294078        -8.0023
  56   2.0000      -0.287547        -7.8246
  57   2.0000      -0.277933        -7.5629
  58   2.0000      -0.276216        -7.5162
  59   2.0000      -0.272144        -7.4054
  60   2.0000      -0.264263        -7.1910
  61   2.0000      -0.187791        -5.1101
  62   2.0000      -0.116366        -3.1665
  63   0.0000      -0.094288        -2.5657
  64   0.0000      -0.012187        -0.3316
  65   0.0000       0.005355         0.1457
  66   0.0000       0.008216         0.2236
  67   0.0000       0.012415         0.3378

MULLIKEN ATOMIC CHARGES
-----------------------
   0 C :    1.513302
   1 N :    0.674021
   2 C :    0.712688
   3 C :    0.596783
   4 H :   -0.287022
   5 H :    0.021525
   6 C :    0.366060
   7 C :    0.433005
   8 C :    0.857608
   9 N :    0.828211
  10 H :   -0.163785
  11 H :   -0.709027
  12 H :   -1.324265
  13 H :   -0.190158
  14 H :   -0.838365
  15 F :   -0.488199
  16 O :   -0.370146
  17 C :    0.644583
  18 H :   -0.566750
  19 H :   -0.313652
  20 C :    0.184046
  21 C :    0.180412
  22 H :   -0.177526
  23 H :   -0.303623
  24 H :   -0.121591
  25 H :   -0.271919
  26 C :    0.981582
  27 H :   -0.290851
  28 H :   -0.166349
  29 C :    0.324005
  30 H :   -0.143876
  31 H :   -1.190775
  32 C :    1.008879
  33 H :   -0.598461
  34 H :    0.016337
  35 H :   -0.586411
  36 H :    0.048506
  37 H :   -0.129727
  38 H :   -0.159077
Sum of atomic charges:   -0.0000000

LOEWDIN ATOMIC CHARGES
----------------------
   0 C :    0.067496
   1 N :    0.030774
   2 C :   -0.002195
   3 C :    0.065640
   4 H :    0.038176
   5 H :    0.017232
   6 C :    0.010858
   7 C :   -0.226553
   8 C :    0.173771
   9 N :    0.239748
  10 H :    0.004881
  11 H :   -0.139125
  12 H :   -0.064717
  13 H :   -0.129230
  14 H :   -0.113745
  15 F :   -0.011099
  16 O :   -0.081217
  17 C :   -0.002169
  18 H :    0.017673
  19 H :    0.007192
  20 C :   -0.026849
  21 C :   -0.017393
  22 H :    0.010432
  23 H :    0.029826
  24 H :    0.025579
  25 H :    0.025465
  26 C :   -0.030156
  27 H :    0.019544
  28 H :    0.014923
  29 C :   -0.026847
  30 H :    0.029805
  31 H :   -0.031260
  32 C :   -0.020075
  33 H :    0.021972
  34 H :    0.016204
  35 H :    0.021216
  36 H :   -0.001465
  37 H :    0.018208
  38 H :    0.017477

  Mayer bond orders larger than 0.100000
B(  0-C ,  1-N ) :   0.9954 B(  0-C ,  8-C ) :   0.1056 B(  0-C , 12-H ) :  -0.5362
B(  0-C , 17-C ) :   0.9907 B(  0-C , 18-H ) :   0.4385 B(  0-C , 19-H ) :   0.5829
B(  0-C , 26-C ) :   0.2129 B(  0-C , 28-H ) :   0.1017 B(  1-N ,  7-C ) :   0.9282
B(  1-N ,  8-C ) :   0.5063 B(  1-N , 12-H ) :   0.3175 B(  1-N , 18-H ) :   0.2578
B(  2-C ,  3-C ) :   1.1187 B(  2-C ,  4-H ) :   0.2193 B(  2-C ,  5-H ) :   0.1226
B(  2-C ,  6-C ) :   0.1602 B(  2-C , 21-C ) :   1.1989 B(  2-C , 22-H ) :   0.1458
B(  2-C , 24-H ) :   0.5276 B(  2-C , 25-H ) :   0.6703 B(  3-C ,  4-H ) :   0.4742
B(  3-C ,  5-H ) :   0.6829 B(  3-C ,  6-C ) :   1.2070 B(  3-C , 16-O ) :   0.1071
B(  3-C , 21-C ) :   0.1901 B(  3-C , 24-H ) :   0.1303 B(  3-C , 25-H ) :   0.2022
B(  4-H ,  6-C ) :   0.3298 B(  5-H ,  6-C ) :   0.2646 B(  6-C , 15-F ) :   0.7715
B(  6-C , 16-O ) :   1.7464 B(  7-C ,  8-C ) :   1.3663 B(  7-C ,  9-N ) :   0.9876
B(  7-C , 11-H ) :  -0.1324 B(  7-C , 12-H ) :  -0.5750 B(  7-C , 13-H ) :   0.4319
B(  7-C , 14-H ) :   0.4427 B(  8-C ,  9-N ) :   0.2803 B(  8-C , 12-H ) :  -0.1356
B(  8-C , 13-H ) :   0.4851 B(  8-C , 14-H ) :   0.3098 B(  9-N , 10-H ) :   1.1045
B(  9-N , 11-H ) :   0.8698 B(  9-N , 12-H ) :  -0.1084 B( 10-H , 11-H ) :  -0.2806
B( 11-H , 12-H ) :   0.1253 B( 11-H , 16-O ) :   0.1336 B( 12-H , 15-F ) :   0.3418
B( 12-H , 18-H ) :   0.1724 B( 13-H , 18-H ) :  -0.1242 B( 13-H , 19-H ) :   0.1666
B( 15-F , 31-H ) :   0.1177 B( 17-C , 19-H ) :   0.2053 B( 17-C , 26-C ) :   1.0947
B( 17-C , 27-H ) :   0.7743 B( 17-C , 28-H ) :   0.8129 B( 17-C , 29-C ) :   0.1365
B( 17-C , 30-H ) :   0.1735 B( 18-H , 19-H ) :  -0.3695 B( 20-C , 21-C ) :   1.2118
B( 20-C , 22-H ) :   0.1486 B( 20-C , 23-H ) :   0.1810 B( 20-C , 29-C ) :   0.2169
B( 20-C , 32-C ) :   1.1020 B( 20-C , 35-H ) :   0.8062 B( 20-C , 36-H ) :   0.7754
B( 20-C , 37-H ) :   0.3841 B( 20-C , 38-H ) :   0.1727 B( 21-C , 22-H ) :   0.8384
B( 21-C , 23-H ) :   0.7277 B( 21-C , 24-H ) :   0.3251 B( 21-C , 25-H ) :   0.2102
B( 21-C , 35-H ) :   0.1334 B( 21-C , 36-H ) :   0.1492 B( 22-H , 34-H ) :   0.1099
B( 24-H , 25-H ) :  -0.1919 B( 26-C , 27-H ) :   0.2084 B( 26-C , 28-H ) :   0.1347
B( 26-C , 29-C ) :   1.2198 B( 26-C , 30-H ) :   0.4678 B( 26-C , 31-H ) :  -0.3744
B( 26-C , 32-C ) :   0.1134 B( 26-C , 34-H ) :   0.2097 B( 27-H , 31-H ) :   0.1356
B( 28-H , 33-H ) :  -0.1178 B( 29-C , 30-H ) :   0.1158 B( 29-C , 31-H ) :   0.1972
B( 29-C , 32-C ) :   1.0535 B( 29-C , 33-H ) :   0.8277 B( 29-C , 34-H ) :   0.7583
B( 29-C , 37-H ) :   0.1356 B( 29-C , 38-H ) :   0.3191 B( 30-H , 31-H ) :   0.2892
B( 31-H , 36-H ) :   0.1229 B( 32-C , 37-H ) :   0.4892 B( 32-C , 38-H ) :   0.5339
B( 33-H , 34-H ) :  -0.1373 B( 37-H , 38-H ) :  -0.1732

Dispersion correction           -0.088026010
FINAL SINGLE POINT ENERGY      -754.887746338465

DIPOLE MOMENT
-------------
                                X             Y             Z
Electronic contribution:      9.88920      10.27048       5.72170
Nuclear contribution   :    -11.22009      -8.67117      -6.77523
                        -----------------------------------------
Total Dipole Moment    :     -1.33089       1.59931      -1.05352
                        -----------------------------------------
Magnitude (a.u.)       :      2.33216
Magnitude (Debye)      :      5.92787

Rotational constants in cm-1:     0.020086     0.013778     0.009581
Rotational constants in MHz :   602.172053   413.051122   287.243919

                             ****ORCA TERMINATED NORMALLY****
TOTAL RUN TIME: 0 days 0 hours 1 minutes 13 seconds 674 msec
