                         Program Version 5.0.0 -  RELEASE  -
|  1> !BLYP D3BJ RIJCOSX def2-SVPD def2/J TightSCF xyzfile
|  2>
|  3> *xyzfile 0 1 D3.xyz
|  4>
|  5> %MaxCore 64000
|  6>
|  7> %pal nprocs 4
|  8> end
|  9>
| 10> %scf
| 11>   MaxIter 150
| 12> end
| 13>
| 14>
| 15>                          ****END OF INPUT****

CARTESIAN COORDINATES (ANGSTROEM)
---------------------------------
  C      3.913853   -1.658291    3.015134
  N      5.039266   -0.901154    2.492821
  C      4.084215    1.742081   -2.114724
  C      4.265245    2.500518   -0.795890
  H      4.868534    3.392674   -0.981134
  H      3.307640    2.824571   -0.387809
  C      4.982240    1.650257    0.247422
  C      6.210384   -1.417261    2.178244
  N      6.535913   -2.677122    2.556078
  C      7.076754   -0.700820    1.478906
  H      7.954643   -1.121554    1.207554
  H      6.756161    0.106637    0.960278
  H      4.842168    0.017609    2.115191
  H      5.993876   -3.126918    3.282784
  H      7.498441   -2.975482    2.468776
  F      4.368065    1.389270    1.313706
  O      6.128919    1.233512   -0.045620
  C      3.139159   -2.376572    1.910609
  H      3.267235   -0.939401    3.520693
  H      4.247195   -2.355095    3.790065
  C      1.997274    0.430918   -1.399218
  C      3.412746    0.376886   -1.965497
  H      4.047407   -0.246590   -1.326706
  H      3.390774   -0.118719   -2.942839
  H      5.068475    1.598504   -2.565728
  H      3.503356    2.363939   -2.804565
  C      2.399946   -1.389579    1.009490
  H      2.440750   -3.087118    2.362976
  H      3.844475   -2.970462    1.318677
  C      2.070177   -1.936705   -0.372401
  H      1.481611   -1.061542    1.509912
  H      3.008628   -0.490001    0.897451
  C      1.322238   -0.935775   -1.256413
  H      1.472747   -2.850902   -0.283997
  H      3.003539   -2.234041   -0.862535
  H      1.376444    1.058920   -2.047420
  H      2.015341    0.929780   -0.426535
  H      0.316648   -0.787213   -0.848278
  H      1.185611   -1.379252   -2.248613

 Total Charge           Charge          ....    0
 Multiplicity           Mult            ....    1
 Number of Electrons    NEL             ....  126
 Basis Dimension        Dim             ....  510

ORBITAL ENERGIES
----------------

  NO   OCC          E(Eh)            E(eV)
   0   2.0000     -24.394195      -663.7998
   1   2.0000     -18.802184      -511.6334
   2   2.0000     -14.009238      -381.2107
   3   2.0000     -14.002401      -381.0247
   4   2.0000     -10.100663      -274.8530
   5   2.0000      -9.953677      -270.8533
   6   2.0000      -9.949587      -270.7420
   7   2.0000      -9.941610      -270.5249
   8   2.0000      -9.936348      -270.3818
   9   2.0000      -9.924507      -270.0596
  10   2.0000      -9.922600      -270.0077
  11   2.0000      -9.919422      -269.9212
  12   2.0000      -9.916303      -269.8363
  13   2.0000      -9.916017      -269.8285
  14   2.0000      -9.913051      -269.7478
  15   2.0000      -9.802679      -266.7445
  16   2.0000      -1.217682       -33.1348
  17   2.0000      -0.942881       -25.6571
  18   2.0000      -0.854912       -23.2633
  19   2.0000      -0.777119       -21.1465
  20   2.0000      -0.744276       -20.2528
  21   2.0000      -0.720970       -19.6186
  22   2.0000      -0.694243       -18.8913
  23   2.0000      -0.659765       -17.9531
  24   2.0000      -0.636760       -17.3271
  25   2.0000      -0.615166       -16.7395
  26   2.0000      -0.591856       -16.1052
  27   2.0000      -0.570819       -15.5328
  28   2.0000      -0.539828       -14.6895
  29   2.0000      -0.534644       -14.5484
  30   2.0000      -0.516600       -14.0574
  31   2.0000      -0.505148       -13.7458
  32   2.0000      -0.496941       -13.5225
  33   2.0000      -0.480518       -13.0756
  34   2.0000      -0.468652       -12.7527
  35   2.0000      -0.451880       -12.2963
  36   2.0000      -0.434721       -11.8294
  37   2.0000      -0.427211       -11.6250
  38   2.0000      -0.420144       -11.4327
  39   2.0000      -0.407978       -11.1016
  40   2.0000      -0.407433       -11.0868
  41   2.0000      -0.391388       -10.6502
  42   2.0000      -0.380195       -10.3456
  43   2.0000      -0.378272       -10.2933
  44   2.0000      -0.366886        -9.9835
  45   2.0000      -0.353048        -9.6069
  46   2.0000      -0.347682        -9.4609
  47   2.0000      -0.341623        -9.2960
  48   2.0000      -0.326905        -8.8955
  49   2.0000      -0.322049        -8.7634
  50   2.0000      -0.319442        -8.6924
  51   2.0000      -0.318053        -8.6547
  52   2.0000      -0.309796        -8.4300
  53   2.0000      -0.303181        -8.2500
  54   2.0000      -0.298350        -8.1185
  55   2.0000      -0.293728        -7.9928
  56   2.0000      -0.287516        -7.8237
  57   2.0000      -0.277597        -7.5538
  58   2.0000      -0.274937        -7.4814
  59   2.0000      -0.272095        -7.4041
  60   2.0000      -0.222093        -6.0435
  61   2.0000      -0.196790        -5.3549
  62   2.0000      -0.109496        -2.9795
  63   0.0000      -0.077316        -2.1039
  64   0.0000      -0.005383        -0.1465
  65   0.0000       0.004501         0.1225
  66   0.0000       0.008299         0.2258
  67   0.0000       0.013568         0.3692

MULLIKEN ATOMIC CHARGES
-----------------------
   0 C :    1.551779
   1 N :    0.591508
   2 C :    0.718072
   3 C :    0.621959
   4 H :   -0.288434
   5 H :    0.023364
   6 C :    0.311358
   7 C :    0.686725
   8 N :    0.412742
   9 C :    1.144590
  10 H :   -0.533825
  11 H :   -1.040793
  12 H :   -1.179289
  13 H :   -0.193760
  14 H :   -0.269939
  15 F :   -0.453482
  16 O :   -0.360408
  17 C :    0.615889
  18 H :   -0.536784
  19 H :   -0.424945
  20 C :    0.182539
  21 C :    0.175029
  22 H :   -0.176532
  23 H :   -0.300496
  24 H :   -0.126157
  25 H :   -0.270512
  26 C :    0.995413
  27 H :   -0.334679
  28 H :   -0.138987
  29 C :    0.322959
  30 H :   -0.117267
  31 H :   -1.213854
  32 C :    1.011916
  33 H :   -0.596429
  34 H :    0.010038
  35 H :   -0.588115
  36 H :    0.057013
  37 H :   -0.128976
  38 H :   -0.159230
Sum of atomic charges:    0.0000000

LOEWDIN ATOMIC CHARGES
----------------------
   0 C :    0.059527
   1 N :    0.029503
   2 C :   -0.002789
   3 C :    0.062716
   4 H :    0.037024
   5 H :    0.014007
   6 C :    0.015013
   7 C :   -0.225123
   8 N :    0.219498
   9 C :    0.190814
  10 H :   -0.100337
  11 H :   -0.205268
  12 H :   -0.055343
  13 H :   -0.042726
  14 H :   -0.005575
  15 F :   -0.012882
  16 O :   -0.083235
  17 C :   -0.008919
  18 H :    0.017873
  19 H :   -0.000750
  20 C :   -0.027014
  21 C :   -0.017304
  22 H :    0.011424
  23 H :    0.028783
  24 H :    0.025943
  25 H :    0.023888
  26 C :   -0.027977
  27 H :    0.016412
  28 H :    0.016250
  29 C :   -0.027253
  30 H :    0.030845
  31 H :   -0.028447
  32 C :   -0.020353
  33 H :    0.020776
  34 H :    0.016326
  35 H :    0.020924
  36 H :   -0.001292
  37 H :    0.017662
  38 H :    0.017378

  Mayer bond orders larger than 0.100000
B(  0-C ,  1-N ) :   0.9658 B(  0-C , 12-H ) :  -0.5132 B(  0-C , 17-C ) :   1.0038
B(  0-C , 18-H ) :   0.3449 B(  0-C , 19-H ) :   0.5972 B(  0-C , 26-C ) :   0.2156
B(  0-C , 28-H ) :   0.1102 B(  1-N ,  7-C ) :   1.1775 B(  1-N ,  8-N ) :   0.2120
B(  1-N ,  9-C ) :   0.1440 B(  1-N , 12-H ) :   0.5835 B(  1-N , 18-H ) :   0.2579
B(  1-N , 19-H ) :   0.1210 B(  2-C ,  3-C ) :   1.1136 B(  2-C ,  4-H ) :   0.2165
B(  2-C ,  5-H ) :   0.1204 B(  2-C ,  6-C ) :   0.1621 B(  2-C , 21-C ) :   1.2036
B(  2-C , 22-H ) :   0.1486 B(  2-C , 24-H ) :   0.5245 B(  2-C , 25-H ) :   0.6613
B(  3-C ,  4-H ) :   0.4602 B(  3-C ,  5-H ) :   0.6706 B(  3-C ,  6-C ) :   1.2007
B(  3-C , 21-C ) :   0.2025 B(  3-C , 24-H ) :   0.1382 B(  3-C , 25-H ) :   0.2041
B(  4-H ,  6-C ) :   0.3483 B(  5-H ,  6-C ) :   0.2635 B(  6-C , 15-F ) :   0.7558
B(  6-C , 16-O ) :   1.8725 B(  7-C ,  8-N ) :   0.8905 B(  7-C ,  9-C ) :   1.2529
B(  7-C , 10-H ) :   0.3242 B(  7-C , 11-H ) :   0.1068 B(  7-C , 12-H ) :  -0.7391
B(  7-C , 17-C ) :   0.1038 B(  7-C , 19-H ) :  -0.1218 B(  8-N ,  9-C ) :   0.3145
B(  8-N , 13-H ) :   0.9761 B(  8-N , 14-H ) :   1.2000 B(  8-N , 19-H ) :   0.1220
B(  9-C , 10-H ) :   0.3040 B(  9-C , 11-H ) :   0.1007 B( 10-H , 11-H ) :   0.3188
B( 11-H , 16-O ) :   0.1025 B( 12-H , 15-F ) :   0.2195 B( 12-H , 18-H ) :   0.2164
B( 13-H , 14-H ) :  -0.2088 B( 13-H , 19-H ) :   0.1012 B( 15-F , 31-H ) :   0.1113
B( 17-C , 19-H ) :   0.2401 B( 17-C , 26-C ) :   1.0600 B( 17-C , 27-H ) :   0.7761
B( 17-C , 28-H ) :   0.7810 B( 17-C , 29-C ) :   0.1349 B( 17-C , 30-H ) :   0.1826
B( 17-C , 31-H ) :   0.1184 B( 18-H , 19-H ) :  -0.3142 B( 20-C , 21-C ) :   1.2133
B( 20-C , 22-H ) :   0.1440 B( 20-C , 23-H ) :   0.1831 B( 20-C , 29-C ) :   0.2182
B( 20-C , 32-C ) :   1.0981 B( 20-C , 35-H ) :   0.8052 B( 20-C , 36-H ) :   0.7760
B( 20-C , 37-H ) :   0.3820 B( 20-C , 38-H ) :   0.1721 B( 21-C , 22-H ) :   0.8364
B( 21-C , 23-H ) :   0.7196 B( 21-C , 24-H ) :   0.3237 B( 21-C , 25-H ) :   0.2108
B( 21-C , 35-H ) :   0.1349 B( 21-C , 36-H ) :   0.1496 B( 22-H , 34-H ) :   0.1100
B( 24-H , 25-H ) :  -0.1927 B( 26-C , 27-H ) :   0.2061 B( 26-C , 28-H ) :   0.1216
B( 26-C , 29-C ) :   1.2130 B( 26-C , 30-H ) :   0.5056 B( 26-C , 31-H ) :  -0.4027
B( 26-C , 32-C ) :   0.1160 B( 26-C , 34-H ) :   0.2144 B( 27-H , 31-H ) :   0.1309
B( 28-H , 33-H ) :  -0.1153 B( 29-C , 30-H ) :   0.1164 B( 29-C , 31-H ) :   0.2026
B( 29-C , 32-C ) :   1.0514 B( 29-C , 33-H ) :   0.8264 B( 29-C , 34-H ) :   0.7569
B( 29-C , 37-H ) :   0.1363 B( 29-C , 38-H ) :   0.3169 B( 30-H , 31-H ) :   0.2224
B( 31-H , 36-H ) :   0.1181 B( 32-C , 37-H ) :   0.4900 B( 32-C , 38-H ) :   0.5368
B( 33-H , 34-H ) :  -0.1317 B( 37-H , 38-H ) :  -0.1734

Dispersion correction           -0.088113626
FINAL SINGLE POINT ENERGY      -754.866590687600

DIPOLE MOMENT
-------------
                                X             Y             Z
Electronic contribution:      9.56120       8.56826       6.78940
Nuclear contribution   :    -11.12616      -8.32792      -6.96231
                        -----------------------------------------
Total Dipole Moment    :     -1.56496       0.24034      -0.17291
                        -----------------------------------------
Magnitude (a.u.)       :      1.59272
Magnitude (Debye)      :      4.04838

Rotational constants in cm-1:     0.020226     0.013574     0.009520
Rotational constants in MHz :   606.360011   406.923773   285.390769

                             ****ORCA TERMINATED NORMALLY****
TOTAL RUN TIME: 0 days 0 hours 1 minutes 3 seconds 465 msec
