                         Program Version 5.0.0 -  RELEASE  -
|  1> !BLYP D3BJ RIJCOSX def2-SVPD def2/J TightSCF xyzfile
|  2>
|  3> *xyzfile 0 1 D6.xyz
|  4>
|  5> %MaxCore 64000
|  6>
|  7> %pal nprocs 4
|  8> end
|  9>
| 10> %scf
| 11>   MaxIter 150
| 12> end
| 13>
| 14>
| 15>                          ****END OF INPUT****

CARTESIAN COORDINATES (ANGSTROEM)
---------------------------------
  C      3.913853   -1.658291    3.015134
  N      5.039266   -0.901154    2.492821
  C      4.084215    1.742081   -2.114724
  C      4.265245    2.500518   -0.795890
  H      4.868534    3.392674   -0.981134
  H      3.307640    2.824571   -0.387809
  C      4.982240    1.650257    0.247422
  C      6.210384   -1.417261    2.178244
  N      6.535913   -2.677122    2.556078
  C      7.076754   -0.700820    1.478906
  H      7.954643   -1.121554    1.207554
  H      6.756161    0.106637    0.960278
  H      4.842168    0.017609    2.115191
  H      5.993876   -3.126918    3.282784
  H      7.498441   -2.975482    2.468776
  O      4.368065    1.389270    1.313706
  F      6.128919    1.233512   -0.045620
  C      3.139159   -2.376572    1.910609
  H      3.267235   -0.939401    3.520693
  H      4.247195   -2.355095    3.790065
  C      1.997274    0.430918   -1.399218
  C      3.412746    0.376886   -1.965497
  H      4.047407   -0.246590   -1.326706
  H      3.390774   -0.118719   -2.942839
  H      5.068475    1.598504   -2.565728
  H      3.503356    2.363939   -2.804565
  C      2.399946   -1.389579    1.009490
  H      2.440750   -3.087118    2.362976
  H      3.844475   -2.970462    1.318677
  C      2.070177   -1.936705   -0.372401
  H      1.481611   -1.061542    1.509912
  H      3.008628   -0.490001    0.897451
  C      1.322238   -0.935775   -1.256413
  H      1.472747   -2.850902   -0.283997
  H      3.003539   -2.234041   -0.862535
  H      1.376444    1.058920   -2.047420
  H      2.015341    0.929780   -0.426535
  H      0.316648   -0.787213   -0.848278
  H      1.185611   -1.379252   -2.248613

 Total Charge           Charge          ....    0
 Multiplicity           Mult            ....    1
 Number of Electrons    NEL             ....  126
 Basis Dimension        Dim             ....  510

ORBITAL ENERGIES
----------------

  NO   OCC          E(Eh)            E(eV)
   0   2.0000     -24.387163      -663.6084
   1   2.0000     -18.819054      -512.0925
   2   2.0000     -14.007170      -381.1545
   3   2.0000     -13.986700      -380.5974
   4   2.0000     -10.114187      -275.2210
   5   2.0000      -9.958928      -270.9962
   6   2.0000      -9.943866      -270.5863
   7   2.0000      -9.940796      -270.5028
   8   2.0000      -9.939928      -270.4792
   9   2.0000      -9.928544      -270.1694
  10   2.0000      -9.920709      -269.9562
  11   2.0000      -9.916668      -269.8462
  12   2.0000      -9.911387      -269.7026
  13   2.0000      -9.906385      -269.5664
  14   2.0000      -9.905737      -269.5488
  15   2.0000      -9.809502      -266.9301
  16   2.0000      -1.213691       -33.0262
  17   2.0000      -0.956062       -26.0158
  18   2.0000      -0.847377       -23.0583
  19   2.0000      -0.770711       -20.9721
  20   2.0000      -0.748721       -20.3737
  21   2.0000      -0.719181       -19.5699
  22   2.0000      -0.690809       -18.7979
  23   2.0000      -0.657632       -17.8951
  24   2.0000      -0.634410       -17.2632
  25   2.0000      -0.604147       -16.4397
  26   2.0000      -0.596886       -16.2421
  27   2.0000      -0.566114       -15.4047
  28   2.0000      -0.541476       -14.7343
  29   2.0000      -0.528179       -14.3725
  30   2.0000      -0.509609       -13.8672
  31   2.0000      -0.503671       -13.7056
  32   2.0000      -0.499434       -13.5903
  33   2.0000      -0.485748       -13.2179
  34   2.0000      -0.463546       -12.6137
  35   2.0000      -0.451103       -12.2751
  36   2.0000      -0.431932       -11.7535
  37   2.0000      -0.429642       -11.6912
  38   2.0000      -0.420378       -11.4391
  39   2.0000      -0.409726       -11.1492
  40   2.0000      -0.403052       -10.9676
  41   2.0000      -0.384829       -10.4717
  42   2.0000      -0.380505       -10.3541
  43   2.0000      -0.372723       -10.1423
  44   2.0000      -0.366869        -9.9830
  45   2.0000      -0.360959        -9.8222
  46   2.0000      -0.347155        -9.4466
  47   2.0000      -0.338708        -9.2167
  48   2.0000      -0.335258        -9.1228
  49   2.0000      -0.327923        -8.9232
  50   2.0000      -0.319916        -8.7054
  51   2.0000      -0.309441        -8.4203
  52   2.0000      -0.308078        -8.3832
  53   2.0000      -0.298826        -8.1315
  54   2.0000      -0.295997        -8.0545
  55   2.0000      -0.287667        -7.8278
  56   2.0000      -0.283001        -7.7008
  57   2.0000      -0.273155        -7.4329
  58   2.0000      -0.271413        -7.3855
  59   2.0000      -0.267195        -7.2707
  60   2.0000      -0.252863        -6.8807
  61   2.0000      -0.190029        -5.1709
  62   2.0000      -0.109163        -2.9705
  63   0.0000      -0.084852        -2.3089
  64   0.0000      -0.007123        -0.1938
  65   0.0000       0.007694         0.2094
  66   0.0000       0.011100         0.3020
  67   0.0000       0.012640         0.3440

MULLIKEN ATOMIC CHARGES
-----------------------
   0 C :    1.555675
   1 N :    0.538505
   2 C :    0.721234
   3 C :    0.611122
   4 H :   -0.273967
   5 H :    0.002404
   6 C :    0.441450
   7 C :    0.649245
   8 N :    0.419738
   9 C :    1.353254
  10 H :   -0.463248
  11 H :   -1.222103
  12 H :   -1.174631
  13 H :   -0.195215
  14 H :   -0.274072
  15 O :   -0.482366
  16 F :   -0.446582
  17 C :    0.615079
  18 H :   -0.520271
  19 H :   -0.438059
  20 C :    0.170606
  21 C :    0.183842
  22 H :   -0.170803
  23 H :   -0.311008
  24 H :   -0.162799
  25 H :   -0.271944
  26 C :    1.035933
  27 H :   -0.341147
  28 H :   -0.146258
  29 C :    0.330252
  30 H :   -0.140709
  31 H :   -1.217826
  32 C :    1.031114
  33 H :   -0.612753
  34 H :    0.012801
  35 H :   -0.591915
  36 H :    0.075268
  37 H :   -0.123560
  38 H :   -0.166286
Sum of atomic charges:    0.0000000

LOEWDIN ATOMIC CHARGES
----------------------
   0 C :    0.061621
   1 N :    0.033788
   2 C :   -0.008146
   3 C :    0.069564
   4 H :    0.034776
   5 H :    0.027080
   6 C :    0.026331
   7 C :   -0.226984
   8 N :    0.220340
   9 C :    0.178117
  10 H :   -0.107246
  11 H :   -0.176638
  12 H :   -0.092781
  13 H :   -0.041268
  14 H :   -0.007198
  15 O :   -0.089324
  16 F :   -0.005608
  17 C :   -0.009605
  18 H :    0.020099
  19 H :   -0.003127
  20 C :   -0.022631
  21 C :   -0.018173
  22 H :    0.011067
  23 H :    0.028353
  24 H :    0.021393
  25 H :    0.024747
  26 C :   -0.023979
  27 H :    0.014656
  28 H :    0.014167
  29 C :   -0.028778
  30 H :    0.031751
  31 H :   -0.028921
  32 C :   -0.020339
  33 H :    0.019615
  34 H :    0.014343
  35 H :    0.020795
  36 H :    0.003905
  37 H :    0.018185
  38 H :    0.016051

  Mayer bond orders larger than 0.100000
B(  0-C ,  1-N ) :   0.9531 B(  0-C , 12-H ) :  -0.5320 B(  0-C , 17-C ) :   1.0003
B(  0-C , 18-H ) :   0.3538 B(  0-C , 19-H ) :   0.5928 B(  0-C , 26-C ) :   0.2159
B(  0-C , 28-H ) :   0.1073 B(  1-N ,  7-C ) :   1.1617 B(  1-N ,  8-N ) :   0.2027
B(  1-N ,  9-C ) :   0.1287 B(  1-N , 12-H ) :   0.6877 B(  1-N , 18-H ) :   0.2639
B(  1-N , 19-H ) :   0.1226 B(  2-C ,  3-C ) :   1.1267 B(  2-C ,  4-H ) :   0.2204
B(  2-C ,  5-H ) :   0.1053 B(  2-C ,  6-C ) :   0.1696 B(  2-C , 21-C ) :   1.1866
B(  2-C , 22-H ) :   0.1412 B(  2-C , 24-H ) :   0.5156 B(  2-C , 25-H ) :   0.6758
B(  3-C ,  4-H ) :   0.4774 B(  3-C ,  5-H ) :   0.6676 B(  3-C ,  6-C ) :   1.1842
B(  3-C , 21-C ) :   0.1857 B(  3-C , 24-H ) :   0.1379 B(  3-C , 25-H ) :   0.2027
B(  4-H ,  6-C ) :   0.3356 B(  5-H ,  6-C ) :   0.2748 B(  6-C , 15-O ) :   1.7848
B(  6-C , 16-F ) :   0.6732 B(  7-C ,  8-N ) :   0.9140 B(  7-C ,  9-C ) :   1.3187
B(  7-C , 10-H ) :   0.3582 B(  7-C , 11-H ) :   0.1061 B(  7-C , 12-H ) :  -0.7398
B(  7-C , 17-C ) :   0.1025 B(  7-C , 19-H ) :  -0.1237 B(  8-N ,  9-C ) :   0.3019
B(  8-N , 13-H ) :   0.9756 B(  8-N , 14-H ) :   1.1995 B(  8-N , 19-H ) :   0.1218
B(  9-C , 10-H ) :   0.2723 B(  9-C , 11-H ) :  -0.2481 B( 10-H , 11-H ) :   0.3357
B( 11-H , 16-F ) :   0.3263 B( 12-H , 15-O ) :   0.1692 B( 12-H , 18-H ) :   0.2120
B( 13-H , 14-H ) :  -0.2061 B( 13-H , 19-H ) :   0.1043 B( 15-O , 16-F ) :   0.1564
B( 17-C , 19-H ) :   0.2426 B( 17-C , 26-C ) :   1.0686 B( 17-C , 27-H ) :   0.7722
B( 17-C , 28-H ) :   0.7809 B( 17-C , 29-C ) :   0.1338 B( 17-C , 30-H ) :   0.1845
B( 17-C , 31-H ) :   0.1158 B( 18-H , 19-H ) :  -0.3125 B( 20-C , 21-C ) :   1.2280
B( 20-C , 22-H ) :   0.1558 B( 20-C , 23-H ) :   0.1770 B( 20-C , 29-C ) :   0.2151
B( 20-C , 32-C ) :   1.0896 B( 20-C , 35-H ) :   0.8066 B( 20-C , 36-H ) :   0.7797
B( 20-C , 37-H ) :   0.3787 B( 20-C , 38-H ) :   0.1710 B( 21-C , 22-H ) :   0.8191
B( 21-C , 23-H ) :   0.7328 B( 21-C , 24-H ) :   0.3311 B( 21-C , 25-H ) :   0.2005
B( 21-C , 35-H ) :   0.1363 B( 21-C , 36-H ) :   0.1530 B( 22-H , 33-H ) :  -0.1050
B( 22-H , 34-H ) :   0.1090 B( 24-H , 25-H ) :  -0.1863 B( 26-C , 27-H ) :   0.2130
B( 26-C , 28-H ) :   0.1186 B( 26-C , 29-C ) :   1.2124 B( 26-C , 30-H ) :   0.4636
B( 26-C , 31-H ) :  -0.4684 B( 26-C , 32-C ) :   0.1280 B( 26-C , 34-H ) :   0.2144
B( 27-H , 31-H ) :   0.1243 B( 28-H , 33-H ) :  -0.1205 B( 29-C , 30-H ) :   0.1143
B( 29-C , 31-H ) :   0.1967 B( 29-C , 32-C ) :   1.0543 B( 29-C , 33-H ) :   0.8255
B( 29-C , 34-H ) :   0.7534 B( 29-C , 37-H ) :   0.1385 B( 29-C , 38-H ) :   0.3144
B( 30-H , 31-H ) :   0.2732 B( 31-H , 33-H ) :   0.1125 B( 31-H , 36-H ) :   0.1181
B( 32-C , 37-H ) :   0.4960 B( 32-C , 38-H ) :   0.5270 B( 33-H , 34-H ) :  -0.1464
B( 37-H , 38-H ) :  -0.1776

Dispersion correction           -0.088350809
FINAL SINGLE POINT ENERGY      -754.879172568440

DIPOLE MOMENT
-------------
                                X             Y             Z
Electronic contribution:     12.41505       8.53523       4.41694
Nuclear contribution   :    -13.25777      -8.13937      -5.31678
                        -----------------------------------------
Total Dipole Moment    :     -0.84271       0.39586      -0.89983
                        -----------------------------------------
Magnitude (a.u.)       :      1.29483
Magnitude (Debye)      :      3.29119

Rotational constants in cm-1:     0.020021     0.013636     0.009443
Rotational constants in MHz :   600.208195   408.782966   283.102361

                             ****ORCA TERMINATED NORMALLY****
TOTAL RUN TIME: 0 days 0 hours 1 minutes 3 seconds 889 msec
