                         Program Version 5.0.0 -  RELEASE  -
|  1> !LC-BLYP RIJCOSX def2-SVPD def2/J TightSCF
|  2> *xyz -1 1
|  3> C         -1.78916       -0.63923        4.55750
|  4> C         -2.79070       -0.78527        5.70281
|  5> H         -2.86731       -1.83565        6.00167
|  6> H         -3.77455       -0.48658        5.33481
|  7> C         -2.45380        0.05510        6.94145
|  8> C         -2.07842        1.48042        6.56410
|  9> H         -1.62558       -0.38216        7.49891
| 10> H         -3.32527        0.08775        7.59917
| 11> O         -0.90125        1.85816        6.82810
| 12> O         -2.93658        2.17731        5.96415
| 13> H         -2.09421       -1.25377        3.73641
| 14> H         -0.81933       -0.94475        4.89064
| 15> H         -1.75281        0.38306        4.24366
| 16> *
| 17> %MaxCore 64000
| 18>
| 19> %pal nprocs 4
| 20> end
| 21>
| 22> %scf
| 23>   MaxIter 150
| 24> end
| 25>
| 26>
| 27>                          ****END OF INPUT****

CARTESIAN COORDINATES (ANGSTROEM)
---------------------------------
  C     -1.789160   -0.639230    4.557500
  C     -2.790700   -0.785270    5.702810
  H     -2.867310   -1.835650    6.001670
  H     -3.774550   -0.486580    5.334810
  C     -2.453800    0.055100    6.941450
  C     -2.078420    1.480420    6.564100
  H     -1.625580   -0.382160    7.498910
  H     -3.325270    0.087750    7.599170
  O     -0.901250    1.858160    6.828100
  O     -2.936580    2.177310    5.964150
  H     -2.094210   -1.253770    3.736410
  H     -0.819330   -0.944750    4.890640
  H     -1.752810    0.383060    4.243660

 Total Charge           Charge          ....   -1
 Multiplicity           Mult            ....    1
 Number of Electrons    NEL             ....   48
 Basis Dimension        Dim             ....  182

ORBITAL ENERGIES
----------------

  NO   OCC          E(Eh)            E(eV)
   0   2.0000     -18.700680      -508.8714
   1   2.0000     -18.699151      -508.8298
   2   2.0000      -9.978185      -271.5202
   3   2.0000      -9.939540      -270.4686
   4   2.0000      -9.928365      -270.1646
   5   2.0000      -9.914310      -269.7821
   6   2.0000      -0.909476       -24.7481
   7   2.0000      -0.813116       -22.1260
   8   2.0000      -0.743683       -20.2366
   9   2.0000      -0.647415       -17.6171
  10   2.0000      -0.550926       -14.9915
  11   2.0000      -0.436529       -11.8785
  12   2.0000      -0.414223       -11.2716
  13   2.0000      -0.394676       -10.7397
  14   2.0000      -0.358290        -9.7496
  15   2.0000      -0.338934        -9.2229
  16   2.0000      -0.317201        -8.6315
  17   2.0000      -0.310486        -8.4487
  18   2.0000      -0.297341        -8.0911
  19   2.0000      -0.274507        -7.4697
  20   2.0000      -0.268830        -7.3152
  21   2.0000      -0.153964        -4.1896
  22   2.0000      -0.147531        -4.0145
  23   2.0000      -0.132065        -3.5937
  24   0.0000       0.197652         5.3784
  25   0.0000       0.220386         5.9970
  26   0.0000       0.236677         6.4403
  27   0.0000       0.249248         6.7824
  28   0.0000       0.273996         7.4558

MULLIKEN ATOMIC CHARGES
-----------------------
   0 C :    0.888203
   1 C :   -0.277684
   2 H :   -0.267672
   3 H :   -0.070607
   4 C :    0.403141
   5 C :    0.066064
   6 H :   -0.099421
   7 H :   -0.111106
   8 O :   -0.551419
   9 O :   -0.589525
  10 H :   -0.182166
  11 H :   -0.107742
  12 H :   -0.100067
Sum of atomic charges:   -1.0000000

LOEWDIN ATOMIC CHARGES
----------------------
   0 C :    0.104515
   1 C :   -0.096970
   2 H :    0.003578
   3 H :    0.016072
   4 C :   -0.015053
   5 C :   -0.354262
   6 H :    0.008436
   7 H :    0.014865
   8 O :   -0.312861
   9 O :   -0.304076
  10 H :   -0.032801
  11 H :   -0.016147
  12 H :   -0.015297

  Mayer bond orders larger than 0.100000
B(  0-C ,  1-C ) :   1.3334 B(  0-C , 10-H ) :   0.6805 B(  0-C , 11-H ) :   0.7338
B(  0-C , 12-H ) :   0.7702 B(  1-C ,  2-H ) :   0.9364 B(  1-C ,  3-H ) :   0.8711
B(  1-C ,  4-C ) :   1.1961 B(  1-C ,  6-H ) :   0.1647 B(  1-C ,  7-H ) :   0.1473
B(  1-C , 10-H ) :   0.2640 B(  1-C , 11-H ) :   0.2193 B(  1-C , 12-H ) :   0.2434
B(  3-H ,  4-C ) :   0.1161 B(  4-C ,  5-C ) :   1.0052 B(  4-C ,  6-H ) :   0.8233
B(  4-C ,  7-H ) :   0.7799 B(  5-C ,  6-H ) :   0.2507 B(  5-C ,  7-H ) :   0.1333
B(  5-C ,  8-O ) :   1.6090 B(  5-C ,  9-O ) :   1.6624

FINAL SINGLE POINT ENERGY      -306.230287150699

DIPOLE MOMENT
-------------
                                X             Y             Z
Electronic contribution:      0.60790       6.32868       2.69072
Nuclear contribution   :     -1.12936      -8.75108      -3.05770
                        -----------------------------------------
Total Dipole Moment    :     -0.52147      -2.42240      -0.36699
                        -----------------------------------------
Magnitude (a.u.)       :      2.50492
Magnitude (Debye)      :      6.36700

Rotational constants in cm-1:     0.189092     0.083831     0.082013
Rotational constants in MHz :  5668.846461  2513.177001  2458.689996

                             ****ORCA TERMINATED NORMALLY****
TOTAL RUN TIME: 0 days 0 hours 0 minutes 20 seconds 4 msec
