                         Program Version 5.0.0 -  RELEASE  -
|  1> !LC-BLYP RIJCOSX def2-SVPD def2/J TightSCF
|  2> *xyz 1 1
|  3> C         -0.69912        3.48945        3.75516
|  4> H         -0.96672        4.34901        3.14049
|  5> N         -1.08067        3.79296        5.15686
|  6> C          0.77696        3.13839        3.61741
|  7> H         -1.33146        2.65651        3.44632
|  8> H          1.37140        3.88834        4.14974
|  9> H          1.04693        3.23206        2.56133
| 10> C          1.11892        1.73117        4.11516
| 11> H         -0.87449        4.76274        5.42734
| 12> H         -0.68079        3.13476        5.83900
| 13> H         -2.05755        3.53169        5.34620
| 14> H          0.52974        1.01235        3.58499
| 15> H          0.90870        1.66226        5.16204
| 16> H          2.15725        1.53562        3.94624
| 17> *
| 18> %MaxCore 64000
| 19>
| 20> %pal nprocs 4
| 21> end
| 22>
| 23> %scf
| 24>   MaxIter 150
| 25> end
| 26>
| 27>
| 28>                          ****END OF INPUT****

CARTESIAN COORDINATES (ANGSTROEM)
---------------------------------
  C     -0.699120    3.489450    3.755160
  H     -0.966720    4.349010    3.140490
  N     -1.080670    3.792960    5.156860
  C      0.776960    3.138390    3.617410
  H     -1.331460    2.656510    3.446320
  H      1.371400    3.888340    4.149740
  H      1.046930    3.232060    2.561330
  C      1.118920    1.731170    4.115160
  H     -0.874490    4.762740    5.427340
  H     -0.680790    3.134760    5.839000
  H     -2.057550    3.531690    5.346200
  H      0.529740    1.012350    3.584990
  H      0.908700    1.662260    5.162040
  H      2.157250    1.535620    3.946240

 Total Charge           Charge          ....    1
 Multiplicity           Mult            ....    1
 Number of Electrons    NEL             ....   34
 Basis Dimension        Dim             ....  160

ORBITAL ENERGIES
----------------

  NO   OCC          E(Eh)            E(eV)
   0   2.0000     -14.517395      -395.0384
   1   2.0000     -10.331498      -281.1344
   2   2.0000     -10.262549      -279.2582
   3   2.0000     -10.228780      -278.3393
   4   2.0000      -1.306570       -35.5536
   5   2.0000      -1.077756       -29.3272
   6   2.0000      -0.988254       -26.8917
   7   2.0000      -0.917901       -24.9774
   8   2.0000      -0.890519       -24.2323
   9   2.0000      -0.865027       -23.5386
  10   2.0000      -0.796605       -21.6767
  11   2.0000      -0.733746       -19.9662
  12   2.0000      -0.710082       -19.3223
  13   2.0000      -0.685600       -18.6561
  14   2.0000      -0.623246       -16.9594
  15   2.0000      -0.617916       -16.8143
  16   2.0000      -0.610342       -16.6082
  17   0.0000      -0.130026        -3.5382
  18   0.0000      -0.072111        -1.9622
  19   0.0000      -0.070968        -1.9311
  20   0.0000      -0.055933        -1.5220
  21   0.0000      -0.030803        -0.8382

MULLIKEN ATOMIC CHARGES
-----------------------
   0 C :    0.719187
   1 H :   -0.190450
   2 N :   -0.760494
   3 C :   -0.066697
   4 H :   -0.089237
   5 H :   -0.131813
   6 H :   -0.097382
   7 C :    0.998288
   8 H :    0.410769
   9 H :    0.307351
  10 H :    0.352417
  11 H :   -0.056781
  12 H :   -0.280988
  13 H :   -0.114170
Sum of atomic charges:    1.0000000

LOEWDIN ATOMIC CHARGES
----------------------
   0 C :    0.069946
   1 H :    0.058115
   2 N :    0.329896
   3 C :   -0.055938
   4 H :    0.056903
   5 H :    0.039223
   6 H :    0.050348
   7 C :    0.139132
   8 H :    0.117838
   9 H :    0.093492
  10 H :    0.110569
  11 H :    0.002061
  12 H :   -0.021372
  13 H :    0.009788

  Mayer bond orders larger than 0.100000
B(  0-C ,  1-H ) :   0.8521 B(  0-C ,  2-N ) :   0.7672 B(  0-C ,  3-C ) :   1.2017
B(  0-C ,  4-H ) :   0.8420 B(  0-C ,  6-H ) :   0.1168 B(  1-H ,  2-N ) :   0.1376
B(  2-N ,  8-H ) :   0.7022 B(  2-N ,  9-H ) :   0.8111 B(  2-N , 10-H ) :   0.7404
B(  3-C ,  5-H ) :   0.8978 B(  3-C ,  6-H ) :   0.8809 B(  3-C ,  7-C ) :   1.2685
B(  3-C , 11-H ) :   0.1938 B(  3-C , 12-H ) :   0.2062 B(  3-C , 13-H ) :   0.2449
B(  7-C , 11-H ) :   0.7345 B(  7-C , 12-H ) :   0.7352 B(  7-C , 13-H ) :   0.7387
B( 11-H , 12-H ) :   0.1103

FINAL SINGLE POINT ENERGY      -174.210017461101

DIPOLE MOMENT
-------------
                                X             Y             Z
Electronic contribution:     -1.67976       1.68059       0.73553
Nuclear contribution   :      0.19356      -0.71099       0.46987
                        -----------------------------------------
Total Dipole Moment    :     -1.48620       0.96960       1.20539
                        -----------------------------------------
Magnitude (a.u.)       :      2.14520
Magnitude (Debye)      :      5.45266

Rotational constants in cm-1:     0.465349     0.150671     0.132807
Rotational constants in MHz : 13950.800968  4516.999758  3981.442177

                             ****ORCA TERMINATED NORMALLY****
TOTAL RUN TIME: 0 days 0 hours 0 minutes 13 seconds 846 msec
