                         Program Version 5.0.0 -  RELEASE  -
|  1> !LC-BLYP RIJCOSX def2-SVPD def2/J TightSCF
|  2> *xyz 0 1
|  3> C         -1.78916       -0.63923        4.55750
|  4> C         -2.79070       -0.78527        5.70281
|  5> H         -2.86731       -1.83565        6.00167
|  6> H         -3.77455       -0.48658        5.33481
|  7> C         -2.45380        0.05510        6.94145
|  8> C         -2.07842        1.48042        6.56410
|  9> H         -1.62558       -0.38216        7.49891
| 10> H         -3.32527        0.08775        7.59917
| 11> F         -0.90125        1.85816        6.82810
| 12> O         -2.93658        2.17731        5.96415
| 13> H         -2.09421       -1.25377        3.73641
| 14> H         -0.81933       -0.94475        4.89064
| 15> H         -1.75281        0.38306        4.24366
| 16> *
| 17> %MaxCore 64000
| 18>
| 19> %pal nprocs 4
| 20> end
| 21>
| 22> %scf
| 23>   MaxIter 150
| 24> end
| 25>
| 26>
| 27>                          ****END OF INPUT****

CARTESIAN COORDINATES (ANGSTROEM)
---------------------------------
  C     -1.789160   -0.639230    4.557500
  C     -2.790700   -0.785270    5.702810
  H     -2.867310   -1.835650    6.001670
  H     -3.774550   -0.486580    5.334810
  C     -2.453800    0.055100    6.941450
  C     -2.078420    1.480420    6.564100
  H     -1.625580   -0.382160    7.498910
  H     -3.325270    0.087750    7.599170
  F     -0.901250    1.858160    6.828100
  O     -2.936580    2.177310    5.964150
  H     -2.094210   -1.253770    3.736410
  H     -0.819330   -0.944750    4.890640
  H     -1.752810    0.383060    4.243660

 Total Charge           Charge          ....    0
 Multiplicity           Mult            ....    1
 Number of Electrons    NEL             ....   48
 Basis Dimension        Dim             ....  182

ORBITAL ENERGIES
----------------

  NO   OCC          E(Eh)            E(eV)
   0   2.0000     -24.546330      -667.9396
   1   2.0000     -18.969974      -516.1992
   2   2.0000     -10.271804      -279.5100
   3   2.0000     -10.117755      -275.3181
   4   2.0000     -10.102679      -274.9079
   5   2.0000     -10.079880      -274.2875
   6   2.0000      -1.383255       -37.6403
   7   2.0000      -1.120986       -30.5036
   8   2.0000      -0.922571       -25.1044
   9   2.0000      -0.835740       -22.7416
  10   2.0000      -0.765672       -20.8350
  11   2.0000      -0.717873       -19.5343
  12   2.0000      -0.658799       -17.9268
  13   2.0000      -0.636354       -17.3161
  14   2.0000      -0.616504       -16.7759
  15   2.0000      -0.573962       -15.6183
  16   2.0000      -0.562710       -15.3121
  17   2.0000      -0.523243       -14.2382
  18   2.0000      -0.509114       -13.8537
  19   2.0000      -0.477442       -12.9919
  20   2.0000      -0.459892       -12.5143
  21   2.0000      -0.450101       -12.2479
  22   2.0000      -0.446104       -12.1391
  23   2.0000      -0.398585       -10.8460
  24   0.0000       0.043405         1.1811
  25   0.0000       0.066615         1.8127
  26   0.0000       0.092786         2.5248
  27   0.0000       0.097350         2.6490
  28   0.0000       0.111968         3.0468

MULLIKEN ATOMIC CHARGES
-----------------------
   0 C :    0.906279
   1 C :   -0.191138
   2 H :   -0.233013
   3 H :   -0.065860
   4 C :    0.329325
   5 C :    0.454843
   6 H :   -0.080697
   7 H :   -0.063623
   8 F :   -0.280193
   9 O :   -0.384742
  10 H :   -0.151141
  11 H :   -0.109339
  12 H :   -0.130700
Sum of atomic charges:    0.0000000

LOEWDIN ATOMIC CHARGES
----------------------
   0 C :    0.120964
   1 C :   -0.069069
   2 H :    0.029632
   3 H :    0.033142
   4 C :    0.028968
   5 C :   -0.060117
   6 H :    0.030719
   7 H :    0.045648
   8 F :   -0.015293
   9 O :   -0.111834
  10 H :   -0.008978
  11 H :   -0.008099
  12 H :   -0.015682

  Mayer bond orders larger than 0.100000
B(  0-C ,  1-C ) :   1.3498 B(  0-C , 10-H ) :   0.6971 B(  0-C , 11-H ) :   0.7379
B(  0-C , 12-H ) :   0.7667 B(  1-C ,  2-H ) :   0.9224 B(  1-C ,  3-H ) :   0.8680
B(  1-C ,  4-C ) :   1.2131 B(  1-C ,  6-H ) :   0.1581 B(  1-C ,  7-H ) :   0.1384
B(  1-C , 10-H ) :   0.2479 B(  1-C , 11-H ) :   0.2064 B(  1-C , 12-H ) :   0.2292
B(  3-H ,  4-C ) :   0.1084 B(  4-C ,  5-C ) :   1.0711 B(  4-C ,  6-H ) :   0.8477
B(  4-C ,  7-H ) :   0.7906 B(  5-C ,  6-H ) :   0.1290 B(  5-C ,  7-H ) :   0.1097
B(  5-C ,  8-F ) :   0.8474 B(  5-C ,  9-O ) :   1.9519 B(  8-F ,  9-O ) :   0.1180

FINAL SINGLE POINT ENERGY      -330.747815036737

DIPOLE MOMENT
-------------
                                X             Y             Z
Electronic contribution:      2.80026       8.93470       4.29049
Nuclear contribution   :     -2.53960     -10.05333      -3.90042
                        -----------------------------------------
Total Dipole Moment    :      0.26066      -1.11863       0.39007
                        -----------------------------------------
Magnitude (a.u.)       :      1.21303
Magnitude (Debye)      :      3.08327

Rotational constants in cm-1:     0.183043     0.080991     0.078218
Rotational constants in MHz :  5487.486217  2428.040459  2344.904824

                             ****ORCA TERMINATED NORMALLY****
TOTAL RUN TIME: 0 days 0 hours 0 minutes 19 seconds 976 msec
