                         Program Version 5.0.0 -  RELEASE  -
|  1> !LC-BLYP RIJCOSX def2-SVPD def2/J TightSCF
|  2> *xyz 0 1
|  3> C         -0.69912        3.48945        3.75516
|  4> H         -0.96672        4.34901        3.14049
|  5> C         -1.08067        3.79296        5.15686
|  6> C          0.77696        3.13839        3.61741
|  7> H         -1.33146        2.65651        3.44632
|  8> H          1.37140        3.88834        4.14974
|  9> H          1.04693        3.23206        2.56133
| 10> C          1.11892        1.73117        4.11516
| 11> H         -0.87449        4.76274        5.42734
| 12> H         -0.68079        3.13476        5.83900
| 13> H         -2.05755        3.53169        5.34620
| 14> H          0.52974        1.01235        3.58499
| 15> H          0.90870        1.66226        5.16204
| 16> H          2.15725        1.53562        3.94624
| 17> *
| 18> %MaxCore 64000
| 19>
| 20> %pal nprocs 4
| 21> end
| 22>
| 23> %scf
| 24>   MaxIter 150
| 25> end
| 26>
| 27>
| 28>                          ****END OF INPUT****

CARTESIAN COORDINATES (ANGSTROEM)
---------------------------------
  C     -0.699120    3.489450    3.755160
  H     -0.966720    4.349010    3.140490
  C     -1.080670    3.792960    5.156860
  C      0.776960    3.138390    3.617410
  H     -1.331460    2.656510    3.446320
  H      1.371400    3.888340    4.149740
  H      1.046930    3.232060    2.561330
  C      1.118920    1.731170    4.115160
  H     -0.874490    4.762740    5.427340
  H     -0.680790    3.134760    5.839000
  H     -2.057550    3.531690    5.346200
  H      0.529740    1.012350    3.584990
  H      0.908700    1.662260    5.162040
  H      2.157250    1.535620    3.946240

 Total Charge           Charge          ....    0
 Multiplicity           Mult            ....    1
 Number of Electrons    NEL             ....   34
 Basis Dimension        Dim             ....  160

ORBITAL ENERGIES
----------------

  NO   OCC          E(Eh)            E(eV)
   0   2.0000     -10.074106      -274.1304
   1   2.0000     -10.070268      -274.0259
   2   2.0000     -10.064874      -273.8791
   3   2.0000     -10.047194      -273.3981
   4   2.0000      -0.906479       -24.6666
   5   2.0000      -0.833179       -22.6720
   6   2.0000      -0.747792       -20.3485
   7   2.0000      -0.673239       -18.3198
   8   2.0000      -0.575271       -15.6539
   9   2.0000      -0.566668       -15.4198
  10   2.0000      -0.532240       -14.4830
  11   2.0000      -0.489897       -13.3308
  12   2.0000      -0.479574       -13.0499
  13   2.0000      -0.463818       -12.6211
  14   2.0000      -0.421253       -11.4629
  15   2.0000      -0.418275       -11.3819
  16   2.0000      -0.414365       -11.2754
  17   0.0000       0.078786         2.1439
  18   0.0000       0.102645         2.7931
  19   0.0000       0.104510         2.8439
  20   0.0000       0.111422         3.0320
  21   0.0000       0.156420         4.2564

MULLIKEN ATOMIC CHARGES
-----------------------
   0 C :   -0.001334
   1 H :   -0.246338
   2 C :    1.336427
   3 C :   -0.088829
   4 H :   -0.086422
   5 H :   -0.173324
   6 H :   -0.177886
   7 C :    0.983492
   8 H :   -0.229847
   9 H :   -0.571854
  10 H :   -0.263421
  11 H :   -0.046238
  12 H :   -0.296134
  13 H :   -0.138293
Sum of atomic charges:    0.0000000

LOEWDIN ATOMIC CHARGES
----------------------
   0 C :   -0.086721
   1 H :    0.026379
   2 C :    0.108810
   3 C :   -0.090585
   4 H :    0.026983
   5 H :    0.027872
   6 H :    0.019556
   7 C :    0.113756
   8 H :   -0.020378
   9 H :   -0.040977
  10 H :   -0.029853
  11 H :   -0.013499
  12 H :   -0.025337
  13 H :   -0.016005

  Mayer bond orders larger than 0.100000
B(  0-C ,  1-H ) :   0.8961 B(  0-C ,  2-C ) :   1.2083 B(  0-C ,  3-C ) :   1.2243
B(  0-C ,  4-H ) :   0.8261 B(  0-C ,  5-H ) :   0.1295 B(  0-C ,  6-H ) :   0.1062
B(  0-C ,  8-H ) :   0.2250 B(  0-C ,  9-H ) :   0.2695 B(  0-C , 10-H ) :   0.2386
B(  1-H ,  3-C ) :   0.1238 B(  2-C ,  4-H ) :   0.1468 B(  2-C ,  8-H ) :   0.6515
B(  2-C ,  9-H ) :   0.3681 B(  2-C , 10-H ) :   0.4679 B(  3-C ,  5-H ) :   0.8840
B(  3-C ,  6-H ) :   0.8995 B(  3-C ,  7-C ) :   1.2493 B(  3-C , 11-H ) :   0.2299
B(  3-C , 12-H ) :   0.2249 B(  3-C , 13-H ) :   0.2486 B(  7-C , 11-H ) :   0.7204
B(  7-C , 12-H ) :   0.7583 B(  7-C , 13-H ) :   0.7094 B(  9-H , 10-H ) :   0.3564

FINAL SINGLE POINT ENERGY      -157.814830760911

DIPOLE MOMENT
-------------
                                X             Y             Z
Electronic contribution:      0.12141       0.47126      -0.75922
Nuclear contribution   :     -0.14518      -0.47660       0.76944
                        -----------------------------------------
Total Dipole Moment    :     -0.02377      -0.00533       0.01022
                        -----------------------------------------
Magnitude (a.u.)       :      0.02642
Magnitude (Debye)      :      0.06715

Rotational constants in cm-1:     0.472466     0.157481     0.138592
Rotational constants in MHz : 14164.171374  4721.163669  4154.874787

                             ****ORCA TERMINATED NORMALLY****
TOTAL RUN TIME: 0 days 0 hours 0 minutes 12 seconds 725 msec
