                         Program Version 5.0.0 -  RELEASE  -
|  1> !LC-BLYP RIJCOSX def2-SVPD def2/J TightSCF
|  2> *xyz 0 1
|  3> C         -1.78916       -0.63923        4.55750
|  4> C         -2.79070       -0.78527        5.70281
|  5> H         -2.86731       -1.83565        6.00167
|  6> H         -3.77455       -0.48658        5.33481
|  7> C         -2.45380        0.05510        6.94145
|  8> C         -2.07842        1.48042        6.56410
|  9> H         -1.62558       -0.38216        7.49891
| 10> H         -3.32527        0.08775        7.59917
| 11> O         -0.90125        1.85816        6.82810
| 12> F         -2.93658        2.17731        5.96415
| 13> H         -2.09421       -1.25377        3.73641
| 14> H         -0.81933       -0.94475        4.89064
| 15> H         -1.75281        0.38306        4.24366
| 16> *
| 17> %MaxCore 64000
| 18>
| 19> %pal nprocs 4
| 20> end
| 21>
| 22> %scf
| 23>   MaxIter 150
| 24> end
| 25>
| 26>
| 27>                          ****END OF INPUT****

CARTESIAN COORDINATES (ANGSTROEM)
---------------------------------
  C     -1.789160   -0.639230    4.557500
  C     -2.790700   -0.785270    5.702810
  H     -2.867310   -1.835650    6.001670
  H     -3.774550   -0.486580    5.334810
  C     -2.453800    0.055100    6.941450
  C     -2.078420    1.480420    6.564100
  H     -1.625580   -0.382160    7.498910
  H     -3.325270    0.087750    7.599170
  O     -0.901250    1.858160    6.828100
  F     -2.936580    2.177310    5.964150
  H     -2.094210   -1.253770    3.736410
  H     -0.819330   -0.944750    4.890640
  H     -1.752810    0.383060    4.243660

 Total Charge           Charge          ....    0
 Multiplicity           Mult            ....    1
 Number of Electrons    NEL             ....   48
 Basis Dimension        Dim             ....  182

ORBITAL ENERGIES
----------------

  NO   OCC          E(Eh)            E(eV)
   0   2.0000     -24.549786      -668.0336
   1   2.0000     -18.967836      -516.1411
   2   2.0000     -10.271312      -279.4966
   3   2.0000     -10.117056      -275.2991
   4   2.0000     -10.106196      -275.0036
   5   2.0000     -10.082150      -274.3493
   6   2.0000      -1.388731       -37.7893
   7   2.0000      -1.115794       -30.3623
   8   2.0000      -0.925798       -25.1923
   9   2.0000      -0.835614       -22.7382
  10   2.0000      -0.766153       -20.8481
  11   2.0000      -0.722623       -19.6636
  12   2.0000      -0.663634       -18.0584
  13   2.0000      -0.647316       -17.6144
  14   2.0000      -0.599331       -16.3086
  15   2.0000      -0.582484       -15.8502
  16   2.0000      -0.563892       -15.3443
  17   2.0000      -0.523585       -14.2475
  18   2.0000      -0.505032       -13.7426
  19   2.0000      -0.478605       -13.0235
  20   2.0000      -0.468379       -12.7452
  21   2.0000      -0.450708       -12.2644
  22   2.0000      -0.449471       -12.2307
  23   2.0000      -0.391451       -10.6519
  24   0.0000       0.046313         1.2602
  25   0.0000       0.064482         1.7546
  26   0.0000       0.093604         2.5471
  27   0.0000       0.098887         2.6909
  28   0.0000       0.107066         2.9134

MULLIKEN ATOMIC CHARGES
-----------------------
   0 C :    0.921060
   1 C :   -0.220554
   2 H :   -0.237448
   3 H :   -0.090291
   4 C :    0.358952
   5 C :    0.466931
   6 H :   -0.088325
   7 H :   -0.078408
   8 O :   -0.344908
   9 F :   -0.311637
  10 H :   -0.160197
  11 H :   -0.090161
  12 H :   -0.125017
Sum of atomic charges:   -0.0000000

LOEWDIN ATOMIC CHARGES
----------------------
   0 C :    0.122059
   1 C :   -0.075676
   2 H :    0.030113
   3 H :    0.027507
   4 C :    0.031743
   5 C :   -0.064982
   6 H :    0.041465
   7 H :    0.040130
   8 O :   -0.117007
   9 F :   -0.008013
  10 H :   -0.009657
  11 H :   -0.002249
  12 H :   -0.015433

  Mayer bond orders larger than 0.100000
B(  0-C ,  1-C ) :   1.3518 B(  0-C , 10-H ) :   0.6847 B(  0-C , 11-H ) :   0.7380
B(  0-C , 12-H ) :   0.7660 B(  1-C ,  2-H ) :   0.9244 B(  1-C ,  3-H ) :   0.8686
B(  1-C ,  4-C ) :   1.1929 B(  1-C ,  6-H ) :   0.1496 B(  1-C ,  7-H ) :   0.1402
B(  1-C , 10-H ) :   0.2560 B(  1-C , 11-H ) :   0.2152 B(  1-C , 12-H ) :   0.2301
B(  3-H ,  4-C ) :   0.1045 B(  4-C ,  5-C ) :   1.0378 B(  4-C ,  6-H ) :   0.8607
B(  4-C ,  7-H ) :   0.7971 B(  5-C ,  6-H ) :   0.1714 B(  5-C ,  8-O ) :   1.9345
B(  5-C ,  9-F ) :   0.8271 B(  8-O ,  9-F ) :   0.1281 B( 11-H , 12-H ) :   0.1031

FINAL SINGLE POINT ENERGY      -330.745219025382

DIPOLE MOMENT
-------------
                                X             Y             Z
Electronic contribution:     -0.64669       9.44826       2.81944
Nuclear contribution   :     -0.24054     -10.41383      -2.92452
                        -----------------------------------------
Total Dipole Moment    :     -0.88723      -0.96558      -0.10508
                        -----------------------------------------
Magnitude (a.u.)       :      1.31550
Magnitude (Debye)      :      3.34374

Rotational constants in cm-1:     0.180403     0.081943     0.079197
Rotational constants in MHz :  5408.335479  2456.587956  2374.272438

                             ****ORCA TERMINATED NORMALLY****
TOTAL RUN TIME: 0 days 0 hours 0 minutes 19 seconds 641 msec
