                         Program Version 5.0.0 -  RELEASE  -
|  1> !LC-BLYP RIJCOSX def2-SVPD def2/J TightSCF xyzfile
|  2>
|  3> *xyzfile 0 1 D2.xyz
|  4>
|  5> %MaxCore 64000
|  6>
|  7> %pal nprocs 4
|  8> end
|  9>
| 10> %scf
| 11>   MaxIter 150
| 12> end
| 13>
| 14>
| 15>                          ****END OF INPUT****

CARTESIAN COORDINATES (ANGSTROEM)
---------------------------------
  C     -0.699123    3.489451    3.755163
  H     -0.966716    4.349013    3.140491
  C     -1.080669    3.792957    5.156857
  C      0.776956    3.138391    3.617408
  H     -1.331455    2.656510    3.446323
  H      1.371398    3.888342    4.149744
  H      1.046926    3.232057    2.561331
  C      1.118917    1.731170    4.115155
  H      2.200573    1.654226    4.254882
  C      0.659466    0.635182    3.153306
  H      0.677024    1.576674    5.103150
  H      1.312288    0.638870    2.274207
  H     -0.339563    0.868049    2.772876
  C      0.639957   -0.771175    3.755619
  C     -0.341821   -0.965537    4.915046
  H      1.648266   -1.028665    4.097015
  H      0.398568   -1.482386    2.958453
  H     -0.279892   -2.005646    5.252547
  C     -1.789164   -0.639231    4.557496
  H     -0.032380   -0.352918    5.765118
  H     -2.107151   -1.270102    3.719619
  H     -1.856352    0.391636    4.197604
  C     -2.790700   -0.785275    5.702812
  H     -2.867308   -1.835651    6.001675
  H     -3.774554   -0.486577    5.334807
  C     -2.453797    0.055101    6.941445
  C     -2.078419    1.480421    6.564098
  H     -1.625584   -0.382163    7.498914
  H     -3.325274    0.087746    7.599175
  H     -0.874488    4.762737    5.427344
  H     -0.680793    3.134762    5.839000
  H     -2.057550    3.531691    5.346197
  O     -0.901252    1.858156    6.828104
  F     -2.936582    2.177309    5.964151

 Total Charge           Charge          ....    0
 Multiplicity           Mult            ....    1
 Number of Electrons    NEL             ....  104
 Basis Dimension        Dim             ....  434

ORBITAL ENERGIES
----------------

  NO   OCC          E(Eh)            E(eV)
   0   2.0000     -24.560767      -668.3324
   1   2.0000     -18.975759      -516.3567
   2   2.0000     -10.283582      -279.8305
   3   2.0000     -10.121608      -275.4230
   4   2.0000     -10.106442      -275.0103
   5   2.0000     -10.090543      -274.5776
   6   2.0000     -10.079655      -274.2813
   7   2.0000     -10.075465      -274.1674
   8   2.0000     -10.068280      -273.9718
   9   2.0000     -10.061301      -273.7819
  10   2.0000     -10.058735      -273.7121
  11   2.0000     -10.053082      -273.5583
  12   2.0000     -10.000234      -272.1202
  13   2.0000      -1.403613       -38.1942
  14   2.0000      -1.133873       -30.8543
  15   2.0000      -0.940008       -25.5789
  16   2.0000      -0.911042       -24.7907
  17   2.0000      -0.880987       -23.9729
  18   2.0000      -0.852914       -23.2090
  19   2.0000      -0.808450       -21.9990
  20   2.0000      -0.786491       -21.4015
  21   2.0000      -0.765054       -20.8182
  22   2.0000      -0.726411       -19.7666
  23   2.0000      -0.716218       -19.4893
  24   2.0000      -0.676851       -18.4181
  25   2.0000      -0.669431       -18.2162
  26   2.0000      -0.663881       -18.0651
  27   2.0000      -0.640374       -17.4255
  28   2.0000      -0.620779       -16.8923
  29   2.0000      -0.591552       -16.0970
  30   2.0000      -0.586150       -15.9499
  31   2.0000      -0.565957       -15.4005
  32   2.0000      -0.560245       -15.2450
  33   2.0000      -0.537878       -14.6364
  34   2.0000      -0.527890       -14.3646
  35   2.0000      -0.521600       -14.1935
  36   2.0000      -0.511845       -13.9280
  37   2.0000      -0.505803       -13.7636
  38   2.0000      -0.492076       -13.3901
  39   2.0000      -0.478135       -13.0107
  40   2.0000      -0.474594       -12.9143
  41   2.0000      -0.467595       -12.7239
  42   2.0000      -0.451268       -12.2796
  43   2.0000      -0.443906       -12.0793
  44   2.0000      -0.435186       -11.8420
  45   2.0000      -0.424766       -11.5585
  46   2.0000      -0.418761       -11.3951
  47   2.0000      -0.408587       -11.1182
  48   2.0000      -0.402302       -10.9472
  49   2.0000      -0.391715       -10.6591
  50   2.0000      -0.389421       -10.5967
  51   2.0000      -0.355438        -9.6720
  52   0.0000       0.034094         0.9278
  53   0.0000       0.063368         1.7243
  54   0.0000       0.081933         2.2295
  55   0.0000       0.084999         2.3129
  56   0.0000       0.090482         2.4621

MULLIKEN ATOMIC CHARGES
-----------------------
   0 C :    0.251984
   1 H :   -0.396799
   2 C :    2.469018
   3 C :    0.703732
   4 H :   -0.385005
   5 H :   -0.178967
   6 H :   -0.207357
   7 C :    1.066329
   8 H :   -0.047934
   9 C :    0.220019
  10 H :   -1.075817
  11 H :   -0.344208
  12 H :   -0.243678
  13 C :    0.906743
  14 C :    0.205284
  15 H :   -0.225166
  16 H :   -0.044512
  17 H :   -0.387219
  18 C :    0.709918
  19 H :   -0.145434
  20 H :   -0.140025
  21 H :   -0.876061
  22 C :    0.637761
  23 H :   -0.267133
  24 H :   -0.028534
  25 C :    0.550443
  26 C :    0.342709
  27 H :    0.046218
  28 H :   -0.245106
  29 H :   -0.354306
  30 H :   -1.018961
  31 H :   -0.616769
  32 O :   -0.487187
  33 F :   -0.393981
Sum of atomic charges:   -0.0000000

LOEWDIN ATOMIC CHARGES
----------------------
   0 C :   -0.051081
   1 H :    0.024862
   2 C :    0.122472
   3 C :   -0.034101
   4 H :    0.004198
   5 H :    0.031167
   6 H :    0.021848
   7 C :   -0.019009
   8 H :    0.031422
   9 C :   -0.042864
  10 H :   -0.012244
  11 H :    0.029714
  12 H :    0.002669
  13 C :   -0.037288
  14 C :   -0.033318
  15 H :    0.029646
  16 H :    0.026569
  17 H :    0.032542
  18 C :   -0.034247
  19 H :    0.002206
  20 H :    0.039801
  21 H :    0.002410
  22 C :   -0.024879
  23 H :    0.033972
  24 H :    0.031258
  25 C :    0.050841
  26 C :    0.012022
  27 H :    0.040490
  28 H :    0.043683
  29 H :   -0.011913
  30 H :   -0.127917
  31 H :   -0.075537
  32 O :   -0.105749
  33 F :   -0.003645

  Mayer bond orders larger than 0.100000
B(  0-C ,  1-H ) :   0.7840 B(  0-C ,  2-C ) :   0.5807 B(  0-C ,  3-C ) :   1.1850
B(  0-C ,  4-H ) :   0.6202 B(  0-C ,  5-H ) :   0.1698 B(  0-C ,  6-H ) :   0.1976
B(  0-C ,  7-C ) :   0.2809 B(  0-C , 10-H ) :  -0.2046 B(  0-C , 29-H ) :   0.1216
B(  0-C , 30-H ) :   0.7907 B(  0-C , 31-H ) :   0.4887 B(  1-H ,  5-H ) :   0.1356
B(  1-H ,  8-H ) :   0.1248 B(  1-H , 30-H ) :   0.1327 B(  2-C ,  3-C ) :   0.1320
B(  2-C ,  4-H ) :   0.2496 B(  2-C , 29-H ) :   0.3750 B(  2-C , 30-H ) :  -0.8852
B(  2-C , 31-H ) :  -0.2511 B(  3-C ,  4-H ) :   0.1451 B(  3-C ,  5-H ) :   0.6031
B(  3-C ,  6-H ) :   0.6372 B(  3-C ,  7-C ) :   1.1447 B(  3-C ,  9-C ) :   0.1064
B(  3-C , 10-H ) :   0.2594 B(  3-C , 13-C ) :   0.1070 B(  3-C , 30-H ) :  -0.1785
B(  4-H ,  7-C ) :  -0.1391 B(  4-H ,  8-H ) :  -0.1056 B(  4-H , 10-H ) :   0.1367
B(  4-H , 12-H ) :   0.1288 B(  4-H , 18-C ) :  -0.1029 B(  4-H , 21-H ) :   0.2603
B(  5-H ,  6-H ) :  -0.1726 B(  5-H ,  7-C ) :   0.1897 B(  5-H , 10-H ) :   0.1370
B(  6-H ,  7-C ) :   0.1380 B(  6-H ,  8-H ) :   0.1108 B(  7-C ,  8-H ) :   0.5880
B(  7-C ,  9-C ) :   1.0199 B(  7-C , 10-H ) :  -0.1306 B(  7-C , 11-H ) :   0.2193
B(  8-H ,  9-C ) :   0.2328 B(  9-C , 10-H ) :   0.3587 B(  9-C , 11-H ) :   0.8036
B(  9-C , 12-H ) :   0.8282 B(  9-C , 13-C ) :   1.1782 B(  9-C , 14-C ) :   0.1691
B(  9-C , 15-H ) :   0.1380 B(  9-C , 16-H ) :   0.2860 B( 10-H , 12-H ) :   0.1035
B( 10-H , 13-C ) :  -0.1432 B( 10-H , 19-H ) :   0.1490 B( 10-H , 30-H ) :   0.1174
B( 12-H , 14-C ) :  -0.1010 B( 13-C , 14-C ) :   1.1287 B( 13-C , 15-H ) :   0.5685
B( 13-C , 16-H ) :   0.6028 B( 14-C , 15-H ) :   0.3542 B( 14-C , 17-H ) :   0.8361
B( 14-C , 18-C ) :   1.0825 B( 14-C , 19-H ) :   0.8343 B( 14-C , 20-H ) :   0.1782
B( 14-C , 21-H ) :   0.3556 B( 15-H , 16-H ) :  -0.1704 B( 17-H , 18-C ) :   0.1543
B( 18-C , 19-H ) :   0.1300 B( 18-C , 20-H ) :   0.6562 B( 18-C , 21-H ) :   0.2099
B( 18-C , 22-C ) :   1.1636 B( 18-C , 23-H ) :   0.1641 B( 18-C , 24-H ) :   0.3209
B( 18-C , 25-C ) :   0.1799 B( 21-H , 22-C ) :   0.1852 B( 22-C , 23-H ) :   0.7222
B( 22-C , 24-H ) :   0.6073 B( 22-C , 25-C ) :   1.0997 B( 22-C , 26-C ) :   0.1352
B( 22-C , 28-H ) :   0.1863 B( 23-H , 24-H ) :  -0.1928 B( 23-H , 25-C ) :   0.1550
B( 25-C , 26-C ) :   1.1846 B( 25-C , 27-H ) :   0.7817 B( 25-C , 28-H ) :   0.5515
B( 26-C , 27-H ) :   0.1778 B( 26-C , 28-H ) :   0.3223 B( 26-C , 32-O ) :   1.8447
B( 26-C , 33-F ) :   0.7159 B( 29-H , 30-H ) :   0.2436 B( 30-H , 31-H ) :   0.5748
B( 30-H , 32-O ) :   0.2464 B( 31-H , 33-F ) :   0.2363 B( 32-O , 33-F ) :   0.1508

FINAL SINGLE POINT ENERGY      -604.866509403017

DIPOLE MOMENT
-------------
                                X             Y             Z
Electronic contribution:     -8.95747       2.99530       9.45883
Nuclear contribution   :      8.07181      -4.09641      -9.21610
                        -----------------------------------------
Total Dipole Moment    :     -0.88567      -1.10112       0.24273
                        -----------------------------------------
Magnitude (a.u.)       :      1.43380
Magnitude (Debye)      :      3.64443

Rotational constants in cm-1:     0.028400     0.023377     0.015073
Rotational constants in MHz :   851.414727   700.831775   451.871218

                             ****ORCA TERMINATED NORMALLY****
TOTAL RUN TIME: 0 days 0 hours 3 minutes 54 seconds 955 msec
