                         Program Version 5.0.0 -  RELEASE  -
|  1> !wB97X-D3 RIJCOSX def2-SVP def2/J TightSCF
|  2> *xyz -1 1
|  3> C         -0.29041        0.95134       -5.15342
|  4> C         -0.05517        1.61942       -3.78858
|  5> H          0.04501        0.86230       -3.00301
|  6> H         -0.92294        2.23033       -3.51703
|  7> C          1.22302        2.46987       -3.75691
|  8> H          1.11470        3.25807       -4.53300
|  9> H          1.23773        3.01124       -2.79216
| 10> O          2.35381        1.71203       -3.93448
| 11> H         -0.38575        1.70447       -5.90748
| 12> H         -1.18723        0.36894       -5.11561
| 13> H          0.53806        0.31571       -5.38692
| 14> *
| 15>
| 16> %MaxCore 64000
| 17>
| 18> %pal nprocs 18
| 19> end
| 20>
| 21> %scf
| 22>   MaxIter 150
| 23> end
| 24>
| 25>
| 26>                          ****END OF INPUT****

CARTESIAN COORDINATES (ANGSTROEM)
---------------------------------
  C     -0.290410    0.951340   -5.153420
  C     -0.055170    1.619420   -3.788580
  H      0.045010    0.862300   -3.003010
  H     -0.922940    2.230330   -3.517030
  C      1.223020    2.469870   -3.756910
  H      1.114700    3.258070   -4.533000
  H      1.237730    3.011240   -2.792160
  O      2.353810    1.712030   -3.934480
  H     -0.385750    1.704470   -5.907480
  H     -1.187230    0.368940   -5.115610
  H      0.538060    0.315710   -5.386920

 Total Charge           Charge          ....   -1
 Multiplicity           Mult            ....    1
 Number of Electrons    NEL             ....   34
 Basis Dimension        Dim             ....   91

ORBITAL ENERGIES
----------------

  NO   OCC          E(Eh)            E(eV)
   0   2.0000     -18.855913      -513.0955
   1   2.0000     -10.100460      -274.8475
   2   2.0000     -10.083174      -274.3771
   3   2.0000     -10.081293      -274.3259
   4   2.0000      -0.751483       -20.4489
   5   2.0000      -0.675482       -18.3808
   6   2.0000      -0.559321       -15.2199
   7   2.0000      -0.451800       -12.2941
   8   2.0000      -0.362261        -9.8576
   9   2.0000      -0.354931        -9.6582
  10   2.0000      -0.304279        -8.2798
  11   2.0000      -0.269892        -7.3441
  12   2.0000      -0.239339        -6.5127
  13   2.0000      -0.231796        -6.3075
  14   2.0000      -0.168048        -4.5728
  15   2.0000      -0.021752        -0.5919
  16   2.0000      -0.018729        -0.5096
  17   0.0000       0.313200         8.5226
  18   0.0000       0.353059         9.6072
  19   0.0000       0.359520         9.7830
  20   0.0000       0.387174        10.5355
  21   0.0000       0.395546        10.7634

MULLIKEN ATOMIC CHARGES
-----------------------
   0 C :    0.008178
   1 C :   -0.039871
   2 H :   -0.044853
   3 H :   -0.092565
   4 C :    0.280573
   5 H :   -0.163335
   6 H :   -0.153735
   7 O :   -0.722144
   8 H :   -0.027905
   9 H :   -0.045283
  10 H :    0.000943
Sum of atomic charges:   -1.0000000

LOEWDIN ATOMIC CHARGES
----------------------
   0 C :   -0.069387
   1 C :   -0.084340
   2 H :   -0.006910
   3 H :   -0.028677
   4 C :    0.012670
   5 H :   -0.076986
   6 H :   -0.073577
   7 O :   -0.674521
   8 H :    0.001512
   9 H :   -0.010310
  10 H :    0.010526

  Mayer bond orders larger than 0.100000
B(  0-C ,  1-C ) :   1.0735 B(  0-C ,  8-H ) :   0.9700 B(  0-C ,  9-H ) :   0.9712
B(  0-C , 10-H ) :   0.9579 B(  1-C ,  2-H ) :   0.9423 B(  1-C ,  3-H ) :   0.9206
B(  1-C ,  4-C ) :   0.9883 B(  4-C ,  5-H ) :   0.8675 B(  4-C ,  6-H ) :   0.8846
B(  4-C ,  7-O ) :   1.4729

Dispersion correction           -0.001942097
FINAL SINGLE POINT ENERGY      -193.513432666824

DIPOLE MOMENT
-------------
                                X             Y             Z
Electronic contribution:      3.17251      -0.17306       0.69596
Nuclear contribution   :     -4.97104      -0.06484      -1.04325
                        -----------------------------------------
Total Dipole Moment    :     -1.79853      -0.23789      -0.34729
                        -----------------------------------------
Magnitude (a.u.)       :      1.84713
Magnitude (Debye)      :      4.69504

Rotational constants in cm-1:     0.508668     0.174500     0.148765
Rotational constants in MHz : 15249.486055  5231.367342  4459.875680

                             ****ORCA TERMINATED NORMALLY****
TOTAL RUN TIME: 0 days 0 hours 0 minutes 5 seconds 586 msec
