                         Program Version 5.0.0 -  RELEASE  -
|  1> !wB97X-D3 RIJCOSX def2-SVP def2/J TightSCF
|  2> *xyz 1 1
|  3> C          1.63556       -1.67040       -5.29211
|  4> C          0.33848       -1.50091       -4.50540
|  5> N          2.48451       -0.50741       -5.14039
|  6> C         -0.68487       -0.52803       -5.09989
|  7> H          1.39834       -1.82924       -6.35259
|  8> H          2.15586       -2.56540       -4.93209
|  9> C          3.45115       -0.14953       -5.95259
| 10> N          3.92267        1.08956       -5.85071
| 11> N          3.96616       -1.00618       -6.86788
| 12> H          3.52139       -1.90647       -6.99527
| 13> H          4.44482       -0.62347       -7.67035
| 14> H          2.25200        0.24080       -4.49879
| 15> H          3.46428        1.64078       -5.13639
| 16> H          4.83447        1.31375       -6.22465
| 17> H          0.59489       -1.21158       -3.48231
| 18> H         -0.12653       -2.48766       -4.43418
| 19> H         -0.92267       -0.82721       -6.09931
| 20> H         -0.27317        0.45953       -5.11162
| 21> H         -1.57350       -0.53693       -4.50394
| 22> *
| 23>
| 24> %MaxCore 64000
| 25>
| 26> %pal nprocs 18
| 27> end
| 28>
| 29> %scf
| 30>   MaxIter 150
| 31> end
| 32>
| 33>
| 34>                          ****END OF INPUT****

CARTESIAN COORDINATES (ANGSTROEM)
---------------------------------
  C      1.635560   -1.670400   -5.292110
  C      0.338480   -1.500910   -4.505400
  N      2.484510   -0.507410   -5.140390
  C     -0.684870   -0.528030   -5.099890
  H      1.398340   -1.829240   -6.352590
  H      2.155860   -2.565400   -4.932090
  C      3.451150   -0.149530   -5.952590
  N      3.922670    1.089560   -5.850710
  N      3.966160   -1.006180   -6.867880
  H      3.521390   -1.906470   -6.995270
  H      4.444820   -0.623470   -7.670350
  H      2.252000    0.240800   -4.498790
  H      3.464280    1.640780   -5.136390
  H      4.834470    1.313750   -6.224650
  H      0.594890   -1.211580   -3.482310
  H     -0.126530   -2.487660   -4.434180
  H     -0.922670   -0.827210   -6.099310
  H     -0.273170    0.459530   -5.111620
  H     -1.573500   -0.536930   -4.503940

 Total Charge           Charge          ....    1
 Multiplicity           Mult            ....    1
 Number of Electrons    NEL             ....   56
 Basis Dimension        Dim             ....  158

ORBITAL ENERGIES
----------------

  NO   OCC          E(Eh)            E(eV)
   0   2.0000     -14.660511      -398.9328
   1   2.0000     -14.657762      -398.8580
   2   2.0000     -14.655052      -398.7842
   3   2.0000     -10.622865      -289.0629
   4   2.0000     -10.493656      -285.5469
   5   2.0000     -10.432485      -283.8824
   6   2.0000     -10.402656      -283.0707
   7   2.0000      -1.328925       -36.1619
   8   2.0000      -1.212710       -32.9995
   9   2.0000      -1.198213       -32.6050
  10   2.0000      -1.052910       -28.6511
  11   2.0000      -0.967064       -26.3151
  12   2.0000      -0.928134       -25.2558
  13   2.0000      -0.884645       -24.0724
  14   2.0000      -0.869138       -23.6504
  15   2.0000      -0.833726       -22.6868
  16   2.0000      -0.788475       -21.4555
  17   2.0000      -0.781678       -21.2705
  18   2.0000      -0.757834       -20.6217
  19   2.0000      -0.742532       -20.2053
  20   2.0000      -0.695049       -18.9132
  21   2.0000      -0.672646       -18.3036
  22   2.0000      -0.650711       -17.7068
  23   2.0000      -0.595191       -16.1960
  24   2.0000      -0.578856       -15.7515
  25   2.0000      -0.575877       -15.6704
  26   2.0000      -0.568588       -15.4721
  27   2.0000      -0.540871       -14.7178
  28   0.0000      -0.076682        -2.0866
  29   0.0000      -0.051225        -1.3939
  30   0.0000      -0.015660        -0.4261
  31   0.0000       0.003702         0.1007
  32   0.0000       0.022570         0.6142

MULLIKEN ATOMIC CHARGES
-----------------------
   0 C :    0.057481
   1 C :   -0.151708
   2 N :   -0.152867
   3 C :   -0.015899
   4 H :    0.064967
   5 H :    0.089211
   6 C :    0.090889
   7 N :   -0.064356
   8 N :   -0.099881
   9 H :    0.181988
  10 H :    0.185004
  11 H :    0.168767
  12 H :    0.176195
  13 H :    0.192863
  14 H :    0.059554
  15 H :    0.078556
  16 H :    0.047735
  17 H :    0.014424
  18 H :    0.077079
Sum of atomic charges:    1.0000000

LOEWDIN ATOMIC CHARGES
----------------------
   0 C :    0.034440
   1 C :   -0.043633
   2 N :    0.030122
   3 C :   -0.047356
   4 H :    0.032985
   5 H :    0.041987
   6 C :    0.159175
   7 N :    0.039400
   8 N :    0.027702
   9 H :    0.108645
  10 H :    0.112036
  11 H :    0.102021
  12 H :    0.108789
  13 H :    0.116291
  14 H :    0.033883
  15 H :    0.050290
  16 H :    0.031720
  17 H :    0.016197
  18 H :    0.045307

  Mayer bond orders larger than 0.100000
B(  0-C ,  1-C ) :   1.0700 B(  0-C ,  2-N ) :   0.8940 B(  0-C ,  4-H ) :   0.9496
B(  0-C ,  5-H ) :   0.9513 B(  1-C ,  3-C ) :   1.0745 B(  1-C , 14-H ) :   0.9558
B(  1-C , 15-H ) :   0.9449 B(  2-N ,  6-C ) :   1.3998 B(  2-N , 11-H ) :   0.9048
B(  3-C , 16-H ) :   0.9741 B(  3-C , 17-H ) :   0.9771 B(  3-C , 18-H ) :   0.9708
B(  6-C ,  7-N ) :   1.3917 B(  6-C ,  8-N ) :   1.3786 B(  7-N , 12-H ) :   0.9214
B(  7-N , 13-H ) :   0.9235 B(  8-N ,  9-H ) :   0.9247 B(  8-N , 10-H ) :   0.9270

Dispersion correction           -0.004931757
FINAL SINGLE POINT ENERGY      -323.393039648695

DIPOLE MOMENT
-------------
                                X             Y             Z
Electronic contribution:      7.43099       1.79371      -1.64139
Nuclear contribution   :     -5.91327      -1.13589       1.03073
                        -----------------------------------------
Total Dipole Moment    :      1.51772       0.65782      -0.61067
                        -----------------------------------------
Magnitude (a.u.)       :      1.76327
Magnitude (Debye)      :      4.48187

Rotational constants in cm-1:     0.176161     0.043658     0.038822
Rotational constants in MHz :  5281.161077  1308.843263  1163.840625

                             ****ORCA TERMINATED NORMALLY****
TOTAL RUN TIME: 0 days 0 hours 0 minutes 11 seconds 242 msec
