                         Program Version 5.0.0 -  RELEASE  -
|  1> !wB97X-D3 RIJCOSX def2-SVP def2/J TightSCF
|  2> *xyz 0 1
|  3> C         -0.29041        0.95134       -5.15342
|  4> C         -0.05517        1.61942       -3.78858
|  5> H          0.04501        0.86230       -3.00301
|  6> H         -0.92294        2.23033       -3.51703
|  7> C          1.22302        2.46987       -3.75691
|  8> H          1.11470        3.25807       -4.53300
|  9> H          1.23773        3.01124       -2.79216
| 10> F          2.35381        1.71203       -3.93448
| 11> H         -0.38575        1.70447       -5.90748
| 12> H         -1.18723        0.36894       -5.11561
| 13> H          0.53806        0.31571       -5.38692
| 14> *
| 15>
| 16> %MaxCore 64000
| 17>
| 18> %pal nprocs 18
| 19> end
| 20>
| 21> %scf
| 22>   MaxIter 150
| 23> end
| 24>
| 25>
| 26>                          ****END OF INPUT****

CARTESIAN COORDINATES (ANGSTROEM)
---------------------------------
  C     -0.290410    0.951340   -5.153420
  C     -0.055170    1.619420   -3.788580
  H      0.045010    0.862300   -3.003010
  H     -0.922940    2.230330   -3.517030
  C      1.223020    2.469870   -3.756910
  H      1.114700    3.258070   -4.533000
  H      1.237730    3.011240   -2.792160
  F      2.353810    1.712030   -3.934480
  H     -0.385750    1.704470   -5.907480
  H     -1.187230    0.368940   -5.115610
  H      0.538060    0.315710   -5.386920

 Total Charge           Charge          ....    0
 Multiplicity           Mult            ....    1
 Number of Electrons    NEL             ....   34
 Basis Dimension        Dim             ....   91

ORBITAL ENERGIES
----------------

  NO   OCC          E(Eh)            E(eV)
   0   2.0000     -24.769222      -674.0048
   1   2.0000     -10.361336      -281.9463
   2   2.0000     -10.292162      -280.0640
   3   2.0000     -10.275726      -279.6167
   4   2.0000      -1.284809       -34.9614
   5   2.0000      -0.896321       -24.3901
   6   2.0000      -0.793556       -21.5937
   7   2.0000      -0.699228       -19.0270
   8   2.0000      -0.604831       -16.4583
   9   2.0000      -0.590908       -16.0794
  10   2.0000      -0.563729       -15.3398
  11   2.0000      -0.530961       -14.4482
  12   2.0000      -0.494120       -13.4457
  13   2.0000      -0.469421       -12.7736
  14   2.0000      -0.445564       -12.1244
  15   2.0000      -0.417434       -11.3590
  16   2.0000      -0.415041       -11.2938
  17   0.0000       0.146464         3.9855
  18   0.0000       0.187455         5.1009
  19   0.0000       0.189008         5.1432
  20   0.0000       0.210104         5.7172
  21   0.0000       0.217943         5.9305

MULLIKEN ATOMIC CHARGES
-----------------------
   0 C :   -0.032038
   1 C :   -0.157196
   2 H :    0.040730
   3 H :    0.033993
   4 C :    0.249016
   5 H :    0.017356
   6 H :    0.024897
   7 F :   -0.273662
   8 H :    0.023147
   9 H :    0.032698
  10 H :    0.041058
Sum of atomic charges:   -0.0000000

LOEWDIN ATOMIC CHARGES
----------------------
   0 C :   -0.056704
   1 C :   -0.068841
   2 H :    0.027067
   3 H :    0.029619
   4 C :    0.114070
   5 H :    0.010480
   6 H :    0.012591
   7 F :   -0.139976
   8 H :    0.020740
   9 H :    0.024678
  10 H :    0.026275

  Mayer bond orders larger than 0.100000
B(  0-C ,  1-C ) :   1.0735 B(  0-C ,  8-H ) :   0.9780 B(  0-C ,  9-H ) :   0.9762
B(  0-C , 10-H ) :   0.9758 B(  1-C ,  2-H ) :   0.9537 B(  1-C ,  3-H ) :   0.9500
B(  1-C ,  4-C ) :   1.0622 B(  4-C ,  5-H ) :   0.9558 B(  4-C ,  6-H ) :   0.9605
B(  4-C ,  7-F ) :   0.9840

Dispersion correction           -0.001921977
FINAL SINGLE POINT ENERGY      -218.151166472185

DIPOLE MOMENT
-------------
                                X             Y             Z
Electronic contribution:      6.22415       0.38799       1.39876
Nuclear contribution   :     -6.82889      -0.09322      -1.32039
                        -----------------------------------------
Total Dipole Moment    :     -0.60474       0.29477       0.07838
                        -----------------------------------------
Magnitude (a.u.)       :      0.67730
Magnitude (Debye)      :      1.72157

Rotational constants in cm-1:     0.494282     0.164406     0.140369
Rotational constants in MHz : 14818.207649  4928.760399  4208.156468

                             ****ORCA TERMINATED NORMALLY****
TOTAL RUN TIME: 0 days 0 hours 0 minutes 5 seconds 691 msec
