                         Program Version 5.0.0 -  RELEASE  -
|  1> !wB97X-D3 RIJCOSX def2-SVP def2/J TightSCF
|  2> *xyz 0 1
|  3> C          1.63556       -1.67040       -5.29211
|  4> C          0.33848       -1.50091       -4.50540
|  5> C          2.48451       -0.50741       -5.14039
|  6> C         -0.68487       -0.52803       -5.09989
|  7> H          1.39834       -1.82924       -6.35259
|  8> H          2.15586       -2.56540       -4.93209
|  9> C          3.45115       -0.14953       -5.95259
| 10> N          3.92267        1.08956       -5.85071
| 11> N          3.96616       -1.00618       -6.86788
| 12> H          3.52139       -1.90647       -6.99527
| 13> H          4.44482       -0.62347       -7.67035
| 14> H          2.25200        0.24080       -4.49879
| 15> H          3.46428        1.64078       -5.13639
| 16> H          4.83447        1.31375       -6.22465
| 17> H          0.59489       -1.21158       -3.48231
| 18> H         -0.12653       -2.48766       -4.43418
| 19> H         -0.92267       -0.82721       -6.09931
| 20> H         -0.27317        0.45953       -5.11162
| 21> H         -1.57350       -0.53693       -4.50394
| 22> *
| 23>
| 24> %MaxCore 64000
| 25>
| 26> %pal nprocs 18
| 27> end
| 28>
| 29> %scf
| 30>   MaxIter 150
| 31> end
| 32>
| 33>
| 34>                          ****END OF INPUT****

CARTESIAN COORDINATES (ANGSTROEM)
---------------------------------
  C      1.635560   -1.670400   -5.292110
  C      0.338480   -1.500910   -4.505400
  C      2.484510   -0.507410   -5.140390
  C     -0.684870   -0.528030   -5.099890
  H      1.398340   -1.829240   -6.352590
  H      2.155860   -2.565400   -4.932090
  C      3.451150   -0.149530   -5.952590
  N      3.922670    1.089560   -5.850710
  N      3.966160   -1.006180   -6.867880
  H      3.521390   -1.906470   -6.995270
  H      4.444820   -0.623470   -7.670350
  H      2.252000    0.240800   -4.498790
  H      3.464280    1.640780   -5.136390
  H      4.834470    1.313750   -6.224650
  H      0.594890   -1.211580   -3.482310
  H     -0.126530   -2.487660   -4.434180
  H     -0.922670   -0.827210   -6.099310
  H     -0.273170    0.459530   -5.111620
  H     -1.573500   -0.536930   -4.503940

 Total Charge           Charge          ....    0
 Multiplicity           Mult            ....    1
 Number of Electrons    NEL             ....   56
 Basis Dimension        Dim             ....  158

ORBITAL ENERGIES
----------------

  NO   OCC          E(Eh)            E(eV)
   0   2.0000     -14.429172      -392.6377
   1   2.0000     -14.424355      -392.5067
   2   2.0000     -10.322566      -280.8913
   3   2.0000     -10.264625      -279.3146
   4   2.0000     -10.259938      -279.1871
   5   2.0000     -10.257088      -279.1096
   6   2.0000     -10.201008      -277.5835
   7   2.0000      -1.059768       -28.8378
   8   2.0000      -0.969202       -26.3733
   9   2.0000      -0.892838       -24.2954
  10   2.0000      -0.826632       -22.4938
  11   2.0000      -0.761271       -20.7152
  12   2.0000      -0.690333       -18.7849
  13   2.0000      -0.669333       -18.2135
  14   2.0000      -0.629352       -17.1255
  15   2.0000      -0.609613       -16.5884
  16   2.0000      -0.559077       -15.2133
  17   2.0000      -0.539103       -14.6697
  18   2.0000      -0.532100       -14.4792
  19   2.0000      -0.506774       -13.7900
  20   2.0000      -0.480111       -13.0645
  21   2.0000      -0.467374       -12.7179
  22   2.0000      -0.453638       -12.3441
  23   2.0000      -0.416893       -11.3442
  24   2.0000      -0.406118       -11.0510
  25   2.0000      -0.400640       -10.9020
  26   2.0000      -0.351035        -9.5522
  27   2.0000      -0.240387        -6.5413
  28   0.0000       0.136987         3.7276
  29   0.0000       0.161635         4.3983
  30   0.0000       0.170698         4.6449
  31   0.0000       0.175370         4.7720
  32   0.0000       0.192506         5.2384

MULLIKEN ATOMIC CHARGES
-----------------------
   0 C :    0.043376
   1 C :   -0.086136
   2 C :   -0.155771
   3 C :    0.000570
   4 H :   -0.005542
   5 H :    0.012838
   6 C :   -0.058694
   7 N :   -0.093763
   8 N :   -0.134663
   9 H :    0.129676
  10 H :    0.114463
  11 H :   -0.093272
  12 H :    0.130077
  13 H :    0.116122
  14 H :    0.017588
  15 H :    0.006319
  16 H :    0.015956
  17 H :    0.017812
  18 H :    0.023044
Sum of atomic charges:   -0.0000000

LOEWDIN ATOMIC CHARGES
----------------------
   0 C :   -0.043473
   1 C :   -0.036215
   2 C :   -0.228154
   3 C :   -0.054779
   4 H :    0.008142
   5 H :    0.014566
   6 C :    0.035264
   7 N :   -0.033845
   8 N :   -0.040972
   9 H :    0.079568
  10 H :    0.065672
  11 H :   -0.011327
  12 H :    0.084324
  13 H :    0.066933
  14 H :    0.019751
  15 H :    0.015869
  16 H :    0.019092
  17 H :    0.018627
  18 H :    0.020958

  Mayer bond orders larger than 0.100000
B(  0-C ,  1-C ) :   1.0909 B(  0-C ,  2-C ) :   1.0128 B(  0-C ,  4-H ) :   0.9456
B(  0-C ,  5-H ) :   0.9280 B(  1-C ,  3-C ) :   1.0861 B(  1-C , 14-H ) :   0.9529
B(  1-C , 15-H ) :   0.9548 B(  2-C ,  6-C ) :   1.6980 B(  2-C , 11-H ) :   0.9478
B(  3-C , 16-H ) :   0.9726 B(  3-C , 17-H ) :   0.9732 B(  3-C , 18-H ) :   0.9744
B(  6-C ,  7-N ) :   1.2448 B(  6-C ,  8-N ) :   1.2399 B(  7-N , 12-H ) :   0.9333
B(  7-N , 13-H ) :   0.9471 B(  8-N ,  9-H ) :   0.9405 B(  8-N , 10-H ) :   0.9484

Dispersion correction           -0.004909907
FINAL SINGLE POINT ENERGY      -306.920141668835

DIPOLE MOMENT
-------------
                                X             Y             Z
Electronic contribution:      6.51427       1.50213      -1.76020
Nuclear contribution   :     -5.84539      -1.11717       1.11949
                        -----------------------------------------
Total Dipole Moment    :      0.66887       0.38496      -0.64071
                        -----------------------------------------
Magnitude (a.u.)       :      1.00304
Magnitude (Debye)      :      2.54953

Rotational constants in cm-1:     0.177055     0.043715     0.038831
Rotational constants in MHz :  5307.971484  1310.555422  1164.112547

                             ****ORCA TERMINATED NORMALLY****
TOTAL RUN TIME: 0 days 0 hours 0 minutes 12 seconds 688 msec
