                         Program Version 5.0.0 -  RELEASE  -
|  1> !wB97X-D3 RIJCOSX def2-SVP def2/J TightSCF
|  2> *xyz 0 1
|  3> C          1.63556       -1.67040       -5.29211
|  4> C          0.33848       -1.50091       -4.50540
|  5> N          2.48451       -0.50741       -5.14039
|  6> C         -0.68487       -0.52803       -5.09989
|  7> H          1.39834       -1.82924       -6.35259
|  8> H          2.15586       -2.56540       -4.93209
|  9> C          3.45115       -0.14953       -5.95259
| 10> C          3.92267        1.08956       -5.85071
| 11> N          3.96616       -1.00618       -6.86788
| 12> H          3.52139       -1.90647       -6.99527
| 13> H          4.44482       -0.62347       -7.67035
| 14> H          2.25200        0.24080       -4.49879
| 15> H          3.46428        1.64078       -5.13639
| 16> H          4.83447        1.31375       -6.22465
| 17> H          0.59489       -1.21158       -3.48231
| 18> H         -0.12653       -2.48766       -4.43418
| 19> H         -0.92267       -0.82721       -6.09931
| 20> H         -0.27317        0.45953       -5.11162
| 21> H         -1.57350       -0.53693       -4.50394
| 22> *
| 23>
| 24> %MaxCore 64000
| 25>
| 26> %pal nprocs 18
| 27> end
| 28>
| 29> %scf
| 30>   MaxIter 150
| 31> end
| 32>
| 33>
| 34>                          ****END OF INPUT****

CARTESIAN COORDINATES (ANGSTROEM)
---------------------------------
  C      1.635560   -1.670400   -5.292110
  C      0.338480   -1.500910   -4.505400
  N      2.484510   -0.507410   -5.140390
  C     -0.684870   -0.528030   -5.099890
  H      1.398340   -1.829240   -6.352590
  H      2.155860   -2.565400   -4.932090
  C      3.451150   -0.149530   -5.952590
  C      3.922670    1.089560   -5.850710
  N      3.966160   -1.006180   -6.867880
  H      3.521390   -1.906470   -6.995270
  H      4.444820   -0.623470   -7.670350
  H      2.252000    0.240800   -4.498790
  H      3.464280    1.640780   -5.136390
  H      4.834470    1.313750   -6.224650
  H      0.594890   -1.211580   -3.482310
  H     -0.126530   -2.487660   -4.434180
  H     -0.922670   -0.827210   -6.099310
  H     -0.273170    0.459530   -5.111620
  H     -1.573500   -0.536930   -4.503940

 Total Charge           Charge          ....    0
 Multiplicity           Mult            ....    1
 Number of Electrons    NEL             ....   56
 Basis Dimension        Dim             ....  158

ORBITAL ENERGIES
----------------

  NO   OCC          E(Eh)            E(eV)
   0   2.0000     -14.429191      -392.6382
   1   2.0000     -14.427478      -392.5916
   2   2.0000     -10.327829      -281.0345
   3   2.0000     -10.326921      -281.0098
   4   2.0000     -10.297748      -280.2160
   5   2.0000     -10.281221      -279.7662
   6   2.0000     -10.190637      -277.3013
   7   2.0000      -1.074012       -29.2254
   8   2.0000      -0.984565       -26.7914
   9   2.0000      -0.903140       -24.5757
  10   2.0000      -0.832565       -22.6552
  11   2.0000      -0.773818       -21.0567
  12   2.0000      -0.707473       -19.2513
  13   2.0000      -0.691863       -18.8265
  14   2.0000      -0.633021       -17.2254
  15   2.0000      -0.596331       -16.2270
  16   2.0000      -0.572012       -15.5652
  17   2.0000      -0.562143       -15.2967
  18   2.0000      -0.543117       -14.7790
  19   2.0000      -0.513626       -13.9765
  20   2.0000      -0.486905       -13.2494
  21   2.0000      -0.474746       -12.9185
  22   2.0000      -0.465775       -12.6744
  23   2.0000      -0.448181       -12.1956
  24   2.0000      -0.443163       -12.0591
  25   2.0000      -0.433340       -11.7918
  26   2.0000      -0.344228        -9.3669
  27   2.0000      -0.240197        -6.5361
  28   0.0000       0.133298         3.6272
  29   0.0000       0.152708         4.1554
  30   0.0000       0.156411         4.2562
  31   0.0000       0.171326         4.6620
  32   0.0000       0.186761         5.0820

MULLIKEN ATOMIC CHARGES
-----------------------
   0 C :    0.112625
   1 C :   -0.131488
   2 N :   -0.180209
   3 C :   -0.009728
   4 H :    0.016961
   5 H :    0.030901
   6 C :   -0.017810
   7 C :   -0.124013
   8 N :   -0.145492
   9 H :    0.113223
  10 H :    0.136837
  11 H :    0.135218
  12 H :   -0.058134
  13 H :   -0.034017
  14 H :    0.033862
  15 H :    0.031213
  16 H :    0.026098
  17 H :    0.027763
  18 H :    0.036192
Sum of atomic charges:   -0.0000000

LOEWDIN ATOMIC CHARGES
----------------------
   0 C :    0.030270
   1 C :   -0.047693
   2 N :   -0.035368
   3 C :   -0.053085
   4 H :    0.012791
   5 H :    0.015207
   6 C :    0.047629
   7 C :   -0.268771
   8 N :   -0.038331
   9 H :    0.064340
  10 H :    0.083368
  11 H :    0.084246
  12 H :   -0.011968
  13 H :   -0.007249
  14 H :    0.024043
  15 H :    0.028375
  16 H :    0.023367
  17 H :    0.021938
  18 H :    0.026890

  Mayer bond orders larger than 0.100000
B(  0-C ,  1-C ) :   1.0806 B(  0-C ,  2-N ) :   0.9730 B(  0-C ,  4-H ) :   0.9438
B(  0-C ,  5-H ) :   0.9497 B(  1-C ,  3-C ) :   1.0775 B(  1-C , 14-H ) :   0.9565
B(  1-C , 15-H ) :   0.9522 B(  2-N ,  6-C ) :   1.2176 B(  2-N , 11-H ) :   0.9207
B(  3-C , 16-H ) :   0.9742 B(  3-C , 17-H ) :   0.9764 B(  3-C , 18-H ) :   0.9740
B(  6-C ,  7-C ) :   1.7396 B(  6-C ,  8-N ) :   1.2067 B(  7-C , 12-H ) :   0.9345
B(  7-C , 13-H ) :   0.9609 B(  8-N ,  9-H ) :   0.9550 B(  8-N , 10-H ) :   0.9497

Dispersion correction           -0.004971126
FINAL SINGLE POINT ENERGY      -306.910193054461

DIPOLE MOMENT
-------------
                                X             Y             Z
Electronic contribution:      4.77200      -0.19414      -1.09967
Nuclear contribution   :     -5.53036      -0.76734       0.96389
                        -----------------------------------------
Total Dipole Moment    :     -0.75836      -0.96149      -0.13578
                        -----------------------------------------
Magnitude (a.u.)       :      1.23207
Magnitude (Debye)      :      3.13168

Rotational constants in cm-1:     0.181901     0.044719     0.039941
Rotational constants in MHz :  5453.254735  1340.639344  1197.391002

                             ****ORCA TERMINATED NORMALLY****
TOTAL RUN TIME: 0 days 0 hours 0 minutes 12 seconds 889 msec
