                         Program Version 5.0.0 -  RELEASE  -
|  1> !wB97X-D3 RIJCOSX def2-SVP def2/J TightSCF
|  2> *xyz 0 1
|  3> C          1.63556       -1.67040       -5.29211
|  4> C          0.33848       -1.50091       -4.50540
|  5> N          2.48451       -0.50741       -5.14039
|  6> C         -0.68487       -0.52803       -5.09989
|  7> H          1.39834       -1.82924       -6.35259
|  8> H          2.15586       -2.56540       -4.93209
|  9> C          3.45115       -0.14953       -5.95259
| 10> N          3.92267        1.08956       -5.85071
| 11> C          3.96616       -1.00618       -6.86788
| 12> H          3.52139       -1.90647       -6.99527
| 13> H          4.44482       -0.62347       -7.67035
| 14> H          2.25200        0.24080       -4.49879
| 15> H          3.46428        1.64078       -5.13639
| 16> H          4.83447        1.31375       -6.22465
| 17> H          0.59489       -1.21158       -3.48231
| 18> H         -0.12653       -2.48766       -4.43418
| 19> H         -0.92267       -0.82721       -6.09931
| 20> H         -0.27317        0.45953       -5.11162
| 21> H         -1.57350       -0.53693       -4.50394
| 22> *
| 23>
| 24> %MaxCore 64000
| 25>
| 26> %pal nprocs 18
| 27> end
| 28>
| 29> %scf
| 30>   MaxIter 150
| 31> end
| 32>
| 33>
| 34>                          ****END OF INPUT****

CARTESIAN COORDINATES (ANGSTROEM)
---------------------------------
  C      1.635560   -1.670400   -5.292110
  C      0.338480   -1.500910   -4.505400
  N      2.484510   -0.507410   -5.140390
  C     -0.684870   -0.528030   -5.099890
  H      1.398340   -1.829240   -6.352590
  H      2.155860   -2.565400   -4.932090
  C      3.451150   -0.149530   -5.952590
  N      3.922670    1.089560   -5.850710
  C      3.966160   -1.006180   -6.867880
  H      3.521390   -1.906470   -6.995270
  H      4.444820   -0.623470   -7.670350
  H      2.252000    0.240800   -4.498790
  H      3.464280    1.640780   -5.136390
  H      4.834470    1.313750   -6.224650
  H      0.594890   -1.211580   -3.482310
  H     -0.126530   -2.487660   -4.434180
  H     -0.922670   -0.827210   -6.099310
  H     -0.273170    0.459530   -5.111620
  H     -1.573500   -0.536930   -4.503940

 Total Charge           Charge          ....    0
 Multiplicity           Mult            ....    1
 Number of Electrons    NEL             ....   56
 Basis Dimension        Dim             ....  158

ORBITAL ENERGIES
----------------

  NO   OCC          E(Eh)            E(eV)
   0   2.0000     -14.435468      -392.8091
   1   2.0000     -14.430176      -392.6651
   2   2.0000     -10.328566      -281.0546
   3   2.0000     -10.319968      -280.8206
   4   2.0000     -10.293801      -280.1086
   5   2.0000     -10.280013      -279.7334
   6   2.0000     -10.190859      -277.3074
   7   2.0000      -1.082321       -29.4515
   8   2.0000      -0.990203       -26.9448
   9   2.0000      -0.895086       -24.3565
  10   2.0000      -0.810198       -22.0466
  11   2.0000      -0.798618       -21.7315
  12   2.0000      -0.712075       -19.3765
  13   2.0000      -0.666550       -18.1378
  14   2.0000      -0.632471       -17.2104
  15   2.0000      -0.620460       -16.8836
  16   2.0000      -0.572319       -15.5736
  17   2.0000      -0.565725       -15.3941
  18   2.0000      -0.531502       -14.4629
  19   2.0000      -0.515677       -14.0323
  20   2.0000      -0.480948       -13.0872
  21   2.0000      -0.476118       -12.9558
  22   2.0000      -0.456617       -12.4252
  23   2.0000      -0.446639       -12.1537
  24   2.0000      -0.438424       -11.9301
  25   2.0000      -0.432763       -11.7761
  26   2.0000      -0.338748        -9.2178
  27   2.0000      -0.242658        -6.6031
  28   0.0000       0.124551         3.3892
  29   0.0000       0.147420         4.0115
  30   0.0000       0.170682         4.6445
  31   0.0000       0.177519         4.8305
  32   0.0000       0.189026         5.1437

MULLIKEN ATOMIC CHARGES
-----------------------
   0 C :    0.135886
   1 C :   -0.130366
   2 N :   -0.199277
   3 C :   -0.006578
   4 H :    0.034010
   5 H :    0.036454
   6 C :   -0.007546
   7 N :   -0.117327
   8 C :   -0.163208
   9 H :   -0.037577
  10 H :   -0.037796
  11 H :    0.104844
  12 H :    0.106189
  13 H :    0.143890
  14 H :    0.026224
  15 H :    0.033503
  16 H :    0.030360
  17 H :    0.013850
  18 H :    0.034466
Sum of atomic charges:    0.0000000

LOEWDIN ATOMIC CHARGES
----------------------
   0 C :    0.046728
   1 C :   -0.050277
   2 N :   -0.030696
   3 C :   -0.054085
   4 H :    0.022805
   5 H :    0.020945
   6 C :    0.041041
   7 N :   -0.027794
   8 C :   -0.280393
   9 H :   -0.010360
  10 H :   -0.009105
  11 H :    0.062265
  12 H :    0.063237
  13 H :    0.088021
  14 H :    0.020361
  15 H :    0.029767
  16 H :    0.025085
  17 H :    0.016514
  18 H :    0.025943

  Mayer bond orders larger than 0.100000
B(  0-C ,  1-C ) :   1.0711 B(  0-C ,  2-N ) :   0.9681 B(  0-C ,  4-H ) :   0.9427
B(  0-C ,  5-H ) :   0.9525 B(  1-C ,  3-C ) :   1.0759 B(  1-C , 14-H ) :   0.9559
B(  1-C , 15-H ) :   0.9524 B(  2-N ,  6-C ) :   1.1947 B(  2-N , 11-H ) :   0.9338
B(  3-C , 16-H ) :   0.9742 B(  3-C , 17-H ) :   0.9757 B(  3-C , 18-H ) :   0.9740
B(  6-C ,  7-N ) :   1.2254 B(  6-C ,  8-C ) :   1.7277 B(  7-N , 12-H ) :   0.9528
B(  7-N , 13-H ) :   0.9446 B(  8-C ,  9-H ) :   0.9497 B(  8-C , 10-H ) :   0.9566

Dispersion correction           -0.004948798
FINAL SINGLE POINT ENERGY      -306.910115269599

DIPOLE MOMENT
-------------
                                X             Y             Z
Electronic contribution:      4.85636       2.00771       0.08652
Nuclear contribution   :     -5.52083      -1.22643       0.74108
                        -----------------------------------------
Total Dipole Moment    :     -0.66447       0.78129       0.82759
                        -----------------------------------------
Magnitude (a.u.)       :      1.31789
Magnitude (Debye)      :      3.34982

Rotational constants in cm-1:     0.181479     0.044588     0.039739
Rotational constants in MHz :  5440.604457  1336.706831  1191.355312

                             ****ORCA TERMINATED NORMALLY****
TOTAL RUN TIME: 0 days 0 hours 0 minutes 9 seconds 887 msec
