                         Program Version 5.0.0 -  RELEASE  -
|  1> !DLPNO-CCSD(T) aug-cc-pVTZ aug-cc-pVTZ/C TightSCF TightPNO RIJCOSX def2/J
|  2> *xyz -1 1
|  3> C          3.51177       -2.80621       -6.49228
|  4> S          3.00462       -1.09621       -6.38926
|  5> O          4.12886       -0.32965       -6.95372
|  6> O          1.78128       -1.00078       -7.13640
|  7> O          2.85155       -0.78368       -4.95679
|  8> H          3.63615       -3.08010       -7.51913
|  9> H          2.76397       -3.42755       -6.04548
| 10> H          4.43892       -2.93511       -5.97393
| 11> *
| 12>
| 13> %MaxCore 64000
| 14>
| 15> %pal nprocs 2
| 16> end
| 17>
| 18> %scf
| 19>   MaxIter 150
| 20> end
| 21>
| 22>
| 23>                          ****END OF INPUT****

CARTESIAN COORDINATES (ANGSTROEM)
---------------------------------
  C      3.511770   -2.806210   -6.492280
  S      3.004620   -1.096210   -6.389260
  O      4.128860   -0.329650   -6.953720
  O      1.781280   -1.000780   -7.136400
  O      2.851550   -0.783680   -4.956790
  H      3.636150   -3.080100   -7.519130
  H      2.763970   -3.427550   -6.045480
  H      4.438920   -2.935110   -5.973930

 Total Charge           Charge          ....   -1
 Multiplicity           Mult            ....    1
 Number of Electrons    NEL             ....   50
 Basis Dimension        Dim             ....  303

ORBITAL ENERGIES
----------------

  NO   OCC          E(Eh)            E(eV)
   0   2.0000     -91.983813     -2503.0068
   1   2.0000     -20.333538      -553.3037
   2   2.0000     -20.322480      -553.0028
   3   2.0000     -20.321888      -552.9867
   4   2.0000     -11.084514      -301.6249
   5   2.0000      -8.946787      -243.4545
   6   2.0000      -6.632992      -180.4929
   7   2.0000      -6.631694      -180.4576
   8   2.0000      -6.631629      -180.4558
   9   2.0000      -1.269041       -34.5324
  10   2.0000      -1.124761       -30.6063
  11   2.0000      -1.102436       -29.9988
  12   2.0000      -0.849520       -23.1166
  13   2.0000      -0.605629       -16.4800
  14   2.0000      -0.485123       -13.2009
  15   2.0000      -0.469006       -12.7623
  16   2.0000      -0.468586       -12.7509
  17   2.0000      -0.421323       -11.4648
  18   2.0000      -0.418413       -11.3856
  19   2.0000      -0.320794        -8.7292
  20   2.0000      -0.317485        -8.6392
  21   2.0000      -0.275327        -7.4920
  22   2.0000      -0.263494        -7.1700
  23   2.0000      -0.256463        -6.9787
  24   2.0000      -0.226557        -6.1649
  25   0.0000       0.126942         3.4543
  26   0.0000       0.139986         3.8092
  27   0.0000       0.140930         3.8349
  28   0.0000       0.189193         5.1482
  29   0.0000       0.213140         5.7998

MULLIKEN ATOMIC CHARGES
-----------------------
   0 C :   -1.062250
   1 S :    2.184404
   2 O :   -1.012138
   3 O :   -0.999412
   4 O :   -1.006520
   5 H :    0.297840
   6 H :    0.299615
   7 H :    0.298460
Sum of atomic charges:   -1.0000000

LOEWDIN ATOMIC CHARGES
----------------------
   0 C :    0.426356
   1 S :   -0.436464
   2 O :   -0.089429
   3 O :   -0.063485
   4 O :   -0.091043
   5 H :   -0.248414
   6 H :   -0.249377
   7 H :   -0.248144

  Mayer bond orders larger than 0.100000
B(  0-C ,  1-S ) :   0.7771 B(  0-C ,  5-H ) :   0.9105 B(  0-C ,  6-H ) :   0.9052
B(  0-C ,  7-H ) :   0.9089 B(  1-S ,  2-O ) :   1.3314 B(  1-S ,  3-O ) :   1.3974
B(  1-S ,  4-O ) :   1.3244

E(0)                                       ...   -661.877739591
E(0)                                       ...   -661.877739591
E(CORR)(strong-pairs)                      ...     -1.114495593
E(CORR)(weak-pairs)                        ...     -0.000984869
E(CORR)(corrected)                         ...     -1.115480462
E(TOT)                                     ...   -662.993220053
E(CCSD(T))                                 ...   -663.041045512
FINAL SINGLE POINT ENERGY      -663.041045512441

DIPOLE MOMENT
-------------
                                X             Y             Z
Electronic contribution:     -1.25236       3.85884       0.16700
Nuclear contribution   :      1.59265      -5.51967      -0.35565
                        -----------------------------------------
Total Dipole Moment    :      0.34029      -1.66082      -0.18865
                        -----------------------------------------
Magnitude (a.u.)       :      1.70579
Magnitude (Debye)      :      4.33578

Rotational constants in cm-1:     0.172598     0.157065     0.154689
Rotational constants in MHz :  5174.362736  4708.699947  4637.458896

                             ****ORCA TERMINATED NORMALLY****
TOTAL RUN TIME: 0 days 1 hours 2 minutes 53 seconds 23 msec
