                         Program Version 5.0.0 -  RELEASE  -
|  1> !DLPNO-CCSD(T) aug-cc-pVTZ aug-cc-pVTZ/C TightSCF TightPNO RIJCOSX def2/J
|  2> *xyz 1 1
|  3> C          4.49059        1.15590       -2.46929
|  4> N          4.30539        1.22276       -3.90832
|  5> C          4.63192        2.24637       -4.67096
|  6> N          4.54169        2.14399       -5.98714
|  7> N          5.08409        3.39358       -4.11855
|  8> H          4.92067        3.57050       -3.13587
|  9> H          5.25465        4.19739       -4.70696
| 10> H          3.82453        0.44911       -4.35093
| 11> H          4.34337        1.24932       -6.41665
| 12> H          4.67671        2.95662       -6.57411
| 13> H          5.00867        2.03053       -2.13534
| 14> H          5.06354        0.28631       -2.22344
| 15> H          3.53600        1.10160       -1.98897
| 16> *
| 17>
| 18> %MaxCore 64000
| 19>
| 20> %pal nprocs 2
| 21> end
| 22>
| 23> %scf
| 24>   MaxIter 150
| 25> end
| 26>
| 27>
| 28>                          ****END OF INPUT****

CARTESIAN COORDINATES (ANGSTROEM)
---------------------------------
  C      4.490590    1.155900   -2.469290
  N      4.305390    1.222760   -3.908320
  C      4.631920    2.246370   -4.670960
  N      4.541690    2.143990   -5.987140
  N      5.084090    3.393580   -4.118550
  H      4.920670    3.570500   -3.135870
  H      5.254650    4.197390   -4.706960
  H      3.824530    0.449110   -4.350930
  H      4.343370    1.249320   -6.416650
  H      4.676710    2.956620   -6.574110
  H      5.008670    2.030530   -2.135340
  H      5.063540    0.286310   -2.223440
  H      3.536000    1.101600   -1.988970

 Total Charge           Charge          ....    1
 Multiplicity           Mult            ....    1
 Number of Electrons    NEL             ....   40
 Basis Dimension        Dim             ....  414

ORBITAL ENERGIES
----------------

  NO   OCC          E(Eh)            E(eV)
   0   2.0000     -15.790452      -429.6800
   1   2.0000     -15.789650      -429.6582
   2   2.0000     -15.786212      -429.5647
   3   2.0000     -11.592642      -315.4518
   4   2.0000     -11.430351      -311.0357
   5   2.0000      -1.545215       -42.0474
   6   2.0000      -1.409428       -38.3525
   7   2.0000      -1.390096       -37.8264
   8   2.0000      -1.154731       -31.4218
   9   2.0000      -1.042389       -28.3649
  10   2.0000      -0.981316       -26.7030
  11   2.0000      -0.944204       -25.6931
  12   2.0000      -0.866082       -23.5673
  13   2.0000      -0.861847       -23.4521
  14   2.0000      -0.827943       -22.5295
  15   2.0000      -0.802475       -21.8365
  16   2.0000      -0.752991       -20.4899
  17   2.0000      -0.738728       -20.1018
  18   2.0000      -0.625746       -17.0274
  19   2.0000      -0.593068       -16.1382
  20   0.0000      -0.096151        -2.6164
  21   0.0000      -0.076933        -2.0934
  22   0.0000      -0.071713        -1.9514
  23   0.0000      -0.060745        -1.6530
  24   0.0000      -0.049399        -1.3442

MULLIKEN ATOMIC CHARGES
-----------------------
   0 C :   -0.886709
   1 N :   -0.029243
   2 C :    0.508437
   3 N :   -0.314033
   4 N :   -0.245557
   5 H :    0.185677
   6 H :    0.157985
   7 H :    0.148257
   8 H :    0.160904
   9 H :    0.169609
  10 H :    0.413325
  11 H :    0.377737
  12 H :    0.353610
Sum of atomic charges:    1.0000000

LOEWDIN ATOMIC CHARGES
----------------------
   0 C :    0.595592
   1 N :    0.611482
   2 C :   -0.362668
   3 N :    0.932130
   4 N :    0.945205
   5 H :   -0.284259
   6 H :   -0.242038
   7 H :   -0.229115
   8 H :   -0.236125
   9 H :   -0.238232
  10 H :   -0.197000
  11 H :   -0.145950
  12 H :   -0.149022

  Mayer bond orders larger than 0.100000
B(  0-C ,  1-N ) :   0.8915 B(  0-C ,  2-C ) :  -0.1083 B(  0-C , 10-H ) :   0.8265
B(  0-C , 11-H ) :   0.8765 B(  0-C , 12-H ) :   0.8975 B(  1-N ,  2-C ) :   1.0866
B(  1-N ,  7-H ) :   1.0509 B(  2-C ,  3-N ) :   1.0381 B(  2-C ,  4-N ) :   0.9914
B(  3-N ,  8-H ) :   1.0618 B(  3-N ,  9-H ) :   1.0587 B(  4-N ,  5-H ) :   1.0280
B(  4-N ,  6-H ) :   1.0323

E(0)                                       ...   -243.655171766
E(0)                                       ...   -243.655171766
E(CORR)(strong-pairs)                      ...     -0.995506766
E(CORR)(weak-pairs)                        ...     -0.000993864
E(CORR)(corrected)                         ...     -0.996500630
E(TOT)                                     ...   -244.651672396
E(CCSD(T))                                 ...   -244.691343081
FINAL SINGLE POINT ENERGY      -244.691343081291

DIPOLE MOMENT
-------------
                                X             Y             Z
Electronic contribution:      0.01831       0.71079      -2.69745
Nuclear contribution   :     -0.23495      -0.48067       2.19509
                        -----------------------------------------
Total Dipole Moment    :     -0.21664       0.23012      -0.50236
                        -----------------------------------------
Magnitude (a.u.)       :      0.59351
Magnitude (Debye)      :      1.50857

Rotational constants in cm-1:     0.315679     0.134071     0.096006
Rotational constants in MHz :  9463.824527  4019.347586  2878.182223

                             ****ORCA TERMINATED NORMALLY****
TOTAL RUN TIME: 0 days 1 hours 59 minutes 35 seconds 742 msec
