                         Program Version 5.0.0 -  RELEASE  -
|  1> !DLPNO-CCSD(T) aug-cc-pVTZ aug-cc-pVTZ/C TightSCF TightPNO RIJCOSX def2/J
|  2> *xyz 0 1
|  3> C          3.51177       -2.80621       -6.49228
|  4> S          3.00462       -1.09621       -6.38926
|  5> F          4.12886       -0.32965       -6.95372
|  6> O          1.78128       -1.00078       -7.13640
|  7> O          2.85155       -0.78368       -4.95679
|  8> H          3.63615       -3.08010       -7.51913
|  9> H          2.76397       -3.42755       -6.04548
| 10> H          4.43892       -2.93511       -5.97393
| 11> *
| 12>
| 13> %MaxCore 64000
| 14>
| 15> %pal nprocs 2
| 16> end
| 17>
| 18> %scf
| 19>   MaxIter 150
| 20> end
| 21>
| 22>
| 23>                          ****END OF INPUT****

CARTESIAN COORDINATES (ANGSTROEM)
---------------------------------
  C      3.511770   -2.806210   -6.492280
  S      3.004620   -1.096210   -6.389260
  F      4.128860   -0.329650   -6.953720
  O      1.781280   -1.000780   -7.136400
  O      2.851550   -0.783680   -4.956790
  H      3.636150   -3.080100   -7.519130
  H      2.763970   -3.427550   -6.045480
  H      4.438920   -2.935110   -5.973930

 Total Charge           Charge          ....    0
 Multiplicity           Mult            ....    1
 Number of Electrons    NEL             ....   50
 Basis Dimension        Dim             ....  303

ORBITAL ENERGIES
----------------

  NO   OCC          E(Eh)            E(eV)
   0   2.0000     -92.258222     -2510.4738
   1   2.0000     -26.422894      -719.0035
   2   2.0000     -20.575042      -559.8754
   3   2.0000     -20.563441      -559.5597
   4   2.0000     -11.295305      -307.3609
   5   2.0000      -9.220909      -250.9137
   6   2.0000      -6.908578      -187.9920
   7   2.0000      -6.904746      -187.8877
   8   2.0000      -6.903704      -187.8593
   9   2.0000      -1.779065       -48.4108
  10   2.0000      -1.462082       -39.7853
  11   2.0000      -1.352316       -36.7984
  12   2.0000      -1.075817       -29.2745
  13   2.0000      -0.953642       -25.9499
  14   2.0000      -0.823112       -22.3980
  15   2.0000      -0.815296       -22.1853
  16   2.0000      -0.770021       -20.9533
  17   2.0000      -0.667418       -18.1614
  18   2.0000      -0.662140       -18.0177
  19   2.0000      -0.640470       -17.4281
  20   2.0000      -0.617731       -16.8093
  21   2.0000      -0.562431       -15.3045
  22   2.0000      -0.508991       -13.8504
  23   2.0000      -0.494215       -13.4483
  24   2.0000      -0.484067       -13.1721
  25   0.0000       0.021386         0.5819
  26   0.0000       0.040897         1.1129
  27   0.0000       0.043650         1.1878
  28   0.0000       0.064468         1.7543
  29   0.0000       0.091351         2.4858

MULLIKEN ATOMIC CHARGES
-----------------------
   0 C :   -0.983963
   1 S :    2.158614
   2 F :   -0.496215
   3 O :   -0.844031
   4 O :   -0.854150
   5 H :    0.335449
   6 H :    0.350850
   7 H :    0.333447
Sum of atomic charges:   -0.0000000

LOEWDIN ATOMIC CHARGES
----------------------
   0 C :    0.511027
   1 S :   -0.134270
   2 F :    0.256258
   3 O :    0.024009
   4 O :   -0.000601
   5 H :   -0.224491
   6 H :   -0.207564
   7 H :   -0.224368

  Mayer bond orders larger than 0.100000
B(  0-C ,  1-S ) :   0.8915 B(  0-C ,  5-H ) :   0.8785 B(  0-C ,  6-H ) :   0.8692
B(  0-C ,  7-H ) :   0.8786 B(  1-S ,  2-F ) :   0.5648 B(  1-S ,  3-O ) :   1.5939
B(  1-S ,  4-O ) :   1.5166

E(0)                                       ...   -686.386009254
E(0)                                       ...   -686.386009254
E(CORR)(strong-pairs)                      ...     -1.119544439
E(CORR)(weak-pairs)                        ...     -0.000968450
E(CORR)(corrected)                         ...     -1.120512889
E(TOT)                                     ...   -687.506522143
E(CCSD(T))                                 ...   -687.551907078
FINAL SINGLE POINT ENERGY      -687.551907077535

DIPOLE MOMENT
-------------
                                X             Y             Z
Electronic contribution:      0.71647       5.13505      -0.84582
Nuclear contribution   :      0.51040      -6.36905       0.21167
                        -----------------------------------------
Total Dipole Moment    :      1.22687      -1.23400      -0.63415
                        -----------------------------------------
Magnitude (a.u.)       :      1.85205
Magnitude (Debye)      :      4.70754

Rotational constants in cm-1:     0.163860     0.154073     0.147119
Rotational constants in MHz :  4912.396151  4618.979177  4410.507958

                             ****ORCA TERMINATED NORMALLY****
TOTAL RUN TIME: 0 days 0 hours 56 minutes 57 seconds 276 msec
