                         Program Version 5.0.0 -  RELEASE  -
|  1> !DLPNO-CCSD(T) aug-cc-pVTZ aug-cc-pVTZ/C TightSCF TightPNO RIJCOSX def2/J
|  2> *xyz 0 1
|  3> C          4.49059        1.15590       -2.46929
|  4> C          4.30539        1.22276       -3.90832
|  5> C          4.63192        2.24637       -4.67096
|  6> N          4.54169        2.14399       -5.98714
|  7> N          5.08409        3.39358       -4.11855
|  8> H          4.92067        3.57050       -3.13587
|  9> H          5.25465        4.19739       -4.70696
| 10> H          3.82453        0.44911       -4.35093
| 11> H          4.34337        1.24932       -6.41665
| 12> H          4.67671        2.95662       -6.57411
| 13> H          5.00867        2.03053       -2.13534
| 14> H          5.06354        0.28631       -2.22344
| 15> H          3.53600        1.10160       -1.98897
| 16> *
| 17>
| 18> %MaxCore 64000
| 19>
| 20> %pal nprocs 2
| 21> end
| 22>
| 23> %scf
| 24>   MaxIter 150
| 25> end
| 26>
| 27>
| 28>                          ****END OF INPUT****

CARTESIAN COORDINATES (ANGSTROEM)
---------------------------------
  C      4.490590    1.155900   -2.469290
  C      4.305390    1.222760   -3.908320
  C      4.631920    2.246370   -4.670960
  N      4.541690    2.143990   -5.987140
  N      5.084090    3.393580   -4.118550
  H      4.920670    3.570500   -3.135870
  H      5.254650    4.197390   -4.706960
  H      3.824530    0.449110   -4.350930
  H      4.343370    1.249320   -6.416650
  H      4.676710    2.956620   -6.574110
  H      5.008670    2.030530   -2.135340
  H      5.063540    0.286310   -2.223440
  H      3.536000    1.101600   -1.988970

 Total Charge           Charge          ....    0
 Multiplicity           Mult            ....    1
 Number of Electrons    NEL             ....   40
 Basis Dimension        Dim             ....  414

ORBITAL ENERGIES
----------------

  NO   OCC          E(Eh)            E(eV)
   0   2.0000     -15.558572      -423.3703
   1   2.0000     -15.557899      -423.3520
   2   2.0000     -11.279070      -306.9191
   3   2.0000     -11.183389      -304.3155
   4   2.0000     -11.138405      -303.0914
   5   2.0000      -1.273785       -34.6615
   6   2.0000      -1.161002       -31.5925
   7   2.0000      -1.024137       -27.8682
   8   2.0000      -0.896298       -24.3895
   9   2.0000      -0.780427       -21.2365
  10   2.0000      -0.720653       -19.6100
  11   2.0000      -0.694813       -18.9068
  12   2.0000      -0.639725       -17.4078
  13   2.0000      -0.586928       -15.9711
  14   2.0000      -0.570460       -15.5230
  15   2.0000      -0.531196       -14.4546
  16   2.0000      -0.513291       -13.9674
  17   2.0000      -0.490875       -13.3574
  18   2.0000      -0.412658       -11.2290
  19   2.0000      -0.256492        -6.9795
  20   0.0000       0.024558         0.6683
  21   0.0000       0.035698         0.9714
  22   0.0000       0.040858         1.1118
  23   0.0000       0.050767         1.3814
  24   0.0000       0.055462         1.5092

MULLIKEN ATOMIC CHARGES
-----------------------
   0 C :   -0.844024
   1 C :   -0.292483
   2 C :    0.524973
   3 N :   -0.491706
   4 N :   -0.363935
   5 H :    0.093864
   6 H :    0.128499
   7 H :    0.284754
   8 H :    0.083444
   9 H :    0.085198
  10 H :    0.289719
  11 H :    0.262869
  12 H :    0.238828
Sum of atomic charges:    0.0000000

LOEWDIN ATOMIC CHARGES
----------------------
   0 C :    0.543890
   1 C :    0.187555
   2 C :   -0.432682
   3 N :    0.842172
   4 N :    0.867370
   5 H :   -0.310670
   6 H :   -0.284129
   7 H :   -0.271659
   8 H :   -0.269109
   9 H :   -0.283302
  10 H :   -0.223878
  11 H :   -0.181831
  12 H :   -0.183728

  Mayer bond orders larger than 0.100000
B(  0-C ,  1-C ) :   0.7308 B(  0-C ,  2-C ) :   0.1400 B(  0-C , 10-H ) :   0.8938
B(  0-C , 11-H ) :   1.0243 B(  0-C , 12-H ) :   1.0266 B(  1-C ,  2-C ) :   1.2493
B(  1-C ,  3-N ) :  -0.2449 B(  1-C ,  4-N ) :  -0.2005 B(  1-C ,  7-H ) :   0.9775
B(  2-C ,  3-N ) :   0.8792 B(  2-C ,  4-N ) :   0.8492 B(  3-N ,  4-N ) :  -0.1429
B(  3-N ,  8-H ) :   1.1351 B(  3-N ,  9-H ) :   1.1470 B(  4-N ,  5-H ) :   1.1229
B(  4-N ,  6-H ) :   1.0274

E(0)                                       ...   -227.205879182
E(0)                                       ...   -227.205879182
E(CORR)(strong-pairs)                      ...     -0.978551356
E(CORR)(weak-pairs)                        ...     -0.000972674
E(CORR)(corrected)                         ...     -0.979524030
E(TOT)                                     ...   -228.185403212
E(CCSD(T))                                 ...   -228.225363136
FINAL SINGLE POINT ENERGY      -228.225363135776

DIPOLE MOMENT
-------------
                                X             Y             Z
Electronic contribution:      0.29288       1.37311      -2.88204
Nuclear contribution   :     -0.29662      -0.64714       2.26125
                        -----------------------------------------
Total Dipole Moment    :     -0.00374       0.72597      -0.62080
                        -----------------------------------------
Magnitude (a.u.)       :      0.95522
Magnitude (Debye)      :      2.42796

Rotational constants in cm-1:     0.320965     0.135060     0.096994
Rotational constants in MHz :  9622.302637  4048.999301  2907.812202

                             ****ORCA TERMINATED NORMALLY****
TOTAL RUN TIME: 0 days 2 hours 11 minutes 21 seconds 826 msec
