                         Program Version 5.0.0 -  RELEASE  -
|  1> !DLPNO-CCSD(T) aug-cc-pVTZ aug-cc-pVTZ/C TightSCF TightPNO RIJCOSX def2/J
|  2> *xyz 0 1
|  3> C          3.51177       -2.80621       -6.49228
|  4> S          3.00462       -1.09621       -6.38926
|  5> O          4.12886       -0.32965       -6.95372
|  6> F          1.78128       -1.00078       -7.13640
|  7> O          2.85155       -0.78368       -4.95679
|  8> H          3.63615       -3.08010       -7.51913
|  9> H          2.76397       -3.42755       -6.04548
| 10> H          4.43892       -2.93511       -5.97393
| 11> *
| 12>
| 13> %MaxCore 64000
| 14>
| 15> %pal nprocs 2
| 16> end
| 17>
| 18> %scf
| 19>   MaxIter 150
| 20> end
| 21>
| 22>
| 23>                          ****END OF INPUT****

CARTESIAN COORDINATES (ANGSTROEM)
---------------------------------
  C      3.511770   -2.806210   -6.492280
  S      3.004620   -1.096210   -6.389260
  O      4.128860   -0.329650   -6.953720
  F      1.781280   -1.000780   -7.136400
  O      2.851550   -0.783680   -4.956790
  H      3.636150   -3.080100   -7.519130
  H      2.763970   -3.427550   -6.045480
  H      4.438920   -2.935110   -5.973930

 Total Charge           Charge          ....    0
 Multiplicity           Mult            ....    1
 Number of Electrons    NEL             ....   50
 Basis Dimension        Dim             ....  303

ORBITAL ENERGIES
----------------

  NO   OCC          E(Eh)            E(eV)
   0   2.0000     -92.259431     -2510.5068
   1   2.0000     -26.441799      -719.5179
   2   2.0000     -20.564001      -559.5749
   3   2.0000     -20.563309      -559.5561
   4   2.0000     -11.295964      -307.3788
   5   2.0000      -9.222323      -250.9522
   6   2.0000      -6.910014      -188.0310
   7   2.0000      -6.905979      -187.9212
   8   2.0000      -6.905071      -187.8965
   9   2.0000      -1.812392       -49.3177
  10   2.0000      -1.445811       -39.3425
  11   2.0000      -1.337286       -36.3894
  12   2.0000      -1.078545       -29.3487
  13   2.0000      -0.972605       -26.4659
  14   2.0000      -0.844314       -22.9750
  15   2.0000      -0.838720       -22.8227
  16   2.0000      -0.770573       -20.9683
  17   2.0000      -0.660521       -17.9737
  18   2.0000      -0.659009       -17.9325
  19   2.0000      -0.641356       -17.4522
  20   2.0000      -0.609985       -16.5985
  21   2.0000      -0.554757       -15.0957
  22   2.0000      -0.497383       -13.5345
  23   2.0000      -0.491144       -13.3647
  24   2.0000      -0.473304       -12.8793
  25   0.0000       0.020761         0.5649
  26   0.0000       0.040277         1.0960
  27   0.0000       0.044238         1.2038
  28   0.0000       0.062902         1.7117
  29   0.0000       0.090903         2.4736

MULLIKEN ATOMIC CHARGES
-----------------------
   0 C :   -0.980540
   1 S :    2.145828
   2 O :   -0.850839
   3 F :   -0.490769
   4 O :   -0.846195
   5 H :    0.334880
   6 H :    0.338295
   7 H :    0.349338
Sum of atomic charges:    0.0000000

LOEWDIN ATOMIC CHARGES
----------------------
   0 C :    0.509773
   1 S :   -0.138113
   2 O :    0.000873
   3 F :    0.284754
   4 O :   -0.000563
   5 H :   -0.224691
   6 H :   -0.225429
   7 H :   -0.206604

  Mayer bond orders larger than 0.100000
B(  0-C ,  1-S ) :   0.8989 B(  0-C ,  5-H ) :   0.8779 B(  0-C ,  6-H ) :   0.8731
B(  0-C ,  7-H ) :   0.8730 B(  1-S ,  2-O ) :   1.5310 B(  1-S ,  3-F ) :   0.5775
B(  1-S ,  4-O ) :   1.5201

E(0)                                       ...   -686.370971109
E(0)                                       ...   -686.370971109
E(CORR)(strong-pairs)                      ...     -1.120314633
E(CORR)(weak-pairs)                        ...     -0.000969325
E(CORR)(corrected)                         ...     -1.121283958
E(TOT)                                     ...   -687.492255067
E(CCSD(T))                                 ...   -687.537869875
FINAL SINGLE POINT ENERGY      -687.537869874727

DIPOLE MOMENT
-------------
                                X             Y             Z
Electronic contribution:     -3.38957       3.95979      -1.15276
Nuclear contribution   :      2.85578      -5.69854       0.39418
                        -----------------------------------------
Total Dipole Moment    :     -0.53379      -1.73875      -0.75858
                        -----------------------------------------
Magnitude (a.u.)       :      1.97069
Magnitude (Debye)      :      5.00910

Rotational constants in cm-1:     0.163257     0.155833     0.146211
Rotational constants in MHz :  4894.333085  4671.750883  4383.281537

                             ****ORCA TERMINATED NORMALLY****
TOTAL RUN TIME: 0 days 0 hours 57 minutes 8 seconds 360 msec
