                         Program Version 5.0.0 -  RELEASE  -
|  1> !DLPNO-CCSD(T) aug-cc-pVTZ aug-cc-pVTZ/C TightSCF TightPNO RIJCOSX def2/J
|  2> *xyz 0 1
|  3> C          4.49059        1.15590       -2.46929
|  4> N          4.30539        1.22276       -3.90832
|  5> C          4.63192        2.24637       -4.67096
|  6> C          4.54169        2.14399       -5.98714
|  7> N          5.08409        3.39358       -4.11855
|  8> H          4.92067        3.57050       -3.13587
|  9> H          5.25465        4.19739       -4.70696
| 10> H          3.82453        0.44911       -4.35093
| 11> H          4.34337        1.24932       -6.41665
| 12> H          4.67671        2.95662       -6.57411
| 13> H          5.00867        2.03053       -2.13534
| 14> H          5.06354        0.28631       -2.22344
| 15> H          3.53600        1.10160       -1.98897
| 16> *
| 17>
| 18> %MaxCore 64000
| 19>
| 20> %pal nprocs 2
| 21> end
| 22>
| 23> %scf
| 24>   MaxIter 150
| 25> end
| 26>
| 27>
| 28>                          ****END OF INPUT****

CARTESIAN COORDINATES (ANGSTROEM)
---------------------------------
  C      4.490590    1.155900   -2.469290
  N      4.305390    1.222760   -3.908320
  C      4.631920    2.246370   -4.670960
  C      4.541690    2.143990   -5.987140
  N      5.084090    3.393580   -4.118550
  H      4.920670    3.570500   -3.135870
  H      5.254650    4.197390   -4.706960
  H      3.824530    0.449110   -4.350930
  H      4.343370    1.249320   -6.416650
  H      4.676710    2.956620   -6.574110
  H      5.008670    2.030530   -2.135340
  H      5.063540    0.286310   -2.223440
  H      3.536000    1.101600   -1.988970

 Total Charge           Charge          ....    0
 Multiplicity           Mult            ....    1
 Number of Electrons    NEL             ....   40
 Basis Dimension        Dim             ....  414

ORBITAL ENERGIES
----------------

  NO   OCC          E(Eh)            E(eV)
   0   2.0000     -15.560679      -423.4276
   1   2.0000     -15.559901      -423.4064
   2   2.0000     -11.286427      -307.1193
   3   2.0000     -11.258025      -306.3464
   4   2.0000     -11.126309      -302.7623
   5   2.0000      -1.286005       -34.9940
   6   2.0000      -1.176518       -32.0147
   7   2.0000      -1.006650       -27.3924
   8   2.0000      -0.912630       -24.8339
   9   2.0000      -0.803872       -21.8745
  10   2.0000      -0.721124       -19.6228
  11   2.0000      -0.667024       -18.1507
  12   2.0000      -0.642541       -17.4844
  13   2.0000      -0.625238       -17.0136
  14   2.0000      -0.566548       -15.4166
  15   2.0000      -0.550741       -14.9864
  16   2.0000      -0.541293       -14.7293
  17   2.0000      -0.515788       -14.0353
  18   2.0000      -0.398516       -10.8442
  19   2.0000      -0.263040        -7.1577
  20   0.0000       0.025430         0.6920
  21   0.0000       0.035044         0.9536
  22   0.0000       0.042545         1.1577
  23   0.0000       0.044123         1.2007
  24   0.0000       0.055881         1.5206

MULLIKEN ATOMIC CHARGES
-----------------------
   0 C :   -0.955353
   1 N :   -0.084637
   2 C :    0.344037
   3 C :   -1.118765
   4 N :   -0.351775
   5 H :    0.140428
   6 H :    0.056540
   7 H :    0.057860
   8 H :    0.383689
   9 H :    0.456469
  10 H :    0.405055
  11 H :    0.350210
  12 H :    0.316241
Sum of atomic charges:    0.0000000

LOEWDIN ATOMIC CHARGES
----------------------
   0 C :    0.540987
   1 N :    0.554037
   2 C :   -0.458744
   3 C :    0.527570
   4 N :    0.866078
   5 H :   -0.322817
   6 H :   -0.271049
   7 H :   -0.253134
   8 H :   -0.309537
   9 H :   -0.313316
  10 H :   -0.214663
  11 H :   -0.171614
  12 H :   -0.173796

  Mayer bond orders larger than 0.100000
B(  0-C ,  1-N ) :   0.9253 B(  0-C , 10-H ) :   0.8239 B(  0-C , 11-H ) :   0.9053
B(  0-C , 12-H ) :   0.9367 B(  1-N ,  2-C ) :   0.8225 B(  1-N ,  3-C ) :  -0.1664
B(  1-N ,  4-N ) :  -0.1596 B(  1-N ,  7-H ) :   1.1509 B(  2-C ,  3-C ) :   1.2008
B(  2-C ,  4-N ) :   0.8864 B(  3-C ,  4-N ) :  -0.2339 B(  3-C ,  8-H ) :   0.9522
B(  3-C ,  9-H ) :   0.8376 B(  4-N ,  5-H ) :   1.0438 B(  4-N ,  6-H ) :   1.1369

E(0)                                       ...   -227.197508944
E(0)                                       ...   -227.197508944
E(CORR)(strong-pairs)                      ...     -0.975253588
E(CORR)(weak-pairs)                        ...     -0.000973893
E(CORR)(corrected)                         ...     -0.976227482
E(TOT)                                     ...   -228.173736426
E(CCSD(T))                                 ...   -228.213500300
FINAL SINGLE POINT ENERGY      -228.213500300479

DIPOLE MOMENT
-------------
                                X             Y             Z
Electronic contribution:      0.08748       0.50923      -0.68258
Nuclear contribution   :     -0.24876      -0.46055       1.84019
                        -----------------------------------------
Total Dipole Moment    :     -0.16128       0.04868       1.15761
                        -----------------------------------------
Magnitude (a.u.)       :      1.16981
Magnitude (Debye)      :      2.97341

Rotational constants in cm-1:     0.322158     0.139919     0.099594
Rotational constants in MHz :  9658.057362  4194.660927  2985.745059

                             ****ORCA TERMINATED NORMALLY****
TOTAL RUN TIME: 0 days 1 hours 54 minutes 58 seconds 399 msec
