                         Program Version 5.0.0 -  RELEASE  -
|  1> !DLPNO-CCSD(T) aug-cc-pVTZ aug-cc-pVTZ/C TightSCF TightPNO RIJCOSX def2/J
|  2> *xyz 0 1
|  3> C          3.51177       -2.80621       -6.49228
|  4> S          3.00462       -1.09621       -6.38926
|  5> O          4.12886       -0.32965       -6.95372
|  6> O          1.78128       -1.00078       -7.13640
|  7> F          2.85155       -0.78368       -4.95679
|  8> H          3.63615       -3.08010       -7.51913
|  9> H          2.76397       -3.42755       -6.04548
| 10> H          4.43892       -2.93511       -5.97393
| 11> *
| 12>
| 13> %MaxCore 64000
| 14>
| 15> %pal nprocs 2
| 16> end
| 17>
| 18> %scf
| 19>   MaxIter 150
| 20> end
| 21>
| 22>
| 23>                          ****END OF INPUT****

CARTESIAN COORDINATES (ANGSTROEM)
---------------------------------
  C      3.511770   -2.806210   -6.492280
  S      3.004620   -1.096210   -6.389260
  O      4.128860   -0.329650   -6.953720
  O      1.781280   -1.000780   -7.136400
  F      2.851550   -0.783680   -4.956790
  H      3.636150   -3.080100   -7.519130
  H      2.763970   -3.427550   -6.045480
  H      4.438920   -2.935110   -5.973930

 Total Charge           Charge          ....    0
 Multiplicity           Mult            ....    1
 Number of Electrons    NEL             ....   50
 Basis Dimension        Dim             ....  303

ORBITAL ENERGIES
----------------

  NO   OCC          E(Eh)            E(eV)
   0   2.0000     -92.258212     -2510.4736
   1   2.0000     -26.423047      -719.0077
   2   2.0000     -20.575202      -559.8797
   3   2.0000     -20.562921      -559.5455
   4   2.0000     -11.295115      -307.3557
   5   2.0000      -9.220904      -250.9136
   6   2.0000      -6.908523      -187.9905
   7   2.0000      -6.904814      -187.8895
   8   2.0000      -6.903664      -187.8582
   9   2.0000      -1.778500       -48.3955
  10   2.0000      -1.462021       -39.7836
  11   2.0000      -1.353558       -36.8322
  12   2.0000      -1.074383       -29.2354
  13   2.0000      -0.953624       -25.9494
  14   2.0000      -0.822857       -22.3911
  15   2.0000      -0.814934       -22.1755
  16   2.0000      -0.770098       -20.9554
  17   2.0000      -0.666479       -18.1358
  18   2.0000      -0.662552       -18.0290
  19   2.0000      -0.641188       -17.4476
  20   2.0000      -0.617895       -16.8138
  21   2.0000      -0.561676       -15.2840
  22   2.0000      -0.509581       -13.8664
  23   2.0000      -0.492869       -13.4116
  24   2.0000      -0.484655       -13.1881
  25   0.0000       0.021500         0.5850
  26   0.0000       0.041043         1.1168
  27   0.0000       0.043772         1.1911
  28   0.0000       0.064414         1.7528
  29   0.0000       0.091309         2.4846

MULLIKEN ATOMIC CHARGES
-----------------------
   0 C :   -0.983412
   1 S :    2.159502
   2 O :   -0.856677
   3 O :   -0.845053
   4 F :   -0.496305
   5 H :    0.349755
   6 H :    0.336960
   7 H :    0.335230
Sum of atomic charges:    0.0000000

LOEWDIN ATOMIC CHARGES
----------------------
   0 C :    0.509458
   1 S :   -0.132518
   2 O :    0.000821
   3 O :    0.023927
   4 F :    0.254968
   5 H :   -0.206793
   6 H :   -0.225606
   7 H :   -0.224256

  Mayer bond orders larger than 0.100000
B(  0-C ,  1-S ) :   0.8905 B(  0-C ,  5-H ) :   0.8734 B(  0-C ,  6-H ) :   0.8745
B(  0-C ,  7-H ) :   0.8780 B(  1-S ,  2-O ) :   1.5250 B(  1-S ,  3-O ) :   1.5935
B(  1-S ,  4-F ) :   0.5588

E(0)                                       ...   -686.385586748
E(0)                                       ...   -686.385586748
E(CORR)(strong-pairs)                      ...     -1.119589393
E(CORR)(weak-pairs)                        ...     -0.000970200
E(CORR)(corrected)                         ...     -1.120559593
E(TOT)                                     ...   -687.506146342
E(CCSD(T))                                 ...   -687.551539706
FINAL SINGLE POINT ENERGY      -687.551539705569

DIPOLE MOMENT
-------------
                                X             Y             Z
Electronic contribution:     -1.52816       4.33367       2.66852
Nuclear contribution   :      1.78651      -5.91544      -1.78339
                        -----------------------------------------
Total Dipole Moment    :      0.25835      -1.58177       0.88512
                        -----------------------------------------
Magnitude (a.u.)       :      1.83089
Magnitude (Debye)      :      4.65376

Rotational constants in cm-1:     0.165193     0.152051     0.147788
Rotational constants in MHz :  4952.361749  4558.380225  4430.570551

                             ****ORCA TERMINATED NORMALLY****
TOTAL RUN TIME: 0 days 0 hours 57 minutes 38 seconds 304 msec
