                         Program Version 5.0.0 -  RELEASE  -
|  1> !DLPNO-CCSD(T) aug-cc-pVTZ aug-cc-pVTZ/C TightSCF TightPNO RIJCOSX def2/J
|  2> *xyz 0 1
|  3> C          4.49059        1.15590       -2.46929
|  4> N          4.30539        1.22276       -3.90832
|  5> C          4.63192        2.24637       -4.67096
|  6> N          4.54169        2.14399       -5.98714
|  7> C          5.08409        3.39358       -4.11855
|  8> H          4.92067        3.57050       -3.13587
|  9> H          5.25465        4.19739       -4.70696
| 10> H          3.82453        0.44911       -4.35093
| 11> H          4.34337        1.24932       -6.41665
| 12> H          4.67671        2.95662       -6.57411
| 13> H          5.00867        2.03053       -2.13534
| 14> H          5.06354        0.28631       -2.22344
| 15> H          3.53600        1.10160       -1.98897
| 16> *
| 17>
| 18> %MaxCore 64000
| 19>
| 20> %pal nprocs 2
| 21> end
| 22>
| 23> %scf
| 24>   MaxIter 150
| 25> end
| 26>
| 27>
| 28>                          ****END OF INPUT****

CARTESIAN COORDINATES (ANGSTROEM)
---------------------------------
  C      4.490590    1.155900   -2.469290
  N      4.305390    1.222760   -3.908320
  C      4.631920    2.246370   -4.670960
  N      4.541690    2.143990   -5.987140
  C      5.084090    3.393580   -4.118550
  H      4.920670    3.570500   -3.135870
  H      5.254650    4.197390   -4.706960
  H      3.824530    0.449110   -4.350930
  H      4.343370    1.249320   -6.416650
  H      4.676710    2.956620   -6.574110
  H      5.008670    2.030530   -2.135340
  H      5.063540    0.286310   -2.223440
  H      3.536000    1.101600   -1.988970

 Total Charge           Charge          ....    0
 Multiplicity           Mult            ....    1
 Number of Electrons    NEL             ....   40
 Basis Dimension        Dim             ....  414

ORBITAL ENERGIES
----------------

  NO   OCC          E(Eh)            E(eV)
   0   2.0000     -15.564556      -423.5331
   1   2.0000     -15.563987      -423.5176
   2   2.0000     -11.291189      -307.2489
   3   2.0000     -11.247640      -306.0638
   4   2.0000     -11.126349      -302.7633
   5   2.0000      -1.291403       -35.1409
   6   2.0000      -1.184883       -32.2423
   7   2.0000      -0.976010       -26.5586
   8   2.0000      -0.942243       -25.6397
   9   2.0000      -0.774914       -21.0865
  10   2.0000      -0.735550       -20.0153
  11   2.0000      -0.702102       -19.1052
  12   2.0000      -0.624694       -16.9988
  13   2.0000      -0.605370       -16.4730
  14   2.0000      -0.579236       -15.7618
  15   2.0000      -0.542782       -14.7699
  16   2.0000      -0.533305       -14.5120
  17   2.0000      -0.513493       -13.9728
  18   2.0000      -0.394748       -10.7416
  19   2.0000      -0.261938        -7.1277
  20   0.0000       0.023413         0.6371
  21   0.0000       0.034847         0.9482
  22   0.0000       0.041300         1.1238
  23   0.0000       0.046239         1.2582
  24   0.0000       0.056730         1.5437

MULLIKEN ATOMIC CHARGES
-----------------------
   0 C :   -0.997051
   1 N :   -0.120763
   2 C :    0.517522
   3 N :   -0.424337
   4 C :   -1.172820
   5 H :    0.424184
   6 H :    0.321327
   7 H :    0.116112
   8 H :    0.118579
   9 H :    0.081543
  10 H :    0.473672
  11 H :    0.339373
  12 H :    0.322659
Sum of atomic charges:   -0.0000000

LOEWDIN ATOMIC CHARGES
----------------------
   0 C :    0.542184
   1 N :    0.550289
   2 C :   -0.459185
   3 N :    0.852481
   4 C :    0.545276
   5 H :   -0.343682
   6 H :   -0.314143
   7 H :   -0.264001
   8 H :   -0.278597
   9 H :   -0.267634
  10 H :   -0.222074
  11 H :   -0.170569
  12 H :   -0.170346

  Mayer bond orders larger than 0.100000
B(  0-C ,  1-N ) :   0.9631 B(  0-C , 10-H ) :   0.7882 B(  0-C , 11-H ) :   0.9120
B(  0-C , 12-H ) :   0.9308 B(  1-N ,  2-C ) :   0.9010 B(  1-N ,  3-N ) :  -0.1603
B(  1-N ,  4-C ) :  -0.1718 B(  1-N ,  7-H ) :   1.0899 B(  2-C ,  3-N ) :   0.8534
B(  2-C ,  4-C ) :   1.2093 B(  3-N ,  4-C ) :  -0.1453 B(  3-N ,  8-H ) :   1.0931
B(  3-N ,  9-H ) :   1.1507 B(  4-C ,  5-H ) :   0.8388 B(  4-C ,  6-H ) :   0.9977

E(0)                                       ...   -227.195849484
E(0)                                       ...   -227.195849484
E(CORR)(strong-pairs)                      ...     -0.975891277
E(CORR)(weak-pairs)                        ...     -0.000980226
E(CORR)(corrected)                         ...     -0.976871503
E(TOT)                                     ...   -228.172720987
E(CCSD(T))                                 ...   -228.212749332
FINAL SINGLE POINT ENERGY      -228.212749331620

DIPOLE MOMENT
-------------
                                X             Y             Z
Electronic contribution:     -0.43416      -0.79269      -2.65954
Nuclear contribution   :     -0.13890      -0.20745       2.21867
                        -----------------------------------------
Total Dipole Moment    :     -0.57306      -1.00014      -0.44087
                        -----------------------------------------
Magnitude (a.u.)       :      1.23412
Magnitude (Debye)      :      3.13689

Rotational constants in cm-1:     0.339212     0.134625     0.098371
Rotational constants in MHz : 10169.318272  4035.946597  2949.073953

                             ****ORCA TERMINATED NORMALLY****
TOTAL RUN TIME: 0 days 1 hours 29 minutes 9 seconds 210 msec
