                         Program Version 5.0.0 -  RELEASE  -
|  1> !DLPNO-CCSD(T) aug-cc-pVTZ aug-cc-pVTZ/C TightSCF TightPNO RIJCOSX def2/J
|  2>
|  3> *xyzfile 0 1 D3.xyz
|  4>
|  5> %MaxCore 64000
|  6>
|  7> %pal nprocs 18
|  8> end
|  9>
| 10> %scf
| 11>   MaxIter 150
| 12> end
| 13>
| 14>
| 15>                          ****END OF INPUT****

CARTESIAN COORDINATES (ANGSTROEM)
---------------------------------
  C      4.490588    1.155899   -2.469290
  N      4.305394    1.222762   -3.908317
  C      4.906458   -3.102816   -5.954844
  C      3.511771   -2.806215   -6.492283
  H      2.736044   -3.373445   -5.973736
  H      3.444904   -3.040831   -7.555281
  S      3.004618   -1.096206   -6.389259
  C      4.631918    2.246365   -4.670958
  N      4.541686    2.143990   -5.987139
  C      5.084086    3.393584   -4.118545
  H      4.920675    3.570501   -3.135870
  H      5.254652    4.197390   -4.706956
  H      3.824530    0.449113   -4.350926
  H      4.343373    1.249318   -6.416646
  H      4.676712    2.956624   -6.574113
  F      4.128856   -0.329647   -6.953717
  O      1.781285   -1.000779   -7.136399
  C      5.942129    0.939500   -2.036893
  H      3.864305    0.328532   -2.136611
  H      4.076233    2.049994   -1.989010
  C      6.462677   -3.117775   -3.944671
  C      5.024977   -3.025679   -4.437625
  H      4.423321   -3.818693   -3.977648
  H      4.579350   -2.087131   -4.108727
  H      5.201533   -4.100207   -6.296905
  H      5.605922   -2.397822   -6.413368
  C      6.559957   -0.356290   -2.559086
  H      5.967976    0.952567   -0.942444
  H      6.547184    1.788331   -2.368849
  C      6.006283   -1.615917   -1.899301
  H      7.642360   -0.318000   -2.402059
  H      6.414855   -0.403433   -3.642587
  C      6.608718   -2.917014   -2.435655
  H      6.190324   -1.561115   -0.820948
  H      4.919250   -1.651245   -2.016586
  H      7.066975   -2.374258   -4.475514
  H      6.887808   -4.089747   -4.215332
  H      6.135197   -3.755573   -1.915159
  H      7.671142   -2.955503   -2.172291
  O      2.851546   -0.783683   -4.956789

 Total Charge           Charge          ....    0
 Multiplicity           Mult            ....    1
 Number of Electrons    NEL             ....  144
 Basis Dimension        Dim             .... 1315

ORBITAL ENERGIES
----------------

  NO   OCC          E(Eh)            E(eV)
   0   2.0000     -92.277233     -2510.9912
   1   2.0000     -26.452148      -719.7995
   2   2.0000     -20.595172      -560.4231
   3   2.0000     -20.589067      -560.2570
   4   2.0000     -15.546889      -423.0524
   5   2.0000     -15.528626      -422.5554
   6   2.0000     -11.313193      -307.8476
   7   2.0000     -11.271504      -306.7132
   8   2.0000     -11.269721      -306.6647
   9   2.0000     -11.241197      -305.8885
  10   2.0000     -11.236674      -305.7654
  11   2.0000     -11.229241      -305.5632
  12   2.0000     -11.221893      -305.3632
  13   2.0000     -11.213775      -305.1423
  14   2.0000     -11.207567      -304.9734
  15   2.0000     -11.201199      -304.8001
  16   2.0000     -11.110423      -302.3300
  17   2.0000      -9.241015      -251.4608
  18   2.0000      -6.928709      -188.5398
  19   2.0000      -6.924303      -188.4199
  20   2.0000      -6.923730      -188.4043
  21   2.0000      -1.813708       -49.3535
  22   2.0000      -1.487438       -40.4753
  23   2.0000      -1.382669       -37.6243
  24   2.0000      -1.272810       -34.6349
  25   2.0000      -1.170426       -31.8489
  26   2.0000      -1.140950       -31.0468
  27   2.0000      -1.094714       -29.7887
  28   2.0000      -1.053318       -28.6622
  29   2.0000      -1.017546       -27.6888
  30   2.0000      -0.980372       -26.6773
  31   2.0000      -0.955111       -25.9899
  32   2.0000      -0.936578       -25.4856
  33   2.0000      -0.892837       -24.2953
  34   2.0000      -0.862341       -23.4655
  35   2.0000      -0.851133       -23.1605
  36   2.0000      -0.848787       -23.0967
  37   2.0000      -0.810567       -22.0567
  38   2.0000      -0.791334       -21.5333
  39   2.0000      -0.768431       -20.9101
  40   2.0000      -0.740664       -20.1545
  41   2.0000      -0.714531       -19.4434
  42   2.0000      -0.703937       -19.1551
  43   2.0000      -0.686680       -18.6855
  44   2.0000      -0.674139       -18.3443
  45   2.0000      -0.663781       -18.0624
  46   2.0000      -0.650332       -17.6964
  47   2.0000      -0.639148       -17.3921
  48   2.0000      -0.621002       -16.8983
  49   2.0000      -0.610440       -16.6109
  50   2.0000      -0.601146       -16.3580
  51   2.0000      -0.594990       -16.1905
  52   2.0000      -0.586607       -15.9624
  53   2.0000      -0.570396       -15.5213
  54   2.0000      -0.552507       -15.0345
  55   2.0000      -0.549269       -14.9464
  56   2.0000      -0.540725       -14.7139
  57   2.0000      -0.537326       -14.6214
  58   2.0000      -0.526616       -14.3299
  59   2.0000      -0.519346       -14.1321
  60   2.0000      -0.514440       -13.9986
  61   2.0000      -0.506903       -13.7935
  62   2.0000      -0.498110       -13.5542
  63   2.0000      -0.493759       -13.4359
  64   2.0000      -0.486755       -13.2453
  65   2.0000      -0.477063       -12.9815
  66   2.0000      -0.470611       -12.8060
  67   2.0000      -0.450151       -12.2492
  68   2.0000      -0.448913       -12.2155
  69   2.0000      -0.438060       -11.9202
  70   2.0000      -0.370733       -10.0881
  71   2.0000      -0.246219        -6.7000
  72   0.0000       0.015168         0.4128
  73   0.0000       0.026394         0.7182
  74   0.0000       0.028789         0.7834
  75   0.0000       0.033957         0.9240
  76   0.0000       0.040305         1.0967

MULLIKEN ATOMIC CHARGES
-----------------------
   0 C :   -0.487912
   1 N :   -0.175139
   2 C :   -0.526087
   3 C :   -0.764036
   4 H :    0.163653
   5 H :    0.347693
   6 S :    2.642694
   7 C :    0.606417
   8 N :   -0.819305
   9 C :   -1.435996
  10 H :    0.315596
  11 H :    0.289838
  12 H :    0.740345
  13 H :    0.427432
  14 H :    0.007462
  15 F :   -0.606990
  16 O :   -1.048942
  17 C :   -0.545026
  18 H :    0.184278
  19 H :    0.259260
  20 C :   -0.362460
  21 C :   -0.434203
  22 H :    0.125206
  23 H :    0.599343
  24 H :    0.267489
  25 H :    0.273190
  26 C :   -0.446922
  27 H :    0.203655
  28 H :    0.238970
  29 C :   -0.287043
  30 H :    0.345955
  31 H :    0.295545
  32 C :   -0.691406
  33 H :    0.494890
  34 H :   -0.005057
  35 H :    0.085724
  36 H :    0.513819
  37 H :    0.133774
  38 H :    0.106521
  39 O :   -1.032221
Sum of atomic charges:   -0.0000000

LOEWDIN ATOMIC CHARGES
----------------------
   0 C :    0.225540
   1 N :    0.575103
   2 C :    0.260511
   3 C :    0.213269
   4 H :   -0.161387
   5 H :   -0.185810
   6 S :    0.056318
   7 C :   -0.438463
   8 N :    0.863902
   9 C :    0.544847
  10 H :   -0.332562
  11 H :   -0.316742
  12 H :   -0.591982
  13 H :   -0.535339
  14 H :   -0.258705
  15 F :    0.414922
  16 O :    0.068459
  17 C :    0.309735
  18 H :   -0.148513
  19 H :   -0.142934
  20 C :    0.289016
  21 C :    0.269656
  22 H :   -0.119418
  23 H :   -0.226256
  24 H :   -0.130672
  25 H :   -0.155632
  26 C :    0.286807
  27 H :   -0.141278
  28 H :   -0.153937
  29 C :    0.284387
  30 H :   -0.130684
  31 H :   -0.162796
  32 C :    0.303237
  33 H :   -0.132755
  34 H :   -0.165235
  35 H :   -0.151005
  36 H :   -0.134825
  37 H :   -0.141117
  38 H :   -0.138377
  39 O :    0.230714

  Mayer bond orders larger than 0.100000
B(  0-C ,  1-N ) :   1.1906 B(  0-C ,  7-C ) :  -0.1736 B(  0-C ,  9-C ) :  -0.1707
B(  0-C , 12-H ) :  -0.1302 B(  0-C , 17-C ) :   0.8193 B(  0-C , 18-H ) :   1.1004
B(  0-C , 19-H ) :   0.9613 B(  0-C , 26-C ) :   0.1157 B(  1-N ,  7-C ) :   1.1257
B(  1-N ,  9-C ) :  -0.2057 B(  1-N , 12-H ) :   0.2040 B(  2-C ,  3-C ) :   0.9545
B(  2-C , 21-C ) :   0.8885 B(  2-C , 24-H ) :   0.9358 B(  2-C , 25-H ) :   0.9712
B(  3-C ,  4-H ) :   1.0729 B(  3-C ,  5-H ) :   0.8433 B(  3-C ,  6-S ) :   0.8831
B(  3-C , 15-F ) :   0.1166 B(  6-S , 15-F ) :   0.3758 B(  6-S , 16-O ) :   0.9938
B(  6-S , 39-O ) :   1.5197 B(  7-C ,  8-N ) :   0.4889 B(  7-C ,  9-C ) :   1.0735
B(  7-C , 10-H ) :  -0.1130 B(  7-C , 12-H ) :  -0.6254 B(  7-C , 13-H ) :  -0.1255
B(  7-C , 14-H ) :  -0.1927 B(  7-C , 19-H ) :   0.1011 B(  8-N ,  9-C ) :  -0.1841
B(  8-N , 13-H ) :   0.7899 B(  8-N , 14-H ) :   1.3203 B(  9-C , 10-H ) :   1.1201
B(  9-C , 11-H ) :   1.0328 B( 12-H , 39-O ) :  -0.1177 B( 13-H , 15-F ) :  -0.2073
B( 16-O , 39-O ) :   0.1271 B( 17-C , 26-C ) :   0.9329 B( 17-C , 27-H ) :   0.9811
B( 17-C , 28-H ) :   1.0447 B( 20-C , 21-C ) :   0.7700 B( 20-C , 32-C ) :   0.8379
B( 20-C , 35-H ) :   1.1229 B( 20-C , 36-H ) :   0.7382 B( 21-C , 22-H ) :   1.1469
B( 21-C , 23-H ) :   0.7982 B( 23-H , 39-O ) :  -0.1415 B( 26-C , 29-C ) :   0.8491
B( 26-C , 30-H ) :   0.8864 B( 26-C , 31-H ) :   1.0056 B( 26-C , 34-H ) :   0.1077
B( 29-C , 32-C ) :   0.8991 B( 29-C , 33-H ) :   0.7510 B( 29-C , 34-H ) :   1.2117
B( 32-C , 37-H ) :   1.1142 B( 32-C , 38-H ) :   1.1364

E(0)                                       ...  -1185.727299003
E(0)                                       ...  -1185.727299003
E(CORR)(strong-pairs)                      ...     -3.390332084
E(CORR)(weak-pairs)                        ...     -0.006853976
E(CORR)(corrected)                         ...     -3.397186060
E(TOT)                                     ...  -1189.124485063
E(CCSD(T))                                 ...  -1189.267599508
FINAL SINGLE POINT ENERGY     -1189.267599507767

DIPOLE MOMENT
-------------
                                X             Y             Z
Electronic contribution:    -16.77859       2.49808     -21.36479
Nuclear contribution   :     17.35766      -5.13497      20.30937
                        -----------------------------------------
Total Dipole Moment    :      0.57907      -2.63689      -1.05542
                        -----------------------------------------
Magnitude (a.u.)       :      2.89870
Magnitude (Debye)      :      7.36790

Rotational constants in cm-1:     0.014431     0.012329     0.007535
Rotational constants in MHz :   432.628327   369.619539   225.898827

                             ****ORCA TERMINATED NORMALLY****
TOTAL RUN TIME: 0 days 7 hours 55 minutes 52 seconds 521 msec
