                         Program Version 5.0.0 -  RELEASE  -
|  1> !DLPNO-CCSD(T) aug-cc-pVTZ aug-cc-pVTZ/C TightSCF TightPNO RIJCOSX def2/J
|  2>
|  3> *xyzfile 0 1 D6.xyz
|  4>
|  5> %MaxCore 64000
|  6>
|  7> %pal nprocs 18
|  8> end
|  9>
| 10> %scf
| 11>   MaxIter 150
| 12> end
| 13>
| 14>
| 15>                          ****END OF INPUT****

CARTESIAN COORDINATES (ANGSTROEM)
---------------------------------
  C      4.490588    1.155899   -2.469290
  N      4.305394    1.222762   -3.908317
  C      4.906458   -3.102816   -5.954844
  C      3.511771   -2.806215   -6.492283
  H      2.736044   -3.373445   -5.973736
  H      3.444904   -3.040831   -7.555281
  S      3.004618   -1.096206   -6.389259
  C      4.631918    2.246365   -4.670958
  N      4.541686    2.143990   -5.987139
  C      5.084086    3.393584   -4.118545
  H      4.920675    3.570501   -3.135870
  H      5.254652    4.197390   -4.706956
  H      3.824530    0.449113   -4.350926
  H      4.343373    1.249318   -6.416646
  H      4.676712    2.956624   -6.574113
  O      4.128856   -0.329647   -6.953717
  F      1.781285   -1.000779   -7.136399
  C      5.942129    0.939500   -2.036893
  H      3.864305    0.328532   -2.136611
  H      4.076233    2.049994   -1.989010
  C      6.462677   -3.117775   -3.944671
  C      5.024977   -3.025679   -4.437625
  H      4.423321   -3.818693   -3.977648
  H      4.579350   -2.087131   -4.108727
  H      5.201533   -4.100207   -6.296905
  H      5.605922   -2.397822   -6.413368
  C      6.559957   -0.356290   -2.559086
  H      5.967976    0.952567   -0.942444
  H      6.547184    1.788331   -2.368849
  C      6.006283   -1.615917   -1.899301
  H      7.642360   -0.318000   -2.402059
  H      6.414855   -0.403433   -3.642587
  C      6.608718   -2.917014   -2.435655
  H      6.190324   -1.561115   -0.820948
  H      4.919250   -1.651245   -2.016586
  H      7.066975   -2.374258   -4.475514
  H      6.887808   -4.089747   -4.215332
  H      6.135197   -3.755573   -1.915159
  H      7.671142   -2.955503   -2.172291
  O      2.851546   -0.783683   -4.956789

 Total Charge           Charge          ....    0
 Multiplicity           Mult            ....    1
 Number of Electrons    NEL             ....  144
 Basis Dimension        Dim             .... 1315

ORBITAL ENERGIES
----------------

  NO   OCC          E(Eh)            E(eV)
   0   2.0000     -92.285580     -2511.2183
   1   2.0000     -26.465415      -720.1606
   2   2.0000     -20.594781      -560.4125
   3   2.0000     -20.593690      -560.3828
   4   2.0000     -15.516035      -422.2128
   5   2.0000     -15.515364      -422.1945
   6   2.0000     -11.317939      -307.9768
   7   2.0000     -11.266922      -306.5885
   8   2.0000     -11.254744      -306.2571
   9   2.0000     -11.232590      -305.6543
  10   2.0000     -11.232425      -305.6498
  11   2.0000     -11.224157      -305.4248
  12   2.0000     -11.217105      -305.2330
  13   2.0000     -11.208121      -304.9885
  14   2.0000     -11.199532      -304.7548
  15   2.0000     -11.192927      -304.5750
  16   2.0000     -11.094892      -301.9074
  17   2.0000      -9.249287      -251.6859
  18   2.0000      -6.936619      -188.7550
  19   2.0000      -6.932610      -188.6459
  20   2.0000      -6.932338      -188.6385
  21   2.0000      -1.835664       -49.9510
  22   2.0000      -1.484436       -40.3935
  23   2.0000      -1.377414       -37.4813
  24   2.0000      -1.254079       -34.1252
  25   2.0000      -1.150042       -31.2942
  26   2.0000      -1.139093       -30.9963
  27   2.0000      -1.091187       -29.6927
  28   2.0000      -1.052142       -28.6302
  29   2.0000      -1.018052       -27.7026
  30   2.0000      -0.981387       -26.7049
  31   2.0000      -0.941452       -25.6182
  32   2.0000      -0.928813       -25.2743
  33   2.0000      -0.891215       -24.2512
  34   2.0000      -0.863985       -23.5102
  35   2.0000      -0.859932       -23.3999
  36   2.0000      -0.835263       -22.7287
  37   2.0000      -0.804951       -21.9038
  38   2.0000      -0.798677       -21.7331
  39   2.0000      -0.760846       -20.7037
  40   2.0000      -0.729102       -19.8399
  41   2.0000      -0.721848       -19.6425
  42   2.0000      -0.703289       -19.1375
  43   2.0000      -0.680390       -18.5144
  44   2.0000      -0.673224       -18.3194
  45   2.0000      -0.650552       -17.7024
  46   2.0000      -0.647237       -17.6122
  47   2.0000      -0.628983       -17.1155
  48   2.0000      -0.615820       -16.7573
  49   2.0000      -0.600674       -16.3452
  50   2.0000      -0.591859       -16.1053
  51   2.0000      -0.591549       -16.0969
  52   2.0000      -0.583818       -15.8865
  53   2.0000      -0.563432       -15.3318
  54   2.0000      -0.548327       -14.9207
  55   2.0000      -0.543038       -14.7768
  56   2.0000      -0.533532       -14.5182
  57   2.0000      -0.531291       -14.4572
  58   2.0000      -0.513860       -13.9828
  59   2.0000      -0.513157       -13.9637
  60   2.0000      -0.506060       -13.7706
  61   2.0000      -0.497444       -13.5361
  62   2.0000      -0.492308       -13.3964
  63   2.0000      -0.486222       -13.2308
  64   2.0000      -0.479811       -13.0563
  65   2.0000      -0.470098       -12.7920
  66   2.0000      -0.463177       -12.6037
  67   2.0000      -0.443298       -12.0627
  68   2.0000      -0.441973       -12.0267
  69   2.0000      -0.430900       -11.7254
  70   2.0000      -0.352008        -9.5786
  71   2.0000      -0.230684        -6.2772
  72   0.0000       0.012106         0.3294
  73   0.0000       0.026811         0.7296
  74   0.0000       0.027990         0.7616
  75   0.0000       0.035897         0.9768
  76   0.0000       0.042196         1.1482

MULLIKEN ATOMIC CHARGES
-----------------------
   0 C :   -0.481206
   1 N :   -0.141639
   2 C :   -0.453905
   3 C :   -0.804066
   4 H :    0.192334
   5 H :    0.336021
   6 S :    2.480856
   7 C :    0.563875
   8 N :   -0.817089
   9 C :   -1.446101
  10 H :    0.311870
  11 H :    0.280417
  12 H :    0.747082
  13 H :    0.345149
  14 H :    0.013259
  15 O :   -0.946324
  16 F :   -0.529334
  17 C :   -0.545549
  18 H :    0.182180
  19 H :    0.258543
  20 C :   -0.361522
  21 C :   -0.463839
  22 H :    0.114702
  23 H :    0.614365
  24 H :    0.264635
  25 H :    0.322391
  26 C :   -0.457081
  27 H :    0.199069
  28 H :    0.240188
  29 C :   -0.275803
  30 H :    0.343235
  31 H :    0.292996
  32 C :   -0.698772
  33 H :    0.493785
  34 H :   -0.001517
  35 H :    0.092516
  36 H :    0.518427
  37 H :    0.131402
  38 H :    0.107546
  39 O :   -1.023095
Sum of atomic charges:    0.0000000

LOEWDIN ATOMIC CHARGES
----------------------
   0 C :    0.221956
   1 N :    0.576898
   2 C :    0.271782
   3 C :    0.213475
   4 H :   -0.177715
   5 H :   -0.186966
   6 S :    0.099994
   7 C :   -0.439389
   8 N :    0.864424
   9 C :    0.536968
  10 H :   -0.337813
  11 H :   -0.320089
  12 H :   -0.585085
  13 H :   -0.606317
  14 H :   -0.261733
  15 O :    0.216822
  16 F :    0.319992
  17 C :    0.309138
  18 H :   -0.150748
  19 H :   -0.144700
  20 C :    0.290955
  21 C :    0.271601
  22 H :   -0.121664
  23 H :   -0.222965
  24 H :   -0.128817
  25 H :   -0.156091
  26 C :    0.287893
  27 H :   -0.142641
  28 H :   -0.154055
  29 C :    0.283359
  30 H :   -0.130994
  31 H :   -0.160601
  32 C :    0.302404
  33 H :   -0.133508
  34 H :   -0.165971
  35 H :   -0.148959
  36 H :   -0.135238
  37 H :   -0.142126
  38 H :   -0.138533
  39 O :    0.225056

  Mayer bond orders larger than 0.100000
B(  0-C ,  1-N ) :   1.1881 B(  0-C ,  7-C ) :  -0.1665 B(  0-C ,  9-C ) :  -0.1702
B(  0-C , 12-H ) :  -0.1241 B(  0-C , 17-C ) :   0.8178 B(  0-C , 18-H ) :   1.1002
B(  0-C , 19-H ) :   0.9636 B(  0-C , 26-C ) :   0.1145 B(  1-N ,  7-C ) :   1.1598
B(  1-N ,  9-C ) :  -0.1890 B(  1-N , 12-H ) :   0.1896 B(  2-C ,  3-C ) :   0.9582
B(  2-C ,  6-S ) :   0.1114 B(  2-C , 21-C ) :   0.8993 B(  2-C , 24-H ) :   0.9157
B(  2-C , 25-H ) :   0.9398 B(  3-C ,  4-H ) :   1.0330 B(  3-C ,  5-H ) :   0.8453
B(  3-C ,  6-S ) :   0.8641 B(  6-S , 15-O ) :   1.3097 B(  6-S , 39-O ) :   1.5653
B(  7-C ,  8-N ) :   0.5063 B(  7-C ,  9-C ) :   1.0553 B(  7-C , 10-H ) :  -0.1035
B(  7-C , 12-H ) :  -0.6328 B(  7-C , 13-H ) :  -0.1472 B(  7-C , 14-H ) :  -0.1860
B(  7-C , 19-H ) :   0.1048 B(  8-N ,  9-C ) :  -0.1829 B(  8-N , 13-H ) :   0.8415
B(  8-N , 14-H ) :   1.2744 B(  9-C , 10-H ) :   1.1260 B(  9-C , 11-H ) :   1.0429
B( 12-H , 39-O ) :  -0.1312 B( 17-C , 26-C ) :   0.9426 B( 17-C , 27-H ) :   0.9873
B( 17-C , 28-H ) :   1.0363 B( 20-C , 21-C ) :   0.7653 B( 20-C , 32-C ) :   0.8384
B( 20-C , 35-H ) :   1.1157 B( 20-C , 36-H ) :   0.7360 B( 21-C , 22-H ) :   1.1404
B( 21-C , 23-H ) :   0.7895 B( 23-H , 39-O ) :  -0.1472 B( 26-C , 29-C ) :   0.8435
B( 26-C , 30-H ) :   0.8873 B( 26-C , 31-H ) :   1.0005 B( 26-C , 34-H ) :   0.1079
B( 29-C , 32-C ) :   0.8954 B( 29-C , 33-H ) :   0.7481 B( 29-C , 34-H ) :   1.2160
B( 32-C , 37-H ) :   1.1180 B( 32-C , 38-H ) :   1.1363

E(0)                                       ...  -1185.721670983
E(0)                                       ...  -1185.721670983
E(CORR)(strong-pairs)                      ...     -3.391024381
E(CORR)(weak-pairs)                        ...     -0.006878358
E(CORR)(corrected)                         ...     -3.397902739
E(TOT)                                     ...  -1189.119573721
E(CCSD(T))                                 ...  -1189.262990011
FINAL SINGLE POINT ENERGY     -1189.262990010612

DIPOLE MOMENT
-------------
                                X             Y             Z
Electronic contribution:    -21.23135       1.05475     -21.96188
Nuclear contribution   :     20.11362      -4.34709      20.52383
                        -----------------------------------------
Total Dipole Moment    :     -1.11774      -3.29233      -1.43805
                        -----------------------------------------
Magnitude (a.u.)       :      3.76255
Magnitude (Debye)      :      9.56364

Rotational constants in cm-1:     0.014449     0.012108     0.007447
Rotational constants in MHz :   433.168496   362.988632   223.260798

                             ****ORCA TERMINATED NORMALLY****
TOTAL RUN TIME: 0 days 7 hours 44 minutes 38 seconds 453 msec
