                         Program Version 5.0.0 -  RELEASE  -
|  1> !DLPNO-CCSD(T) aug-cc-pVTZ aug-cc-pVTZ/C TightSCF TightPNO RIJCOSX def2/J
|  2>
|  3> *xyzfile 0 1 D7.xyz
|  4>
|  5> %MaxCore 64000
|  6>
|  7> %pal nprocs 18
|  8> end
|  9>
| 10> %scf
| 11>   MaxIter 150
| 12> end
| 13>
| 14>
| 15>                          ****END OF INPUT****

CARTESIAN COORDINATES (ANGSTROEM)
---------------------------------
  C      4.490588    1.155899   -2.469290
  C      4.305394    1.222762   -3.908317
  C      4.906458   -3.102816   -5.954844
  C      3.511771   -2.806215   -6.492283
  H      2.736044   -3.373445   -5.973736
  H      3.444904   -3.040831   -7.555281
  S      3.004618   -1.096206   -6.389259
  C      4.631918    2.246365   -4.670958
  N      4.541686    2.143990   -5.987139
  N      5.084086    3.393584   -4.118545
  H      4.920675    3.570501   -3.135870
  H      5.254652    4.197390   -4.706956
  H      3.824530    0.449113   -4.350926
  H      4.343373    1.249318   -6.416646
  H      4.676712    2.956624   -6.574113
  O      4.128856   -0.329647   -6.953717
  O      1.781285   -1.000779   -7.136399
  C      5.942129    0.939500   -2.036893
  H      3.864305    0.328532   -2.136611
  H      4.076233    2.049994   -1.989010
  C      6.462677   -3.117775   -3.944671
  C      5.024977   -3.025679   -4.437625
  H      4.423321   -3.818693   -3.977648
  H      4.579350   -2.087131   -4.108727
  H      5.201533   -4.100207   -6.296905
  H      5.605922   -2.397822   -6.413368
  C      6.559957   -0.356290   -2.559086
  H      5.967976    0.952567   -0.942444
  H      6.547184    1.788331   -2.368849
  C      6.006283   -1.615917   -1.899301
  H      7.642360   -0.318000   -2.402059
  H      6.414855   -0.403433   -3.642587
  C      6.608718   -2.917014   -2.435655
  H      6.190324   -1.561115   -0.820948
  H      4.919250   -1.651245   -2.016586
  H      7.066975   -2.374258   -4.475514
  H      6.887808   -4.089747   -4.215332
  H      6.135197   -3.755573   -1.915159
  H      7.671142   -2.955503   -2.172291
  F      2.851546   -0.783683   -4.956789

 Total Charge           Charge          ....    0
 Multiplicity           Mult            ....    1
 Number of Electrons    NEL             ....  144
 Basis Dimension        Dim             .... 1315

ORBITAL ENERGIES
----------------

  NO   OCC          E(Eh)            E(eV)
   0   2.0000     -92.260379     -2510.5325
   1   2.0000     -26.420821      -718.9471
   2   2.0000     -20.579500      -559.9967
   3   2.0000     -20.573835      -559.8425
   4   2.0000     -15.549645      -423.1274
   5   2.0000     -15.525037      -422.4577
   6   2.0000     -11.299456      -307.4738
   7   2.0000     -11.267272      -306.5980
   8   2.0000     -11.253922      -306.2348
   9   2.0000     -11.233551      -305.6805
  10   2.0000     -11.222883      -305.3902
  11   2.0000     -11.216115      -305.2060
  12   2.0000     -11.207477      -304.9710
  13   2.0000     -11.198196      -304.7184
  14   2.0000     -11.193402      -304.5880
  15   2.0000     -11.189175      -304.4729
  16   2.0000     -11.116953      -302.5077
  17   2.0000      -9.223894      -250.9949
  18   2.0000      -6.911400      -188.0688
  19   2.0000      -6.907467      -187.9617
  20   2.0000      -6.906747      -187.9421
  21   2.0000      -1.783224       -48.5240
  22   2.0000      -1.471194       -40.0332
  23   2.0000      -1.367903       -37.2225
  24   2.0000      -1.257864       -34.2282
  25   2.0000      -1.144606       -31.1463
  26   2.0000      -1.127718       -30.6868
  27   2.0000      -1.088707       -29.6252
  28   2.0000      -1.056048       -28.7365
  29   2.0000      -1.021881       -27.8068
  30   2.0000      -0.977980       -26.6122
  31   2.0000      -0.957406       -26.0523
  32   2.0000      -0.913730       -24.8639
  33   2.0000      -0.877416       -23.8757
  34   2.0000      -0.849648       -23.1201
  35   2.0000      -0.829968       -22.5846
  36   2.0000      -0.815679       -22.1957
  37   2.0000      -0.798337       -21.7239
  38   2.0000      -0.781923       -21.2772
  39   2.0000      -0.760784       -20.7020
  40   2.0000      -0.745343       -20.2818
  41   2.0000      -0.705231       -19.1903
  42   2.0000      -0.686820       -18.6893
  43   2.0000      -0.669367       -18.2144
  44   2.0000      -0.664689       -18.0871
  45   2.0000      -0.653199       -17.7745
  46   2.0000      -0.652745       -17.7621
  47   2.0000      -0.626698       -17.0533
  48   2.0000      -0.619540       -16.8586
  49   2.0000      -0.607185       -16.5224
  50   2.0000      -0.589516       -16.0415
  51   2.0000      -0.585065       -15.9204
  52   2.0000      -0.583245       -15.8709
  53   2.0000      -0.571089       -15.5401
  54   2.0000      -0.556372       -15.1397
  55   2.0000      -0.538575       -14.6554
  56   2.0000      -0.530300       -14.4302
  57   2.0000      -0.523768       -14.2525
  58   2.0000      -0.518426       -14.1071
  59   2.0000      -0.510975       -13.9043
  60   2.0000      -0.499459       -13.5910
  61   2.0000      -0.496581       -13.5126
  62   2.0000      -0.489238       -13.3129
  63   2.0000      -0.485844       -13.2205
  64   2.0000      -0.472567       -12.8592
  65   2.0000      -0.468185       -12.7400
  66   2.0000      -0.457220       -12.4416
  67   2.0000      -0.439216       -11.9517
  68   2.0000      -0.435763       -11.8577
  69   2.0000      -0.428950       -11.6723
  70   2.0000      -0.392506       -10.6806
  71   2.0000      -0.245522        -6.6810
  72   0.0000       0.021602         0.5878
  73   0.0000       0.030071         0.8183
  74   0.0000       0.031414         0.8548
  75   0.0000       0.032190         0.8759
  76   0.0000       0.041074         1.1177

MULLIKEN ATOMIC CHARGES
-----------------------
   0 C :   -0.345533
   1 C :   -1.326076
   2 C :   -0.493720
   3 C :   -0.801193
   4 H :    0.159916
   5 H :    0.340081
   6 S :    2.720051
   7 C :    1.653153
   8 N :   -0.763659
   9 N :   -0.639373
  10 H :    0.105120
  11 H :    0.149350
  12 H :    0.727182
  13 H :    0.301412
  14 H :    0.063630
  15 O :   -0.955438
  16 O :   -1.071197
  17 C :   -0.636549
  18 H :    0.019684
  19 H :    0.153884
  20 C :   -0.384048
  21 C :   -0.484303
  22 H :    0.138355
  23 H :    0.554311
  24 H :    0.280315
  25 H :    0.318182
  26 C :   -0.388875
  27 H :    0.167241
  28 H :    0.160462
  29 C :   -0.311784
  30 H :    0.322409
  31 H :    0.314450
  32 C :   -0.670633
  33 H :    0.496889
  34 H :   -0.023061
  35 H :    0.104505
  36 H :    0.498619
  37 H :    0.132863
  38 H :    0.116928
  39 F :   -0.703549
Sum of atomic charges:   -0.0000000

LOEWDIN ATOMIC CHARGES
----------------------
   0 C :    0.232942
   1 C :    0.177104
   2 C :    0.259486
   3 C :    0.209667
   4 H :   -0.178401
   5 H :   -0.173112
   6 S :    0.055038
   7 C :   -0.400005
   8 N :    0.862867
   9 N :    0.876629
  10 H :   -0.300356
  11 H :   -0.281792
  12 H :   -0.515872
  13 H :   -0.598909
  14 H :   -0.270888
  15 O :    0.217651
  16 O :    0.062305
  17 C :    0.297846
  18 H :   -0.158885
  19 H :   -0.151584
  20 C :    0.292046
  21 C :    0.269529
  22 H :   -0.122834
  23 H :   -0.208763
  24 H :   -0.132123
  25 H :   -0.158609
  26 C :    0.287783
  27 H :   -0.146171
  28 H :   -0.149022
  29 C :    0.284152
  30 H :   -0.132061
  31 H :   -0.165023
  32 C :    0.301658
  33 H :   -0.133303
  34 H :   -0.166060
  35 H :   -0.148421
  36 H :   -0.134091
  37 H :   -0.142292
  38 H :   -0.138819
  39 F :    0.420698

  Mayer bond orders larger than 0.100000
B(  0-C ,  1-C ) :   0.9566 B(  0-C ,  7-C ) :  -0.1722 B(  0-C , 12-H ) :  -0.1433
B(  0-C , 17-C ) :   0.8512 B(  0-C , 18-H ) :   1.2138 B(  0-C , 19-H ) :   1.0445
B(  1-C ,  7-C ) :   1.4833 B(  1-C ,  9-N ) :   0.1192 B(  1-C , 12-H ) :   0.6083
B(  1-C , 17-C ) :   0.1236 B(  1-C , 18-H ) :  -0.1497 B(  2-C ,  3-C ) :   0.9525
B(  2-C , 21-C ) :   0.8981 B(  2-C , 24-H ) :   0.9163 B(  2-C , 25-H ) :   0.9597
B(  3-C ,  4-H ) :   1.0697 B(  3-C ,  5-H ) :   0.8640 B(  3-C ,  6-S ) :   0.8204
B(  6-S , 15-O ) :   1.2842 B(  6-S , 16-O ) :   0.8475 B(  6-S , 39-F ) :   0.6523
B(  7-C ,  8-N ) :   0.3483 B(  7-C ,  9-N ) :   0.3483 B(  8-N ,  9-N ) :  -0.1120
B(  8-N , 13-H ) :   0.9315 B(  8-N , 14-H ) :   1.1622 B(  9-N , 10-H ) :   1.1497
B(  9-N , 11-H ) :   1.0294 B( 12-H , 39-F ) :  -0.3423 B( 16-O , 39-F ) :   0.1671
B( 17-C , 26-C ) :   0.8923 B( 17-C , 27-H ) :   1.0142 B( 17-C , 28-H ) :   1.0283
B( 20-C , 21-C ) :   0.7730 B( 20-C , 32-C ) :   0.8271 B( 20-C , 35-H ) :   1.1207
B( 20-C , 36-H ) :   0.7449 B( 21-C , 22-H ) :   1.1139 B( 21-C , 23-H ) :   0.8315
B( 26-C , 29-C ) :   0.8548 B( 26-C , 30-H ) :   0.8954 B( 26-C , 31-H ) :   0.9982
B( 26-C , 34-H ) :   0.1144 B( 29-C , 32-C ) :   0.8864 B( 29-C , 33-H ) :   0.7542
B( 29-C , 34-H ) :   1.2324 B( 32-C , 37-H ) :   1.1095 B( 32-C , 38-H ) :   1.1232

E(0)                                       ...  -1185.731824025
E(0)                                       ...  -1185.731824025
E(CORR)(strong-pairs)                      ...     -3.393259685
E(CORR)(weak-pairs)                        ...     -0.006857532
E(CORR)(corrected)                         ...     -3.400117217
E(TOT)                                     ...  -1189.131941241
E(CCSD(T))                                 ...  -1189.274984579
FINAL SINGLE POINT ENERGY     -1189.274984578764

DIPOLE MOMENT
-------------
                                X             Y             Z
Electronic contribution:    -18.36493       3.90452     -17.92507
Nuclear contribution   :     18.74089      -4.92611      17.99644
                        -----------------------------------------
Total Dipole Moment    :      0.37597      -1.02159       0.07137
                        -----------------------------------------
Magnitude (a.u.)       :      1.09092
Magnitude (Debye)      :      2.77289

Rotational constants in cm-1:     0.014210     0.012324     0.007480
Rotational constants in MHz :   425.991442   369.455467   224.259162

                             ****ORCA TERMINATED NORMALLY****
TOTAL RUN TIME: 0 days 7 hours 57 minutes 10 seconds 74 msec
