                         Program Version 5.0.0 -  RELEASE  -
|  1> !PBE D3BJ RIJCOSX def2-SVPD def2/J TightSCF
|  2> *xyz -1 1
|  3> C          4.90646       -3.10282       -5.95484
|  4> C          3.51177       -2.80621       -6.49228
|  5> H          2.73604       -3.37345       -5.97374
|  6> H          3.44490       -3.04083       -7.55528
|  7> S          3.00462       -1.09621       -6.38926
|  8> O          4.12886       -0.32965       -6.95372
|  9> O          1.78128       -1.00078       -7.13640
| 10> C          5.02498       -3.02568       -4.43762
| 11> H          5.20153       -4.10021       -6.29691
| 12> H          5.60592       -2.39782       -6.41337
| 13> O          2.85155       -0.78368       -4.95679
| 14> H          4.73604       -2.05011       -4.10644
| 15> H          6.03776       -3.21492       -4.14890
| 16> H          4.38436       -3.75784       -3.99214
| 17> *
| 18>
| 19> %MaxCore 64000
| 20>
| 21> %pal nprocs 8
| 22> end
| 23>
| 24> %scf
| 25>   MaxIter 150
| 26> end
| 27>
| 28>
| 29>                          ****END OF INPUT****

CARTESIAN COORDINATES (ANGSTROEM)
---------------------------------
  C      4.906460   -3.102820   -5.954840
  C      3.511770   -2.806210   -6.492280
  H      2.736040   -3.373450   -5.973740
  H      3.444900   -3.040830   -7.555280
  S      3.004620   -1.096210   -6.389260
  O      4.128860   -0.329650   -6.953720
  O      1.781280   -1.000780   -7.136400
  C      5.024980   -3.025680   -4.437620
  H      5.201530   -4.100210   -6.296910
  H      5.605920   -2.397820   -6.413370
  O      2.851550   -0.783680   -4.956790
  H      4.736040   -2.050110   -4.106440
  H      6.037760   -3.214920   -4.148900
  H      4.384360   -3.757840   -3.992140

 Total Charge           Charge          ....   -1
 Multiplicity           Mult            ....    1
 Number of Electrons    NEL             ....   66
 Basis Dimension        Dim             ....  212

ORBITAL ENERGIES
----------------

  NO   OCC          E(Eh)            E(eV)
   0   2.0000     -88.056007     -2396.1258
   1   2.0000     -18.550609      -504.7877
   2   2.0000     -18.540180      -504.5039
   3   2.0000     -18.539711      -504.4912
   4   2.0000      -9.765327      -265.7281
   5   2.0000      -9.759573      -265.5715
   6   2.0000      -9.748689      -265.2753
   7   2.0000      -7.660198      -208.4446
   8   2.0000      -5.687230      -154.7574
   9   2.0000      -5.687142      -154.7550
  10   2.0000      -5.686384      -154.7344
  11   2.0000      -0.841481       -22.8979
  12   2.0000      -0.705181       -19.1890
  13   2.0000      -0.685594       -18.6560
  14   2.0000      -0.581172       -15.8145
  15   2.0000      -0.497341       -13.5333
  16   2.0000      -0.407743       -11.0952
  17   2.0000      -0.325926        -8.8689
  18   2.0000      -0.279833        -7.6146
  19   2.0000      -0.273886        -7.4528
  20   2.0000      -0.244860        -6.6630
  21   2.0000      -0.233320        -6.3490
  22   2.0000      -0.213158        -5.8003
  23   2.0000      -0.205607        -5.5948
  24   2.0000      -0.180210        -4.9037
  25   2.0000      -0.173646        -4.7251
  26   2.0000      -0.162870        -4.4319
  27   2.0000      -0.105429        -2.8689
  28   2.0000      -0.104564        -2.8453
  29   2.0000      -0.073515        -2.0004
  30   2.0000      -0.066440        -1.8079
  31   2.0000      -0.058545        -1.5931
  32   2.0000      -0.021505        -0.5852
  33   0.0000       0.119710         3.2575
  34   0.0000       0.146068         3.9747
  35   0.0000       0.150950         4.1076
  36   0.0000       0.162712         4.4276
  37   0.0000       0.179650         4.8885

MULLIKEN ATOMIC CHARGES
-----------------------
   0 C :   -0.248912
   1 C :   -0.012522
   2 H :   -0.007319
   3 H :   -0.029891
   4 S :    1.196431
   5 O :   -0.776998
   6 O :   -0.750564
   7 C :    0.821184
   8 H :   -0.144595
   9 H :   -0.006938
  10 O :   -0.784948
  11 H :   -0.161972
  12 H :   -0.076423
  13 H :   -0.016532
Sum of atomic charges:   -1.0000000

LOEWDIN ATOMIC CHARGES
----------------------
   0 C :   -0.097278
   1 C :   -0.106780
   2 H :    0.007699
   3 H :    0.002791
   4 S :    0.810398
   5 O :   -0.560366
   6 O :   -0.546539
   7 C :    0.117956
   8 H :    0.006371
   9 H :    0.014725
  10 O :   -0.558599
  11 H :   -0.035664
  12 H :   -0.032239
  13 H :   -0.022475

  Mayer bond orders larger than 0.100000
B(  0-C ,  1-C ) :   1.2390 B(  0-C ,  2-H ) :   0.1173 B(  0-C ,  3-H ) :   0.1278
B(  0-C ,  7-C ) :   1.2846 B(  0-C ,  8-H ) :   0.8917 B(  0-C ,  9-H ) :   0.8844
B(  0-C , 11-H ) :   0.2617 B(  0-C , 12-H ) :   0.2267 B(  0-C , 13-H ) :   0.2220
B(  1-C ,  2-H ) :   0.9181 B(  1-C ,  3-H ) :   0.9348 B(  1-C ,  4-S ) :   0.9179
B(  1-C ,  6-O ) :   0.1011 B(  1-C ,  8-H ) :   0.1338 B(  1-C ,  9-H ) :   0.1570
B(  4-S ,  5-O ) :   1.2946 B(  4-S ,  6-O ) :   1.3692 B(  4-S , 10-O ) :   1.2880
B(  7-C , 11-H ) :   0.8011 B(  7-C , 12-H ) :   0.7273 B(  7-C , 13-H ) :   0.7353
B( 11-H , 13-H ) :   0.1068

Dispersion correction           -0.013317367
FINAL SINGLE POINT ENERGY      -741.522690767942

DIPOLE MOMENT
-------------
                                X             Y             Z
Electronic contribution:     -6.21749       7.98200      -3.68888
Nuclear contribution   :      7.19636      -9.97366       3.94889
                        -----------------------------------------
Total Dipole Moment    :      0.97887      -1.99166       0.26001
                        -----------------------------------------
Magnitude (a.u.)       :      2.23439
Magnitude (Debye)      :      5.67937

Rotational constants in cm-1:     0.137066     0.054570     0.051980
Rotational constants in MHz :  4109.139955  1635.961703  1558.315282

                             ****ORCA TERMINATED NORMALLY****
TOTAL RUN TIME: 0 days 0 hours 0 minutes 6 seconds 29 msec
