                         Program Version 5.0.0 -  RELEASE  -
|  1> !PBE D3BJ RIJCOSX def2-SVPD def2/J TightSCF
|  2> *xyz 1 1
|  3> C          4.49059        1.15590       -2.46929
|  4> N          4.30539        1.22276       -3.90832
|  5> C          4.63192        2.24637       -4.67096
|  6> N          4.54169        2.14399       -5.98714
|  7> N          5.08409        3.39358       -4.11855
|  8> H          4.92067        3.57050       -3.13587
|  9> H          5.25465        4.19739       -4.70696
| 10> H          3.82453        0.44911       -4.35093
| 11> H          4.34337        1.24932       -6.41665
| 12> H          4.67671        2.95662       -6.57411
| 13> C          5.94213        0.93950       -2.03689
| 14> H          3.86431        0.32853       -2.13661
| 15> H          4.07623        2.04999       -1.98901
| 16> C          6.55996       -0.35629       -2.55909
| 17> H          5.96798        0.95257       -0.94244
| 18> H          6.54718        1.78833       -2.36885
| 19> H          6.53022       -0.35990       -3.62867
| 20> H          6.00654       -1.19175       -2.18407
| 21> H          7.57588       -0.42487       -2.23029
| 22> *
| 23>
| 24> %MaxCore 64000
| 25>
| 26> %pal nprocs 8
| 27> end
| 28>
| 29> %scf
| 30>   MaxIter 150
| 31> end
| 32>
| 33>
| 34>                          ****END OF INPUT****

CARTESIAN COORDINATES (ANGSTROEM)
---------------------------------
  C      4.490590    1.155900   -2.469290
  N      4.305390    1.222760   -3.908320
  C      4.631920    2.246370   -4.670960
  N      4.541690    2.143990   -5.987140
  N      5.084090    3.393580   -4.118550
  H      4.920670    3.570500   -3.135870
  H      5.254650    4.197390   -4.706960
  H      3.824530    0.449110   -4.350930
  H      4.343370    1.249320   -6.416650
  H      4.676710    2.956620   -6.574110
  C      5.942130    0.939500   -2.036890
  H      3.864310    0.328530   -2.136610
  H      4.076230    2.049990   -1.989010
  C      6.559960   -0.356290   -2.559090
  H      5.967980    0.952570   -0.942440
  H      6.547180    1.788330   -2.368850
  H      6.530220   -0.359900   -3.628670
  H      6.006540   -1.191750   -2.184070
  H      7.575880   -0.424870   -2.230290

 Total Charge           Charge          ....    1
 Multiplicity           Mult            ....    1
 Number of Electrons    NEL             ....   56
 Basis Dimension        Dim             ....  236

ORBITAL ENERGIES
----------------

  NO   OCC          E(Eh)            E(eV)
   0   2.0000     -14.222558      -387.0155
   1   2.0000     -14.221352      -386.9827
   2   2.0000     -14.218500      -386.9051
   3   2.0000     -10.216450      -278.0037
   4   2.0000     -10.097812      -274.7754
   5   2.0000     -10.038199      -273.1533
   6   2.0000     -10.007762      -272.3250
   7   2.0000      -1.121886       -30.5281
   8   2.0000      -1.019192       -27.7336
   9   2.0000      -1.004184       -27.3252
  10   2.0000      -0.863290       -23.4913
  11   2.0000      -0.795886       -21.6572
  12   2.0000      -0.759991       -20.6804
  13   2.0000      -0.733034       -19.9469
  14   2.0000      -0.708049       -19.2670
  15   2.0000      -0.665987       -18.1224
  16   2.0000      -0.641535       -17.4570
  17   2.0000      -0.639220       -17.3941
  18   2.0000      -0.610345       -16.6083
  19   2.0000      -0.578542       -15.7429
  20   2.0000      -0.550707       -14.9855
  21   2.0000      -0.530932       -14.4474
  22   2.0000      -0.503055       -13.6888
  23   2.0000      -0.460815       -12.5394
  24   2.0000      -0.445469       -12.1218
  25   2.0000      -0.441845       -12.0232
  26   2.0000      -0.428954       -11.6724
  27   2.0000      -0.408254       -11.1092
  28   0.0000      -0.200515        -5.4563
  29   0.0000      -0.175521        -4.7762
  30   0.0000      -0.144079        -3.9206
  31   0.0000      -0.135374        -3.6837
  32   0.0000      -0.116351        -3.1661

MULLIKEN ATOMIC CHARGES
-----------------------
   0 C :    0.788511
   1 N :   -0.561545
   2 C :    1.528358
   3 N :   -0.050701
   4 N :    0.028441
   5 H :   -0.030258
   6 H :   -0.192643
   7 H :   -0.189244
   8 H :   -0.070962
   9 H :   -0.067227
  10 C :   -0.372415
  11 H :   -0.312711
  12 H :   -0.025092
  13 C :    0.746222
  14 H :   -0.123585
  15 H :    0.024706
  16 H :   -0.096980
  17 H :    0.050144
  18 H :   -0.073020
Sum of atomic charges:    1.0000000

LOEWDIN ATOMIC CHARGES
----------------------
   0 C :    0.065164
   1 N :    0.055363
   2 C :   -0.054017
   3 N :    0.273272
   4 N :    0.295529
   5 H :    0.014479
   6 H :    0.033524
   7 H :    0.061385
   8 H :    0.039659
   9 H :    0.038818
  10 C :   -0.057363
  11 H :    0.044233
  12 H :    0.029608
  13 C :    0.138719
  14 H :    0.039226
  15 H :    0.015237
  16 H :   -0.023898
  17 H :   -0.006720
  18 H :   -0.002219

  Mayer bond orders larger than 0.100000
B(  0-C ,  1-N ) :   0.8848 B(  0-C ,  7-H ) :  -0.1697 B(  0-C , 10-C ) :   1.1495
B(  0-C , 11-H ) :   0.7290 B(  0-C , 12-H ) :   0.8670 B(  0-C , 15-H ) :   0.1167
B(  1-N ,  2-C ) :   0.8735 B(  1-N ,  3-N ) :   0.3750 B(  1-N ,  4-N ) :   0.3026
B(  1-N ,  7-H ) :   1.3112 B(  1-N , 11-H ) :   0.2425 B(  2-C ,  3-N ) :   0.7340
B(  2-C ,  4-N ) :   0.8744 B(  2-C ,  5-H ) :  -0.1278 B(  2-C ,  6-H ) :  -0.1689
B(  2-C ,  7-H ) :  -0.2574 B(  2-C ,  8-H ) :  -0.2065 B(  2-C ,  9-H ) :  -0.1426
B(  3-N ,  4-N ) :   0.1896 B(  3-N ,  8-H ) :   1.2085 B(  3-N ,  9-H ) :   1.2373
B(  4-N ,  5-H ) :   1.0735 B(  4-N ,  6-H ) :   1.2875 B(  5-H ,  6-H ) :  -0.2118
B(  8-H ,  9-H ) :  -0.1836 B( 10-C , 11-H ) :   0.1366 B( 10-C , 13-C ) :   1.3725
B( 10-C , 14-H ) :   1.0084 B( 10-C , 15-H ) :   0.8751 B( 10-C , 16-H ) :   0.2161
B( 10-C , 17-H ) :   0.2033 B( 10-C , 18-H ) :   0.2315 B( 11-H , 12-H ) :  -0.1153
B( 13-C , 16-H ) :   0.8171 B( 13-C , 17-H ) :   0.7711 B( 13-C , 18-H ) :   0.7784

Dispersion correction           -0.015853987
FINAL SINGLE POINT ENERGY      -323.102143126192

DIPOLE MOMENT
-------------
                                X             Y             Z
Electronic contribution:     -3.23895       3.77580      -4.81514
Nuclear contribution   :      2.46011      -2.82418       3.51638
                        -----------------------------------------
Total Dipole Moment    :     -0.77883       0.95162      -1.29876
                        -----------------------------------------
Magnitude (a.u.)       :      1.78855
Magnitude (Debye)      :      4.54614

Rotational constants in cm-1:     0.152406     0.050160     0.046480
Rotational constants in MHz :  4569.006375  1503.763011  1393.441650

                             ****ORCA TERMINATED NORMALLY****
TOTAL RUN TIME: 0 days 0 hours 0 minutes 6 seconds 565 msec
