                         Program Version 5.0.0 -  RELEASE  -
|  1> !PBE D3BJ RIJCOSX def2-SVPD def2/J TightSCF
|  2> *xyz 0 1
|  3> C          4.90646       -3.10282       -5.95484
|  4> C          3.51177       -2.80621       -6.49228
|  5> H          2.73604       -3.37345       -5.97374
|  6> H          3.44490       -3.04083       -7.55528
|  7> S          3.00462       -1.09621       -6.38926
|  8> F          4.12886       -0.32965       -6.95372
|  9> O          1.78128       -1.00078       -7.13640
| 10> C          5.02498       -3.02568       -4.43762
| 11> H          5.20153       -4.10021       -6.29691
| 12> H          5.60592       -2.39782       -6.41337
| 13> O          2.85155       -0.78368       -4.95679
| 14> H          4.73604       -2.05011       -4.10644
| 15> H          6.03776       -3.21492       -4.14890
| 16> H          4.38436       -3.75784       -3.99214
| 17> *
| 18>
| 19> %MaxCore 64000
| 20>
| 21> %pal nprocs 8
| 22> end
| 23>
| 24> %scf
| 25>   MaxIter 150
| 26> end
| 27>
| 28>
| 29>                          ****END OF INPUT****

CARTESIAN COORDINATES (ANGSTROEM)
---------------------------------
  C      4.906460   -3.102820   -5.954840
  C      3.511770   -2.806210   -6.492280
  H      2.736040   -3.373450   -5.973740
  H      3.444900   -3.040830   -7.555280
  S      3.004620   -1.096210   -6.389260
  F      4.128860   -0.329650   -6.953720
  O      1.781280   -1.000780   -7.136400
  C      5.024980   -3.025680   -4.437620
  H      5.201530   -4.100210   -6.296910
  H      5.605920   -2.397820   -6.413370
  O      2.851550   -0.783680   -4.956790
  H      4.736040   -2.050110   -4.106440
  H      6.037760   -3.214920   -4.148900
  H      4.384360   -3.757840   -3.992140

 Total Charge           Charge          ....    0
 Multiplicity           Mult            ....    1
 Number of Electrons    NEL             ....   66
 Basis Dimension        Dim             ....  212

ORBITAL ENERGIES
----------------

  NO   OCC          E(Eh)            E(eV)
   0   2.0000     -88.307357     -2402.9654
   1   2.0000     -24.374190      -663.2554
   2   2.0000     -18.779727      -511.0224
   3   2.0000     -18.768604      -510.7197
   4   2.0000      -9.956923      -270.9417
   5   2.0000      -9.929181      -270.1868
   6   2.0000      -9.892965      -269.2013
   7   2.0000      -7.912548      -215.3114
   8   2.0000      -5.943743      -161.7375
   9   2.0000      -5.937472      -161.5668
  10   2.0000      -5.935783      -161.5209
  11   2.0000      -1.246586       -33.9213
  12   2.0000      -1.022926       -27.8352
  13   2.0000      -0.925147       -25.1745
  14   2.0000      -0.761155       -20.7121
  15   2.0000      -0.682495       -18.5716
  16   2.0000      -0.635575       -17.2949
  17   2.0000      -0.572617       -15.5817
  18   2.0000      -0.524471       -14.2716
  19   2.0000      -0.506132       -13.7726
  20   2.0000      -0.487345       -13.2613
  21   2.0000      -0.442768       -12.0483
  22   2.0000      -0.436465       -11.8768
  23   2.0000      -0.412563       -11.2264
  24   2.0000      -0.396827       -10.7982
  25   2.0000      -0.391104       -10.6425
  26   2.0000      -0.344930        -9.3860
  27   2.0000      -0.340471        -9.2647
  28   2.0000      -0.336343        -9.1524
  29   2.0000      -0.324106        -8.8194
  30   2.0000      -0.293007        -7.9731
  31   2.0000      -0.280735        -7.6392
  32   2.0000      -0.265486        -7.2242
  33   0.0000      -0.031073        -0.8455
  34   0.0000       0.000550         0.0150
  35   0.0000       0.013301         0.3620
  36   0.0000       0.016733         0.4553
  37   0.0000       0.021360         0.5812

MULLIKEN ATOMIC CHARGES
-----------------------
   0 C :   -0.208386
   1 C :   -0.009631
   2 H :    0.029722
   3 H :    0.008268
   4 S :    1.366899
   5 F :   -0.378322
   6 O :   -0.617089
   7 C :    0.856091
   8 H :   -0.131620
   9 H :   -0.021709
  10 O :   -0.658626
  11 H :   -0.177801
  12 H :   -0.056734
  13 H :   -0.001062
Sum of atomic charges:    0.0000000

LOEWDIN ATOMIC CHARGES
----------------------
   0 C :   -0.081851
   1 C :   -0.061411
   2 H :    0.039834
   3 H :    0.022586
   4 S :    1.071321
   5 F :   -0.251522
   6 O :   -0.433520
   7 C :    0.138633
   8 H :    0.031415
   9 H :    0.023290
  10 O :   -0.447896
  11 H :   -0.033280
  12 H :   -0.011182
  13 H :   -0.006419

  Mayer bond orders larger than 0.100000
B(  0-C ,  1-C ) :   1.2355 B(  0-C ,  2-H ) :   0.1098 B(  0-C ,  3-H ) :   0.1216
B(  0-C ,  7-C ) :   1.3156 B(  0-C ,  8-H ) :   0.8908 B(  0-C ,  9-H ) :   0.8747
B(  0-C , 11-H ) :   0.2551 B(  0-C , 12-H ) :   0.2158 B(  0-C , 13-H ) :   0.2221
B(  1-C ,  2-H ) :   0.9119 B(  1-C ,  3-H ) :   0.9300 B(  1-C ,  4-S ) :   0.9925
B(  1-C ,  8-H ) :   0.1181 B(  1-C ,  9-H ) :   0.1392 B(  4-S ,  5-F ) :   0.6607
B(  4-S ,  6-O ) :   1.5795 B(  4-S , 10-O ) :   1.5006 B(  7-C , 11-H ) :   0.8039
B(  7-C , 12-H ) :   0.7274 B(  7-C , 13-H ) :   0.7307 B( 11-H , 13-H ) :   0.1048

Dispersion correction           -0.012816966
FINAL SINGLE POINT ENERGY      -766.006437402338

DIPOLE MOMENT
-------------
                                X             Y             Z
Electronic contribution:     -5.33744      10.22518      -5.28745
Nuclear contribution   :      6.51452     -11.35172       4.86721
                        -----------------------------------------
Total Dipole Moment    :      1.17708      -1.12655      -0.42024
                        -----------------------------------------
Magnitude (a.u.)       :      1.68262
Magnitude (Debye)      :      4.27689

Rotational constants in cm-1:     0.130386     0.053203     0.051661
Rotational constants in MHz :  3908.886819  1594.983443  1548.763987

                             ****ORCA TERMINATED NORMALLY****
TOTAL RUN TIME: 0 days 0 hours 0 minutes 5 seconds 958 msec
