                         Program Version 5.0.0 -  RELEASE  -
|  1> !PBE D3BJ RIJCOSX def2-SVPD def2/J TightSCF
|  2> *xyz 0 1
|  3> C          4.49059        1.15590       -2.46929
|  4> C          4.30539        1.22276       -3.90832
|  5> C          4.63192        2.24637       -4.67096
|  6> N          4.54169        2.14399       -5.98714
|  7> N          5.08409        3.39358       -4.11855
|  8> H          4.92067        3.57050       -3.13587
|  9> H          5.25465        4.19739       -4.70696
| 10> H          3.82453        0.44911       -4.35093
| 11> H          4.34337        1.24932       -6.41665
| 12> H          4.67671        2.95662       -6.57411
| 13> C          5.94213        0.93950       -2.03689
| 14> H          3.86431        0.32853       -2.13661
| 15> H          4.07623        2.04999       -1.98901
| 16> C          6.55996       -0.35629       -2.55909
| 17> H          5.96798        0.95257       -0.94244
| 18> H          6.54718        1.78833       -2.36885
| 19> H          6.53022       -0.35990       -3.62867
| 20> H          6.00654       -1.19175       -2.18407
| 21> H          7.57588       -0.42487       -2.23029
| 22> *
| 23>
| 24> %MaxCore 64000
| 25>
| 26> %pal nprocs 8
| 27> end
| 28>
| 29> %scf
| 30>   MaxIter 150
| 31> end
| 32>
| 33>
| 34>                          ****END OF INPUT****

CARTESIAN COORDINATES (ANGSTROEM)
---------------------------------
  C      4.490590    1.155900   -2.469290
  C      4.305390    1.222760   -3.908320
  C      4.631920    2.246370   -4.670960
  N      4.541690    2.143990   -5.987140
  N      5.084090    3.393580   -4.118550
  H      4.920670    3.570500   -3.135870
  H      5.254650    4.197390   -4.706960
  H      3.824530    0.449110   -4.350930
  H      4.343370    1.249320   -6.416650
  H      4.676710    2.956620   -6.574110
  C      5.942130    0.939500   -2.036890
  H      3.864310    0.328530   -2.136610
  H      4.076230    2.049990   -1.989010
  C      6.559960   -0.356290   -2.559090
  H      5.967980    0.952570   -0.942440
  H      6.547180    1.788330   -2.368850
  H      6.530220   -0.359900   -3.628670
  H      6.006540   -1.191750   -2.184070
  H      7.575880   -0.424870   -2.230290

 Total Charge           Charge          ....    0
 Multiplicity           Mult            ....    1
 Number of Electrons    NEL             ....   56
 Basis Dimension        Dim             ....  236

ORBITAL ENERGIES
----------------

  NO   OCC          E(Eh)            E(eV)
   0   2.0000     -14.002963      -381.0400
   1   2.0000     -14.001129      -380.9901
   2   2.0000      -9.933006      -270.2908
   3   2.0000      -9.871072      -268.6055
   4   2.0000      -9.869552      -268.5642
   5   2.0000      -9.860049      -268.3056
   6   2.0000      -9.819469      -267.2013
   7   2.0000      -0.871441       -23.7131
   8   2.0000      -0.787197       -21.4207
   9   2.0000      -0.704327       -19.1657
  10   2.0000      -0.645573       -17.5669
  11   2.0000      -0.588872       -16.0240
  12   2.0000      -0.536124       -14.5887
  13   2.0000      -0.509869       -13.8742
  14   2.0000      -0.491798       -13.3825
  15   2.0000      -0.450623       -12.2621
  16   2.0000      -0.429283       -11.6814
  17   2.0000      -0.392602       -10.6833
  18   2.0000      -0.385228       -10.4826
  19   2.0000      -0.367030        -9.9874
  20   2.0000      -0.340094        -9.2544
  21   2.0000      -0.323954        -8.8152
  22   2.0000      -0.314502        -8.5580
  23   2.0000      -0.287988        -7.8366
  24   2.0000      -0.269240        -7.3264
  25   2.0000      -0.268214        -7.2985
  26   2.0000      -0.223119        -6.0714
  27   2.0000      -0.131878        -3.5886
  28   0.0000      -0.007679        -0.2090
  29   0.0000       0.017820         0.4849
  30   0.0000       0.024748         0.6734
  31   0.0000       0.037003         1.0069
  32   0.0000       0.045759         1.2452

MULLIKEN ATOMIC CHARGES
-----------------------
   0 C :    0.237629
   1 C :   -0.296542
   2 C :    1.069744
   3 N :   -0.013682
   4 N :   -0.013193
   5 H :   -0.041644
   6 H :   -0.284028
   7 H :   -0.393704
   8 H :   -0.056808
   9 H :   -0.191282
  10 C :   -0.385272
  11 H :   -0.024554
  12 H :   -0.095009
  13 C :    0.758879
  14 H :   -0.093732
  15 H :   -0.052089
  16 H :   -0.083947
  17 H :    0.025213
  18 H :   -0.065979
Sum of atomic charges:   -0.0000000

LOEWDIN ATOMIC CHARGES
----------------------
   0 C :   -0.070667
   1 C :   -0.037346
   2 C :   -0.226486
   3 N :    0.189460
   4 N :    0.219511
   5 H :   -0.015355
   6 H :   -0.015858
   7 H :   -0.046537
   8 H :    0.006675
   9 H :   -0.012478
  10 C :   -0.084139
  11 H :    0.018077
  12 H :    0.004519
  13 C :    0.118101
  14 H :    0.013034
  15 H :    0.008108
  16 H :   -0.025636
  17 H :   -0.019600
  18 H :   -0.023382

  Mayer bond orders larger than 0.100000
B(  0-C ,  1-C ) :   1.1734 B(  0-C ,  7-H ) :   0.3372 B(  0-C , 10-C ) :   1.1740
B(  0-C , 11-H ) :   0.6819 B(  0-C , 12-H ) :   0.8828 B(  0-C , 14-H ) :   0.1375
B(  0-C , 15-H ) :   0.1598 B(  1-C ,  2-C ) :   1.5010 B(  1-C ,  3-N ) :   0.4406
B(  1-C ,  4-N ) :   0.2784 B(  1-C ,  7-H ) :   0.8658 B(  1-C , 11-H ) :   0.3255
B(  1-C , 12-H ) :   0.1676 B(  2-C ,  3-N ) :   0.7642 B(  2-C ,  4-N ) :   0.8714
B(  2-C ,  6-H ) :  -0.1835 B(  2-C ,  8-H ) :  -0.1082 B(  3-N ,  4-N ) :   0.1466
B(  3-N ,  8-H ) :   1.1802 B(  3-N ,  9-H ) :   1.2581 B(  4-N ,  5-H ) :   1.0530
B(  4-N ,  6-H ) :   1.3461 B(  5-H ,  6-H ) :  -0.1941 B(  8-H ,  9-H ) :  -0.1734
B( 10-C , 11-H ) :   0.1366 B( 10-C , 13-C ) :   1.3738 B( 10-C , 14-H ) :   0.9396
B( 10-C , 15-H ) :   0.9012 B( 10-C , 16-H ) :   0.2513 B( 10-C , 17-H ) :   0.2383
B( 10-C , 18-H ) :   0.2528 B( 13-C , 16-H ) :   0.8084 B( 13-C , 17-H ) :   0.7618
B( 13-C , 18-H ) :   0.7269

Dispersion correction           -0.016377349
FINAL SINGLE POINT ENERGY      -306.635333073449

DIPOLE MOMENT
-------------
                                X             Y             Z
Electronic contribution:     -2.32898       3.67004      -4.19477
Nuclear contribution   :      2.29046      -2.89565       3.47129
                        -----------------------------------------
Total Dipole Moment    :     -0.03852       0.77438      -0.72348
                        -----------------------------------------
Magnitude (a.u.)       :      1.06046
Magnitude (Debye)      :      2.69548

Rotational constants in cm-1:     0.154384     0.050352     0.046525
Rotational constants in MHz :  4628.320816  1509.522910  1394.780903

                             ****ORCA TERMINATED NORMALLY****
TOTAL RUN TIME: 0 days 0 hours 0 minutes 6 seconds 751 msec
