                         Program Version 5.0.0 -  RELEASE  -
|  1> !PBE D3BJ RIJCOSX def2-SVPD def2/J TightSCF
|  2> *xyz 0 1
|  3> C          4.90646       -3.10282       -5.95484
|  4> C          3.51177       -2.80621       -6.49228
|  5> H          2.73604       -3.37345       -5.97374
|  6> H          3.44490       -3.04083       -7.55528
|  7> S          3.00462       -1.09621       -6.38926
|  8> O          4.12886       -0.32965       -6.95372
|  9> F          1.78128       -1.00078       -7.13640
| 10> C          5.02498       -3.02568       -4.43762
| 11> H          5.20153       -4.10021       -6.29691
| 12> H          5.60592       -2.39782       -6.41337
| 13> O          2.85155       -0.78368       -4.95679
| 14> H          4.73604       -2.05011       -4.10644
| 15> H          6.03776       -3.21492       -4.14890
| 16> H          4.38436       -3.75784       -3.99214
| 17> *
| 18>
| 19> %MaxCore 64000
| 20>
| 21> %pal nprocs 8
| 22> end
| 23>
| 24> %scf
| 25>   MaxIter 150
| 26> end
| 27>
| 28>
| 29>                          ****END OF INPUT****

CARTESIAN COORDINATES (ANGSTROEM)
---------------------------------
  C      4.906460   -3.102820   -5.954840
  C      3.511770   -2.806210   -6.492280
  H      2.736040   -3.373450   -5.973740
  H      3.444900   -3.040830   -7.555280
  S      3.004620   -1.096210   -6.389260
  O      4.128860   -0.329650   -6.953720
  F      1.781280   -1.000780   -7.136400
  C      5.024980   -3.025680   -4.437620
  H      5.201530   -4.100210   -6.296910
  H      5.605920   -2.397820   -6.413370
  O      2.851550   -0.783680   -4.956790
  H      4.736040   -2.050110   -4.106440
  H      6.037760   -3.214920   -4.148900
  H      4.384360   -3.757840   -3.992140

 Total Charge           Charge          ....    0
 Multiplicity           Mult            ....    1
 Number of Electrons    NEL             ....   66
 Basis Dimension        Dim             ....  212

ORBITAL ENERGIES
----------------

  NO   OCC          E(Eh)            E(eV)
   0   2.0000     -88.309370     -2403.0201
   1   2.0000     -24.391474      -663.7257
   2   2.0000     -18.768884      -510.7273
   3   2.0000     -18.768821      -510.7256
   4   2.0000      -9.957795      -270.9654
   5   2.0000      -9.924992      -270.0728
   6   2.0000      -9.888365      -269.0761
   7   2.0000      -7.914537      -215.3655
   8   2.0000      -5.945845      -161.7947
   9   2.0000      -5.939280      -161.6160
  10   2.0000      -5.937668      -161.5722
  11   2.0000      -1.276402       -34.7327
  12   2.0000      -1.010639       -27.5009
  13   2.0000      -0.911856       -24.8129
  14   2.0000      -0.757567       -20.6145
  15   2.0000      -0.689195       -18.7540
  16   2.0000      -0.642827       -17.4922
  17   2.0000      -0.573546       -15.6070
  18   2.0000      -0.527133       -14.3440
  19   2.0000      -0.520707       -14.1692
  20   2.0000      -0.500085       -13.6080
  21   2.0000      -0.442579       -12.0432
  22   2.0000      -0.437854       -11.9146
  23   2.0000      -0.407913       -11.0999
  24   2.0000      -0.394197       -10.7267
  25   2.0000      -0.383423       -10.4335
  26   2.0000      -0.340157        -9.2561
  27   2.0000      -0.332082        -9.0364
  28   2.0000      -0.329936        -8.9780
  29   2.0000      -0.318707        -8.6725
  30   2.0000      -0.284243        -7.7346
  31   2.0000      -0.277023        -7.5382
  32   2.0000      -0.256135        -6.9698
  33   0.0000      -0.025487        -0.6935
  34   0.0000      -0.009368        -0.2549
  35   0.0000       0.015284         0.4159
  36   0.0000       0.019871         0.5407
  37   0.0000       0.023789         0.6473

MULLIKEN ATOMIC CHARGES
-----------------------
   0 C :   -0.240782
   1 C :   -0.040357
   2 H :    0.043428
   3 H :    0.025216
   4 S :    1.402097
   5 O :   -0.639818
   6 F :   -0.384105
   7 C :    0.845835
   8 H :   -0.122193
   9 H :    0.004944
  10 O :   -0.657382
  11 H :   -0.175379
  12 H :   -0.056651
  13 H :   -0.004854
Sum of atomic charges:    0.0000000

LOEWDIN ATOMIC CHARGES
----------------------
   0 C :   -0.066394
   1 C :   -0.073629
   2 H :    0.025924
   3 H :    0.020237
   4 S :    1.076161
   5 O :   -0.450581
   6 F :   -0.237578
   7 C :    0.141568
   8 H :    0.034474
   9 H :    0.029172
  10 O :   -0.451422
  11 H :   -0.028836
  12 H :   -0.010278
  13 H :   -0.008820

  Mayer bond orders larger than 0.100000
B(  0-C ,  1-C ) :   1.2921 B(  0-C ,  2-H ) :   0.1132 B(  0-C ,  3-H ) :   0.1362
B(  0-C ,  7-C ) :   1.3075 B(  0-C ,  8-H ) :   0.8856 B(  0-C ,  9-H ) :   0.8800
B(  0-C , 11-H ) :   0.2467 B(  0-C , 12-H ) :   0.2179 B(  0-C , 13-H ) :   0.2169
B(  1-C ,  2-H ) :   0.9057 B(  1-C ,  3-H ) :   0.8875 B(  1-C ,  4-S ) :   0.9619
B(  1-C ,  8-H ) :   0.1239 B(  1-C ,  9-H ) :   0.1488 B(  4-S ,  5-O ) :   1.4939
B(  4-S ,  6-F ) :   0.7137 B(  4-S , 10-O ) :   1.4720 B(  7-C , 11-H ) :   0.8095
B(  7-C , 12-H ) :   0.7244 B(  7-C , 13-H ) :   0.7290 B( 11-H , 13-H ) :   0.1054

Dispersion correction           -0.012893582
FINAL SINGLE POINT ENERGY      -765.991926808207

DIPOLE MOMENT
-------------
                                X             Y             Z
Electronic contribution:     -9.29854       9.11554      -5.60703
Nuclear contribution   :      9.03920     -10.62996       5.06367
                        -----------------------------------------
Total Dipole Moment    :     -0.25933      -1.51442      -0.54336
                        -----------------------------------------
Magnitude (a.u.)       :      1.62971
Magnitude (Debye)      :      4.14241

Rotational constants in cm-1:     0.135071     0.052485     0.050188
Rotational constants in MHz :  4049.321380  1573.451279  1504.609887

                             ****ORCA TERMINATED NORMALLY****
TOTAL RUN TIME: 0 days 0 hours 0 minutes 5 seconds 309 msec
