                         Program Version 5.0.0 -  RELEASE  -
|  1> !PBE D3BJ RIJCOSX def2-SVPD def2/J TightSCF
|  2> *xyz 0 1
|  3> C          4.49059        1.15590       -2.46929
|  4> N          4.30539        1.22276       -3.90832
|  5> C          4.63192        2.24637       -4.67096
|  6> C          4.54169        2.14399       -5.98714
|  7> N          5.08409        3.39358       -4.11855
|  8> H          4.92067        3.57050       -3.13587
|  9> H          5.25465        4.19739       -4.70696
| 10> H          3.82453        0.44911       -4.35093
| 11> H          4.34337        1.24932       -6.41665
| 12> H          4.67671        2.95662       -6.57411
| 13> C          5.94213        0.93950       -2.03689
| 14> H          3.86431        0.32853       -2.13661
| 15> H          4.07623        2.04999       -1.98901
| 16> C          6.55996       -0.35629       -2.55909
| 17> H          5.96798        0.95257       -0.94244
| 18> H          6.54718        1.78833       -2.36885
| 19> H          6.53022       -0.35990       -3.62867
| 20> H          6.00654       -1.19175       -2.18407
| 21> H          7.57588       -0.42487       -2.23029
| 22> *
| 23>
| 24> %MaxCore 64000
| 25>
| 26> %pal nprocs 8
| 27> end
| 28>
| 29> %scf
| 30>   MaxIter 150
| 31> end
| 32>
| 33>
| 34>                          ****END OF INPUT****

CARTESIAN COORDINATES (ANGSTROEM)
---------------------------------
  C      4.490590    1.155900   -2.469290
  N      4.305390    1.222760   -3.908320
  C      4.631920    2.246370   -4.670960
  C      4.541690    2.143990   -5.987140
  N      5.084090    3.393580   -4.118550
  H      4.920670    3.570500   -3.135870
  H      5.254650    4.197390   -4.706960
  H      3.824530    0.449110   -4.350930
  H      4.343370    1.249320   -6.416650
  H      4.676710    2.956620   -6.574110
  C      5.942130    0.939500   -2.036890
  H      3.864310    0.328530   -2.136610
  H      4.076230    2.049990   -1.989010
  C      6.559960   -0.356290   -2.559090
  H      5.967980    0.952570   -0.942440
  H      6.547180    1.788330   -2.368850
  H      6.530220   -0.359900   -3.628670
  H      6.006540   -1.191750   -2.184070
  H      7.575880   -0.424870   -2.230290

 Total Charge           Charge          ....    0
 Multiplicity           Mult            ....    1
 Number of Electrons    NEL             ....   56
 Basis Dimension        Dim             ....  236

ORBITAL ENERGIES
----------------

  NO   OCC          E(Eh)            E(eV)
   0   2.0000     -14.002601      -381.0301
   1   2.0000     -13.999576      -380.9478
   2   2.0000      -9.933352      -270.3003
   3   2.0000      -9.933267      -270.2979
   4   2.0000      -9.894709      -269.2487
   5   2.0000      -9.879856      -268.8445
   6   2.0000      -9.807825      -266.8845
   7   2.0000      -0.878800       -23.9134
   8   2.0000      -0.797549       -21.7024
   9   2.0000      -0.710066       -19.3219
  10   2.0000      -0.650656       -17.7053
  11   2.0000      -0.598347       -16.2819
  12   2.0000      -0.552807       -15.0427
  13   2.0000      -0.525637       -14.3033
  14   2.0000      -0.480133       -13.0651
  15   2.0000      -0.448782       -12.2120
  16   2.0000      -0.433185       -11.7876
  17   2.0000      -0.411762       -11.2046
  18   2.0000      -0.392061       -10.6685
  19   2.0000      -0.360354        -9.8057
  20   2.0000      -0.347636        -9.4596
  21   2.0000      -0.345538        -9.4026
  22   2.0000      -0.324376        -8.8267
  23   2.0000      -0.307323        -8.3627
  24   2.0000      -0.304997        -8.2994
  25   2.0000      -0.296945        -8.0803
  26   2.0000      -0.213676        -5.8144
  27   2.0000      -0.132075        -3.5939
  28   0.0000      -0.007872        -0.2142
  29   0.0000       0.012042         0.3277
  30   0.0000       0.021805         0.5933
  31   0.0000       0.029526         0.8034
  32   0.0000       0.048333         1.3152

MULLIKEN ATOMIC CHARGES
-----------------------
   0 C :    0.779763
   1 N :   -0.465073
   2 C :    0.797204
   3 C :    0.338345
   4 N :    0.163518
   5 H :   -0.126314
   6 H :   -0.221950
   7 H :   -0.226796
   8 H :   -0.266241
   9 H :   -0.392104
  10 C :   -0.401264
  11 H :   -0.365934
  12 H :   -0.066017
  13 C :    0.742467
  14 H :   -0.165610
  15 H :    0.020151
  16 H :   -0.092829
  17 H :    0.041061
  18 H :   -0.092379
Sum of atomic charges:   -0.0000000

LOEWDIN ATOMIC CHARGES
----------------------
   0 C :    0.034621
   1 N :   -0.003410
   2 C :   -0.247481
   3 C :    0.142898
   4 N :    0.215332
   5 H :   -0.029695
   6 H :    0.001618
   7 H :    0.036585
   8 H :   -0.098894
   9 H :   -0.101209
  10 C :   -0.074008
  11 H :    0.023201
  12 H :    0.008978
  13 C :    0.122434
  14 H :    0.018346
  15 H :    0.010172
  16 H :   -0.021005
  17 H :   -0.019496
  18 H :   -0.018986

  Mayer bond orders larger than 0.100000
B(  0-C ,  1-N ) :   0.9007 B(  0-C ,  7-H ) :  -0.1838 B(  0-C , 10-C ) :   1.1393
B(  0-C , 11-H ) :   0.7275 B(  0-C , 12-H ) :   0.8736 B(  0-C , 15-H ) :   0.1261
B(  1-N ,  2-C ) :   0.9557 B(  1-N ,  3-C ) :   0.2844 B(  1-N ,  4-N ) :   0.2469
B(  1-N ,  7-H ) :   1.2892 B(  1-N , 11-H ) :   0.2606 B(  1-N , 12-H ) :   0.1017
B(  2-C ,  3-C ) :   1.2285 B(  2-C ,  4-N ) :   0.9156 B(  2-C ,  6-H ) :  -0.1047
B(  2-C ,  7-H ) :  -0.2025 B(  2-C ,  9-H ) :   0.1537 B(  3-C ,  4-N ) :   0.2313
B(  3-C ,  8-H ) :   0.8638 B(  3-C ,  9-H ) :   0.7529 B(  4-N ,  5-H ) :   1.0537
B(  4-N ,  6-H ) :   1.2333 B(  4-N , 12-H ) :   0.1029 B(  5-H ,  6-H ) :  -0.1966
B( 10-C , 11-H ) :   0.1483 B( 10-C , 13-C ) :   1.3401 B( 10-C , 14-H ) :   1.0298
B( 10-C , 15-H ) :   0.8845 B( 10-C , 16-H ) :   0.2307 B( 10-C , 17-H ) :   0.2065
B( 10-C , 18-H ) :   0.2375 B( 11-H , 12-H ) :  -0.1216 B( 13-C , 16-H ) :   0.8182
B( 13-C , 17-H ) :   0.7760 B( 13-C , 18-H ) :   0.7711

Dispersion correction           -0.016223434
FINAL SINGLE POINT ENERGY      -306.626406350037

DIPOLE MOMENT
-------------
                                X             Y             Z
Electronic contribution:     -2.44531       2.74230      -2.01487
Nuclear contribution   :      2.34222      -2.69386       3.01591
                        -----------------------------------------
Total Dipole Moment    :     -0.10308       0.04845       1.00104
                        -----------------------------------------
Magnitude (a.u.)       :      1.00750
Magnitude (Debye)      :      2.56086

Rotational constants in cm-1:     0.155143     0.051710     0.048050
Rotational constants in MHz :  4651.080391  1550.217078  1440.507386

                             ****ORCA TERMINATED NORMALLY****
TOTAL RUN TIME: 0 days 0 hours 0 minutes 7 seconds 94 msec
