                         Program Version 5.0.0 -  RELEASE  -
|  1> !PBE D3BJ RIJCOSX def2-SVPD def2/J TightSCF
|  2> *xyz 0 1
|  3> C          4.90646       -3.10282       -5.95484
|  4> C          3.51177       -2.80621       -6.49228
|  5> H          2.73604       -3.37345       -5.97374
|  6> H          3.44490       -3.04083       -7.55528
|  7> S          3.00462       -1.09621       -6.38926
|  8> O          4.12886       -0.32965       -6.95372
|  9> O          1.78128       -1.00078       -7.13640
| 10> C          5.02498       -3.02568       -4.43762
| 11> H          5.20153       -4.10021       -6.29691
| 12> H          5.60592       -2.39782       -6.41337
| 13> F          2.85155       -0.78368       -4.95679
| 14> H          4.73604       -2.05011       -4.10644
| 15> H          6.03776       -3.21492       -4.14890
| 16> H          4.38436       -3.75784       -3.99214
| 17> *
| 18>
| 19> %MaxCore 64000
| 20>
| 21> %pal nprocs 8
| 22> end
| 23>
| 24> %scf
| 25>   MaxIter 150
| 26> end
| 27>
| 28>
| 29>                          ****END OF INPUT****

CARTESIAN COORDINATES (ANGSTROEM)
---------------------------------
  C      4.906460   -3.102820   -5.954840
  C      3.511770   -2.806210   -6.492280
  H      2.736040   -3.373450   -5.973740
  H      3.444900   -3.040830   -7.555280
  S      3.004620   -1.096210   -6.389260
  O      4.128860   -0.329650   -6.953720
  O      1.781280   -1.000780   -7.136400
  C      5.024980   -3.025680   -4.437620
  H      5.201530   -4.100210   -6.296910
  H      5.605920   -2.397820   -6.413370
  F      2.851550   -0.783680   -4.956790
  H      4.736040   -2.050110   -4.106440
  H      6.037760   -3.214920   -4.148900
  H      4.384360   -3.757840   -3.992140

 Total Charge           Charge          ....    0
 Multiplicity           Mult            ....    1
 Number of Electrons    NEL             ....   66
 Basis Dimension        Dim             ....  212

ORBITAL ENERGIES
----------------

  NO   OCC          E(Eh)            E(eV)
   0   2.0000     -88.306848     -2402.9515
   1   2.0000     -24.373065      -663.2248
   2   2.0000     -18.779694      -511.0215
   3   2.0000     -18.768802      -510.7251
   4   2.0000      -9.956768      -270.9374
   5   2.0000      -9.926123      -270.1035
   6   2.0000      -9.902471      -269.4599
   7   2.0000      -7.912063      -215.2982
   8   2.0000      -5.943233      -161.7236
   9   2.0000      -5.936950      -161.5526
  10   2.0000      -5.935344      -161.5089
  11   2.0000      -1.245339       -33.8874
  12   2.0000      -1.022568       -27.8255
  13   2.0000      -0.926049       -25.1991
  14   2.0000      -0.760382       -20.6910
  15   2.0000      -0.684199       -18.6180
  16   2.0000      -0.637054       -17.3351
  17   2.0000      -0.576532       -15.6882
  18   2.0000      -0.517330       -14.0773
  19   2.0000      -0.504460       -13.7271
  20   2.0000      -0.492391       -13.3987
  21   2.0000      -0.443006       -12.0548
  22   2.0000      -0.435708       -11.8562
  23   2.0000      -0.415433       -11.3045
  24   2.0000      -0.403767       -10.9871
  25   2.0000      -0.389085       -10.5875
  26   2.0000      -0.351773        -9.5722
  27   2.0000      -0.342777        -9.3274
  28   2.0000      -0.328682        -8.9439
  29   2.0000      -0.324014        -8.8169
  30   2.0000      -0.292628        -7.9628
  31   2.0000      -0.284706        -7.7472
  32   2.0000      -0.267818        -7.2877
  33   0.0000      -0.027598        -0.7510
  34   0.0000      -0.001646        -0.0448
  35   0.0000       0.010864         0.2956
  36   0.0000       0.016510         0.4493
  37   0.0000       0.023675         0.6442

MULLIKEN ATOMIC CHARGES
-----------------------
   0 C :   -0.191176
   1 C :   -0.030451
   2 H :    0.043512
   3 H :    0.014667
   4 S :    1.355913
   5 O :   -0.649995
   6 O :   -0.613286
   7 C :    0.834003
   8 H :   -0.117822
   9 H :    0.001289
  10 F :   -0.384478
  11 H :   -0.200481
  12 H :   -0.061500
  13 H :   -0.000195
Sum of atomic charges:    0.0000000

LOEWDIN ATOMIC CHARGES
----------------------
   0 C :   -0.078795
   1 C :   -0.062646
   2 H :    0.026141
   3 H :    0.035045
   4 S :    1.067410
   5 O :   -0.448095
   6 O :   -0.433839
   7 C :    0.136483
   8 H :    0.033031
   9 H :    0.027174
  10 F :   -0.254675
  11 H :   -0.029665
  12 H :   -0.008457
  13 H :   -0.009113

  Mayer bond orders larger than 0.100000
B(  0-C ,  1-C ) :   1.2638 B(  0-C ,  2-H ) :   0.1164 B(  0-C ,  3-H ) :   0.1199
B(  0-C ,  7-C ) :   1.3045 B(  0-C ,  8-H ) :   0.8730 B(  0-C ,  9-H ) :   0.8875
B(  0-C , 11-H ) :   0.2420 B(  0-C , 12-H ) :   0.2170 B(  0-C , 13-H ) :   0.2154
B(  1-C ,  2-H ) :   0.9099 B(  1-C ,  3-H ) :   0.9116 B(  1-C ,  4-S ) :   0.9982
B(  1-C ,  8-H ) :   0.1298 B(  1-C ,  9-H ) :   0.1521 B(  4-S ,  5-O ) :   1.5146
B(  4-S ,  6-O ) :   1.5729 B(  4-S , 10-F ) :   0.6530 B(  7-C , 11-H ) :   0.8055
B(  7-C , 12-H ) :   0.7344 B(  7-C , 13-H ) :   0.7399

Dispersion correction           -0.012791114
FINAL SINGLE POINT ENERGY      -766.007240655886

DIPOLE MOMENT
-------------
                                X             Y             Z
Electronic contribution:     -7.45944       9.43383      -1.92091
Nuclear contribution   :      7.88819     -10.86344       2.71963
                        -----------------------------------------
Total Dipole Moment    :      0.42875      -1.42961       0.79872
                        -----------------------------------------
Magnitude (a.u.)       :      1.69279
Magnitude (Debye)      :      4.30274

Rotational constants in cm-1:     0.130261     0.054435     0.050898
Rotational constants in MHz :  3905.114465  1631.935083  1525.880669

                             ****ORCA TERMINATED NORMALLY****
TOTAL RUN TIME: 0 days 0 hours 0 minutes 5 seconds 930 msec
