                         Program Version 5.0.0 -  RELEASE  -
|  1> !PBE D3BJ RIJCOSX def2-SVPD def2/J TightSCF
|  2> *xyz 0 1
|  3> C          4.49059        1.15590       -2.46929
|  4> N          4.30539        1.22276       -3.90832
|  5> C          4.63192        2.24637       -4.67096
|  6> N          4.54169        2.14399       -5.98714
|  7> C          5.08409        3.39358       -4.11855
|  8> H          4.92067        3.57050       -3.13587
|  9> H          5.25465        4.19739       -4.70696
| 10> H          3.82453        0.44911       -4.35093
| 11> H          4.34337        1.24932       -6.41665
| 12> H          4.67671        2.95662       -6.57411
| 13> C          5.94213        0.93950       -2.03689
| 14> H          3.86431        0.32853       -2.13661
| 15> H          4.07623        2.04999       -1.98901
| 16> C          6.55996       -0.35629       -2.55909
| 17> H          5.96798        0.95257       -0.94244
| 18> H          6.54718        1.78833       -2.36885
| 19> H          6.53022       -0.35990       -3.62867
| 20> H          6.00654       -1.19175       -2.18407
| 21> H          7.57588       -0.42487       -2.23029
| 22> *
| 23>
| 24> %MaxCore 64000
| 25>
| 26> %pal nprocs 8
| 27> end
| 28>
| 29> %scf
| 30>   MaxIter 150
| 31> end
| 32>
| 33>
| 34>                          ****END OF INPUT****

CARTESIAN COORDINATES (ANGSTROEM)
---------------------------------
  C      4.490590    1.155900   -2.469290
  N      4.305390    1.222760   -3.908320
  C      4.631920    2.246370   -4.670960
  N      4.541690    2.143990   -5.987140
  C      5.084090    3.393580   -4.118550
  H      4.920670    3.570500   -3.135870
  H      5.254650    4.197390   -4.706960
  H      3.824530    0.449110   -4.350930
  H      4.343370    1.249320   -6.416650
  H      4.676710    2.956620   -6.574110
  C      5.942130    0.939500   -2.036890
  H      3.864310    0.328530   -2.136610
  H      4.076230    2.049990   -1.989010
  C      6.559960   -0.356290   -2.559090
  H      5.967980    0.952570   -0.942440
  H      6.547180    1.788330   -2.368850
  H      6.530220   -0.359900   -3.628670
  H      6.006540   -1.191750   -2.184070
  H      7.575880   -0.424870   -2.230290

 Total Charge           Charge          ....    0
 Multiplicity           Mult            ....    1
 Number of Electrons    NEL             ....   56
 Basis Dimension        Dim             ....  236

ORBITAL ENERGIES
----------------

  NO   OCC          E(Eh)            E(eV)
   0   2.0000     -14.006734      -381.1426
   1   2.0000     -14.002509      -381.0276
   2   2.0000      -9.936161      -270.3767
   3   2.0000      -9.925777      -270.0941
   4   2.0000      -9.885390      -268.9951
   5   2.0000      -9.875151      -268.7165
   6   2.0000      -9.809754      -266.9370
   7   2.0000      -0.882709       -24.0197
   8   2.0000      -0.804656       -21.8958
   9   2.0000      -0.698095       -18.9961
  10   2.0000      -0.637495       -17.3471
  11   2.0000      -0.617589       -16.8055
  12   2.0000      -0.544188       -14.8081
  13   2.0000      -0.502457       -13.6726
  14   2.0000      -0.494844       -13.4654
  15   2.0000      -0.469625       -12.7792
  16   2.0000      -0.426112       -11.5951
  17   2.0000      -0.402443       -10.9510
  18   2.0000      -0.383698       -10.4410
  19   2.0000      -0.356608        -9.7038
  20   2.0000      -0.345418        -9.3993
  21   2.0000      -0.340781        -9.2731
  22   2.0000      -0.322047        -8.7633
  23   2.0000      -0.304729        -8.2921
  24   2.0000      -0.298341        -8.1183
  25   2.0000      -0.288643        -7.8544
  26   2.0000      -0.210639        -5.7318
  27   2.0000      -0.134249        -3.6531
  28   0.0000      -0.009320        -0.2536
  29   0.0000       0.015743         0.4284
  30   0.0000       0.022633         0.6159
  31   0.0000       0.032654         0.8886
  32   0.0000       0.044341         1.2066

MULLIKEN ATOMIC CHARGES
-----------------------
   0 C :    0.761270
   1 N :   -0.554376
   2 C :    0.770405
   3 N :    0.078938
   4 C :    0.410493
   5 H :   -0.014371
   6 H :   -0.598654
   7 H :   -0.310323
   8 H :   -0.177507
   9 H :   -0.098694
  10 C :   -0.386843
  11 H :   -0.375213
  12 H :    0.055658
  13 C :    0.726803
  14 H :   -0.142651
  15 H :    0.017392
  16 H :   -0.095641
  17 H :    0.026903
  18 H :   -0.093587
Sum of atomic charges:   -0.0000000

LOEWDIN ATOMIC CHARGES
----------------------
   0 C :    0.042246
   1 N :   -0.008502
   2 C :   -0.247097
   3 N :    0.194256
   4 C :    0.165209
   5 H :   -0.114176
   6 H :   -0.105519
   7 H :    0.021495
   8 H :   -0.010932
   9 H :    0.007000
  10 C :   -0.065965
  11 H :    0.022110
  12 H :    0.017264
  13 C :    0.118537
  14 H :    0.020926
  15 H :    0.011333
  16 H :   -0.026416
  17 H :   -0.021977
  18 H :   -0.019793

  Mayer bond orders larger than 0.100000
B(  0-C ,  1-N ) :   0.8914 B(  0-C ,  5-H ) :   0.1088 B(  0-C ,  7-H ) :  -0.1844
B(  0-C , 10-C ) :   1.1195 B(  0-C , 11-H ) :   0.8016 B(  0-C , 12-H ) :   0.8439
B(  0-C , 15-H ) :   0.1360 B(  1-N ,  2-C ) :   0.8058 B(  1-N ,  3-N ) :   0.2704
B(  1-N ,  4-C ) :   0.4054 B(  1-N ,  7-H ) :   1.4555 B(  1-N ,  8-H ) :   0.1024
B(  1-N , 11-H ) :   0.1974 B(  2-C ,  3-N ) :   0.8604 B(  2-C ,  4-C ) :   1.5748
B(  2-C ,  5-H ) :   0.2867 B(  2-C ,  6-H ) :   0.2029 B(  2-C ,  7-H ) :  -0.3420
B(  2-C ,  8-H ) :  -0.1086 B(  2-C , 11-H ) :   0.1045 B(  3-N ,  4-C ) :   0.2660
B(  3-N ,  8-H ) :   1.2014 B(  3-N ,  9-H ) :   1.2155 B(  4-C ,  5-H ) :   0.6197
B(  4-C ,  6-H ) :   0.8299 B(  5-H , 11-H ) :  -0.1124 B(  5-H , 12-H ) :   0.1103
B(  8-H ,  9-H ) :  -0.1729 B( 10-C , 11-H ) :   0.1532 B( 10-C , 13-C ) :   1.3355
B( 10-C , 14-H ) :   1.0135 B( 10-C , 15-H ) :   0.8989 B( 10-C , 16-H ) :   0.2202
B( 10-C , 17-H ) :   0.2046 B( 10-C , 18-H ) :   0.2358 B( 11-H , 12-H ) :  -0.1555
B( 13-C , 16-H ) :   0.8309 B( 13-C , 17-H ) :   0.7788 B( 13-C , 18-H ) :   0.7746

Dispersion correction           -0.016302555
FINAL SINGLE POINT ENERGY      -306.626190463504

DIPOLE MOMENT
-------------
                                X             Y             Z
Electronic contribution:     -2.92503       1.57883      -3.87774
Nuclear contribution   :      2.46104      -2.42013       3.42523
                        -----------------------------------------
Total Dipole Moment    :     -0.46399      -0.84130      -0.45251
                        -----------------------------------------
Magnitude (a.u.)       :      1.06199
Magnitude (Debye)      :      2.69937

Rotational constants in cm-1:     0.157414     0.050835     0.047338
Rotational constants in MHz :  4719.163414  1524.007825  1419.164399

                             ****ORCA TERMINATED NORMALLY****
TOTAL RUN TIME: 0 days 0 hours 0 minutes 7 seconds 99 msec
