                         Program Version 5.0.0 -  RELEASE  -
|  1> !PBE D3BJ RIJCOSX def2-SVPD def2/J TightSCF xyzfile
|  2>
|  3> *xyzfile 0 1 D1.xyz
|  4>
|  5> %MaxCore 64000
|  6>
|  7> %pal nprocs 4
|  8> end
|  9>
| 10> %scf
| 11>   MaxIter 150
| 12> end
| 13>
| 14>
| 15>                          ****END OF INPUT****

CARTESIAN COORDINATES (ANGSTROEM)
---------------------------------
  C      4.490588    1.155899   -2.469290
  C      4.305394    1.222762   -3.908317
  C      4.906458   -3.102816   -5.954844
  C      3.511771   -2.806215   -6.492283
  H      2.736044   -3.373445   -5.973736
  H      3.444904   -3.040831   -7.555281
  S      3.004618   -1.096206   -6.389259
  C      4.631918    2.246365   -4.670958
  N      4.541686    2.143990   -5.987139
  N      5.084086    3.393584   -4.118545
  H      4.920675    3.570501   -3.135870
  H      5.254652    4.197390   -4.706956
  H      3.824530    0.449113   -4.350926
  H      4.343373    1.249318   -6.416646
  H      4.676712    2.956624   -6.574113
  F      4.128856   -0.329647   -6.953717
  O      1.781285   -1.000779   -7.136399
  C      5.942129    0.939500   -2.036893
  H      3.864305    0.328532   -2.136611
  H      4.076233    2.049994   -1.989010
  C      6.462677   -3.117775   -3.944671
  C      5.024977   -3.025679   -4.437625
  H      4.423321   -3.818693   -3.977648
  H      4.579350   -2.087131   -4.108727
  H      5.201533   -4.100207   -6.296905
  H      5.605922   -2.397822   -6.413368
  C      6.559957   -0.356290   -2.559086
  H      5.967976    0.952567   -0.942444
  H      6.547184    1.788331   -2.368849
  C      6.006283   -1.615917   -1.899301
  H      7.642360   -0.318000   -2.402059
  H      6.414855   -0.403433   -3.642587
  C      6.608718   -2.917014   -2.435655
  H      6.190324   -1.561115   -0.820948
  H      4.919250   -1.651245   -2.016586
  H      7.066975   -2.374258   -4.475514
  H      6.887808   -4.089747   -4.215332
  H      6.135197   -3.755573   -1.915159
  H      7.671142   -2.955503   -2.172291
  O      2.851546   -0.783683   -4.956789

 Total Charge           Charge          ....    0
 Multiplicity           Mult            ....    1
 Number of Electrons    NEL             ....  144
 Basis Dimension        Dim             ....  540

ORBITAL ENERGIES
----------------

  NO   OCC          E(Eh)            E(eV)
   0   2.0000     -88.317755     -2403.2483
   1   2.0000     -24.393812      -663.7894
   2   2.0000     -18.788341      -511.2567
   3   2.0000     -18.776615      -510.9377
   4   2.0000     -13.991457      -380.7269
   5   2.0000     -13.986851      -380.6016
   6   2.0000      -9.960792      -271.0469
   7   2.0000      -9.926616      -270.1169
   8   2.0000      -9.917895      -269.8796
   9   2.0000      -9.896750      -269.3043
  10   2.0000      -9.892266      -269.1823
  11   2.0000      -9.885780      -269.0057
  12   2.0000      -9.877026      -268.7675
  13   2.0000      -9.870121      -268.5797
  14   2.0000      -9.865111      -268.4433
  15   2.0000      -9.858969      -268.2762
  16   2.0000      -9.794313      -266.5168
  17   2.0000      -7.921957      -215.5674
  18   2.0000      -5.953356      -161.9991
  19   2.0000      -5.946913      -161.8237
  20   2.0000      -5.945046      -161.7729
  21   2.0000      -1.267092       -34.4793
  22   2.0000      -1.032592       -28.0983
  23   2.0000      -0.935604       -25.4591
  24   2.0000      -0.859337       -23.3837
  25   2.0000      -0.777006       -21.1434
  26   2.0000      -0.766710       -20.8632
  27   2.0000      -0.728457       -19.8223
  28   2.0000      -0.701872       -19.0989
  29   2.0000      -0.680760       -18.5244
  30   2.0000      -0.658147       -17.9091
  31   2.0000      -0.632753       -17.2181
  32   2.0000      -0.603841       -16.4313
  33   2.0000      -0.576002       -15.6738
  34   2.0000      -0.552740       -15.0408
  35   2.0000      -0.546801       -14.8792
  36   2.0000      -0.530357       -14.4318
  37   2.0000      -0.522062       -14.2060
  38   2.0000      -0.505652       -13.7595
  39   2.0000      -0.502682       -13.6787
  40   2.0000      -0.484422       -13.1818
  41   2.0000      -0.477856       -13.0031
  42   2.0000      -0.450115       -12.2482
  43   2.0000      -0.442463       -12.0400
  44   2.0000      -0.436734       -11.8841
  45   2.0000      -0.425412       -11.5760
  46   2.0000      -0.414902       -11.2901
  47   2.0000      -0.407877       -11.0989
  48   2.0000      -0.403713       -10.9856
  49   2.0000      -0.402761       -10.9597
  50   2.0000      -0.381996       -10.3946
  51   2.0000      -0.373880       -10.1738
  52   2.0000      -0.371405       -10.1064
  53   2.0000      -0.359659        -9.7868
  54   2.0000      -0.347995        -9.4694
  55   2.0000      -0.337424        -9.1818
  56   2.0000      -0.336811        -9.1651
  57   2.0000      -0.328389        -8.9359
  58   2.0000      -0.321756        -8.7554
  59   2.0000      -0.313195        -8.5225
  60   2.0000      -0.306843        -8.3496
  61   2.0000      -0.299732        -8.1561
  62   2.0000      -0.296890        -8.0788
  63   2.0000      -0.284396        -7.7388
  64   2.0000      -0.282152        -7.6777
  65   2.0000      -0.271948        -7.4001
  66   2.0000      -0.268738        -7.3127
  67   2.0000      -0.261631        -7.1193
  68   2.0000      -0.254028        -6.9125
  69   2.0000      -0.237732        -6.4690
  70   2.0000      -0.212399        -5.7797
  71   2.0000      -0.118124        -3.2143
  72   0.0000      -0.038235        -1.0404
  73   0.0000      -0.003674        -0.1000
  74   0.0000       0.001138         0.0310
  75   0.0000       0.006148         0.1673
  76   0.0000       0.007912         0.2153

MULLIKEN ATOMIC CHARGES
-----------------------
   0 C :    0.106777
   1 C :    0.120353
   2 C :    0.262057
   3 C :    0.290549
   4 H :    0.046138
   5 H :   -0.027364
   6 S :    1.325947
   7 C :    1.043333
   8 N :    0.278037
   9 N :    0.017512
  10 H :   -0.058313
  11 H :   -0.297123
  12 H :   -0.576697
  13 H :   -0.280117
  14 H :   -0.234101
  15 F :   -0.403429
  16 O :   -0.647169
  17 C :    0.400871
  18 H :    0.132638
  19 H :   -0.210144
  20 C :    0.008450
  21 C :    0.256012
  22 H :    0.043065
  23 H :   -0.493181
  24 H :   -0.120090
  25 H :    0.034673
  26 C :    0.047338
  27 H :   -0.068644
  28 H :   -0.125257
  29 C :   -0.120640
  30 H :   -0.127230
  31 H :   -0.023336
  32 C :    0.656136
  33 H :   -0.361889
  34 H :    0.151513
  35 H :    0.146925
  36 H :   -0.363558
  37 H :   -0.041538
  38 H :    0.003427
  39 O :   -0.791930
Sum of atomic charges:    0.0000000

LOEWDIN ATOMIC CHARGES
----------------------
   0 C :   -0.043453
   1 C :   -0.014800
   2 C :   -0.038290
   3 C :   -0.045644
   4 H :    0.043805
   5 H :    0.024126
   6 S :    1.110891
   7 C :   -0.203251
   8 N :    0.212897
   9 N :    0.216629
  10 H :   -0.017432
  11 H :   -0.019334
  12 H :   -0.143761
  13 H :   -0.082904
  14 H :   -0.008662
  15 F :   -0.243781
  16 O :   -0.415442
  17 C :   -0.032166
  18 H :    0.012883
  19 H :    0.006204
  20 C :   -0.038896
  21 C :   -0.028591
  22 H :    0.043733
  23 H :   -0.011279
  24 H :    0.037332
  25 H :    0.027331
  26 C :   -0.034738
  27 H :    0.015750
  28 H :    0.010324
  29 C :   -0.037652
  30 H :    0.024394
  31 H :    0.006864
  32 C :   -0.033077
  33 H :    0.024443
  34 H :    0.009555
  35 H :    0.018357
  36 H :    0.023046
  37 H :    0.021588
  38 H :    0.022772
  39 O :   -0.419773

  Mayer bond orders larger than 0.100000
B(  0-C ,  1-C ) :   1.2128 B(  0-C , 12-H ) :   0.8656 B(  0-C , 17-C ) :   1.1458
B(  0-C , 18-H ) :   0.6647 B(  0-C , 19-H ) :   0.8845 B(  0-C , 26-C ) :   0.1191
B(  0-C , 27-H ) :   0.2005 B(  0-C , 28-H ) :   0.1602 B(  0-C , 30-H ) :  -0.1176
B(  1-C ,  7-C ) :   1.6004 B(  1-C ,  8-N ) :   0.3776 B(  1-C ,  9-N ) :   0.3376
B(  1-C , 12-H ) :  -0.2957 B(  1-C , 17-C ) :   0.1094 B(  1-C , 18-H ) :   0.3815
B(  1-C , 19-H ) :   0.1993 B(  2-C ,  3-C ) :   1.2249 B(  2-C ,  5-H ) :   0.2520
B(  2-C , 20-C ) :   0.1255 B(  2-C , 21-C ) :   1.1352 B(  2-C , 22-H ) :   0.1103
B(  2-C , 24-H ) :   0.8028 B(  2-C , 25-H ) :   0.8188 B(  3-C ,  4-H ) :   0.8771
B(  3-C ,  5-H ) :   0.7280 B(  3-C ,  6-S ) :   1.0099 B(  3-C , 21-C ) :   0.1132
B(  3-C , 25-H ) :   0.1025 B(  6-S , 15-F ) :   0.6129 B(  6-S , 16-O ) :   1.4736
B(  6-S , 39-O ) :   1.5518 B(  7-C ,  8-N ) :   0.7858 B(  7-C ,  9-N ) :   0.7739
B(  7-C , 11-H ) :  -0.1882 B(  7-C , 12-H ) :  -0.2150 B(  7-C , 13-H ) :  -0.2648
B(  7-C , 14-H ) :  -0.1743 B(  8-N ,  9-N ) :   0.1244 B(  8-N , 13-H ) :   1.1788
B(  8-N , 14-H ) :   1.3490 B(  9-N , 10-H ) :   1.0646 B(  9-N , 11-H ) :   1.3470
B( 10-H , 11-H ) :  -0.1990 B( 11-H , 12-H ) :  -0.1097 B( 12-H , 18-H ) :  -0.2022
B( 12-H , 39-O ) :   0.1416 B( 13-H , 14-H ) :  -0.2404 B( 13-H , 15-F ) :   0.1603
B( 16-O , 39-O ) :   0.1752 B( 17-C , 18-H ) :   0.1242 B( 17-C , 26-C ) :   1.3078
B( 17-C , 27-H ) :   0.7687 B( 17-C , 28-H ) :   0.6836 B( 17-C , 30-H ) :   0.1151
B( 17-C , 31-H ) :   0.1685 B( 18-H , 19-H ) :  -0.1182 B( 20-C , 21-C ) :   1.2279
B( 20-C , 22-H ) :   0.1205 B( 20-C , 23-H ) :   0.1332 B( 20-C , 29-C ) :   0.1535
B( 20-C , 32-C ) :   1.1516 B( 20-C , 35-H ) :   0.8187 B( 20-C , 36-H ) :   0.9448
B( 20-C , 37-H ) :   0.1196 B( 20-C , 38-H ) :   0.2331 B( 21-C , 22-H ) :   0.6940
B( 21-C , 23-H ) :   0.8152 B( 21-C , 24-H ) :   0.1953 B( 21-C , 25-H ) :   0.1155
B( 21-C , 35-H ) :   0.1085 B( 21-C , 36-H ) :   0.2100 B( 22-H , 23-H ) :   0.1877
B( 23-H , 34-H ) :   0.1248 B( 26-C , 27-H ) :   0.1422 B( 26-C , 28-H ) :   0.2328
B( 26-C , 29-C ) :   1.2449 B( 26-C , 30-H ) :   0.8022 B( 26-C , 31-H ) :   0.8712
B( 26-C , 33-H ) :   0.1460 B( 26-C , 34-H ) :   0.1028 B( 27-H , 28-H ) :  -0.1256
B( 29-C , 30-H ) :   0.1477 B( 29-C , 31-H ) :   0.1089 B( 29-C , 32-C ) :   1.1372
B( 29-C , 33-H ) :   1.0133 B( 29-C , 34-H ) :   0.8121 B( 29-C , 37-H ) :   0.2998
B( 29-C , 38-H ) :   0.1449 B( 32-C , 37-H ) :   0.6406 B( 32-C , 38-H ) :   0.6648
B( 37-H , 38-H ) :  -0.1064

Dispersion correction           -0.048737620
FINAL SINGLE POINT ENERGY     -1189.144330490522

DIPOLE MOMENT
-------------
                                X             Y             Z
Electronic contribution:    -16.36162       4.87530     -21.40073
Nuclear contribution   :     17.24138      -5.45913      20.34076
                        -----------------------------------------
Total Dipole Moment    :      0.87976      -0.58383      -1.05997
                        -----------------------------------------
Magnitude (a.u.)       :      1.49612
Magnitude (Debye)      :      3.80283

Rotational constants in cm-1:     0.014201     0.012275     0.007453
Rotational constants in MHz :   425.728191   368.008875   223.435232

                             ****ORCA TERMINATED NORMALLY****
TOTAL RUN TIME: 0 days 0 hours 1 minutes 10 seconds 897 msec
