                         Program Version 5.0.0 -  RELEASE  -
|  1> !PBE D3BJ RIJCOSX def2-SVPD def2/J TightSCF xyzfile
|  2>
|  3> *xyzfile 0 1 D4.xyz
|  4>
|  5> %MaxCore 64000
|  6>
|  7> %pal nprocs 4
|  8> end
|  9>
| 10> %scf
| 11>   MaxIter 150
| 12> end
| 13>
| 14>
| 15>                          ****END OF INPUT****

CARTESIAN COORDINATES (ANGSTROEM)
---------------------------------
  C      4.490588    1.155899   -2.469290
  C      4.305394    1.222762   -3.908317
  C      4.906458   -3.102816   -5.954844
  C      3.511771   -2.806215   -6.492283
  H      2.736044   -3.373445   -5.973736
  H      3.444904   -3.040831   -7.555281
  S      3.004618   -1.096206   -6.389259
  C      4.631918    2.246365   -4.670958
  N      4.541686    2.143990   -5.987139
  N      5.084086    3.393584   -4.118545
  H      4.920675    3.570501   -3.135870
  H      5.254652    4.197390   -4.706956
  H      3.824530    0.449113   -4.350926
  H      4.343373    1.249318   -6.416646
  H      4.676712    2.956624   -6.574113
  O      4.128856   -0.329647   -6.953717
  F      1.781285   -1.000779   -7.136399
  C      5.942129    0.939500   -2.036893
  H      3.864305    0.328532   -2.136611
  H      4.076233    2.049994   -1.989010
  C      6.462677   -3.117775   -3.944671
  C      5.024977   -3.025679   -4.437625
  H      4.423321   -3.818693   -3.977648
  H      4.579350   -2.087131   -4.108727
  H      5.201533   -4.100207   -6.296905
  H      5.605922   -2.397822   -6.413368
  C      6.559957   -0.356290   -2.559086
  H      5.967976    0.952567   -0.942444
  H      6.547184    1.788331   -2.368849
  C      6.006283   -1.615917   -1.899301
  H      7.642360   -0.318000   -2.402059
  H      6.414855   -0.403433   -3.642587
  C      6.608718   -2.917014   -2.435655
  H      6.190324   -1.561115   -0.820948
  H      4.919250   -1.651245   -2.016586
  H      7.066975   -2.374258   -4.475514
  H      6.887808   -4.089747   -4.215332
  H      6.135197   -3.755573   -1.915159
  H      7.671142   -2.955503   -2.172291
  O      2.851546   -0.783683   -4.956789

 Total Charge           Charge          ....    0
 Multiplicity           Mult            ....    1
 Number of Electrons    NEL             ....  144
 Basis Dimension        Dim             ....  540

ORBITAL ENERGIES
----------------

  NO   OCC          E(Eh)            E(eV)
   0   2.0000     -88.326029     -2403.4734
   1   2.0000     -24.403195      -664.0447
   2   2.0000     -18.789648      -511.2923
   3   2.0000     -18.781565      -511.0724
   4   2.0000     -13.979937      -380.4134
   5   2.0000     -13.960766      -379.8918
   6   2.0000      -9.964542      -271.1490
   7   2.0000      -9.924903      -270.0704
   8   2.0000      -9.904158      -269.5058
   9   2.0000      -9.893818      -269.2245
  10   2.0000      -9.888216      -269.0720
  11   2.0000      -9.881758      -268.8963
  12   2.0000      -9.872111      -268.6338
  13   2.0000      -9.863168      -268.3905
  14   2.0000      -9.857637      -268.2399
  15   2.0000      -9.850933      -268.0575
  16   2.0000      -9.782664      -266.1998
  17   2.0000      -7.929857      -215.7824
  18   2.0000      -5.961215      -162.2129
  19   2.0000      -5.954870      -162.0402
  20   2.0000      -5.952958      -161.9882
  21   2.0000      -1.287377       -35.0313
  22   2.0000      -1.029479       -28.0135
  23   2.0000      -0.931423       -25.3453
  24   2.0000      -0.842643       -22.9295
  25   2.0000      -0.766878       -20.8678
  26   2.0000      -0.757871       -20.6227
  27   2.0000      -0.725781       -19.7495
  28   2.0000      -0.698959       -19.0196
  29   2.0000      -0.681235       -18.5373
  30   2.0000      -0.654224       -17.8024
  31   2.0000      -0.628008       -17.0890
  32   2.0000      -0.597338       -16.2544
  33   2.0000      -0.570930       -15.5358
  34   2.0000      -0.549304       -14.9473
  35   2.0000      -0.540778       -14.7153
  36   2.0000      -0.527880       -14.3643
  37   2.0000      -0.526847       -14.3362
  38   2.0000      -0.509221       -13.8566
  39   2.0000      -0.494434       -13.4542
  40   2.0000      -0.477468       -12.9926
  41   2.0000      -0.467977       -12.7343
  42   2.0000      -0.452331       -12.3085
  43   2.0000      -0.446714       -12.1557
  44   2.0000      -0.429394       -11.6844
  45   2.0000      -0.419642       -11.4190
  46   2.0000      -0.418156       -11.3786
  47   2.0000      -0.405700       -11.0396
  48   2.0000      -0.398907       -10.8548
  49   2.0000      -0.386585       -10.5195
  50   2.0000      -0.379102       -10.3159
  51   2.0000      -0.367072        -9.9885
  52   2.0000      -0.365897        -9.9566
  53   2.0000      -0.358496        -9.7552
  54   2.0000      -0.339684        -9.2433
  55   2.0000      -0.334037        -9.0896
  56   2.0000      -0.330355        -8.9894
  57   2.0000      -0.324099        -8.8192
  58   2.0000      -0.310114        -8.4386
  59   2.0000      -0.305468        -8.3122
  60   2.0000      -0.303385        -8.2555
  61   2.0000      -0.294593        -8.0163
  62   2.0000      -0.287212        -7.8154
  63   2.0000      -0.280424        -7.6307
  64   2.0000      -0.276654        -7.5281
  65   2.0000      -0.275443        -7.4952
  66   2.0000      -0.263105        -7.1595
  67   2.0000      -0.256318        -6.9748
  68   2.0000      -0.247191        -6.7264
  69   2.0000      -0.232228        -6.3192
  70   2.0000      -0.196037        -5.3344
  71   2.0000      -0.104895        -2.8543
  72   0.0000      -0.034127        -0.9287
  73   0.0000      -0.014178        -0.3858
  74   0.0000       0.005428         0.1477
  75   0.0000       0.010268         0.2794
  76   0.0000       0.011661         0.3173

MULLIKEN ATOMIC CHARGES
-----------------------
   0 C :    0.096112
   1 C :    0.135050
   2 C :    0.190803
   3 C :    0.247504
   4 H :    0.049794
   5 H :    0.006618
   6 S :    1.499437
   7 C :    1.002928
   8 N :    0.244086
   9 N :    0.014287
  10 H :   -0.061145
  11 H :   -0.298196
  12 H :   -0.529691
  13 H :   -0.256336
  14 H :   -0.247313
  15 O :   -0.653222
  16 F :   -0.465447
  17 C :    0.394270
  18 H :    0.127607
  19 H :   -0.212628
  20 C :    0.004541
  21 C :    0.222679
  22 H :    0.040808
  23 H :   -0.489299
  24 H :   -0.099060
  25 H :    0.072791
  26 C :    0.056630
  27 H :   -0.069553
  28 H :   -0.122946
  29 C :   -0.120614
  30 H :   -0.127929
  31 H :   -0.028655
  32 C :    0.656573
  33 H :   -0.365915
  34 H :    0.152238
  35 H :    0.150926
  36 H :   -0.365534
  37 H :   -0.042912
  38 H :    0.006575
  39 O :   -0.815866
Sum of atomic charges:    0.0000000

LOEWDIN ATOMIC CHARGES
----------------------
   0 C :   -0.047839
   1 C :   -0.014185
   2 C :   -0.022574
   3 C :   -0.056486
   4 H :    0.030895
   5 H :    0.022108
   6 S :    1.146770
   7 C :   -0.202857
   8 N :    0.216926
   9 N :    0.213790
  10 H :   -0.020672
  11 H :   -0.021342
  12 H :   -0.139162
  13 H :   -0.119892
  14 H :   -0.013963
  15 O :   -0.418249
  16 F :   -0.223717
  17 C :   -0.033323
  18 H :    0.010502
  19 H :    0.003504
  20 C :   -0.037440
  21 C :   -0.026138
  22 H :    0.041764
  23 H :   -0.008238
  24 H :    0.040728
  25 H :    0.033275
  26 C :   -0.033934
  27 H :    0.014050
  28 H :    0.010336
  29 C :   -0.038604
  30 H :    0.023837
  31 H :    0.009539
  32 C :   -0.033738
  33 H :    0.023645
  34 H :    0.008728
  35 H :    0.020664
  36 H :    0.022583
  37 H :    0.020559
  38 H :    0.022593
  39 O :   -0.424443

  Mayer bond orders larger than 0.100000
B(  0-C ,  1-C ) :   1.2114 B(  0-C , 12-H ) :   0.8568 B(  0-C , 17-C ) :   1.1386
B(  0-C , 18-H ) :   0.6598 B(  0-C , 19-H ) :   0.8981 B(  0-C , 26-C ) :   0.1163
B(  0-C , 27-H ) :   0.2015 B(  0-C , 28-H ) :   0.1614 B(  0-C , 30-H ) :  -0.1170
B(  1-C ,  7-C ) :   1.5875 B(  1-C ,  8-N ) :   0.3870 B(  1-C ,  9-N ) :   0.3531
B(  1-C , 12-H ) :  -0.3030 B(  1-C , 17-C ) :   0.1127 B(  1-C , 18-H ) :   0.3773
B(  1-C , 19-H ) :   0.1953 B(  2-C ,  3-C ) :   1.2953 B(  2-C ,  5-H ) :   0.2863
B(  2-C , 20-C ) :   0.1321 B(  2-C , 21-C ) :   1.1494 B(  2-C , 22-H ) :   0.1108
B(  2-C , 24-H ) :   0.7803 B(  2-C , 25-H ) :   0.8301 B(  3-C ,  4-H ) :   0.8815
B(  3-C ,  5-H ) :   0.6569 B(  3-C ,  6-S ) :   0.9875 B(  3-C , 16-F ) :   0.1063
B(  3-C , 21-C ) :   0.1409 B(  3-C , 25-H ) :   0.1123 B(  6-S , 15-O ) :   1.3807
B(  6-S , 16-F ) :   0.5194 B(  6-S , 39-O ) :   1.4819 B(  7-C ,  8-N ) :   0.7919
B(  7-C ,  9-N ) :   0.7652 B(  7-C , 11-H ) :  -0.1806 B(  7-C , 12-H ) :  -0.1705
B(  7-C , 13-H ) :  -0.2721 B(  7-C , 14-H ) :  -0.1704 B(  8-N ,  9-N ) :   0.1300
B(  8-N , 13-H ) :   1.1741 B(  8-N , 14-H ) :   1.3564 B(  9-N , 10-H ) :   1.0667
B(  9-N , 11-H ) :   1.3468 B( 10-H , 11-H ) :  -0.1986 B( 11-H , 12-H ) :  -0.1125
B( 12-H , 18-H ) :  -0.1849 B( 12-H , 39-O ) :   0.1421 B( 13-H , 14-H ) :  -0.2660
B( 13-H , 15-O ) :   0.1403 B( 16-F , 39-O ) :   0.1171 B( 17-C , 18-H ) :   0.1255
B( 17-C , 26-C ) :   1.3069 B( 17-C , 27-H ) :   0.7734 B( 17-C , 28-H ) :   0.6827
B( 17-C , 30-H ) :   0.1157 B( 17-C , 31-H ) :   0.1692 B( 18-H , 19-H ) :  -0.1209
B( 20-C , 21-C ) :   1.2354 B( 20-C , 22-H ) :   0.1208 B( 20-C , 23-H ) :   0.1361
B( 20-C , 29-C ) :   0.1542 B( 20-C , 32-C ) :   1.1509 B( 20-C , 35-H ) :   0.8166
B( 20-C , 36-H ) :   0.9419 B( 20-C , 37-H ) :   0.1191 B( 20-C , 38-H ) :   0.2326
B( 21-C , 22-H ) :   0.6926 B( 21-C , 23-H ) :   0.8284 B( 21-C , 24-H ) :   0.1983
B( 21-C , 25-H ) :   0.1087 B( 21-C , 35-H ) :   0.1150 B( 21-C , 36-H ) :   0.2117
B( 22-H , 23-H ) :   0.1931 B( 23-H , 34-H ) :   0.1264 B( 26-C , 27-H ) :   0.1437
B( 26-C , 28-H ) :   0.2332 B( 26-C , 29-C ) :   1.2424 B( 26-C , 30-H ) :   0.8039
B( 26-C , 31-H ) :   0.8657 B( 26-C , 33-H ) :   0.1436 B( 26-C , 34-H ) :   0.1022
B( 27-H , 28-H ) :  -0.1249 B( 29-C , 30-H ) :   0.1491 B( 29-C , 31-H ) :   0.1074
B( 29-C , 32-C ) :   1.1358 B( 29-C , 33-H ) :   1.0163 B( 29-C , 34-H ) :   0.8125
B( 29-C , 37-H ) :   0.3004 B( 29-C , 38-H ) :   0.1455 B( 32-C , 37-H ) :   0.6402
B( 32-C , 38-H ) :   0.6650 B( 37-H , 38-H ) :  -0.1059

Dispersion correction           -0.049033911
FINAL SINGLE POINT ENERGY     -1189.140642421332

DIPOLE MOMENT
-------------
                                X             Y             Z
Electronic contribution:    -20.54527       3.55885     -21.95585
Nuclear contribution   :     19.99734      -4.67125      20.55522
                        -----------------------------------------
Total Dipole Moment    :     -0.54793      -1.11240      -1.40063
                        -----------------------------------------
Magnitude (a.u.)       :      1.87067
Magnitude (Debye)      :      4.75488

Rotational constants in cm-1:     0.014213     0.012058     0.007367
Rotational constants in MHz :   426.102180   361.491761   220.844824

                             ****ORCA TERMINATED NORMALLY****
TOTAL RUN TIME: 0 days 0 hours 1 minutes 19 seconds 662 msec
