                         Program Version 5.0.0 -  RELEASE  -
|  1> !PBE D3BJ RIJCOSX def2-SVPD def2/J TightSCF xyzfile
|  2>
|  3> *xyzfile 0 1 D9.xyz
|  4>
|  5> %MaxCore 64000
|  6>
|  7> %pal nprocs 4
|  8> end
|  9>
| 10> %scf
| 11>   MaxIter 150
| 12> end
| 13>
| 14>
| 15>                          ****END OF INPUT****

CARTESIAN COORDINATES (ANGSTROEM)
---------------------------------
  C      4.490588    1.155899   -2.469290
  N      4.305394    1.222762   -3.908317
  C      4.906458   -3.102816   -5.954844
  C      3.511771   -2.806215   -6.492283
  H      2.736044   -3.373445   -5.973736
  H      3.444904   -3.040831   -7.555281
  S      3.004618   -1.096206   -6.389259
  C      4.631918    2.246365   -4.670958
  N      4.541686    2.143990   -5.987139
  C      5.084086    3.393584   -4.118545
  H      4.920675    3.570501   -3.135870
  H      5.254652    4.197390   -4.706956
  H      3.824530    0.449113   -4.350926
  H      4.343373    1.249318   -6.416646
  H      4.676712    2.956624   -6.574113
  O      4.128856   -0.329647   -6.953717
  O      1.781285   -1.000779   -7.136399
  C      5.942129    0.939500   -2.036893
  H      3.864305    0.328532   -2.136611
  H      4.076233    2.049994   -1.989010
  C      6.462677   -3.117775   -3.944671
  C      5.024977   -3.025679   -4.437625
  H      4.423321   -3.818693   -3.977648
  H      4.579350   -2.087131   -4.108727
  H      5.201533   -4.100207   -6.296905
  H      5.605922   -2.397822   -6.413368
  C      6.559957   -0.356290   -2.559086
  H      5.967976    0.952567   -0.942444
  H      6.547184    1.788331   -2.368849
  C      6.006283   -1.615917   -1.899301
  H      7.642360   -0.318000   -2.402059
  H      6.414855   -0.403433   -3.642587
  C      6.608718   -2.917014   -2.435655
  H      6.190324   -1.561115   -0.820948
  H      4.919250   -1.651245   -2.016586
  H      7.066975   -2.374258   -4.475514
  H      6.887808   -4.089747   -4.215332
  H      6.135197   -3.755573   -1.915159
  H      7.671142   -2.955503   -2.172291
  F      2.851546   -0.783683   -4.956789

 Total Charge           Charge          ....    0
 Multiplicity           Mult            ....    1
 Number of Electrons    NEL             ....  144
 Basis Dimension        Dim             ....  540

ORBITAL ENERGIES
----------------

  NO   OCC          E(Eh)            E(eV)
   0   2.0000     -88.334783     -2403.7117
   1   2.0000     -24.405799      -664.1156
   2   2.0000     -18.803135      -511.6593
   3   2.0000     -18.799802      -511.5686
   4   2.0000     -13.989939      -380.6856
   5   2.0000     -13.967917      -380.0864
   6   2.0000      -9.973654      -271.3969
   7   2.0000      -9.934989      -270.3448
   8   2.0000      -9.919397      -269.9205
   9   2.0000      -9.918189      -269.8876
  10   2.0000      -9.918057      -269.8840
  11   2.0000      -9.906298      -269.5641
  12   2.0000      -9.899774      -269.3866
  13   2.0000      -9.894237      -269.2359
  14   2.0000      -9.886550      -269.0267
  15   2.0000      -9.881103      -268.8785
  16   2.0000      -9.793752      -266.5015
  17   2.0000      -7.939024      -216.0318
  18   2.0000      -5.970409      -162.4631
  19   2.0000      -5.964097      -162.2913
  20   2.0000      -5.962039      -162.2353
  21   2.0000      -1.279101       -34.8061
  22   2.0000      -1.049796       -28.5664
  23   2.0000      -0.956244       -26.0207
  24   2.0000      -0.865582       -23.5537
  25   2.0000      -0.784959       -21.3598
  26   2.0000      -0.779519       -21.2118
  27   2.0000      -0.742106       -20.1937
  28   2.0000      -0.712161       -19.3789
  29   2.0000      -0.685162       -18.6442
  30   2.0000      -0.665418       -18.1069
  31   2.0000      -0.631587       -17.1863
  32   2.0000      -0.617231       -16.7957
  33   2.0000      -0.597390       -16.2558
  34   2.0000      -0.575278       -15.6541
  35   2.0000      -0.550619       -14.9831
  36   2.0000      -0.541705       -14.7405
  37   2.0000      -0.535470       -14.5709
  38   2.0000      -0.522526       -14.2187
  39   2.0000      -0.505773       -13.7628
  40   2.0000      -0.480937       -13.0870
  41   2.0000      -0.475490       -12.9387
  42   2.0000      -0.463940       -12.6244
  43   2.0000      -0.457399       -12.4465
  44   2.0000      -0.446206       -12.1419
  45   2.0000      -0.442014       -12.0278
  46   2.0000      -0.426646       -11.6096
  47   2.0000      -0.424203       -11.5431
  48   2.0000      -0.409242       -11.1360
  49   2.0000      -0.405271       -11.0280
  50   2.0000      -0.393401       -10.7050
  51   2.0000      -0.392214       -10.6727
  52   2.0000      -0.373160       -10.1542
  53   2.0000      -0.366657        -9.9772
  54   2.0000      -0.354972        -9.6593
  55   2.0000      -0.350401        -9.5349
  56   2.0000      -0.341852        -9.3023
  57   2.0000      -0.334787        -9.1100
  58   2.0000      -0.327414        -8.9094
  59   2.0000      -0.322252        -8.7689
  60   2.0000      -0.316090        -8.6013
  61   2.0000      -0.313464        -8.5298
  62   2.0000      -0.309808        -8.4303
  63   2.0000      -0.303756        -8.2656
  64   2.0000      -0.301842        -8.2135
  65   2.0000      -0.294621        -8.0170
  66   2.0000      -0.292904        -7.9703
  67   2.0000      -0.281364        -7.6563
  68   2.0000      -0.278795        -7.5864
  69   2.0000      -0.271204        -7.3798
  70   2.0000      -0.192760        -5.2453
  71   2.0000      -0.118652        -3.2287
  72   0.0000      -0.047767        -1.2998
  73   0.0000      -0.015647        -0.4258
  74   0.0000      -0.008588        -0.2337
  75   0.0000       0.000998         0.0271
  76   0.0000       0.001248         0.0339

MULLIKEN ATOMIC CHARGES
-----------------------
   0 C :    1.005767
   1 N :    0.449873
   2 C :    0.236617
   3 C :    0.272345
   4 H :    0.028031
   5 H :    0.028225
   6 S :    1.323782
   7 C :    0.605522
   8 N :    0.600278
   9 C :    0.481266
  10 H :    0.119448
  11 H :   -0.693770
  12 H :   -1.271858
  13 H :   -0.421146
  14 H :   -0.217463
  15 O :   -0.695558
  16 O :   -0.636505
  17 C :    0.312089
  18 H :   -0.356248
  19 H :   -0.109233
  20 C :   -0.019409
  21 C :    0.182569
  22 H :    0.042571
  23 H :   -0.491800
  24 H :   -0.090467
  25 H :    0.090811
  26 C :    0.102861
  27 H :   -0.132395
  28 H :   -0.037761
  29 C :   -0.182252
  30 H :   -0.171301
  31 H :   -0.095501
  32 C :    0.662546
  33 H :   -0.366297
  34 H :    0.175435
  35 H :    0.156346
  36 H :   -0.362056
  37 H :   -0.040184
  38 H :    0.014485
  39 F :   -0.499666
Sum of atomic charges:    0.0000000

LOEWDIN ATOMIC CHARGES
----------------------
   0 C :    0.058964
   1 N :    0.015902
   2 C :   -0.034721
   3 C :   -0.044308
   4 H :    0.031922
   5 H :    0.039183
   6 S :    1.113746
   7 C :   -0.229437
   8 N :    0.226854
   9 C :    0.159748
  10 H :   -0.118622
  11 H :   -0.107722
  12 H :   -0.067635
  13 H :   -0.129866
  14 H :    0.010112
  15 O :   -0.415780
  16 O :   -0.406593
  17 C :   -0.014562
  18 H :    0.012606
  19 H :    0.018570
  20 C :   -0.033967
  21 C :   -0.034236
  22 H :    0.042549
  23 H :   -0.013306
  24 H :    0.041057
  25 H :    0.032217
  26 C :   -0.033819
  27 H :    0.023462
  28 H :    0.014141
  29 C :   -0.042669
  30 H :    0.028792
  31 H :    0.008353
  32 C :   -0.030938
  33 H :    0.026277
  34 H :    0.002907
  35 H :    0.022526
  36 H :    0.027256
  37 H :    0.022640
  38 H :    0.025795
  39 F :   -0.247398

  Mayer bond orders larger than 0.100000
B(  0-C ,  1-N ) :   1.0404 B(  0-C , 10-H ) :   0.1187 B(  0-C , 12-H ) :  -0.5396
B(  0-C , 17-C ) :   1.0986 B(  0-C , 18-H ) :   0.6688 B(  0-C , 19-H ) :   0.8322
B(  0-C , 26-C ) :   0.1454 B(  0-C , 27-H ) :   0.1102 B(  0-C , 28-H ) :   0.1035
B(  1-N ,  7-C ) :   1.0206 B(  1-N ,  9-C ) :   0.3319 B(  1-N , 11-H ) :   0.1461
B(  1-N , 12-H ) :   0.5009 B(  1-N , 13-H ) :   0.1788 B(  1-N , 14-H ) :  -0.1344
B(  1-N , 18-H ) :   0.3032 B(  2-C ,  3-C ) :   1.2627 B(  2-C ,  5-H ) :   0.2639
B(  2-C , 20-C ) :   0.1335 B(  2-C , 21-C ) :   1.1686 B(  2-C , 22-H ) :   0.1126
B(  2-C , 24-H ) :   0.7819 B(  2-C , 25-H ) :   0.8387 B(  3-C ,  4-H ) :   0.8949
B(  3-C ,  5-H ) :   0.6850 B(  3-C ,  6-S ) :   0.9816 B(  3-C , 16-O ) :   0.1019
B(  3-C , 21-C ) :   0.1363 B(  3-C , 25-H ) :   0.1158 B(  6-S , 15-O ) :   1.4223
B(  6-S , 16-O ) :   1.4939 B(  6-S , 39-F ) :   0.6342 B(  7-C ,  8-N ) :   0.9637
B(  7-C ,  9-C ) :   1.5458 B(  7-C , 10-H ) :   0.3747 B(  7-C , 11-H ) :   0.3796
B(  7-C , 12-H ) :  -0.7387 B(  7-C , 13-H ) :  -0.2031 B(  7-C , 14-H ) :  -0.1117
B(  7-C , 18-H ) :   0.1332 B(  8-N ,  9-C ) :   0.2427 B(  8-N , 11-H ) :   0.1041
B(  8-N , 13-H ) :   0.8976 B(  8-N , 14-H ) :   1.2707 B(  9-C , 10-H ) :   0.5102
B(  9-C , 11-H ) :   0.6456 B( 10-H , 13-H ) :   0.1863 B( 10-H , 18-H ) :  -0.1201
B( 10-H , 19-H ) :   0.1346 B( 11-H , 12-H ) :  -0.1231 B( 12-H , 39-F ) :   0.2684
B( 13-H , 14-H ) :  -0.2820 B( 13-H , 15-O ) :   0.1575 B( 15-O , 16-O ) :   0.1011
B( 16-O , 39-F ) :   0.1012 B( 17-C , 18-H ) :   0.1280 B( 17-C , 26-C ) :   1.2113
B( 17-C , 27-H ) :   0.8911 B( 17-C , 28-H ) :   0.7423 B( 17-C , 31-H ) :   0.1361
B( 18-H , 19-H ) :  -0.2236 B( 20-C , 21-C ) :   1.2583 B( 20-C , 22-H ) :   0.1200
B( 20-C , 23-H ) :   0.1435 B( 20-C , 29-C ) :   0.1630 B( 20-C , 32-C ) :   1.1532
B( 20-C , 35-H ) :   0.8186 B( 20-C , 36-H ) :   0.9429 B( 20-C , 37-H ) :   0.1222
B( 20-C , 38-H ) :   0.2310 B( 21-C , 22-H ) :   0.7020 B( 21-C , 23-H ) :   0.8235
B( 21-C , 24-H ) :   0.1993 B( 21-C , 25-H ) :   0.1080 B( 21-C , 35-H ) :   0.1097
B( 21-C , 36-H ) :   0.2099 B( 22-H , 23-H ) :   0.1898 B( 23-H , 34-H ) :   0.1301
B( 26-C , 27-H ) :   0.1113 B( 26-C , 28-H ) :   0.2166 B( 26-C , 29-C ) :   1.2366
B( 26-C , 30-H ) :   0.8516 B( 26-C , 31-H ) :   0.8939 B( 26-C , 33-H ) :   0.1508
B( 26-C , 34-H ) :   0.1061 B( 27-H , 28-H ) :  -0.1345 B( 29-C , 30-H ) :   0.1694
B( 29-C , 31-H ) :   0.1263 B( 29-C , 32-C ) :   1.1480 B( 29-C , 33-H ) :   1.0282
B( 29-C , 34-H ) :   0.8057 B( 29-C , 37-H ) :   0.3035 B( 29-C , 38-H ) :   0.1440
B( 32-C , 37-H ) :   0.6327 B( 32-C , 38-H ) :   0.6700 B( 37-H , 38-H ) :  -0.1088

Dispersion correction           -0.048360153
FINAL SINGLE POINT ENERGY     -1189.151041322670

DIPOLE MOMENT
-------------
                                X             Y             Z
Electronic contribution:    -18.95166       1.91770     -17.88240
Nuclear contribution   :     18.85717      -4.60195      17.96505
                        -----------------------------------------
Total Dipole Moment    :     -0.09449      -2.68425       0.08265
                        -----------------------------------------
Magnitude (a.u.)       :      2.68718
Magnitude (Debye)      :      6.83028

Rotational constants in cm-1:     0.014436     0.012382     0.007563
Rotational constants in MHz :   432.785702   371.214592   226.743759

                             ****ORCA TERMINATED NORMALLY****
TOTAL RUN TIME: 0 days 0 hours 1 minutes 15 seconds 263 msec
