                         Program Version 5.0.0 -  RELEASE  -
|  1> !M062X D3Zero RIJCOSX def2-SVP def2/J TightSCF
|  2> *xyz -1 1
|  3> C         -0.05517        1.61942       -3.78858
|  4> C          1.22302        2.46987       -3.75691
|  5> H          1.11470        3.25807       -4.53300
|  6> H          1.23773        3.01124       -2.79216
|  7> O          2.35381        1.71203       -3.93448
|  8> H         -0.10198        1.08015       -4.71156
|  9> H         -0.91014        2.25726       -3.70441
| 10> H         -0.04403        0.92826       -2.97183
| 11> *
| 12>
| 13> %MaxCore 64000
| 14>
| 15> %pal nprocs 4
| 16> end
| 17>
| 18> %scf
| 19>   MaxIter 150
| 20> end
| 21>
| 22>
| 23>                          ****END OF INPUT****

CARTESIAN COORDINATES (ANGSTROEM)
---------------------------------
  C     -0.055170    1.619420   -3.788580
  C      1.223020    2.469870   -3.756910
  H      1.114700    3.258070   -4.533000
  H      1.237730    3.011240   -2.792160
  O      2.353810    1.712030   -3.934480
  H     -0.101980    1.080150   -4.711560
  H     -0.910140    2.257260   -3.704410
  H     -0.044030    0.928260   -2.971830

 Total Charge           Charge          ....   -1
 Multiplicity           Mult            ....    1
 Number of Electrons    NEL             ....   26
 Basis Dimension        Dim             ....   67

ORBITAL ENERGIES
----------------

  NO   OCC          E(Eh)            E(eV)
   0   2.0000     -19.237941      -523.4910
   1   2.0000     -10.338965      -281.3376
   2   2.0000     -10.327091      -281.0144
   3   2.0000      -0.735090       -20.0028
   4   2.0000      -0.592103       -16.1120
   5   2.0000      -0.427394       -11.6300
   6   2.0000      -0.302560        -8.2331
   7   2.0000      -0.278013        -7.5651
   8   2.0000      -0.217669        -5.9231
   9   2.0000      -0.201425        -5.4810
  10   2.0000      -0.134628        -3.6634
  11   2.0000       0.011231         0.3056
  12   2.0000       0.012437         0.3384
  13   0.0000       0.291938         7.9440
  14   0.0000       0.337014         9.1706
  15   0.0000       0.349745         9.5171
  16   0.0000       0.357992         9.7415
  17   0.0000       0.399858        10.8807

MULLIKEN ATOMIC CHARGES
-----------------------
   0 C :   -0.021890
   1 C :    0.238401
   2 H :   -0.151927
   3 H :   -0.149877
   4 O :   -0.751152
   5 H :   -0.035909
   6 H :   -0.091441
   7 H :   -0.036206
Sum of atomic charges:   -1.0000000

LOEWDIN ATOMIC CHARGES
----------------------
   0 C :   -0.116408
   1 C :    0.012333
   2 H :   -0.078247
   3 H :   -0.075943
   4 O :   -0.693731
   5 H :   -0.008907
   6 H :   -0.030008
   7 H :   -0.009089

  Mayer bond orders larger than 0.100000
B(  0-C ,  1-C ) :   1.0008 B(  0-C ,  5-H ) :   0.9639 B(  0-C ,  6-H ) :   0.9334
B(  0-C ,  7-H ) :   0.9657 B(  1-C ,  2-H ) :   0.8830 B(  1-C ,  3-H ) :   0.8846
B(  1-C ,  4-O ) :   1.4645

Dispersion correction           -0.000014732
FINAL SINGLE POINT ENERGY      -154.192876246691

DIPOLE MOMENT
-------------
                                X             Y             Z
Electronic contribution:      2.98077      -0.69903      -0.28046
Nuclear contribution   :     -4.28298       0.81046       0.39340
                        -----------------------------------------
Total Dipole Moment    :     -1.30221       0.11144       0.11294
                        -----------------------------------------
Magnitude (a.u.)       :      1.31184
Magnitude (Debye)      :      3.33443

Rotational constants in cm-1:     1.266793     0.328147     0.288309
Rotational constants in MHz : 37977.512300  9837.594308  8643.275638

                             ****ORCA TERMINATED NORMALLY****
TOTAL RUN TIME: 0 days 0 hours 0 minutes 8 seconds 684 msec
