                         Program Version 5.0.0 -  RELEASE  -
|  1> !M062X D3Zero RIJCOSX def2-SVP def2/J TightSCF
|  2> *xyz 1 1
|  3> C          1.63556       -1.67040       -5.29211
|  4> C          0.33848       -1.50091       -4.50540
|  5> N          2.48451       -0.50741       -5.14039
|  6> H          1.39834       -1.82924       -6.35259
|  7> H          2.15586       -2.56540       -4.93209
|  8> C          3.45115       -0.14953       -5.95259
|  9> N          3.92267        1.08956       -5.85071
| 10> N          3.96616       -1.00618       -6.86788
| 11> H          3.52139       -1.90647       -6.99527
| 12> H          4.44482       -0.62347       -7.67035
| 13> H          2.25200        0.24080       -4.49879
| 14> H          3.46428        1.64078       -5.13639
| 15> H          4.83447        1.31375       -6.22465
| 16> H         -0.17658       -0.62881       -4.85045
| 17> H          0.56384       -1.39374       -3.46490
| 18> H         -0.28102       -2.36136       -4.64938
| 19> *
| 20>
| 21> %MaxCore 64000
| 22>
| 23> %pal nprocs 4
| 24> end
| 25>
| 26> %scf
| 27>   MaxIter 150
| 28> end
| 29>
| 30>
| 31>                          ****END OF INPUT****

CARTESIAN COORDINATES (ANGSTROEM)
---------------------------------
  C      1.635560   -1.670400   -5.292110
  C      0.338480   -1.500910   -4.505400
  N      2.484510   -0.507410   -5.140390
  H      1.398340   -1.829240   -6.352590
  H      2.155860   -2.565400   -4.932090
  C      3.451150   -0.149530   -5.952590
  N      3.922670    1.089560   -5.850710
  N      3.966160   -1.006180   -6.867880
  H      3.521390   -1.906470   -6.995270
  H      4.444820   -0.623470   -7.670350
  H      2.252000    0.240800   -4.498790
  H      3.464280    1.640780   -5.136390
  H      4.834470    1.313750   -6.224650
  H     -0.176580   -0.628810   -4.850450
  H      0.563840   -1.393740   -3.464900
  H     -0.281020   -2.361360   -4.649380

 Total Charge           Charge          ....    1
 Multiplicity           Mult            ....    1
 Number of Electrons    NEL             ....   48
 Basis Dimension        Dim             ....  134

ORBITAL ENERGIES
----------------

  NO   OCC          E(Eh)            E(eV)
   0   2.0000     -14.987827      -407.8395
   1   2.0000     -14.983622      -407.7251
   2   2.0000     -14.981140      -407.6575
   3   2.0000     -10.887917      -296.2753
   4   2.0000     -10.760366      -292.8044
   5   2.0000     -10.689983      -290.8892
   6   2.0000      -1.321987       -35.9731
   7   2.0000      -1.200192       -32.6589
   8   2.0000      -1.184461       -32.2308
   9   2.0000      -1.023219       -27.8432
  10   2.0000      -0.910014       -24.7627
  11   2.0000      -0.893430       -24.3115
  12   2.0000      -0.852833       -23.2068
  13   2.0000      -0.819224       -22.2922
  14   2.0000      -0.758222       -20.6323
  15   2.0000      -0.754644       -20.5349
  16   2.0000      -0.736455       -20.0400
  17   2.0000      -0.709995       -19.3199
  18   2.0000      -0.673049       -18.3146
  19   2.0000      -0.609826       -16.5942
  20   2.0000      -0.592570       -16.1247
  21   2.0000      -0.583754       -15.8848
  22   2.0000      -0.539761       -14.6876
  23   2.0000      -0.512833       -13.9549
  24   0.0000      -0.119018        -3.2386
  25   0.0000      -0.103750        -2.8232
  26   0.0000      -0.068700        -1.8694
  27   0.0000      -0.050612        -1.3772
  28   0.0000      -0.027870        -0.7584

MULLIKEN ATOMIC CHARGES
-----------------------
   0 C :   -0.013609
   1 C :   -0.077360
   2 N :   -0.166952
   3 H :    0.084283
   4 H :    0.098980
   5 C :    0.093889
   6 N :   -0.075532
   7 N :   -0.106694
   8 H :    0.185979
   9 H :    0.189912
  10 H :    0.173911
  11 H :    0.180775
  12 H :    0.197282
  13 H :    0.069053
  14 H :    0.074243
  15 H :    0.091839
Sum of atomic charges:    1.0000000

LOEWDIN ATOMIC CHARGES
----------------------
   0 C :    0.031635
   1 C :   -0.041779
   2 N :    0.020985
   3 H :    0.036817
   4 H :    0.042663
   5 C :    0.161542
   6 N :    0.034871
   7 N :    0.022999
   8 H :    0.110901
   9 H :    0.114484
  10 H :    0.105538
  11 H :    0.110887
  12 H :    0.118507
  13 H :    0.036269
  14 H :    0.038945
  15 H :    0.054738

  Mayer bond orders larger than 0.100000
B(  0-C ,  1-C ) :   1.0980 B(  0-C ,  2-N ) :   0.8934 B(  0-C ,  3-H ) :   0.9499
B(  0-C ,  4-H ) :   0.9472 B(  1-C , 13-H ) :   0.9739 B(  1-C , 14-H ) :   0.9702
B(  1-C , 15-H ) :   0.9610 B(  2-N ,  5-C ) :   1.3993 B(  2-N , 10-H ) :   0.9007
B(  5-C ,  6-N ) :   1.3965 B(  5-C ,  7-N ) :   1.3815 B(  6-N , 11-H ) :   0.9149
B(  6-N , 12-H ) :   0.9174 B(  7-N ,  8-H ) :   0.9178 B(  7-N ,  9-H ) :   0.9208

Dispersion correction           -0.000319194
FINAL SINGLE POINT ENERGY      -284.042516156900

DIPOLE MOMENT
-------------
                                X             Y             Z
Electronic contribution:      4.74851       2.52432      -1.73219
Nuclear contribution   :     -3.96322      -1.85512       1.24891
                        -----------------------------------------
Total Dipole Moment    :      0.78529       0.66921      -0.48328
                        -----------------------------------------
Magnitude (a.u.)       :      1.13934
Magnitude (Debye)      :      2.89597

Rotational constants in cm-1:     0.261404     0.067000     0.054949
Rotational constants in MHz :  7836.702504  2008.609425  1647.329138

                             ****ORCA TERMINATED NORMALLY****
TOTAL RUN TIME: 0 days 0 hours 0 minutes 17 seconds 579 msec
