                         Program Version 5.0.0 -  RELEASE  -
|  1> !M062X D3Zero RIJCOSX def2-TZVP def2/J TightSCF xyzfile
|  2>
|  3> *xyzfile 0 1 B.xyz
|  4>
|  5> %MaxCore 64000
|  6>
|  7> %pal nprocs 18
|  8> end
|  9>
| 10> %scf
| 11>   MaxIter 150
| 12> end
| 13>
| 14>
| 15>                          ****END OF INPUT****

CARTESIAN COORDINATES (ANGSTROEM)
---------------------------------
  C      1.635557   -1.670396   -5.292109
  C      0.338484   -1.500907   -4.505398
  N      2.484511   -0.507410   -5.140392
  C     -0.684873   -0.528026   -5.099889
  C     -0.290406    0.951335   -5.153423
  H      0.607991    1.070692   -5.764412
  C     -0.055168    1.619420   -3.788577
  H     -1.080912    1.483775   -5.689436
  H      0.045006    0.862302   -3.003015
  H     -0.922936    2.230329   -3.517028
  C      1.223022    2.469865   -3.756911
  H      1.114701    3.258074   -4.532999
  H      1.237732    3.011242   -2.792157
  O      2.353815    1.712032   -3.934477
  H      1.398337   -1.829239   -6.352591
  H      2.155864   -2.565398   -4.932091
  C      3.451149   -0.149530   -5.952589
  N      3.922667    1.089559   -5.850711
  N      3.966162   -1.006183   -6.867880
  H      3.521391   -1.906467   -6.995270
  H      4.444824   -0.623472   -7.670348
  H      2.251995    0.240804   -4.498792
  H      3.464277    1.640782   -5.136392
  H      4.834470    1.313745   -6.224653
  H     -0.937999   -0.869056   -6.110838
  H     -1.604638   -0.622496   -4.513132
  H      0.594887   -1.211578   -3.482312
  H     -0.126530   -2.487656   -4.434176

 Total Charge           Charge          ....    0
 Multiplicity           Mult            ....    1
 Number of Electrons    NEL             ....   88
 Basis Dimension        Dim             ....  443

ORBITAL ENERGIES
----------------

  NO   OCC          E(Eh)            E(eV)
   0   2.0000     -19.488619      -530.3123
   1   2.0000     -14.805742      -402.8847
   2   2.0000     -14.763896      -401.7460
   3   2.0000     -14.761403      -401.6782
   4   2.0000     -10.686708      -290.8001
   5   2.0000     -10.588177      -288.1190
   6   2.0000     -10.537937      -286.7518
   7   2.0000     -10.524481      -286.3857
   8   2.0000     -10.510773      -286.0127
   9   2.0000     -10.505661      -285.8736
  10   2.0000     -10.486653      -285.3563
  11   2.0000      -1.145408       -31.1681
  12   2.0000      -1.034188       -28.1417
  13   2.0000      -1.012894       -27.5623
  14   2.0000      -0.996496       -27.1160
  15   2.0000      -0.898497       -24.4494
  16   2.0000      -0.841735       -22.9048
  17   2.0000      -0.782276       -21.2868
  18   2.0000      -0.738922       -20.1071
  19   2.0000      -0.710936       -19.3456
  20   2.0000      -0.676771       -18.4159
  21   2.0000      -0.659281       -17.9400
  22   2.0000      -0.638951       -17.3867
  23   2.0000      -0.607427       -16.5289
  24   2.0000      -0.578921       -15.7532
  25   2.0000      -0.569339       -15.4925
  26   2.0000      -0.561271       -15.2730
  27   2.0000      -0.546550       -14.8724
  28   2.0000      -0.510641       -13.8952
  29   2.0000      -0.494623       -13.4594
  30   2.0000      -0.482052       -13.1173
  31   2.0000      -0.477889       -13.0040
  32   2.0000      -0.449939       -12.2435
  33   2.0000      -0.429999       -11.7009
  34   2.0000      -0.421672       -11.4743
  35   2.0000      -0.399647       -10.8749
  36   2.0000      -0.382624       -10.4117
  37   2.0000      -0.375173       -10.2090
  38   2.0000      -0.364556        -9.9201
  39   2.0000      -0.355720        -9.6796
  40   2.0000      -0.351053        -9.5526
  41   2.0000      -0.322435        -8.7739
  42   2.0000      -0.243334        -6.6215
  43   2.0000      -0.238024        -6.4770
  44   0.0000       0.025875         0.7041
  45   0.0000       0.050678         1.3790
  46   0.0000       0.059302         1.6137
  47   0.0000       0.077497         2.1088
  48   0.0000       0.097000         2.6395

MULLIKEN ATOMIC CHARGES
-----------------------
   0 C :   -0.208220
   1 C :   -0.343510
   2 N :   -0.286666
   3 C :   -0.270580
   4 C :   -0.324649
   5 H :    0.145966
   6 C :   -0.222593
   7 H :    0.131301
   8 H :    0.111588
   9 H :    0.111502
  10 C :   -0.022032
  11 H :    0.067267
  12 H :    0.074365
  13 O :   -0.782312
  14 H :    0.143950
  15 H :    0.156280
  16 C :    0.561991
  17 N :   -0.518793
  18 N :   -0.554189
  19 H :    0.275089
  20 H :    0.264592
  21 H :    0.306033
  22 H :    0.327465
  23 H :    0.243767
  24 H :    0.134266
  25 H :    0.148283
  26 H :    0.184191
  27 H :    0.145649
Sum of atomic charges:   -0.0000000

LOEWDIN ATOMIC CHARGES
----------------------
   0 C :   -0.287873
   1 C :   -0.269688
   2 N :    0.170024
   3 C :   -0.277111
   4 C :   -0.278149
   5 H :    0.137355
   6 C :   -0.289018
   7 H :    0.133965
   8 H :    0.129671
   9 H :    0.128181
  10 C :   -0.471039
  11 H :    0.096819
  12 H :    0.102761
  13 O :   -0.319872
  14 H :    0.130844
  15 H :    0.132889
  16 C :   -0.422320
  17 N :    0.033448
  18 N :   -0.004123
  19 H :    0.179667
  20 H :    0.179000
  21 H :    0.166398
  22 H :    0.162227
  23 H :    0.171824
  24 H :    0.134224
  25 H :    0.141455
  26 H :    0.145718
  27 H :    0.142724

  Mayer bond orders larger than 0.100000
B(  0-C ,  1-C ) :   0.9524 B(  0-C ,  2-N ) :   0.8797 B(  0-C , 14-H ) :   0.9652
B(  0-C , 15-H ) :   0.9555 B(  1-C ,  3-C ) :   0.9216 B(  1-C , 26-H ) :   0.9798
B(  1-C , 27-H ) :   0.9811 B(  2-N , 16-C ) :   1.4558 B(  2-N , 21-H ) :   0.7190
B(  3-C ,  4-C ) :   0.9143 B(  3-C , 24-H ) :   0.9866 B(  3-C , 25-H ) :   0.9833
B(  4-C ,  5-H ) :   0.9783 B(  4-C ,  6-C ) :   0.8895 B(  4-C ,  7-H ) :   0.9817
B(  6-C ,  8-H ) :   0.9839 B(  6-C ,  9-H ) :   0.9657 B(  6-C , 10-C ) :   0.9236
B( 10-C , 11-H ) :   0.9794 B( 10-C , 12-H ) :   0.9691 B( 10-C , 13-O ) :   1.1139
B( 13-O , 21-H ) :   0.2505 B( 13-O , 22-H ) :   0.2073 B( 16-C , 17-N ) :   1.3341
B( 16-C , 18-N ) :   1.1539 B( 17-N , 22-H ) :   0.7466 B( 17-N , 23-H ) :   0.9210
B( 18-N , 19-H ) :   0.9124 B( 18-N , 20-H ) :   0.9132

Dispersion correction           -0.001334595
FINAL SINGLE POINT ENERGY      -516.408064124597

DIPOLE MOMENT
-------------
                                X             Y             Z
Electronic contribution:      8.37295      -0.92722      -2.27159
Nuclear contribution   :     -7.46499      -1.05836       0.01518
                        -----------------------------------------
Total Dipole Moment    :      0.90796      -1.98558      -2.25641
                        -----------------------------------------
Magnitude (a.u.)       :      3.13980
Magnitude (Debye)      :      7.98073

Rotational constants in cm-1:     0.044680     0.028958     0.019773
Rotational constants in MHz :  1339.486245   868.136755   592.791310

                             ****ORCA TERMINATED NORMALLY****
TOTAL RUN TIME: 0 days 0 hours 0 minutes 52 seconds 495 msec
