                         Program Version 5.0.0 -  RELEASE  -
|  1> !M062X D3Zero RIJCOSX def2-SVP def2/J TightSCF
|  2> *xyz 0 1
|  3> C         -0.05517        1.61942       -3.78858
|  4> C          1.22302        2.46987       -3.75691
|  5> H          1.11470        3.25807       -4.53300
|  6> H          1.23773        3.01124       -2.79216
|  7> F          2.35381        1.71203       -3.93448
|  8> H         -0.10198        1.08015       -4.71156
|  9> H         -0.91014        2.25726       -3.70441
| 10> H         -0.04403        0.92826       -2.97183
| 11> *
| 12>
| 13> %MaxCore 64000
| 14>
| 15> %pal nprocs 4
| 16> end
| 17>
| 18> %scf
| 19>   MaxIter 150
| 20> end
| 21>
| 22>
| 23>                          ****END OF INPUT****

CARTESIAN COORDINATES (ANGSTROEM)
---------------------------------
  C     -0.055170    1.619420   -3.788580
  C      1.223020    2.469870   -3.756910
  H      1.114700    3.258070   -4.533000
  H      1.237730    3.011240   -2.792160
  F      2.353810    1.712030   -3.934480
  H     -0.101980    1.080150   -4.711560
  H     -0.910140    2.257260   -3.704410
  H     -0.044030    0.928260   -2.971830

 Total Charge           Charge          ....    0
 Multiplicity           Mult            ....    1
 Number of Electrons    NEL             ....   26
 Basis Dimension        Dim             ....   67

ORBITAL ENERGIES
----------------

  NO   OCC          E(Eh)            E(eV)
   0   2.0000     -25.223205      -686.3583
   1   2.0000     -10.625332      -289.1300
   2   2.0000     -10.544326      -286.9257
   3   2.0000      -1.304487       -35.4969
   4   2.0000      -0.851248       -23.1636
   5   2.0000      -0.709725       -19.3126
   6   2.0000      -0.580182       -15.7876
   7   2.0000      -0.573364       -15.6020
   8   2.0000      -0.534361       -14.5407
   9   2.0000      -0.475186       -12.9305
  10   2.0000      -0.464434       -12.6379
  11   2.0000      -0.400271       -10.8919
  12   2.0000      -0.395384       -10.7590
  13   0.0000       0.103865         2.8263
  14   0.0000       0.150621         4.0986
  15   0.0000       0.157623         4.2891
  16   0.0000       0.176297         4.7973
  17   0.0000       0.194350         5.2885

MULLIKEN ATOMIC CHARGES
-----------------------
   0 C :   -0.115302
   1 C :    0.200306
   2 H :    0.032098
   3 H :    0.030870
   4 F :   -0.289762
   5 H :    0.051609
   6 H :    0.039470
   7 H :    0.050710
Sum of atomic charges:    0.0000000

LOEWDIN ATOMIC CHARGES
----------------------
   0 C :   -0.079527
   1 C :    0.113698
   2 H :    0.013390
   3 H :    0.012701
   4 F :   -0.149011
   5 H :    0.028859
   6 H :    0.031919
   7 H :    0.027972

  Mayer bond orders larger than 0.100000
B(  0-C ,  1-C ) :   1.0908 B(  0-C ,  5-H ) :   0.9718 B(  0-C ,  6-H ) :   0.9640
B(  0-C ,  7-H ) :   0.9727 B(  1-C ,  2-H ) :   0.9622 B(  1-C ,  3-H ) :   0.9622
B(  1-C ,  4-F ) :   0.9640

Dispersion correction           -0.000018707
FINAL SINGLE POINT ENERGY      -178.834198413323

DIPOLE MOMENT
-------------
                                X             Y             Z
Electronic contribution:      5.04066      -0.73299      -0.43202
Nuclear contribution   :     -5.66833       1.07099       0.52006
                        -----------------------------------------
Total Dipole Moment    :     -0.62767       0.33800       0.08805
                        -----------------------------------------
Magnitude (a.u.)       :      0.71831
Magnitude (Debye)      :      1.82580

Rotational constants in cm-1:     1.245689     0.305293     0.269541
Rotational constants in MHz : 37344.801915  9152.442838  8080.640229

                             ****ORCA TERMINATED NORMALLY****
TOTAL RUN TIME: 0 days 0 hours 0 minutes 8 seconds 81 msec
