                         Program Version 5.0.0 -  RELEASE  -
|  1> !M062X D3Zero RIJCOSX def2-SVP def2/J TightSCF
|  2> *xyz 0 1
|  3> C          1.63556       -1.67040       -5.29211
|  4> C          0.33848       -1.50091       -4.50540
|  5> C          2.48451       -0.50741       -5.14039
|  6> H          1.39834       -1.82924       -6.35259
|  7> H          2.15586       -2.56540       -4.93209
|  8> C          3.45115       -0.14953       -5.95259
|  9> N          3.92267        1.08956       -5.85071
| 10> N          3.96616       -1.00618       -6.86788
| 11> H          3.52139       -1.90647       -6.99527
| 12> H          4.44482       -0.62347       -7.67035
| 13> H          2.25200        0.24080       -4.49879
| 14> H          3.46428        1.64078       -5.13639
| 15> H          4.83447        1.31375       -6.22465
| 16> H         -0.17658       -0.62881       -4.85045
| 17> H          0.56384       -1.39374       -3.46490
| 18> H         -0.28102       -2.36136       -4.64938
| 19> *
| 20>
| 21> %MaxCore 64000
| 22>
| 23> %pal nprocs 4
| 24> end
| 25>
| 26> %scf
| 27>   MaxIter 150
| 28> end
| 29>
| 30>
| 31>                          ****END OF INPUT****

CARTESIAN COORDINATES (ANGSTROEM)
---------------------------------
  C      1.635560   -1.670400   -5.292110
  C      0.338480   -1.500910   -4.505400
  C      2.484510   -0.507410   -5.140390
  H      1.398340   -1.829240   -6.352590
  H      2.155860   -2.565400   -4.932090
  C      3.451150   -0.149530   -5.952590
  N      3.922670    1.089560   -5.850710
  N      3.966160   -1.006180   -6.867880
  H      3.521390   -1.906470   -6.995270
  H      4.444820   -0.623470   -7.670350
  H      2.252000    0.240800   -4.498790
  H      3.464280    1.640780   -5.136390
  H      4.834470    1.313750   -6.224650
  H     -0.176580   -0.628810   -4.850450
  H      0.563840   -1.393740   -3.464900
  H     -0.281020   -2.361360   -4.649380

 Total Charge           Charge          ....    0
 Multiplicity           Mult            ....    1
 Number of Electrons    NEL             ....   48
 Basis Dimension        Dim             ....  134

ORBITAL ENERGIES
----------------

  NO   OCC          E(Eh)            E(eV)
   0   2.0000     -14.752767      -401.4432
   1   2.0000     -14.747838      -401.3091
   2   2.0000     -10.583992      -288.0051
   3   2.0000     -10.522279      -286.3258
   4   2.0000     -10.516193      -286.1602
   5   2.0000     -10.464493      -284.7533
   6   2.0000      -1.048911       -28.5423
   7   2.0000      -0.953560       -25.9477
   8   2.0000      -0.859975       -23.4011
   9   2.0000      -0.775839       -21.1117
  10   2.0000      -0.683661       -18.6034
  11   2.0000      -0.649223       -17.6662
  12   2.0000      -0.600397       -16.3376
  13   2.0000      -0.578257       -15.7352
  14   2.0000      -0.526889       -14.3374
  15   2.0000      -0.505126       -13.7452
  16   2.0000      -0.489265       -13.3136
  17   2.0000      -0.458533       -12.4773
  18   2.0000      -0.439947       -11.9716
  19   2.0000      -0.397913       -10.8278
  20   2.0000      -0.387056       -10.5323
  21   2.0000      -0.385063       -10.4781
  22   2.0000      -0.320692        -8.7265
  23   2.0000      -0.205561        -5.5936
  24   0.0000       0.087120         2.3706
  25   0.0000       0.116749         3.1769
  26   0.0000       0.130602         3.5539
  27   0.0000       0.134681         3.6649
  28   0.0000       0.145324         3.9545

MULLIKEN ATOMIC CHARGES
-----------------------
   0 C :   -0.039333
   1 C :   -0.033824
   2 C :   -0.127527
   3 H :    0.013473
   4 H :    0.023992
   5 C :   -0.066454
   6 N :   -0.114293
   7 N :   -0.150230
   8 H :    0.135014
   9 H :    0.119926
  10 H :   -0.091981
  11 H :    0.135263
  12 H :    0.121171
  13 H :    0.026144
  14 H :    0.029383
  15 H :    0.019278
Sum of atomic charges:   -0.0000000

LOEWDIN ATOMIC CHARGES
----------------------
   0 C :   -0.049666
   1 C :   -0.050227
   2 C :   -0.226964
   3 H :    0.010683
   4 H :    0.014300
   5 C :    0.034382
   6 N :   -0.039919
   7 N :   -0.046907
   8 H :    0.081484
   9 H :    0.067337
  10 H :   -0.009147
  11 H :    0.086243
  12 H :    0.068579
  13 H :    0.020006
  14 H :    0.021624
  15 H :    0.018192

  Mayer bond orders larger than 0.100000
B(  0-C ,  1-C ) :   1.1025 B(  0-C ,  2-C ) :   1.0228 B(  0-C ,  3-H ) :   0.9482
B(  0-C ,  4-H ) :   0.9303 B(  1-C , 13-H ) :   0.9779 B(  1-C , 14-H ) :   0.9722
B(  1-C , 15-H ) :   0.9696 B(  2-C ,  5-C ) :   1.7084 B(  2-C , 10-H ) :   0.9348
B(  5-C ,  6-N ) :   1.2447 B(  5-C ,  7-N ) :   1.2380 B(  6-N , 11-H ) :   0.9271
B(  6-N , 12-H ) :   0.9405 B(  7-N ,  8-H ) :   0.9340 B(  7-N ,  9-H ) :   0.9418

Dispersion correction           -0.000317474
FINAL SINGLE POINT ENERGY      -267.574657252851

DIPOLE MOMENT
-------------
                                X             Y             Z
Electronic contribution:      4.63515       2.22002      -1.98482
Nuclear contribution   :     -3.99655      -1.83277       1.34879
                        -----------------------------------------
Total Dipole Moment    :      0.63860       0.38725      -0.63604
                        -----------------------------------------
Magnitude (a.u.)       :      0.98098
Magnitude (Debye)      :      2.49345

Rotational constants in cm-1:     0.262971     0.067064     0.055026
Rotational constants in MHz :  7883.664566  2010.513309  1649.636654

                             ****ORCA TERMINATED NORMALLY****
TOTAL RUN TIME: 0 days 0 hours 0 minutes 17 seconds 615 msec
