                         Program Version 5.0.0 -  RELEASE  -
|  1> !M062X D3Zero RIJCOSX def2-SVP def2/J TightSCF
|  2> *xyz 0 1
|  3> C          1.63556       -1.67040       -5.29211
|  4> C          0.33848       -1.50091       -4.50540
|  5> N          2.48451       -0.50741       -5.14039
|  6> H          1.39834       -1.82924       -6.35259
|  7> H          2.15586       -2.56540       -4.93209
|  8> C          3.45115       -0.14953       -5.95259
|  9> C          3.92267        1.08956       -5.85071
| 10> N          3.96616       -1.00618       -6.86788
| 11> H          3.52139       -1.90647       -6.99527
| 12> H          4.44482       -0.62347       -7.67035
| 13> H          2.25200        0.24080       -4.49879
| 14> H          3.46428        1.64078       -5.13639
| 15> H          4.83447        1.31375       -6.22465
| 16> H         -0.17658       -0.62881       -4.85045
| 17> H          0.56384       -1.39374       -3.46490
| 18> H         -0.28102       -2.36136       -4.64938
| 19> *
| 20>
| 21> %MaxCore 64000
| 22>
| 23> %pal nprocs 4
| 24> end
| 25>
| 26> %scf
| 27>   MaxIter 150
| 28> end
| 29>
| 30>
| 31>                          ****END OF INPUT****

CARTESIAN COORDINATES (ANGSTROEM)
---------------------------------
  C      1.635560   -1.670400   -5.292110
  C      0.338480   -1.500910   -4.505400
  N      2.484510   -0.507410   -5.140390
  H      1.398340   -1.829240   -6.352590
  H      2.155860   -2.565400   -4.932090
  C      3.451150   -0.149530   -5.952590
  C      3.922670    1.089560   -5.850710
  N      3.966160   -1.006180   -6.867880
  H      3.521390   -1.906470   -6.995270
  H      4.444820   -0.623470   -7.670350
  H      2.252000    0.240800   -4.498790
  H      3.464280    1.640780   -5.136390
  H      4.834470    1.313750   -6.224650
  H     -0.176580   -0.628810   -4.850450
  H      0.563840   -1.393740   -3.464900
  H     -0.281020   -2.361360   -4.649380

 Total Charge           Charge          ....    0
 Multiplicity           Mult            ....    1
 Number of Electrons    NEL             ....   48
 Basis Dimension        Dim             ....  134

ORBITAL ENERGIES
----------------

  NO   OCC          E(Eh)            E(eV)
   0   2.0000     -14.753480      -401.4626
   1   2.0000     -14.751070      -401.3970
   2   2.0000     -10.591360      -288.2055
   3   2.0000     -10.588233      -288.1205
   4   2.0000     -10.550883      -287.1041
   5   2.0000     -10.454473      -284.4807
   6   2.0000      -1.063521       -28.9399
   7   2.0000      -0.968867       -26.3642
   8   2.0000      -0.863862       -23.5069
   9   2.0000      -0.781884       -21.2761
  10   2.0000      -0.703787       -19.1510
  11   2.0000      -0.667427       -18.1616
  12   2.0000      -0.601825       -16.3765
  13   2.0000      -0.562931       -15.3181
  14   2.0000      -0.550119       -14.9695
  15   2.0000      -0.525822       -14.3083
  16   2.0000      -0.482708       -13.1352
  17   2.0000      -0.461256       -12.5514
  18   2.0000      -0.439170       -11.9504
  19   2.0000      -0.435273       -11.8444
  20   2.0000      -0.433910       -11.8073
  21   2.0000      -0.410298       -11.1648
  22   2.0000      -0.313887        -8.5413
  23   2.0000      -0.204332        -5.5602
  24   0.0000       0.087583         2.3832
  25   0.0000       0.108744         2.9591
  26   0.0000       0.116379         3.1668
  27   0.0000       0.131959         3.5908
  28   0.0000       0.151172         4.1136

MULLIKEN ATOMIC CHARGES
-----------------------
   0 C :    0.039429
   1 C :   -0.076120
   2 N :   -0.197674
   3 H :    0.035662
   4 H :    0.040830
   5 C :   -0.027414
   6 C :   -0.102347
   7 N :   -0.161040
   8 H :    0.118683
   9 H :    0.141465
  10 H :    0.139723
  11 H :   -0.055752
  12 H :   -0.033540
  13 H :    0.047606
  14 H :    0.046050
  15 H :    0.044440
Sum of atomic charges:   -0.0000000

LOEWDIN ATOMIC CHARGES
----------------------
   0 C :    0.026470
   1 C :   -0.056875
   2 N :   -0.044589
   3 H :    0.015096
   4 H :    0.015080
   5 C :    0.045200
   6 C :   -0.263372
   7 N :   -0.044685
   8 H :    0.066311
   9 H :    0.085043
  10 H :    0.087325
  11 H :   -0.010379
  12 H :   -0.005952
  13 H :    0.026935
  14 H :    0.026598
  15 H :    0.031795

  Mayer bond orders larger than 0.100000
B(  0-C ,  1-C ) :   1.1047 B(  0-C ,  2-N ) :   0.9744 B(  0-C ,  3-H ) :   0.9467
B(  0-C ,  4-H ) :   0.9482 B(  1-C , 13-H ) :   0.9743 B(  1-C , 14-H ) :   0.9720
B(  1-C , 15-H ) :   0.9680 B(  2-N ,  5-C ) :   1.2170 B(  2-N , 10-H ) :   0.9171
B(  5-C ,  6-C ) :   1.7557 B(  5-C ,  7-N ) :   1.2044 B(  6-C , 11-H ) :   0.9223
B(  6-C , 12-H ) :   0.9503 B(  7-N ,  8-H ) :   0.9481 B(  7-N ,  9-H ) :   0.9443

Dispersion correction           -0.000314600
FINAL SINGLE POINT ENERGY      -267.564695170996

DIPOLE MOMENT
-------------
                                X             Y             Z
Electronic contribution:      2.96333       0.53941      -1.32825
Nuclear contribution   :     -3.69145      -1.49398       1.19810
                        -----------------------------------------
Total Dipole Moment    :     -0.72812      -0.95458      -0.13015
                        -----------------------------------------
Magnitude (a.u.)       :      1.20761
Magnitude (Debye)      :      3.06949

Rotational constants in cm-1:     0.270790     0.068966     0.056679
Rotational constants in MHz :  8118.084803  2067.559423  1699.196934

                             ****ORCA TERMINATED NORMALLY****
TOTAL RUN TIME: 0 days 0 hours 0 minutes 18 seconds 267 msec
