                         Program Version 5.0.0 -  RELEASE  -
|  1> !M062X D3Zero RIJCOSX def2-SVP def2/J TightSCF
|  2> *xyz 0 1
|  3> C          1.63556       -1.67040       -5.29211
|  4> C          0.33848       -1.50091       -4.50540
|  5> N          2.48451       -0.50741       -5.14039
|  6> H          1.39834       -1.82924       -6.35259
|  7> H          2.15586       -2.56540       -4.93209
|  8> C          3.45115       -0.14953       -5.95259
|  9> N          3.92267        1.08956       -5.85071
| 10> C          3.96616       -1.00618       -6.86788
| 11> H          3.52139       -1.90647       -6.99527
| 12> H          4.44482       -0.62347       -7.67035
| 13> H          2.25200        0.24080       -4.49879
| 14> H          3.46428        1.64078       -5.13639
| 15> H          4.83447        1.31375       -6.22465
| 16> H         -0.17658       -0.62881       -4.85045
| 17> H          0.56384       -1.39374       -3.46490
| 18> H         -0.28102       -2.36136       -4.64938
| 19> *
| 20>
| 21> %MaxCore 64000
| 22>
| 23> %pal nprocs 4
| 24> end
| 25>
| 26> %scf
| 27>   MaxIter 150
| 28> end
| 29>
| 30>
| 31>                          ****END OF INPUT****

CARTESIAN COORDINATES (ANGSTROEM)
---------------------------------
  C      1.635560   -1.670400   -5.292110
  C      0.338480   -1.500910   -4.505400
  N      2.484510   -0.507410   -5.140390
  H      1.398340   -1.829240   -6.352590
  H      2.155860   -2.565400   -4.932090
  C      3.451150   -0.149530   -5.952590
  N      3.922670    1.089560   -5.850710
  C      3.966160   -1.006180   -6.867880
  H      3.521390   -1.906470   -6.995270
  H      4.444820   -0.623470   -7.670350
  H      2.252000    0.240800   -4.498790
  H      3.464280    1.640780   -5.136390
  H      4.834470    1.313750   -6.224650
  H     -0.176580   -0.628810   -4.850450
  H      0.563840   -1.393740   -3.464900
  H     -0.281020   -2.361360   -4.649380

 Total Charge           Charge          ....    0
 Multiplicity           Mult            ....    1
 Number of Electrons    NEL             ....   48
 Basis Dimension        Dim             ....  134

ORBITAL ENERGIES
----------------

  NO   OCC          E(Eh)            E(eV)
   0   2.0000     -14.759502      -401.6265
   1   2.0000     -14.753615      -401.4663
   2   2.0000     -10.589875      -288.1651
   3   2.0000     -10.583366      -287.9880
   4   2.0000     -10.546605      -286.9877
   5   2.0000     -10.454727      -284.4876
   6   2.0000      -1.072002       -29.1707
   7   2.0000      -0.974532       -26.5184
   8   2.0000      -0.848814       -23.0974
   9   2.0000      -0.780706       -21.2441
  10   2.0000      -0.721261       -19.6265
  11   2.0000      -0.637903       -17.3582
  12   2.0000      -0.603019       -16.4090
  13   2.0000      -0.590680       -16.0732
  14   2.0000      -0.543590       -14.7918
  15   2.0000      -0.531047       -14.4505
  16   2.0000      -0.465968       -12.6796
  17   2.0000      -0.457254       -12.4425
  18   2.0000      -0.451318       -12.2810
  19   2.0000      -0.428941       -11.6721
  20   2.0000      -0.420437       -11.4407
  21   2.0000      -0.410353       -11.1663
  22   2.0000      -0.308000        -8.3811
  23   2.0000      -0.206387        -5.6161
  24   0.0000       0.080728         2.1967
  25   0.0000       0.105261         2.8643
  26   0.0000       0.125769         3.4223
  27   0.0000       0.138421         3.7666
  28   0.0000       0.158291         4.3073

MULLIKEN ATOMIC CHARGES
-----------------------
   0 C :    0.062479
   1 C :   -0.075087
   2 N :   -0.217488
   3 H :    0.051353
   4 H :    0.046141
   5 C :   -0.014867
   6 N :   -0.137358
   7 C :   -0.138747
   8 H :   -0.036308
   9 H :   -0.036414
  10 H :    0.110234
  11 H :    0.112169
  12 H :    0.147966
  13 H :    0.040052
  14 H :    0.039314
  15 H :    0.046558
Sum of atomic charges:   -0.0000000

LOEWDIN ATOMIC CHARGES
----------------------
   0 C :    0.042549
   1 C :   -0.060425
   2 N :   -0.040350
   3 H :    0.024604
   4 H :    0.020726
   5 C :    0.038770
   6 N :   -0.034168
   7 C :   -0.274811
   8 H :   -0.008869
   9 H :   -0.007618
  10 H :    0.065236
  11 H :    0.065027
  12 H :    0.089482
  13 H :    0.023499
  14 H :    0.023327
  15 H :    0.033019

  Mayer bond orders larger than 0.100000
B(  0-C ,  1-C ) :   1.0950 B(  0-C ,  2-N ) :   0.9712 B(  0-C ,  3-H ) :   0.9440
B(  0-C ,  4-H ) :   0.9509 B(  1-C , 13-H ) :   0.9737 B(  1-C , 14-H ) :   0.9717
B(  1-C , 15-H ) :   0.9683 B(  2-N ,  5-C ) :   1.1925 B(  2-N , 10-H ) :   0.9290
B(  5-C ,  6-N ) :   1.2255 B(  5-C ,  7-C ) :   1.7407 B(  6-N , 11-H ) :   0.9461
B(  6-N , 12-H ) :   0.9391 B(  7-C ,  8-H ) :   0.9385 B(  7-C ,  9-H ) :   0.9464

Dispersion correction           -0.000318246
FINAL SINGLE POINT ENERGY      -267.564783346867

DIPOLE MOMENT
-------------
                                X             Y             Z
Electronic contribution:      3.04902       2.70926      -0.15731
Nuclear contribution   :     -3.68222      -1.93858       0.98231
                        -----------------------------------------
Total Dipole Moment    :     -0.63320       0.77068       0.82501
                        -----------------------------------------
Magnitude (a.u.)       :      1.29442
Magnitude (Debye)      :      3.29016

Rotational constants in cm-1:     0.275407     0.068040     0.056255
Rotational constants in MHz :  8256.498401  2039.796466  1686.484500

                             ****ORCA TERMINATED NORMALLY****
TOTAL RUN TIME: 0 days 0 hours 0 minutes 17 seconds 774 msec
