                         Program Version 5.0.0 -  RELEASE  -
|  1> !M062X D3Zero RIJCOSX def2-TZVP def2/J TightSCF xyzfile
|  2>
|  3> *xyzfile 0 1 D1.xyz
|  4>
|  5> %MaxCore 64000
|  6>
|  7> %pal nprocs 18
|  8> end
|  9>
| 10> %scf
| 11>   MaxIter 150
| 12> end
| 13>
| 14>
| 15>                          ****END OF INPUT****

CARTESIAN COORDINATES (ANGSTROEM)
---------------------------------
  C      1.635557   -1.670396   -5.292109
  C      0.338484   -1.500907   -4.505398
  C      2.484511   -0.507410   -5.140392
  C     -0.684873   -0.528026   -5.099889
  C     -0.290406    0.951335   -5.153423
  H      0.607991    1.070692   -5.764412
  C     -0.055168    1.619420   -3.788577
  H     -1.080912    1.483775   -5.689436
  H      0.045006    0.862302   -3.003015
  H     -0.922936    2.230329   -3.517028
  C      1.223022    2.469865   -3.756911
  H      1.114701    3.258074   -4.532999
  H      1.237732    3.011242   -2.792157
  F      2.353815    1.712032   -3.934477
  H      1.398337   -1.829239   -6.352591
  H      2.155864   -2.565398   -4.932091
  C      3.451149   -0.149530   -5.952589
  N      3.922667    1.089559   -5.850711
  N      3.966162   -1.006183   -6.867880
  H      3.521391   -1.906467   -6.995270
  H      4.444824   -0.623472   -7.670348
  H      2.251995    0.240804   -4.498792
  H      3.464277    1.640782   -5.136392
  H      4.834470    1.313745   -6.224653
  H     -0.937999   -0.869056   -6.110838
  H     -1.604638   -0.622496   -4.513132
  H      0.594887   -1.211578   -3.482312
  H     -0.126530   -2.487656   -4.434176

 Total Charge           Charge          ....    0
 Multiplicity           Mult            ....    1
 Number of Electrons    NEL             ....   88
 Basis Dimension        Dim             ....  443

ORBITAL ENERGIES
----------------

  NO   OCC          E(Eh)            E(eV)
   0   2.0000     -25.258544      -687.3199
   1   2.0000     -14.731802      -400.8727
   2   2.0000     -14.715877      -400.4394
   3   2.0000     -10.624055      -289.0952
   4   2.0000     -10.557714      -287.2900
   5   2.0000     -10.540343      -286.8173
   6   2.0000     -10.523091      -286.3479
   7   2.0000     -10.520198      -286.2692
   8   2.0000     -10.510416      -286.0029
   9   2.0000     -10.499898      -285.7167
  10   2.0000     -10.429357      -283.7972
  11   2.0000      -1.379072       -37.5265
  12   2.0000      -1.050341       -28.5812
  13   2.0000      -0.956894       -26.0384
  14   2.0000      -0.908984       -24.7347
  15   2.0000      -0.874381       -23.7931
  16   2.0000      -0.822258       -22.3748
  17   2.0000      -0.784514       -21.3477
  18   2.0000      -0.729395       -19.8479
  19   2.0000      -0.692810       -18.8523
  20   2.0000      -0.657828       -17.9004
  21   2.0000      -0.636500       -17.3200
  22   2.0000      -0.621429       -16.9099
  23   2.0000      -0.598163       -16.2768
  24   2.0000      -0.592488       -16.1224
  25   2.0000      -0.577881       -15.7249
  26   2.0000      -0.562674       -15.3111
  27   2.0000      -0.526682       -14.3318
  28   2.0000      -0.509853       -13.8738
  29   2.0000      -0.506145       -13.7729
  30   2.0000      -0.484973       -13.1968
  31   2.0000      -0.471838       -12.8394
  32   2.0000      -0.461288       -12.5523
  33   2.0000      -0.445482       -12.1222
  34   2.0000      -0.425923       -11.5899
  35   2.0000      -0.423969       -11.5368
  36   2.0000      -0.412348       -11.2206
  37   2.0000      -0.398008       -10.8303
  38   2.0000      -0.380024       -10.3410
  39   2.0000      -0.366608        -9.9759
  40   2.0000      -0.360554        -9.8112
  41   2.0000      -0.350690        -9.5428
  42   2.0000      -0.312990        -8.5169
  43   2.0000      -0.196678        -5.3519
  44   0.0000       0.063631         1.7315
  45   0.0000       0.071387         1.9425
  46   0.0000       0.082412         2.2425
  47   0.0000       0.095576         2.6007
  48   0.0000       0.102084         2.7778

MULLIKEN ATOMIC CHARGES
-----------------------
   0 C :   -0.333633
   1 C :   -0.318724
   2 C :   -0.325144
   3 C :   -0.279890
   4 C :   -0.318438
   5 H :    0.187022
   6 C :   -0.296897
   7 H :    0.136550
   8 H :    0.160107
   9 H :    0.150088
  10 C :   -0.044956
  11 H :    0.139844
  12 H :    0.131533
  13 F :   -0.236720
  14 H :    0.115032
  15 H :    0.140341
  16 C :    0.467475
  17 N :   -0.599839
  18 N :   -0.590010
  19 H :    0.255181
  20 H :    0.227734
  21 H :    0.157494
  22 H :    0.278938
  23 H :    0.226640
  24 H :    0.141859
  25 H :    0.140976
  26 H :    0.152216
  27 H :    0.135221
Sum of atomic charges:   -0.0000000

LOEWDIN ATOMIC CHARGES
----------------------
   0 C :   -0.289763
   1 C :   -0.267589
   2 C :   -0.287329
   3 C :   -0.271511
   4 C :   -0.273831
   5 H :    0.147622
   6 C :   -0.274062
   7 H :    0.134384
   8 H :    0.143083
   9 H :    0.143551
  10 C :   -0.339593
  11 H :    0.127983
  12 H :    0.125552
  13 F :    0.132739
  14 H :    0.132558
  15 H :    0.135296
  16 C :   -0.463987
  17 N :   -0.037798
  18 N :   -0.039425
  19 H :    0.172632
  20 H :    0.157947
  21 H :    0.120059
  22 H :    0.166455
  23 H :    0.157812
  24 H :    0.139236
  25 H :    0.137219
  26 H :    0.135557
  27 H :    0.135203

  Mayer bond orders larger than 0.100000
B(  0-C ,  1-C ) :   0.9288 B(  0-C ,  2-C ) :   0.8911 B(  0-C , 14-H ) :   0.9823
B(  0-C , 15-H ) :   0.9849 B(  1-C ,  3-C ) :   0.9273 B(  1-C , 26-H ) :   0.9929
B(  1-C , 27-H ) :   0.9956 B(  2-C , 16-C ) :   1.6514 B(  2-C , 21-H ) :   1.0132
B(  3-C ,  4-C ) :   0.9133 B(  3-C , 24-H ) :   0.9817 B(  3-C , 25-H ) :   0.9880
B(  4-C ,  5-H ) :   0.9807 B(  4-C ,  6-C ) :   0.8689 B(  4-C ,  7-H ) :   0.9806
B(  6-C ,  8-H ) :   0.9780 B(  6-C ,  9-H ) :   0.9612 B(  6-C , 10-C ) :   0.9518
B( 10-C , 11-H ) :   0.9819 B( 10-C , 12-H ) :   0.9794 B( 10-C , 13-F ) :   0.8935
B( 16-C , 17-N ) :   1.0971 B( 16-C , 18-N ) :   1.0677 B( 17-N , 22-H ) :   0.8911
B( 17-N , 23-H ) :   0.9340 B( 18-N , 19-H ) :   0.9265 B( 18-N , 20-H ) :   0.9280

Dispersion correction           -0.001321316
FINAL SINGLE POINT ENERGY      -524.334573571342

DIPOLE MOMENT
-------------
                                X             Y             Z
Electronic contribution:      7.85228       3.84367       1.10342
Nuclear contribution   :     -8.11591      -2.99033      -1.35383
                        -----------------------------------------
Total Dipole Moment    :     -0.26363       0.85335      -0.25041
                        -----------------------------------------
Magnitude (a.u.)       :      0.92758
Magnitude (Debye)      :      2.35772

Rotational constants in cm-1:     0.043530     0.028984     0.019589
Rotational constants in MHz :  1305.007140   868.923804   587.262638

                             ****ORCA TERMINATED NORMALLY****
TOTAL RUN TIME: 0 days 0 hours 0 minutes 52 seconds 885 msec
