                         Program Version 5.0.0 -  RELEASE  -
|  1> !M062X D3Zero RIJCOSX def2-TZVP def2/J TightSCF xyzfile
|  2>
|  3> *xyzfile 0 1 D2.xyz
|  4>
|  5> %MaxCore 64000
|  6>
|  7> %pal nprocs 18
|  8> end
|  9>
| 10> %scf
| 11>   MaxIter 150
| 12> end
| 13>
| 14>
| 15>                          ****END OF INPUT****

CARTESIAN COORDINATES (ANGSTROEM)
---------------------------------
  C      1.635557   -1.670396   -5.292109
  C      0.338484   -1.500907   -4.505398
  N      2.484511   -0.507410   -5.140392
  C     -0.684873   -0.528026   -5.099889
  C     -0.290406    0.951335   -5.153423
  H      0.607991    1.070692   -5.764412
  C     -0.055168    1.619420   -3.788577
  H     -1.080912    1.483775   -5.689436
  H      0.045006    0.862302   -3.003015
  H     -0.922936    2.230329   -3.517028
  C      1.223022    2.469865   -3.756911
  H      1.114701    3.258074   -4.532999
  H      1.237732    3.011242   -2.792157
  F      2.353815    1.712032   -3.934477
  H      1.398337   -1.829239   -6.352591
  H      2.155864   -2.565398   -4.932091
  C      3.451149   -0.149530   -5.952589
  C      3.922667    1.089559   -5.850711
  N      3.966162   -1.006183   -6.867880
  H      3.521391   -1.906467   -6.995270
  H      4.444824   -0.623472   -7.670348
  H      2.251995    0.240804   -4.498792
  H      3.464277    1.640782   -5.136392
  H      4.834470    1.313745   -6.224653
  H     -0.937999   -0.869056   -6.110838
  H     -1.604638   -0.622496   -4.513132
  H      0.594887   -1.211578   -3.482312
  H     -0.126530   -2.487656   -4.434176

 Total Charge           Charge          ....    0
 Multiplicity           Mult            ....    1
 Number of Electrons    NEL             ....   88
 Basis Dimension        Dim             ....  443

ORBITAL ENERGIES
----------------

  NO   OCC          E(Eh)            E(eV)
   0   2.0000     -25.260431      -687.3713
   1   2.0000     -14.730454      -400.8360
   2   2.0000     -14.720023      -400.5522
   3   2.0000     -10.626093      -289.1507
   4   2.0000     -10.565001      -287.4883
   5   2.0000     -10.562981      -287.4333
   6   2.0000     -10.549360      -287.0627
   7   2.0000     -10.538583      -286.7694
   8   2.0000     -10.538143      -286.7574
   9   2.0000     -10.536229      -286.7054
  10   2.0000     -10.418732      -283.5081
  11   2.0000      -1.380235       -37.5581
  12   2.0000      -1.064011       -28.9532
  13   2.0000      -0.973744       -26.4969
  14   2.0000      -0.919398       -25.0181
  15   2.0000      -0.875282       -23.8176
  16   2.0000      -0.833413       -22.6783
  17   2.0000      -0.778318       -21.1791
  18   2.0000      -0.741679       -20.1821
  19   2.0000      -0.708973       -19.2921
  20   2.0000      -0.666624       -18.1398
  21   2.0000      -0.649542       -17.6749
  22   2.0000      -0.626351       -17.0439
  23   2.0000      -0.603610       -16.4251
  24   2.0000      -0.589761       -16.0482
  25   2.0000      -0.583495       -15.8777
  26   2.0000      -0.557967       -15.1831
  27   2.0000      -0.546606       -14.8739
  28   2.0000      -0.520093       -14.1525
  29   2.0000      -0.511550       -13.9200
  30   2.0000      -0.493010       -13.4155
  31   2.0000      -0.483078       -13.1452
  32   2.0000      -0.467066       -12.7095
  33   2.0000      -0.449269       -12.2252
  34   2.0000      -0.433322       -11.7913
  35   2.0000      -0.427933       -11.6447
  36   2.0000      -0.418024       -11.3750
  37   2.0000      -0.411558       -11.1991
  38   2.0000      -0.396792       -10.7973
  39   2.0000      -0.386339       -10.5128
  40   2.0000      -0.382391       -10.4054
  41   2.0000      -0.379270       -10.3205
  42   2.0000      -0.303960        -8.2712
  43   2.0000      -0.195714        -5.3256
  44   0.0000       0.058041         1.5794
  45   0.0000       0.068980         1.8770
  46   0.0000       0.079870         2.1734
  47   0.0000       0.084430         2.2975
  48   0.0000       0.100181         2.7261

MULLIKEN ATOMIC CHARGES
-----------------------
   0 C :   -0.180855
   1 C :   -0.346328
   2 N :   -0.358911
   3 C :   -0.264359
   4 C :   -0.366836
   5 H :    0.202799
   6 C :   -0.301169
   7 H :    0.143678
   8 H :    0.157635
   9 H :    0.152664
  10 C :   -0.035386
  11 H :    0.147457
  12 H :    0.133592
  13 F :   -0.232758
  14 H :    0.134927
  15 H :    0.143737
  16 C :    0.490721
  17 C :   -0.634298
  18 N :   -0.591664
  19 H :    0.238630
  20 H :    0.255847
  21 H :    0.270950
  22 H :    0.125568
  23 H :    0.107279
  24 H :    0.148399
  25 H :    0.148262
  26 H :    0.162567
  27 H :    0.147853
Sum of atomic charges:   -0.0000000

LOEWDIN ATOMIC CHARGES
----------------------
   0 C :   -0.297814
   1 C :   -0.274609
   2 N :    0.112646
   3 C :   -0.272888
   4 C :   -0.275305
   5 H :    0.148409
   6 C :   -0.276942
   7 H :    0.138167
   8 H :    0.141079
   9 H :    0.145133
  10 C :   -0.337159
  11 H :    0.131631
  12 H :    0.126655
  13 F :    0.139219
  14 H :    0.128603
  15 H :    0.127493
  16 C :   -0.466031
  17 C :   -0.363760
  18 N :   -0.035583
  19 H :    0.159118
  20 H :    0.174026
  21 H :    0.178029
  22 H :    0.095624
  23 H :    0.092814
  24 H :    0.140973
  25 H :    0.140188
  26 H :    0.137252
  27 H :    0.143031

  Mayer bond orders larger than 0.100000
B(  0-C ,  1-C ) :   0.9498 B(  0-C ,  2-N ) :   0.9152 B(  0-C , 14-H ) :   0.9636
B(  0-C , 15-H ) :   0.9622 B(  1-C ,  3-C ) :   0.9194 B(  1-C , 26-H ) :   0.9857
B(  1-C , 27-H ) :   0.9861 B(  2-N , 16-C ) :   1.1878 B(  2-N , 21-H ) :   0.8904
B(  3-C ,  4-C ) :   0.9073 B(  3-C , 24-H ) :   0.9823 B(  3-C , 25-H ) :   0.9853
B(  4-C ,  5-H ) :   0.9735 B(  4-C ,  6-C ) :   0.8624 B(  4-C ,  7-H ) :   0.9784
B(  6-C ,  8-H ) :   0.9811 B(  6-C ,  9-H ) :   0.9606 B(  6-C , 10-C ) :   0.9506
B( 10-C , 11-H ) :   0.9832 B( 10-C , 12-H ) :   0.9776 B( 10-C , 13-F ) :   0.8868
B( 16-C , 17-C ) :   1.5924 B( 16-C , 18-N ) :   1.0254 B( 17-C , 22-H ) :   1.0196
B( 17-C , 23-H ) :   0.9998 B( 18-N , 19-H ) :   0.9331 B( 18-N , 20-H ) :   0.9250

Dispersion correction           -0.001316595
FINAL SINGLE POINT ENERGY      -524.326940949365

DIPOLE MOMENT
-------------
                                X             Y             Z
Electronic contribution:      6.34013       2.42925       1.68779
Nuclear contribution   :     -7.85451      -2.70006      -1.48294
                        -----------------------------------------
Total Dipole Moment    :     -1.51437      -0.27082       0.20485
                        -----------------------------------------
Magnitude (a.u.)       :      1.55198
Magnitude (Debye)      :      3.94481

Rotational constants in cm-1:     0.044065     0.029250     0.019826
Rotational constants in MHz :  1321.026981   876.903192   594.367265

                             ****ORCA TERMINATED NORMALLY****
TOTAL RUN TIME: 0 days 0 hours 0 minutes 35 seconds 266 msec
