                         Program Version 5.0.0 -  RELEASE  -
|  1> !M062X D3Zero RIJCOSX def2-TZVP def2/J TightSCF xyzfile
|  2>
|  3> *xyzfile 0 1 D3.xyz
|  4>
|  5> %MaxCore 64000
|  6>
|  7> %pal nprocs 18
|  8> end
|  9>
| 10> %scf
| 11>   MaxIter 150
| 12> end
| 13>
| 14>
| 15>                          ****END OF INPUT****

CARTESIAN COORDINATES (ANGSTROEM)
---------------------------------
  C      1.635557   -1.670396   -5.292109
  C      0.338484   -1.500907   -4.505398
  N      2.484511   -0.507410   -5.140392
  C     -0.684873   -0.528026   -5.099889
  C     -0.290406    0.951335   -5.153423
  H      0.607991    1.070692   -5.764412
  C     -0.055168    1.619420   -3.788577
  H     -1.080912    1.483775   -5.689436
  H      0.045006    0.862302   -3.003015
  H     -0.922936    2.230329   -3.517028
  C      1.223022    2.469865   -3.756911
  H      1.114701    3.258074   -4.532999
  H      1.237732    3.011242   -2.792157
  F      2.353815    1.712032   -3.934477
  H      1.398337   -1.829239   -6.352591
  H      2.155864   -2.565398   -4.932091
  C      3.451149   -0.149530   -5.952589
  N      3.922667    1.089559   -5.850711
  C      3.966162   -1.006183   -6.867880
  H      3.521391   -1.906467   -6.995270
  H      4.444824   -0.623472   -7.670348
  H      2.251995    0.240804   -4.498792
  H      3.464277    1.640782   -5.136392
  H      4.834470    1.313745   -6.224653
  H     -0.937999   -0.869056   -6.110838
  H     -1.604638   -0.622496   -4.513132
  H      0.594887   -1.211578   -3.482312
  H     -0.126530   -2.487656   -4.434176

 Total Charge           Charge          ....    0
 Multiplicity           Mult            ....    1
 Number of Electrons    NEL             ....   88
 Basis Dimension        Dim             ....  443

ORBITAL ENERGIES
----------------

  NO   OCC          E(Eh)            E(eV)
   0   2.0000     -25.288894      -688.1458
   1   2.0000     -14.723921      -400.6583
   2   2.0000     -14.719440      -400.5363
   3   2.0000     -10.643379      -289.6211
   4   2.0000     -10.563804      -287.4557
   5   2.0000     -10.559211      -287.3307
   6   2.0000     -10.558083      -287.3000
   7   2.0000     -10.542339      -286.8716
   8   2.0000     -10.539261      -286.7879
   9   2.0000     -10.536090      -286.7016
  10   2.0000     -10.428853      -283.7835
  11   2.0000      -1.407790       -38.3079
  12   2.0000      -1.069405       -29.1000
  13   2.0000      -0.974431       -26.5156
  14   2.0000      -0.924506       -25.1571
  15   2.0000      -0.879214       -23.9246
  16   2.0000      -0.824934       -22.4476
  17   2.0000      -0.787803       -21.4372
  18   2.0000      -0.751100       -20.4385
  19   2.0000      -0.721854       -19.6426
  20   2.0000      -0.662309       -18.0223
  21   2.0000      -0.655154       -17.8276
  22   2.0000      -0.642297       -17.4778
  23   2.0000      -0.620997       -16.8982
  24   2.0000      -0.610412       -16.6102
  25   2.0000      -0.574480       -15.6324
  26   2.0000      -0.564432       -15.3590
  27   2.0000      -0.546892       -14.8817
  28   2.0000      -0.534792       -14.5524
  29   2.0000      -0.505905       -13.7664
  30   2.0000      -0.498540       -13.5660
  31   2.0000      -0.491012       -13.3611
  32   2.0000      -0.470302       -12.7976
  33   2.0000      -0.442749       -12.0478
  34   2.0000      -0.441049       -12.0015
  35   2.0000      -0.428653       -11.6642
  36   2.0000      -0.425239       -11.5714
  37   2.0000      -0.419491       -11.4149
  38   2.0000      -0.407277       -11.0826
  39   2.0000      -0.391996       -10.6668
  40   2.0000      -0.383557       -10.4371
  41   2.0000      -0.382041       -10.3959
  42   2.0000      -0.293010        -7.9732
  43   2.0000      -0.200043        -5.4435
  44   0.0000       0.053623         1.4591
  45   0.0000       0.070154         1.9090
  46   0.0000       0.076939         2.0936
  47   0.0000       0.084608         2.3023
  48   0.0000       0.095824         2.6075

MULLIKEN ATOMIC CHARGES
-----------------------
   0 C :   -0.158594
   1 C :   -0.342397
   2 N :   -0.375002
   3 C :   -0.265321
   4 C :   -0.357719
   5 H :    0.185459
   6 C :   -0.299636
   7 H :    0.145356
   8 H :    0.164810
   9 H :    0.157612
  10 C :   -0.041260
  11 H :    0.151423
  12 H :    0.140694
  13 F :   -0.256727
  14 H :    0.151170
  15 H :    0.148621
  16 C :    0.460172
  17 N :   -0.601178
  18 C :   -0.578028
  19 H :    0.091948
  20 H :    0.099032
  21 H :    0.251388
  22 H :    0.266386
  23 H :    0.253177
  24 H :    0.153274
  25 H :    0.147796
  26 H :    0.157156
  27 H :    0.150388
Sum of atomic charges:   -0.0000000

LOEWDIN ATOMIC CHARGES
----------------------
   0 C :   -0.278793
   1 C :   -0.276036
   2 N :    0.114152
   3 C :   -0.271853
   4 C :   -0.276110
   5 H :    0.144573
   6 C :   -0.275486
   7 H :    0.138724
   8 H :    0.143120
   9 H :    0.147109
  10 C :   -0.335891
  11 H :    0.132143
  12 H :    0.129303
  13 F :    0.128174
  14 H :    0.137146
  15 H :    0.132808
  16 C :   -0.476086
  17 N :   -0.030795
  18 C :   -0.369248
  19 H :    0.093301
  20 H :    0.092486
  21 H :    0.166357
  22 H :    0.153768
  23 H :    0.175063
  24 H :    0.142968
  25 H :    0.139931
  26 H :    0.135003
  27 H :    0.144167

  Mayer bond orders larger than 0.100000
B(  0-C ,  1-C ) :   0.9362 B(  0-C ,  2-N ) :   0.8958 B(  0-C , 14-H ) :   0.9713
B(  0-C , 15-H ) :   0.9716 B(  1-C ,  3-C ) :   0.9152 B(  1-C , 26-H ) :   0.9864
B(  1-C , 27-H ) :   0.9874 B(  2-N , 16-C ) :   1.1585 B(  2-N , 21-H ) :   0.8987
B(  3-C ,  4-C ) :   0.9103 B(  3-C , 24-H ) :   0.9806 B(  3-C , 25-H ) :   0.9857
B(  4-C ,  5-H ) :   0.9758 B(  4-C ,  6-C ) :   0.8581 B(  4-C ,  7-H ) :   0.9765
B(  6-C ,  8-H ) :   0.9807 B(  6-C ,  9-H ) :   0.9591 B(  6-C , 10-C ) :   0.9499
B( 10-C , 11-H ) :   0.9817 B( 10-C , 12-H ) :   0.9794 B( 10-C , 13-F ) :   0.8588
B( 16-C , 17-N ) :   1.0650 B( 16-C , 18-C ) :   1.6185 B( 17-N , 22-H ) :   0.8995
B( 17-N , 23-H ) :   0.9283 B( 18-C , 19-H ) :   1.0146 B( 18-C , 20-H ) :   1.0045

Dispersion correction           -0.001322984
FINAL SINGLE POINT ENERGY      -524.338468094214

DIPOLE MOMENT
-------------
                                X             Y             Z
Electronic contribution:      6.25916       4.44720       2.79796
Nuclear contribution   :     -7.84660      -3.08098      -1.66782
                        -----------------------------------------
Total Dipole Moment    :     -1.58744       1.36621       1.13014
                        -----------------------------------------
Magnitude (a.u.)       :      2.37986
Magnitude (Debye)      :      6.04912

Rotational constants in cm-1:     0.043547     0.029898     0.020008
Rotational constants in MHz :  1305.520367   896.323854   599.829375

                             ****ORCA TERMINATED NORMALLY****
TOTAL RUN TIME: 0 days 0 hours 0 minutes 35 seconds 89 msec
