                         Program Version 5.0.0 -  RELEASE  -
|  1> !BLYP D3BJ RIJCOSX def2-TZVPD def2/J TightSCF
|  2> *xyz -1 1
|  3> C         -2.79070       -0.78527        5.70281
|  4> C         -2.45380        0.05510        6.94145
|  5> C         -2.07842        1.48042        6.56410
|  6> H         -1.62558       -0.38216        7.49891
|  7> H         -3.32527        0.08775        7.59917
|  8> O         -0.90125        1.85816        6.82810
|  9> O         -2.93658        2.17731        5.96415
| 10> H         -1.94052       -0.82114        5.05412
| 11> H         -3.61590       -0.34261        5.18514
| 12> H         -3.05063       -1.77815        6.00536
| 13> *
| 14> %MaxCore 64000
| 15>
| 16> %pal nprocs 4
| 17> end
| 18>
| 19> %scf
| 20>   MaxIter 150
| 21> end
| 22>
| 23>
| 24>                          ****END OF INPUT****

CARTESIAN COORDINATES (ANGSTROEM)
---------------------------------
  C     -2.790700   -0.785270    5.702810
  C     -2.453800    0.055100    6.941450
  C     -2.078420    1.480420    6.564100
  H     -1.625580   -0.382160    7.498910
  H     -3.325270    0.087750    7.599170
  O     -0.901250    1.858160    6.828100
  O     -2.936580    2.177310    5.964150
  H     -1.940520   -0.821140    5.054120
  H     -3.615900   -0.342610    5.185140
  H     -3.050630   -1.778150    6.005360

 Total Charge           Charge          ....   -1
 Multiplicity           Mult            ....    1
 Number of Electrons    NEL             ....   40
 Basis Dimension        Dim             ....  236

ORBITAL ENERGIES
----------------

  NO   OCC          E(Eh)            E(eV)
   0   2.0000     -18.512169      -503.7417
   1   2.0000     -18.510767      -503.7036
   2   2.0000      -9.781994      -266.1816
   3   2.0000      -9.741168      -265.0707
   4   2.0000      -9.729953      -264.7655
   5   2.0000      -0.723997       -19.7009
   6   2.0000      -0.636654       -17.3242
   7   2.0000      -0.527549       -14.3553
   8   2.0000      -0.406064       -11.0496
   9   2.0000      -0.264093        -7.1863
  10   2.0000      -0.240177        -6.5356
  11   2.0000      -0.205744        -5.5986
  12   2.0000      -0.179768        -4.8917
  13   2.0000      -0.164415        -4.4740
  14   2.0000      -0.155953        -4.2437
  15   2.0000      -0.127635        -3.4731
  16   2.0000      -0.114814        -3.1243
  17   2.0000      -0.008128        -0.2212
  18   2.0000       0.003432         0.0934
  19   2.0000       0.021815         0.5936
  20   0.0000       0.119904         3.2628
  21   0.0000       0.146345         3.9823
  22   0.0000       0.162674         4.4266
  23   0.0000       0.170173         4.6306
  24   0.0000       0.195657         5.3241

MULLIKEN ATOMIC CHARGES
-----------------------
   0 C :   -1.172790
   1 C :   -0.062986
   2 C :    0.417292
   3 H :    0.184402
   4 H :    0.197985
   5 O :   -0.728673
   6 O :   -0.728803
   7 H :    0.326579
   8 H :    0.272372
   9 H :    0.294622
Sum of atomic charges:   -1.0000000

LOEWDIN ATOMIC CHARGES
----------------------
   0 C :   -0.123741
   1 C :   -0.211887
   2 C :   -0.783252
   3 H :    0.080889
   4 H :    0.087623
   5 O :   -0.103673
   6 O :   -0.090664
   7 H :    0.057377
   8 H :    0.050535
   9 H :    0.036792

  Mayer bond orders larger than 0.100000
B(  0-C ,  1-C ) :   0.5017 B(  0-C ,  2-C ) :   0.1034 B(  0-C ,  7-H ) :   0.9362
B(  0-C ,  8-H ) :   1.0285 B(  0-C ,  9-H ) :   0.9274 B(  1-C ,  2-C ) :   0.9098
B(  1-C ,  3-H ) :   1.0281 B(  1-C ,  4-H ) :   0.9569 B(  2-C ,  5-O ) :   1.3762
B(  2-C ,  6-O ) :   1.3857

Dispersion correction           -0.013570284
FINAL SINGLE POINT ENERGY      -267.885383450806

DIPOLE MOMENT
-------------
                                X             Y             Z
Electronic contribution:      1.65577       5.63469       0.66361
Nuclear contribution   :     -2.24498      -7.51881      -0.57245
                        -----------------------------------------
Total Dipole Moment    :     -0.58921      -1.88412       0.09116
                        -----------------------------------------
Magnitude (a.u.)       :      1.97621
Magnitude (Debye)      :      5.02312

Rotational constants in cm-1:     0.305589     0.135336     0.107479
Rotational constants in MHz :  9161.317320  4057.276612  3222.126231

                             ****ORCA TERMINATED NORMALLY****
TOTAL RUN TIME: 0 days 0 hours 0 minutes 11 seconds 873 msec
