                         Program Version 5.0.0 -  RELEASE  -
|  1> !BLYP D3BJ RIJCOSX def2-TZVPD def2/J TightSCF
|  2> *xyz 1 1
|  3> C         -0.69912        3.48945        3.75516
|  4> H         -0.96672        4.34901        3.14049
|  5> N         -1.08067        3.79296        5.15686
|  6> C          0.77696        3.13839        3.61741
|  7> H         -1.33146        2.65651        3.44632
|  8> H         -0.87449        4.76274        5.42734
|  9> H         -0.68079        3.13476        5.83900
| 10> H         -2.05755        3.53169        5.34620
| 11> H          0.99957        2.92898        2.59199
| 12> H          0.99576        2.27685        4.21303
| 13> H          1.37223        3.96279        3.95046
| 14> *
| 15> %MaxCore 64000
| 16>
| 17> %pal nprocs 4
| 18> end
| 19>
| 20> %scf
| 21>   MaxIter 150
| 22> end
| 23>
| 24>
| 25>                          ****END OF INPUT****

CARTESIAN COORDINATES (ANGSTROEM)
---------------------------------
  C     -0.699120    3.489450    3.755160
  H     -0.966720    4.349010    3.140490
  N     -1.080670    3.792960    5.156860
  C      0.776960    3.138390    3.617410
  H     -1.331460    2.656510    3.446320
  H     -0.874490    4.762740    5.427340
  H     -0.680790    3.134760    5.839000
  H     -2.057550    3.531690    5.346200
  H      0.999570    2.928980    2.591990
  H      0.995760    2.276850    4.213030
  H      1.372230    3.962790    3.950460

 Total Charge           Charge          ....    1
 Multiplicity           Mult            ....    1
 Number of Electrons    NEL             ....   26
 Basis Dimension        Dim             ....  183

ORBITAL ENERGIES
----------------

  NO   OCC          E(Eh)            E(eV)
   0   2.0000     -14.338939      -390.1824
   1   2.0000     -10.157821      -276.4084
   2   2.0000     -10.078669      -274.2545
   3   2.0000      -1.131185       -30.7811
   4   2.0000      -0.891474       -24.2582
   5   2.0000      -0.780281       -21.2325
   6   2.0000      -0.759315       -20.6620
   7   2.0000      -0.712068       -19.3763
   8   2.0000      -0.647665       -17.6238
   9   2.0000      -0.592897       -16.1335
  10   2.0000      -0.535498       -14.5716
  11   2.0000      -0.522555       -14.2194
  12   2.0000      -0.506137       -13.7727
  13   0.0000      -0.227940        -6.2026
  14   0.0000      -0.169957        -4.6248
  15   0.0000      -0.167158        -4.5486
  16   0.0000      -0.153950        -4.1892
  17   0.0000      -0.124742        -3.3944

MULLIKEN ATOMIC CHARGES
-----------------------
   0 C :   -0.267149
   1 H :    0.311094
   2 N :   -0.235779
   3 C :   -1.126441
   4 H :    0.300213
   5 H :    0.316873
   6 H :    0.308231
   7 H :    0.321661
   8 H :    0.336400
   9 H :    0.374057
  10 H :    0.360840
Sum of atomic charges:    1.0000000

LOEWDIN ATOMIC CHARGES
----------------------
   0 C :   -0.195166
   1 H :    0.134960
   2 N :    0.184836
   3 C :   -0.043307
   4 H :    0.132394
   5 H :    0.182836
   6 H :    0.175616
   7 H :    0.177483
   8 H :    0.090295
   9 H :    0.079605
  10 H :    0.080447

  Mayer bond orders larger than 0.100000
B(  0-C ,  1-H ) :   0.9260 B(  0-C ,  2-N ) :   0.9256 B(  0-C ,  3-C ) :   0.6155
B(  0-C ,  4-H ) :   0.8946 B(  2-N ,  5-H ) :   0.8793 B(  2-N ,  6-H ) :   0.8849
B(  2-N ,  7-H ) :   0.8845 B(  3-C ,  8-H ) :   0.9595 B(  3-C ,  9-H ) :   0.9007
B(  3-C , 10-H ) :   0.9432

Dispersion correction           -0.012385427
FINAL SINGLE POINT ENERGY      -135.515119799217

DIPOLE MOMENT
-------------
                                X             Y             Z
Electronic contribution:     -1.30397       0.56687       1.06857
Nuclear contribution   :      0.33986      -0.24565       0.10678
                        -----------------------------------------
Total Dipole Moment    :     -0.96411       0.32122       1.17535
                        -----------------------------------------
Magnitude (a.u.)       :      1.55375
Magnitude (Debye)      :      3.94932

Rotational constants in cm-1:     1.016237     0.277523     0.247812
Rotational constants in MHz : 30466.024354  8319.937961  7429.230177

                             ****ORCA TERMINATED NORMALLY****
TOTAL RUN TIME: 0 days 0 hours 0 minutes 8 seconds 608 msec
