                         Program Version 5.0.0 -  RELEASE  -
|  1> !BLYP D3BJ RIJCOSX def2-TZVPD def2/J TightSCF xyzfile
|  2>
|  3> *xyzfile 0 1 B.xyz
|  4>
|  5> %MaxCore 64000
|  6>
|  7> %pal nprocs 4
|  8> end
|  9>
| 10> %scf
| 11>   MaxIter 150
| 12> end
| 13>
| 14>
| 15>                          ****END OF INPUT****

CARTESIAN COORDINATES (ANGSTROEM)
---------------------------------
  C     -0.699123    3.489451    3.755163
  H     -0.966716    4.349013    3.140491
  N     -1.080669    3.792957    5.156857
  C      0.776956    3.138391    3.617408
  H     -1.331455    2.656510    3.446323
  H      1.371398    3.888342    4.149744
  H      1.046926    3.232057    2.561331
  C      1.118917    1.731170    4.115155
  H      2.200573    1.654226    4.254882
  C      0.659466    0.635182    3.153306
  H      0.677024    1.576674    5.103150
  H      1.312288    0.638870    2.274207
  H     -0.339563    0.868049    2.772876
  C      0.639957   -0.771175    3.755619
  C     -0.341821   -0.965537    4.915046
  H      1.648266   -1.028665    4.097015
  H      0.398568   -1.482386    2.958453
  H     -0.279892   -2.005646    5.252547
  C     -1.789164   -0.639231    4.557496
  H     -0.032380   -0.352918    5.765118
  H     -2.107151   -1.270102    3.719619
  H     -1.856352    0.391636    4.197604
  C     -2.790700   -0.785275    5.702812
  H     -2.867308   -1.835651    6.001675
  H     -3.774554   -0.486577    5.334807
  C     -2.453797    0.055101    6.941445
  C     -2.078419    1.480421    6.564098
  H     -1.625584   -0.382163    7.498914
  H     -3.325274    0.087746    7.599175
  H     -0.874488    4.762737    5.427344
  H     -0.680793    3.134762    5.839000
  H     -2.057550    3.531691    5.346197
  O     -0.901252    1.858156    6.828104
  O     -2.936582    2.177309    5.964151

 Total Charge           Charge          ....    0
 Multiplicity           Mult            ....    1
 Number of Electrons    NEL             ....  104
 Basis Dimension        Dim             ....  676

ORBITAL ENERGIES
----------------

  NO   OCC          E(Eh)            E(eV)
   0   2.0000     -18.709786      -509.1192
   1   2.0000     -18.708432      -509.0823
   2   2.0000     -14.082166      -383.1952
   3   2.0000      -9.972566      -271.3673
   4   2.0000      -9.971632      -271.3419
   5   2.0000      -9.926206      -270.1058
   6   2.0000      -9.902272      -269.4545
   7   2.0000      -9.899103      -269.3683
   8   2.0000      -9.892825      -269.1975
   9   2.0000      -9.883791      -268.9516
  10   2.0000      -9.883599      -268.9464
  11   2.0000      -9.882488      -268.9162
  12   2.0000      -9.876513      -268.7536
  13   2.0000      -0.933725       -25.4079
  14   2.0000      -0.893174       -24.3045
  15   2.0000      -0.839800       -22.8521
  16   2.0000      -0.740562       -20.1517
  17   2.0000      -0.713563       -19.4170
  18   2.0000      -0.687434       -18.7060
  19   2.0000      -0.645130       -17.5549
  20   2.0000      -0.615267       -16.7423
  21   2.0000      -0.579697       -15.7744
  22   2.0000      -0.545249       -14.8370
  23   2.0000      -0.534010       -14.5312
  24   2.0000      -0.513770       -13.9804
  25   2.0000      -0.491751       -13.3812
  26   2.0000      -0.483543       -13.1579
  27   2.0000      -0.448532       -12.2052
  28   2.0000      -0.424514       -11.5516
  29   2.0000      -0.420207       -11.4344
  30   2.0000      -0.416827       -11.3424
  31   2.0000      -0.392999       -10.6941
  32   2.0000      -0.388426       -10.5696
  33   2.0000      -0.381005       -10.3677
  34   2.0000      -0.368752       -10.0342
  35   2.0000      -0.360575        -9.8117
  36   2.0000      -0.349233        -9.5031
  37   2.0000      -0.346278        -9.4227
  38   2.0000      -0.339003        -9.2247
  39   2.0000      -0.329691        -8.9713
  40   2.0000      -0.316700        -8.6178
  41   2.0000      -0.311451        -8.4750
  42   2.0000      -0.304708        -8.2915
  43   2.0000      -0.291377        -7.9288
  44   2.0000      -0.283334        -7.7099
  45   2.0000      -0.278105        -7.5676
  46   2.0000      -0.265709        -7.2303
  47   2.0000      -0.260830        -7.0975
  48   2.0000      -0.254993        -6.9387
  49   2.0000      -0.207332        -5.6418
  50   2.0000      -0.190634        -5.1874
  51   2.0000      -0.184077        -5.0090
  52   0.0000      -0.035879        -0.9763
  53   0.0000      -0.007665        -0.2086
  54   0.0000      -0.001348        -0.0367
  55   0.0000       0.002878         0.0783
  56   0.0000       0.011345         0.3087

MULLIKEN ATOMIC CHARGES
-----------------------
   0 C :   -0.555217
   1 H :    0.287884
   2 N :   -0.140773
   3 C :   -0.494765
   4 H :    0.279947
   5 H :    0.248838
   6 H :    0.268442
   7 C :   -0.391393
   8 H :    0.294247
   9 C :   -0.488863
  10 H :    0.372758
  11 H :    0.280038
  12 H :    0.259603
  13 C :   -0.724843
  14 C :   -0.360310
  15 H :    0.249679
  16 H :    0.281741
  17 H :    0.240003
  18 C :   -0.264326
  19 H :    0.272482
  20 H :    0.312378
  21 H :    0.018673
  22 C :   -0.711870
  23 H :    0.244625
  24 H :    0.251977
  25 C :   -0.506253
  26 C :    0.807515
  27 H :    0.238563
  28 H :    0.322645
  29 H :    0.274655
  30 H :    0.232181
  31 H :    0.302178
  32 O :   -0.853248
  33 O :   -0.849190
Sum of atomic charges:   -0.0000000

LOEWDIN ATOMIC CHARGES
----------------------
   0 C :   -0.159555
   1 H :    0.119528
   2 N :    0.147899
   3 C :   -0.179761
   4 H :    0.113118
   5 H :    0.110079
   6 H :    0.112598
   7 C :   -0.192034
   8 H :    0.115709
   9 C :   -0.209296
  10 H :    0.088502
  11 H :    0.110001
  12 H :    0.092841
  13 C :   -0.199346
  14 C :   -0.200635
  15 H :    0.107193
  16 H :    0.105454
  17 H :    0.113777
  18 C :   -0.203014
  19 H :    0.093914
  20 H :    0.114798
  21 H :    0.088078
  22 C :   -0.191489
  23 H :    0.105480
  24 H :    0.105904
  25 C :   -0.119426
  26 C :   -0.659356
  27 H :    0.104860
  28 H :    0.112872
  29 H :    0.162797
  30 H :    0.062598
  31 H :    0.089575
  32 O :   -0.042789
  33 O :   -0.020877

  Mayer bond orders larger than 0.100000
B(  0-C ,  1-H ) :   0.8779 B(  0-C ,  2-N ) :   0.8911 B(  0-C ,  3-C ) :   0.8421
B(  0-C ,  4-H ) :   0.9307 B(  2-N , 29-H ) :   0.8806 B(  2-N , 30-H ) :   0.8142
B(  2-N , 31-H ) :   0.7757 B(  3-C ,  5-H ) :   0.9419 B(  3-C ,  6-H ) :   0.9231
B(  3-C ,  7-C ) :   0.8408 B(  3-C ,  9-C ) :   0.1875 B(  7-C ,  8-H ) :   0.9026
B(  7-C ,  9-C ) :   0.2327 B(  7-C , 10-H ) :   1.0213 B(  7-C , 11-H ) :  -0.1139
B(  7-C , 12-H ) :  -0.1006 B(  7-C , 13-C ) :   0.1732 B(  7-C , 14-C ) :   0.1210
B(  9-C , 11-H ) :   0.9511 B(  9-C , 12-H ) :   0.9781 B(  9-C , 13-C ) :   0.8826
B(  9-C , 18-C ) :   0.1561 B( 13-C , 14-C ) :   0.7552 B( 13-C , 15-H ) :   0.9758
B( 13-C , 16-H ) :   0.9449 B( 14-C , 17-H ) :   0.9410 B( 14-C , 18-C ) :   0.3415
B( 14-C , 19-H ) :   0.9817 B( 14-C , 21-H ) :  -0.2412 B( 14-C , 22-C ) :   0.1331
B( 14-C , 25-C ) :   0.1434 B( 18-C , 19-H ) :  -0.1190 B( 18-C , 20-H ) :   0.8291
B( 18-C , 21-H ) :   1.3696 B( 18-C , 22-C ) :   0.8168 B( 18-C , 25-C ) :  -0.1460
B( 18-C , 26-C ) :   0.1028 B( 21-H , 22-C ) :   0.1688 B( 22-C , 23-H ) :   0.9560
B( 22-C , 24-H ) :   0.9217 B( 22-C , 25-C ) :   0.8197 B( 25-C , 26-C ) :   0.9528
B( 25-C , 27-H ) :   1.0028 B( 25-C , 28-H ) :   0.8816 B( 26-C , 32-O ) :   1.1767
B( 26-C , 33-O ) :   1.0329 B( 30-H , 32-O ) :   0.1964 B( 31-H , 33-O ) :   0.1844
B( 32-O , 33-O ) :   0.1412

Dispersion correction           -0.076156735
FINAL SINGLE POINT ENERGY      -598.954409966773

DIPOLE MOMENT
-------------
                                X             Y             Z
Electronic contribution:     -4.68225       4.80362       6.74214
Nuclear contribution   :      5.60885      -3.40606      -8.06960
                        -----------------------------------------
Total Dipole Moment    :      0.92659       1.39756      -1.32746
                        -----------------------------------------
Magnitude (a.u.)       :      2.13867
Magnitude (Debye)      :      5.43607

Rotational constants in cm-1:     0.028465     0.023505     0.015110
Rotational constants in MHz :   853.363165   704.655786   452.976312

                             ****ORCA TERMINATED NORMALLY****
TOTAL RUN TIME: 0 days 0 hours 1 minutes 39 seconds 830 msec
