                         Program Version 5.0.0 -  RELEASE  -
|  1> !BLYP D3BJ RIJCOSX def2-TZVPD def2/J TightSCF
|  2> *xyz 0 1
|  3> C         -2.79070       -0.78527        5.70281
|  4> C         -2.45380        0.05510        6.94145
|  5> C         -2.07842        1.48042        6.56410
|  6> H         -1.62558       -0.38216        7.49891
|  7> H         -3.32527        0.08775        7.59917
|  8> F         -0.90125        1.85816        6.82810
|  9> O         -2.93658        2.17731        5.96415
| 10> H         -1.94052       -0.82114        5.05412
| 11> H         -3.61590       -0.34261        5.18514
| 12> H         -3.05063       -1.77815        6.00536
| 13> *
| 14> %MaxCore 64000
| 15>
| 16> %pal nprocs 4
| 17> end
| 18>
| 19> %scf
| 20>   MaxIter 150
| 21> end
| 22>
| 23>
| 24>                          ****END OF INPUT****

CARTESIAN COORDINATES (ANGSTROEM)
---------------------------------
  C     -2.790700   -0.785270    5.702810
  C     -2.453800    0.055100    6.941450
  C     -2.078420    1.480420    6.564100
  H     -1.625580   -0.382160    7.498910
  H     -3.325270    0.087750    7.599170
  F     -0.901250    1.858160    6.828100
  O     -2.936580    2.177310    5.964150
  H     -1.940520   -0.821140    5.054120
  H     -3.615900   -0.342610    5.185140
  H     -3.050630   -1.778150    6.005360

 Total Charge           Charge          ....    0
 Multiplicity           Mult            ....    1
 Number of Electrons    NEL             ....   40
 Basis Dimension        Dim             ....  236

ORBITAL ENERGIES
----------------

  NO   OCC          E(Eh)            E(eV)
   0   2.0000     -24.350948      -662.6230
   1   2.0000     -18.777974      -510.9746
   2   2.0000     -10.074741      -274.1476
   3   2.0000      -9.936324      -270.3811
   4   2.0000      -9.910463      -269.6774
   5   2.0000      -1.202954       -32.7340
   6   2.0000      -0.938254       -25.5312
   7   2.0000      -0.723097       -19.6765
   8   2.0000      -0.618118       -16.8198
   9   2.0000      -0.570055       -15.5120
  10   2.0000      -0.482673       -13.1342
  11   2.0000      -0.467932       -12.7331
  12   2.0000      -0.447025       -12.1642
  13   2.0000      -0.412739       -11.2312
  14   2.0000      -0.381974       -10.3940
  15   2.0000      -0.352604        -9.5949
  16   2.0000      -0.332689        -9.0529
  17   2.0000      -0.328293        -8.9333
  18   2.0000      -0.303649        -8.2627
  19   2.0000      -0.243034        -6.6133
  20   0.0000      -0.067335        -1.8323
  21   0.0000      -0.014238        -0.3874
  22   0.0000       0.012576         0.3422
  23   0.0000       0.024187         0.6582
  24   0.0000       0.032363         0.8806

MULLIKEN ATOMIC CHARGES
-----------------------
   0 C :   -1.159156
   1 C :   -0.103926
   2 C :    0.534543
   3 H :    0.230257
   4 H :    0.228778
   5 F :   -0.207252
   6 O :   -0.488970
   7 H :    0.354988
   8 H :    0.305519
   9 H :    0.305218
Sum of atomic charges:   -0.0000000

LOEWDIN ATOMIC CHARGES
----------------------
   0 C :   -0.076997
   1 C :   -0.154542
   2 C :   -0.503828
   3 H :    0.103992
   4 H :    0.118014
   5 F :    0.211877
   6 O :    0.094161
   7 H :    0.071499
   8 H :    0.069876
   9 H :    0.065948

  Mayer bond orders larger than 0.100000
B(  0-C ,  1-C ) :   0.5807 B(  0-C ,  7-H ) :   0.9002 B(  0-C ,  8-H ) :   1.0058
B(  0-C ,  9-H ) :   0.9391 B(  1-C ,  2-C ) :   0.9071 B(  1-C ,  3-H ) :   0.9761
B(  1-C ,  4-H ) :   0.9483 B(  2-C ,  5-F ) :   1.0033 B(  2-C ,  6-O ) :   1.7099

Dispersion correction           -0.012868030
FINAL SINGLE POINT ENERGY      -292.456590098487

DIPOLE MOMENT
-------------
                                X             Y             Z
Electronic contribution:      3.95988       7.45320       1.47284
Nuclear contribution   :     -3.69486      -8.49563      -1.04945
                        -----------------------------------------
Total Dipole Moment    :      0.26503      -1.04243       0.42338
                        -----------------------------------------
Magnitude (a.u.)       :      1.15592
Magnitude (Debye)      :      2.93811

Rotational constants in cm-1:     0.293725     0.129218     0.102393
Rotational constants in MHz :  8805.653529  3873.869810  3069.666716

                             ****ORCA TERMINATED NORMALLY****
TOTAL RUN TIME: 0 days 0 hours 0 minutes 11 seconds 499 msec
