                         Program Version 5.0.0 -  RELEASE  -
|  1> !BLYP D3BJ RIJCOSX def2-TZVPD def2/J TightSCF
|  2> *xyz 0 1
|  3> C         -0.69912        3.48945        3.75516
|  4> H         -0.96672        4.34901        3.14049
|  5> C         -1.08067        3.79296        5.15686
|  6> C          0.77696        3.13839        3.61741
|  7> H         -1.33146        2.65651        3.44632
|  8> H         -0.87449        4.76274        5.42734
|  9> H         -0.68079        3.13476        5.83900
| 10> H         -2.05755        3.53169        5.34620
| 11> H          0.99957        2.92898        2.59199
| 12> H          0.99576        2.27685        4.21303
| 13> H          1.37223        3.96279        3.95046
| 14> *
| 15> %MaxCore 64000
| 16>
| 17> %pal nprocs 4
| 18> end
| 19>
| 20> %scf
| 21>   MaxIter 150
| 22> end
| 23>
| 24>
| 25>                          ****END OF INPUT****

CARTESIAN COORDINATES (ANGSTROEM)
---------------------------------
  C     -0.699120    3.489450    3.755160
  H     -0.966720    4.349010    3.140490
  C     -1.080670    3.792960    5.156860
  C      0.776960    3.138390    3.617410
  H     -1.331460    2.656510    3.446320
  H     -0.874490    4.762740    5.427340
  H     -0.680790    3.134760    5.839000
  H     -2.057550    3.531690    5.346200
  H      0.999570    2.928980    2.591990
  H      0.995760    2.276850    4.213030
  H      1.372230    3.962790    3.950460

 Total Charge           Charge          ....    0
 Multiplicity           Mult            ....    1
 Number of Electrons    NEL             ....   26
 Basis Dimension        Dim             ....  183

ORBITAL ENERGIES
----------------

  NO   OCC          E(Eh)            E(eV)
   0   2.0000      -9.890436      -269.1325
   1   2.0000      -9.881278      -268.8832
   2   2.0000      -9.863835      -268.4086
   3   2.0000      -0.710314       -19.3286
   4   2.0000      -0.618355       -16.8263
   5   2.0000      -0.523035       -14.2325
   6   2.0000      -0.418019       -11.3749
   7   2.0000      -0.386927       -10.5288
   8   2.0000      -0.350829        -9.5466
   9   2.0000      -0.347150        -9.4464
  10   2.0000      -0.295390        -8.0380
  11   2.0000      -0.284945        -7.7537
  12   2.0000      -0.280939        -7.6447
  13   0.0000      -0.003047        -0.0829
  14   0.0000       0.022298         0.6068
  15   0.0000       0.025813         0.7024
  16   0.0000       0.041281         1.1233
  17   0.0000       0.065338         1.7779

MULLIKEN ATOMIC CHARGES
-----------------------
   0 C :    0.021560
   1 H :    0.221794
   2 C :   -1.372448
   3 C :   -1.126938
   4 H :    0.221779
   5 H :    0.336094
   6 H :    0.381374
   7 H :    0.395955
   8 H :    0.307247
   9 H :    0.307442
  10 H :    0.306140
Sum of atomic charges:   -0.0000000

LOEWDIN ATOMIC CHARGES
----------------------
   0 C :   -0.307619
   1 H :    0.100737
   2 C :   -0.124222
   3 C :   -0.105956
   4 H :    0.099506
   5 H :    0.054813
   6 H :    0.050788
   7 H :    0.048901
   8 H :    0.056946
   9 H :    0.062580
  10 H :    0.063526

  Mayer bond orders larger than 0.100000
B(  0-C ,  1-H ) :   0.9784 B(  0-C ,  2-C ) :   0.5858 B(  0-C ,  3-C ) :   0.5925
B(  0-C ,  4-H ) :   0.9893 B(  2-C ,  5-H ) :   0.9337 B(  2-C ,  6-H ) :   0.9250
B(  2-C ,  7-H ) :   0.8823 B(  3-C ,  8-H ) :   0.9720 B(  3-C ,  9-H ) :   0.9663
B(  3-C , 10-H ) :   0.9724

Dispersion correction           -0.012469430
FINAL SINGLE POINT ENERGY      -119.092957877075

DIPOLE MOMENT
-------------
                                X             Y             Z
Electronic contribution:     -0.14321       0.12297      -0.39901
Nuclear contribution   :      0.10024      -0.14218       0.41628
                        -----------------------------------------
Total Dipole Moment    :     -0.04296      -0.01921       0.01727
                        -----------------------------------------
Magnitude (a.u.)       :      0.05013
Magnitude (Debye)      :      0.12742

Rotational constants in cm-1:     1.024179     0.291605     0.259489
Rotational constants in MHz : 30704.103454  8742.106283  7779.285909

                             ****ORCA TERMINATED NORMALLY****
TOTAL RUN TIME: 0 days 0 hours 0 minutes 8 seconds 921 msec
