                         Program Version 5.0.0 -  RELEASE  -
|  1> !BLYP D3BJ RIJCOSX def2-TZVPD def2/J TightSCF
|  2> *xyz 0 1
|  3> C         -2.79070       -0.78527        5.70281
|  4> C         -2.45380        0.05510        6.94145
|  5> C         -2.07842        1.48042        6.56410
|  6> H         -1.62558       -0.38216        7.49891
|  7> H         -3.32527        0.08775        7.59917
|  8> O         -0.90125        1.85816        6.82810
|  9> F         -2.93658        2.17731        5.96415
| 10> H         -1.94052       -0.82114        5.05412
| 11> H         -3.61590       -0.34261        5.18514
| 12> H         -3.05063       -1.77815        6.00536
| 13> *
| 14> %MaxCore 64000
| 15>
| 16> %pal nprocs 4
| 17> end
| 18>
| 19> %scf
| 20>   MaxIter 150
| 21> end
| 22>
| 23>
| 24>                          ****END OF INPUT****

CARTESIAN COORDINATES (ANGSTROEM)
---------------------------------
  C     -2.790700   -0.785270    5.702810
  C     -2.453800    0.055100    6.941450
  C     -2.078420    1.480420    6.564100
  H     -1.625580   -0.382160    7.498910
  H     -3.325270    0.087750    7.599170
  O     -0.901250    1.858160    6.828100
  F     -2.936580    2.177310    5.964150
  H     -1.940520   -0.821140    5.054120
  H     -3.615900   -0.342610    5.185140
  H     -3.050630   -1.778150    6.005360

 Total Charge           Charge          ....    0
 Multiplicity           Mult            ....    1
 Number of Electrons    NEL             ....   40
 Basis Dimension        Dim             ....  236

ORBITAL ENERGIES
----------------

  NO   OCC          E(Eh)            E(eV)
   0   2.0000     -24.354019      -662.7066
   1   2.0000     -18.776144      -510.9248
   2   2.0000     -10.074671      -274.1457
   3   2.0000      -9.935940      -270.3707
   4   2.0000      -9.914324      -269.7825
   5   2.0000      -1.208175       -32.8761
   6   2.0000      -0.933454       -25.4006
   7   2.0000      -0.726045       -19.7567
   8   2.0000      -0.616257       -16.7692
   9   2.0000      -0.576289       -15.6816
  10   2.0000      -0.486450       -13.2370
  11   2.0000      -0.473540       -12.8857
  12   2.0000      -0.442674       -12.0458
  13   2.0000      -0.412919       -11.2361
  14   2.0000      -0.383558       -10.4371
  15   2.0000      -0.354744        -9.6531
  16   2.0000      -0.335094        -9.1184
  17   2.0000      -0.331272        -9.0144
  18   2.0000      -0.305353        -8.3091
  19   2.0000      -0.236800        -6.4437
  20   0.0000      -0.065137        -1.7725
  21   0.0000      -0.016201        -0.4409
  22   0.0000       0.012611         0.3432
  23   0.0000       0.023461         0.6384
  24   0.0000       0.032924         0.8959

MULLIKEN ATOMIC CHARGES
-----------------------
   0 C :   -1.183079
   1 C :   -0.074060
   2 C :    0.537184
   3 H :    0.198538
   4 H :    0.253952
   5 O :   -0.489708
   6 F :   -0.221909
   7 H :    0.364051
   8 H :    0.315773
   9 H :    0.299258
Sum of atomic charges:   -0.0000000

LOEWDIN ATOMIC CHARGES
----------------------
   0 C :   -0.079603
   1 C :   -0.151850
   2 C :   -0.508927
   3 H :    0.113386
   4 H :    0.113852
   5 O :    0.085927
   6 F :    0.221781
   7 H :    0.073193
   8 H :    0.065988
   9 H :    0.066253

  Mayer bond orders larger than 0.100000
B(  0-C ,  1-C ) :   0.5316 B(  0-C ,  7-H ) :   0.9218 B(  0-C ,  8-H ) :   0.9677
B(  0-C ,  9-H ) :   0.9549 B(  1-C ,  2-C ) :   0.9018 B(  1-C ,  3-H ) :   1.0138
B(  1-C ,  4-H ) :   0.9269 B(  2-C ,  5-O ) :   1.6994 B(  2-C ,  6-F ) :   0.9934

Dispersion correction           -0.012791987
FINAL SINGLE POINT ENERGY      -292.454180811330

DIPOLE MOMENT
-------------
                                X             Y             Z
Electronic contribution:      0.59749       7.95527       0.05136
Nuclear contribution   :     -1.47571      -8.84360      -0.10748
                        -----------------------------------------
Total Dipole Moment    :     -0.87822      -0.88834      -0.05612
                        -----------------------------------------
Magnitude (a.u.)       :      1.25043
Magnitude (Debye)      :      3.17833

Rotational constants in cm-1:     0.283081     0.133379     0.103386
Rotational constants in MHz :  8486.545774  3998.599544  3099.448040

                             ****ORCA TERMINATED NORMALLY****
TOTAL RUN TIME: 0 days 0 hours 0 minutes 10 seconds 888 msec
