                         Program Version 5.0.0 -  RELEASE  -
|  1> !BLYP D3BJ RIJCOSX def2-TZVPD def2/J TightSCF xyzfile
|  2>
|  3> *xyzfile 0 1 D1.xyz
|  4>
|  5> %MaxCore 64000
|  6>
|  7> %pal nprocs 4
|  8> end
|  9>
| 10> %scf
| 11>   MaxIter 150
| 12> end
| 13>
| 14>
| 15>                          ****END OF INPUT****

CARTESIAN COORDINATES (ANGSTROEM)
---------------------------------
  C     -0.699123    3.489451    3.755163
  H     -0.966716    4.349013    3.140491
  C     -1.080669    3.792957    5.156857
  C      0.776956    3.138391    3.617408
  H     -1.331455    2.656510    3.446323
  H      1.371398    3.888342    4.149744
  H      1.046926    3.232057    2.561331
  C      1.118917    1.731170    4.115155
  H      2.200573    1.654226    4.254882
  C      0.659466    0.635182    3.153306
  H      0.677024    1.576674    5.103150
  H      1.312288    0.638870    2.274207
  H     -0.339563    0.868049    2.772876
  C      0.639957   -0.771175    3.755619
  C     -0.341821   -0.965537    4.915046
  H      1.648266   -1.028665    4.097015
  H      0.398568   -1.482386    2.958453
  H     -0.279892   -2.005646    5.252547
  C     -1.789164   -0.639231    4.557496
  H     -0.032380   -0.352918    5.765118
  H     -2.107151   -1.270102    3.719619
  H     -1.856352    0.391636    4.197604
  C     -2.790700   -0.785275    5.702812
  H     -2.867308   -1.835651    6.001675
  H     -3.774554   -0.486577    5.334807
  C     -2.453797    0.055101    6.941445
  C     -2.078419    1.480421    6.564098
  H     -1.625584   -0.382163    7.498914
  H     -3.325274    0.087746    7.599175
  H     -0.874488    4.762737    5.427344
  H     -0.680793    3.134762    5.839000
  H     -2.057550    3.531691    5.346197
  F     -0.901252    1.858156    6.828104
  O     -2.936582    2.177309    5.964151

 Total Charge           Charge          ....    0
 Multiplicity           Mult            ....    1
 Number of Electrons    NEL             ....  104
 Basis Dimension        Dim             ....  676

ORBITAL ENERGIES
----------------

  NO   OCC          E(Eh)            E(eV)
   0   2.0000     -24.359855      -662.8653
   1   2.0000     -18.783242      -511.1180
   2   2.0000     -10.084215      -274.4055
   3   2.0000      -9.937293      -270.4075
   4   2.0000      -9.920598      -269.9532
   5   2.0000      -9.906178      -269.5608
   6   2.0000      -9.903276      -269.4819
   7   2.0000      -9.898203      -269.3438
   8   2.0000      -9.891220      -269.1538
   9   2.0000      -9.888649      -269.0838
  10   2.0000      -9.881650      -268.8934
  11   2.0000      -9.872052      -268.6322
  12   2.0000      -9.819513      -267.2025
  13   2.0000      -1.219046       -33.1719
  14   2.0000      -0.951474       -25.8909
  15   2.0000      -0.749109       -20.3843
  16   2.0000      -0.725856       -19.7515
  17   2.0000      -0.697813       -18.9885
  18   2.0000      -0.671889       -18.2830
  19   2.0000      -0.633521       -17.2390
  20   2.0000      -0.612770       -16.6743
  21   2.0000      -0.587818       -15.9953
  22   2.0000      -0.557158       -15.1610
  23   2.0000      -0.541262       -14.7285
  24   2.0000      -0.503442       -13.6993
  25   2.0000      -0.497186       -13.5291
  26   2.0000      -0.489613       -13.3230
  27   2.0000      -0.471867       -12.8401
  28   2.0000      -0.459294       -12.4980
  29   2.0000      -0.424644       -11.5552
  30   2.0000      -0.421672       -11.4743
  31   2.0000      -0.406380       -11.0582
  32   2.0000      -0.402916       -10.9639
  33   2.0000      -0.385592       -10.4925
  34   2.0000      -0.374844       -10.2000
  35   2.0000      -0.361632        -9.8405
  36   2.0000      -0.357970        -9.7408
  37   2.0000      -0.350929        -9.5493
  38   2.0000      -0.340966        -9.2781
  39   2.0000      -0.330599        -8.9961
  40   2.0000      -0.320600        -8.7240
  41   2.0000      -0.314159        -8.5487
  42   2.0000      -0.307480        -8.3669
  43   2.0000      -0.300922        -8.1885
  44   2.0000      -0.292417        -7.9571
  45   2.0000      -0.285026        -7.7559
  46   2.0000      -0.279531        -7.6064
  47   2.0000      -0.270181        -7.3520
  48   2.0000      -0.265804        -7.2329
  49   2.0000      -0.257082        -6.9956
  50   2.0000      -0.251636        -6.8474
  51   2.0000      -0.219764        -5.9801
  52   0.0000      -0.077500        -2.1089
  53   0.0000      -0.014486        -0.3942
  54   0.0000      -0.001081        -0.0294
  55   0.0000       0.001562         0.0425
  56   0.0000       0.008081         0.2199

MULLIKEN ATOMIC CHARGES
-----------------------
   0 C :   -0.140857
   1 H :    0.227133
   2 C :   -2.159246
   3 C :   -0.478037
   4 H :    0.263638
   5 H :    0.258192
   6 H :    0.194750
   7 C :   -0.370806
   8 H :    0.284769
   9 C :   -0.461239
  10 H :    0.247432
  11 H :    0.296462
  12 H :    0.218854
  13 C :   -0.722779
  14 C :   -0.337919
  15 H :    0.255358
  16 H :    0.277038
  17 H :    0.238088
  18 C :   -0.318791
  19 H :    0.251897
  20 H :    0.324824
  21 H :    0.069430
  22 C :   -0.627578
  23 H :    0.254180
  24 H :    0.273835
  25 C :   -0.566558
  26 C :    0.752192
  27 H :    0.279706
  28 H :    0.312485
  29 H :    0.478571
  30 H :    0.639205
  31 H :    0.659959
  32 F :   -0.303191
  33 O :   -0.570997
Sum of atomic charges:    0.0000000

LOEWDIN ATOMIC CHARGES
----------------------
   0 C :   -0.232307
   1 H :    0.106668
   2 C :   -0.114928
   3 C :   -0.201125
   4 H :    0.093356
   5 H :    0.109078
   6 H :    0.103223
   7 C :   -0.195961
   8 H :    0.111479
   9 C :   -0.208968
  10 H :    0.085831
  11 H :    0.111448
  12 H :    0.094036
  13 C :   -0.199956
  14 C :   -0.203238
  15 H :    0.107532
  16 H :    0.106190
  17 H :    0.114139
  18 C :   -0.198247
  19 H :    0.090530
  20 H :    0.120831
  21 H :    0.093986
  22 C :   -0.180647
  23 H :    0.112636
  24 H :    0.112415
  25 C :   -0.094707
  26 C :   -0.460311
  27 H :    0.110053
  28 H :    0.124364
  29 H :    0.066906
  30 H :    0.018836
  31 H :    0.018040
  32 F :    0.181601
  33 O :    0.097216

  Mayer bond orders larger than 0.100000
B(  0-C ,  1-H ) :   0.9166 B(  0-C ,  2-C ) :   0.1049 B(  0-C ,  3-C ) :   0.7664
B(  0-C ,  4-H ) :   1.0413 B(  2-C ,  3-C ) :   0.1073 B(  2-C , 29-H ) :   0.6862
B(  2-C , 30-H ) :   0.7604 B(  2-C , 31-H ) :   0.7536 B(  3-C ,  5-H ) :   0.9458
B(  3-C ,  6-H ) :   0.9641 B(  3-C ,  7-C ) :   0.8695 B(  3-C ,  9-C ) :   0.1919
B(  7-C ,  8-H ) :   0.8840 B(  7-C ,  9-C ) :   0.3237 B(  7-C , 10-H ) :   1.1170
B(  7-C , 13-C ) :   0.1445 B(  7-C , 14-C ) :   0.1275 B(  9-C , 11-H ) :   0.9083
B(  9-C , 12-H ) :   1.0219 B(  9-C , 13-C ) :   0.8476 B(  9-C , 18-C ) :   0.1391
B( 13-C , 14-C ) :   0.8118 B( 13-C , 15-H ) :   0.9768 B( 13-C , 16-H ) :   0.9478
B( 14-C , 17-H ) :   0.9573 B( 14-C , 18-C ) :   0.2960 B( 14-C , 19-H ) :   0.9924
B( 14-C , 21-H ) :  -0.2345 B( 14-C , 22-C ) :   0.1083 B( 14-C , 25-C ) :   0.1477
B( 18-C , 19-H ) :  -0.1259 B( 18-C , 20-H ) :   0.8053 B( 18-C , 21-H ) :   1.3763
B( 18-C , 22-C ) :   0.8042 B( 18-C , 25-C ) :  -0.1125 B( 18-C , 26-C ) :   0.1013
B( 21-H , 22-C ) :   0.1490 B( 22-C , 23-H ) :   0.9571 B( 22-C , 24-H ) :   0.9095
B( 22-C , 25-C ) :   0.8204 B( 25-C , 26-C ) :   0.9145 B( 25-C , 27-H ) :   0.9676
B( 25-C , 28-H ) :   0.8922 B( 26-C , 32-F ) :   0.8745 B( 26-C , 33-O ) :   1.5366
B( 29-H , 31-H ) :   0.1224 B( 30-H , 32-F ) :  -0.1912 B( 31-H , 33-O ) :  -0.1150
B( 32-F , 33-O ) :   0.1177

Dispersion correction           -0.074716834
FINAL SINGLE POINT ENERGY      -606.848355570487

DIPOLE MOMENT
-------------
                                X             Y             Z
Electronic contribution:     -5.48397       2.53194      10.82974
Nuclear contribution   :      5.54676      -3.70047     -10.28793
                        -----------------------------------------
Total Dipole Moment    :      0.06279      -1.16853       0.54181
                        -----------------------------------------
Magnitude (a.u.)       :      1.28956
Magnitude (Debye)      :      3.27780

Rotational constants in cm-1:     0.028503     0.023389     0.015214
Rotational constants in MHz :   854.502405   701.197575   456.108322

                             ****ORCA TERMINATED NORMALLY****
TOTAL RUN TIME: 0 days 0 hours 1 minutes 31 seconds 693 msec
