                         Program Version 5.0.0 -  RELEASE  -
|  1> !BLYP D3BJ RIJCOSX def2-TZVPD def2/J TightSCF xyzfile
|  2>
|  3> *xyzfile 0 1 D2.xyz
|  4>
|  5> %MaxCore 64000
|  6>
|  7> %pal nprocs 4
|  8> end
|  9>
| 10> %scf
| 11>   MaxIter 150
| 12> end
| 13>
| 14>
| 15>                          ****END OF INPUT****

CARTESIAN COORDINATES (ANGSTROEM)
---------------------------------
  C     -0.699123    3.489451    3.755163
  H     -0.966716    4.349013    3.140491
  C     -1.080669    3.792957    5.156857
  C      0.776956    3.138391    3.617408
  H     -1.331455    2.656510    3.446323
  H      1.371398    3.888342    4.149744
  H      1.046926    3.232057    2.561331
  C      1.118917    1.731170    4.115155
  H      2.200573    1.654226    4.254882
  C      0.659466    0.635182    3.153306
  H      0.677024    1.576674    5.103150
  H      1.312288    0.638870    2.274207
  H     -0.339563    0.868049    2.772876
  C      0.639957   -0.771175    3.755619
  C     -0.341821   -0.965537    4.915046
  H      1.648266   -1.028665    4.097015
  H      0.398568   -1.482386    2.958453
  H     -0.279892   -2.005646    5.252547
  C     -1.789164   -0.639231    4.557496
  H     -0.032380   -0.352918    5.765118
  H     -2.107151   -1.270102    3.719619
  H     -1.856352    0.391636    4.197604
  C     -2.790700   -0.785275    5.702812
  H     -2.867308   -1.835651    6.001675
  H     -3.774554   -0.486577    5.334807
  C     -2.453797    0.055101    6.941445
  C     -2.078419    1.480421    6.564098
  H     -1.625584   -0.382163    7.498914
  H     -3.325274    0.087746    7.599175
  H     -0.874488    4.762737    5.427344
  H     -0.680793    3.134762    5.839000
  H     -2.057550    3.531691    5.346197
  O     -0.901252    1.858156    6.828104
  F     -2.936582    2.177309    5.964151

 Total Charge           Charge          ....    0
 Multiplicity           Mult            ....    1
 Number of Electrons    NEL             ....  104
 Basis Dimension        Dim             ....  676

ORBITAL ENERGIES
----------------

  NO   OCC          E(Eh)            E(eV)
   0   2.0000     -24.363011      -662.9512
   1   2.0000     -18.783182      -511.1164
   2   2.0000     -10.085600      -274.4431
   3   2.0000      -9.937592      -270.4156
   4   2.0000      -9.923579      -270.0343
   5   2.0000      -9.908237      -269.6168
   6   2.0000      -9.898078      -269.3404
   7   2.0000      -9.894399      -269.2403
   8   2.0000      -9.887356      -269.0486
   9   2.0000      -9.880951      -268.8743
  10   2.0000      -9.878534      -268.8086
  11   2.0000      -9.871916      -268.6285
  12   2.0000      -9.818482      -267.1745
  13   2.0000      -1.222316       -33.2609
  14   2.0000      -0.951007       -25.8782
  15   2.0000      -0.750367       -20.4185
  16   2.0000      -0.723012       -19.6741
  17   2.0000      -0.696064       -18.9409
  18   2.0000      -0.670413       -18.2429
  19   2.0000      -0.630303       -17.1514
  20   2.0000      -0.610643       -16.6164
  21   2.0000      -0.589397       -16.0383
  22   2.0000      -0.553769       -15.0688
  23   2.0000      -0.542053       -14.7500
  24   2.0000      -0.500819       -13.6280
  25   2.0000      -0.498307       -13.5596
  26   2.0000      -0.490334       -13.3427
  27   2.0000      -0.473549       -12.8859
  28   2.0000      -0.455328       -12.3901
  29   2.0000      -0.426984       -11.6188
  30   2.0000      -0.423052       -11.5118
  31   2.0000      -0.404645       -11.0109
  32   2.0000      -0.398581       -10.8459
  33   2.0000      -0.380958       -10.3664
  34   2.0000      -0.370942       -10.0939
  35   2.0000      -0.362453        -9.8628
  36   2.0000      -0.358474        -9.7546
  37   2.0000      -0.352206        -9.5840
  38   2.0000      -0.339319        -9.2333
  39   2.0000      -0.328282        -8.9330
  40   2.0000      -0.323218        -8.7952
  41   2.0000      -0.320185        -8.7127
  42   2.0000      -0.305386        -8.3100
  43   2.0000      -0.299589        -8.1522
  44   2.0000      -0.292142        -7.9496
  45   2.0000      -0.281929        -7.6717
  46   2.0000      -0.277721        -7.5572
  47   2.0000      -0.268469        -7.3054
  48   2.0000      -0.262563        -7.1447
  49   2.0000      -0.254132        -6.9153
  50   2.0000      -0.250135        -6.8065
  51   2.0000      -0.211078        -5.7437
  52   0.0000      -0.076914        -2.0929
  53   0.0000      -0.017457        -0.4750
  54   0.0000       0.000642         0.0175
  55   0.0000       0.001279         0.0348
  56   0.0000       0.008157         0.2220

MULLIKEN ATOMIC CHARGES
-----------------------
   0 C :   -0.162635
   1 H :    0.221488
   2 C :   -2.162053
   3 C :   -0.508763
   4 H :    0.270408
   5 H :    0.261351
   6 H :    0.195374
   7 C :   -0.447785
   8 H :    0.275145
   9 C :   -0.460760
  10 H :    0.357836
  11 H :    0.295093
  12 H :    0.211799
  13 C :   -0.705650
  14 C :   -0.383416
  15 H :    0.249680
  16 H :    0.272526
  17 H :    0.243293
  18 C :   -0.194315
  19 H :    0.291560
  20 H :    0.315968
  21 H :    0.020463
  22 C :   -0.727251
  23 H :    0.254795
  24 H :    0.284819
  25 C :   -0.509606
  26 C :    0.708831
  27 H :    0.248563
  28 H :    0.351235
  29 H :    0.462731
  30 H :    0.796387
  31 H :    0.523534
  32 O :   -0.576249
  33 F :   -0.274399
Sum of atomic charges:    0.0000000

LOEWDIN ATOMIC CHARGES
----------------------
   0 C :   -0.235718
   1 H :    0.104083
   2 C :   -0.114551
   3 C :   -0.198535
   4 H :    0.090462
   5 H :    0.110131
   6 H :    0.102470
   7 C :   -0.192543
   8 H :    0.111731
   9 C :   -0.209708
  10 H :    0.087387
  11 H :    0.110502
  12 H :    0.092373
  13 C :   -0.199726
  14 C :   -0.200585
  15 H :    0.107934
  16 H :    0.104931
  17 H :    0.113990
  18 C :   -0.198993
  19 H :    0.093395
  20 H :    0.120059
  21 H :    0.093020
  22 C :   -0.185599
  23 H :    0.112758
  24 H :    0.108742
  25 C :   -0.089842
  26 C :   -0.458373
  27 H :    0.118791
  28 H :    0.120932
  29 H :    0.067300
  30 H :   -0.001071
  31 H :    0.032677
  32 O :    0.070384
  33 F :    0.211191

  Mayer bond orders larger than 0.100000
B(  0-C ,  1-H ) :   0.9336 B(  0-C ,  3-C ) :   0.8078 B(  0-C ,  4-H ) :   1.0307
B(  2-C ,  3-C ) :   0.1432 B(  2-C , 29-H ) :   0.7100 B(  2-C , 30-H ) :   0.6431
B(  2-C , 31-H ) :   0.8473 B(  3-C ,  5-H ) :   0.9369 B(  3-C ,  6-H ) :   0.9685
B(  3-C ,  7-C ) :   0.8758 B(  3-C ,  9-C ) :   0.2015 B(  7-C ,  8-H ) :   0.8901
B(  7-C ,  9-C ) :   0.2714 B(  7-C , 10-H ) :   1.0566 B(  7-C , 12-H ) :  -0.1005
B(  7-C , 13-C ) :   0.1509 B(  7-C , 14-C ) :   0.1393 B(  9-C , 11-H ) :   0.9120
B(  9-C , 12-H ) :   1.0305 B(  9-C , 13-C ) :   0.8484 B(  9-C , 18-C ) :   0.1480
B( 13-C , 14-C ) :   0.7916 B( 13-C , 15-H ) :   0.9768 B( 13-C , 16-H ) :   0.9531
B( 14-C , 17-H ) :   0.9502 B( 14-C , 18-C ) :   0.3343 B( 14-C , 19-H ) :   0.9740
B( 14-C , 21-H ) :  -0.2175 B( 14-C , 22-C ) :   0.1266 B( 14-C , 25-C ) :   0.1566
B( 18-C , 19-H ) :  -0.1171 B( 18-C , 20-H ) :   0.8364 B( 18-C , 21-H ) :   1.3206
B( 18-C , 22-C ) :   0.7300 B( 18-C , 25-C ) :  -0.1765 B( 18-C , 26-C ) :   0.1060
B( 21-H , 22-C ) :   0.1629 B( 22-C , 23-H ) :   0.9490 B( 22-C , 24-H ) :   0.9344
B( 22-C , 25-C ) :   0.7796 B( 25-C , 26-C ) :   0.9285 B( 25-C , 27-H ) :   1.0003
B( 25-C , 28-H ) :   0.8690 B( 26-C , 32-O ) :   1.6691 B( 26-C , 33-F ) :   0.7593
B( 29-H , 31-H ) :   0.1176 B( 30-H , 32-O ) :  -0.2688 B( 32-O , 33-F ) :   0.1267

Dispersion correction           -0.074898124
FINAL SINGLE POINT ENERGY      -606.846796685364

DIPOLE MOMENT
-------------
                                X             Y             Z
Electronic contribution:     -8.91917       3.05702       9.46394
Nuclear contribution   :      8.07181      -4.09641      -9.21610
                        -----------------------------------------
Total Dipole Moment    :     -0.84737      -1.03939       0.24783
                        -----------------------------------------
Magnitude (a.u.)       :      1.36374
Magnitude (Debye)      :      3.46636

Rotational constants in cm-1:     0.028400     0.023377     0.015073
Rotational constants in MHz :   851.414727   700.831775   451.871218

                             ****ORCA TERMINATED NORMALLY****
TOTAL RUN TIME: 0 days 0 hours 1 minutes 32 seconds 549 msec
