                         Program Version 5.0.0 -  RELEASE  -
|  1> !CAM-B3LYP RIJCOSX def2-SVP def2/J TightSCF
|  2> *xyz -1 1
|  3> C          4.93020       -7.37532       -2.64962
|  4> C          3.84189       -6.95161       -3.63283
|  5> H          3.45814       -5.95442       -3.40712
|  6> H          2.98848       -7.64361       -3.56708
|  7> S          4.31812       -6.91593       -5.36869
|  8> O          5.40615       -5.89948       -5.51297
|  9> O          3.11191       -6.44508       -6.04379
| 10> O          4.76340       -8.23942       -5.69863
| 11> H          5.27901       -8.35440       -2.90385
| 12> H          4.53000       -7.38577       -1.65734
| 13> H          5.74437       -6.68276       -2.69856
| 14> *
| 15>
| 16> %MaxCore 64000
| 17>
| 18> %pal nprocs 4
| 19> end
| 20>
| 21> %scf
| 22>   MaxIter 150
| 23> end
| 24>
| 25>
| 26>                          ****END OF INPUT****

CARTESIAN COORDINATES (ANGSTROEM)
---------------------------------
  C      4.930200   -7.375320   -2.649620
  C      3.841890   -6.951610   -3.632830
  H      3.458140   -5.954420   -3.407120
  H      2.988480   -7.643610   -3.567080
  S      4.318120   -6.915930   -5.368690
  O      5.406150   -5.899480   -5.512970
  O      3.111910   -6.445080   -6.043790
  O      4.763400   -8.239420   -5.698630
  H      5.279010   -8.354400   -2.903850
  H      4.530000   -7.385770   -1.657340
  H      5.744370   -6.682760   -2.698560

 Total Charge           Charge          ....   -1
 Multiplicity           Mult            ....    1
 Number of Electrons    NEL             ....   58
 Basis Dimension        Dim             ....  113

ORBITAL ENERGIES
----------------

  NO   OCC          E(Eh)            E(eV)
   0   2.0000     -88.920807     -2419.6582
   1   2.0000     -18.960262      -515.9349
   2   2.0000     -18.949025      -515.6292
   3   2.0000     -18.940241      -515.3902
   4   2.0000     -10.112296      -275.1696
   5   2.0000     -10.108287      -275.0605
   6   2.0000      -7.980747      -217.1672
   7   2.0000      -5.950218      -161.9137
   8   2.0000      -5.949912      -161.9053
   9   2.0000      -5.949838      -161.9033
  10   2.0000      -0.982251       -26.7284
  11   2.0000      -0.840137       -22.8613
  12   2.0000      -0.808060       -21.9884
  13   2.0000      -0.702018       -19.1029
  14   2.0000      -0.572140       -15.5687
  15   2.0000      -0.436955       -11.8902
  16   2.0000      -0.380859       -10.3637
  17   2.0000      -0.366641        -9.9768
  18   2.0000      -0.330561        -8.9950
  19   2.0000      -0.308866        -8.4047
  20   2.0000      -0.305458        -8.3119
  21   2.0000      -0.283817        -7.7231
  22   2.0000      -0.267415        -7.2767
  23   2.0000      -0.186513        -5.0753
  24   2.0000      -0.184324        -5.0157
  25   2.0000      -0.152192        -4.1413
  26   2.0000      -0.143032        -3.8921
  27   2.0000      -0.132549        -3.6068
  28   2.0000      -0.095621        -2.6020
  29   0.0000       0.240840         6.5536
  30   0.0000       0.294018         8.0006
  31   0.0000       0.302162         8.2223
  32   0.0000       0.308923         8.4062
  33   0.0000       0.336682         9.1616

MULLIKEN ATOMIC CHARGES
-----------------------
   0 C :    0.045529
   1 C :   -0.090210
   2 H :   -0.003594
   3 H :   -0.007771
   4 S :    0.871971
   5 O :   -0.624107
   6 O :   -0.592338
   7 O :   -0.564494
   8 H :    0.000787
   9 H :   -0.036729
  10 H :    0.000954
Sum of atomic charges:   -1.0000000

LOEWDIN ATOMIC CHARGES
----------------------
   0 C :   -0.072694
   1 C :   -0.186036
   2 H :    0.008697
   3 H :    0.007597
   4 S :    1.117783
   5 O :   -0.668564
   6 O :   -0.634025
   7 O :   -0.606825
   8 H :    0.015867
   9 H :    0.002297
  10 H :    0.015904

  Mayer bond orders larger than 0.100000
B(  0-C ,  1-C ) :   1.0533 B(  0-C ,  8-H ) :   0.9669 B(  0-C ,  9-H ) :   0.9626
B(  0-C , 10-H ) :   0.9667 B(  1-C ,  2-H ) :   0.9453 B(  1-C ,  3-H ) :   0.9418
B(  1-C ,  4-S ) :   0.8927 B(  4-S ,  5-O ) :   1.5777 B(  4-S ,  6-O ) :   1.6187
B(  4-S ,  7-O ) :   1.6410

FINAL SINGLE POINT ENERGY      -702.606518100538

DIPOLE MOMENT
-------------
                                X             Y             Z
Electronic contribution:     -0.35644       0.81493      -7.91675
Nuclear contribution   :      0.07504      -1.14369       9.75001
                        -----------------------------------------
Total Dipole Moment    :     -0.28140      -0.32876       1.83325
                        -----------------------------------------
Magnitude (a.u.)       :      1.88364
Magnitude (Debye)      :      4.78782

Rotational constants in cm-1:     0.160553     0.082191     0.080550
Rotational constants in MHz :  4813.250478  2464.013016  2414.833054

                             ****ORCA TERMINATED NORMALLY****
TOTAL RUN TIME: 0 days 0 hours 0 minutes 19 seconds 12 msec
