                         Program Version 5.0.0 -  RELEASE  -
|  1> !CAM-B3LYP RIJCOSX def2-SVP def2/J TightSCF
|  2> *xyz 1 1
|  3> C          5.55821       -1.99291       -6.21505
|  4> C          4.18188       -2.58967       -6.29891
|  5> N          3.14587       -1.76843       -6.48675
|  6> N          4.01910       -3.86431       -6.22743
|  7> H          4.76849       -4.59115       -5.99077
|  8> H          3.12241       -4.33339       -6.31462
|  9> H          3.28164       -0.77779       -6.56655
| 10> H          2.21255       -2.13419       -6.56225
| 11> C          6.41926       -2.54294       -5.07763
| 12> H          6.03683       -2.19819       -7.17685
| 13> H          5.46761       -0.90737       -6.12797
| 14> H          6.50056       -3.60553       -5.17358
| 15> H          5.96544       -2.30329       -4.13874
| 16> H          7.39438       -2.10494       -5.12457
| 17> *
| 18>
| 19> %MaxCore 64000
| 20>
| 21> %pal nprocs 4
| 22> end
| 23>
| 24> %scf
| 25>   MaxIter 150
| 26> end
| 27>
| 28>
| 29>                          ****END OF INPUT****

CARTESIAN COORDINATES (ANGSTROEM)
---------------------------------
  C      5.558210   -1.992910   -6.215050
  C      4.181880   -2.589670   -6.298910
  N      3.145870   -1.768430   -6.486750
  N      4.019100   -3.864310   -6.227430
  H      4.768490   -4.591150   -5.990770
  H      3.122410   -4.333390   -6.314620
  H      3.281640   -0.777790   -6.566550
  H      2.212550   -2.134190   -6.562250
  C      6.419260   -2.542940   -5.077630
  H      6.036830   -2.198190   -7.176850
  H      5.467610   -0.907370   -6.127970
  H      6.500560   -3.605530   -5.173580
  H      5.965440   -2.303290   -4.138740
  H      7.394380   -2.104940   -5.124570

 Total Charge           Charge          ....    1
 Multiplicity           Mult            ....    1
 Number of Electrons    NEL             ....   40
 Basis Dimension        Dim             ....  115

ORBITAL ENERGIES
----------------

  NO   OCC          E(Eh)            E(eV)
   0   2.0000     -14.656067      -398.8119
   1   2.0000     -14.643958      -398.4823
   2   2.0000     -10.584210      -288.0110
   3   2.0000     -10.455166      -284.4995
   4   2.0000     -10.413902      -283.3767
   5   2.0000      -1.278229       -34.7824
   6   2.0000      -1.177080       -32.0300
   7   2.0000      -1.043934       -28.4069
   8   2.0000      -0.938040       -25.5254
   9   2.0000      -0.887832       -24.1591
  10   2.0000      -0.845868       -23.0173
  11   2.0000      -0.815829       -22.1998
  12   2.0000      -0.766079       -20.8461
  13   2.0000      -0.724736       -19.7211
  14   2.0000      -0.691214       -18.8089
  15   2.0000      -0.670882       -18.2556
  16   2.0000      -0.614528       -16.7222
  17   2.0000      -0.604377       -16.4459
  18   2.0000      -0.588081       -16.0025
  19   2.0000      -0.554241       -15.0817
  20   0.0000      -0.149392        -4.0652
  21   0.0000      -0.101606        -2.7648
  22   0.0000      -0.065237        -1.7752
  23   0.0000      -0.053975        -1.4687
  24   0.0000      -0.029912        -0.8140

MULLIKEN ATOMIC CHARGES
-----------------------
   0 C :    0.012319
   1 C :   -0.077538
   2 N :    0.018748
   3 N :    0.009034
   4 H :    0.212705
   5 H :    0.175164
   6 H :    0.178923
   7 H :    0.165694
   8 C :    0.010524
   9 H :    0.097335
  10 H :    0.048326
  11 H :    0.024544
  12 H :    0.052655
  13 H :    0.071567
Sum of atomic charges:    1.0000000

LOEWDIN ATOMIC CHARGES
----------------------
   0 C :   -0.030258
   1 C :    0.153824
   2 N :    0.088941
   3 N :    0.085742
   4 H :    0.150584
   5 H :    0.115089
   6 H :    0.115166
   7 H :    0.106957
   8 C :   -0.027355
   9 H :    0.070792
  10 H :    0.051648
  11 H :    0.024907
  12 H :    0.040162
  13 H :    0.053799

  Mayer bond orders larger than 0.100000
B(  0-C ,  1-C ) :   1.0199 B(  0-C ,  8-C ) :   1.0868 B(  0-C ,  9-H ) :   0.9143
B(  0-C , 10-H ) :   0.9254 B(  1-C ,  2-N ) :   1.5008 B(  1-C ,  3-N ) :   1.5300
B(  2-N ,  6-H ) :   0.9217 B(  2-N ,  7-H ) :   0.9335 B(  3-N ,  4-H ) :   0.9109
B(  3-N ,  5-H ) :   0.9296 B(  8-C , 11-H ) :   0.9700 B(  8-C , 12-H ) :   0.9760
B(  8-C , 13-H ) :   0.9584

FINAL SINGLE POINT ENERGY      -228.735926011058

DIPOLE MOMENT
-------------
                                X             Y             Z
Electronic contribution:     -3.82723      -0.49928      -1.58649
Nuclear contribution   :      2.76041       0.12669       1.26265
                        -----------------------------------------
Total Dipole Moment    :     -1.06682      -0.37259      -0.32384
                        -----------------------------------------
Magnitude (a.u.)       :      1.17549
Magnitude (Debye)      :      2.98787

Rotational constants in cm-1:     0.280918     0.124524     0.094121
Rotational constants in MHz :  8421.697738  3733.133254  2821.684112

                             ****ORCA TERMINATED NORMALLY****
TOTAL RUN TIME: 0 days 0 hours 0 minutes 20 seconds 430 msec
