                         Program Version 5.0.0 -  RELEASE  -
|  1> !CAM-B3LYP RIJCOSX def2-SVP def2/J TightSCF
|  2> *xyz 0 1
|  3> C          4.93020       -7.37532       -2.64962
|  4> C          3.84189       -6.95161       -3.63283
|  5> H          3.45814       -5.95442       -3.40712
|  6> H          2.98848       -7.64361       -3.56708
|  7> S          4.31812       -6.91593       -5.36869
|  8> F          5.40615       -5.89948       -5.51297
|  9> O          3.11191       -6.44508       -6.04379
| 10> O          4.76340       -8.23942       -5.69863
| 11> H          5.27901       -8.35440       -2.90385
| 12> H          4.53000       -7.38577       -1.65734
| 13> H          5.74437       -6.68276       -2.69856
| 14> *
| 15>
| 16> %MaxCore 64000
| 17>
| 18> %pal nprocs 4
| 19> end
| 20>
| 21> %scf
| 22>   MaxIter 150
| 23> end
| 24>
| 25>
| 26>                          ****END OF INPUT****

CARTESIAN COORDINATES (ANGSTROEM)
---------------------------------
  C      4.930200   -7.375320   -2.649620
  C      3.841890   -6.951610   -3.632830
  H      3.458140   -5.954420   -3.407120
  H      2.988480   -7.643610   -3.567080
  S      4.318120   -6.915930   -5.368690
  F      5.406150   -5.899480   -5.512970
  O      3.111910   -6.445080   -6.043790
  O      4.763400   -8.239420   -5.698630
  H      5.279010   -8.354400   -2.903850
  H      4.530000   -7.385770   -1.657340
  H      5.744370   -6.682760   -2.698560

 Total Charge           Charge          ....    0
 Multiplicity           Mult            ....    1
 Number of Electrons    NEL             ....   58
 Basis Dimension        Dim             ....  113

ORBITAL ENERGIES
----------------

  NO   OCC          E(Eh)            E(eV)
   0   2.0000     -89.193864     -2427.0884
   1   2.0000     -24.852239      -676.2638
   2   2.0000     -19.213680      -522.8308
   3   2.0000     -19.202293      -522.5210
   4   2.0000     -10.319684      -280.8129
   5   2.0000     -10.282738      -279.8075
   6   2.0000      -8.256022      -224.6578
   7   2.0000      -6.229314      -169.5082
   8   2.0000      -6.223096      -169.3391
   9   2.0000      -6.222040      -169.3103
  10   2.0000      -1.407859       -38.3098
  11   2.0000      -1.188169       -32.3317
  12   2.0000      -1.087903       -29.6033
  13   2.0000      -0.901636       -24.5348
  14   2.0000      -0.790598       -21.5133
  15   2.0000      -0.742870       -20.2145
  16   2.0000      -0.648384       -17.6434
  17   2.0000      -0.625178       -17.0120
  18   2.0000      -0.608955       -16.5705
  19   2.0000      -0.562975       -15.3193
  20   2.0000      -0.545111       -14.8332
  21   2.0000      -0.517953       -14.0942
  22   2.0000      -0.498356       -13.5609
  23   2.0000      -0.474455       -12.9106
  24   2.0000      -0.467895       -12.7321
  25   2.0000      -0.440539       -11.9877
  26   2.0000      -0.396434       -10.7875
  27   2.0000      -0.384299       -10.4573
  28   2.0000      -0.372563       -10.1379
  29   0.0000       0.066350         1.8055
  30   0.0000       0.103398         2.8136
  31   0.0000       0.134798         3.6680
  32   0.0000       0.136420         3.7122
  33   0.0000       0.139668         3.8006

MULLIKEN ATOMIC CHARGES
-----------------------
   0 C :    0.019149
   1 C :   -0.133935
   2 H :    0.064376
   3 H :    0.092128
   4 S :    0.956521
   5 F :   -0.220095
   6 O :   -0.456145
   7 O :   -0.430202
   8 H :    0.045253
   9 H :    0.036651
  10 H :    0.026301
Sum of atomic charges:    0.0000000

LOEWDIN ATOMIC CHARGES
----------------------
   0 C :   -0.060130
   1 C :   -0.148341
   2 H :    0.036404
   3 H :    0.055952
   4 S :    1.181552
   5 F :   -0.171962
   6 O :   -0.508555
   7 O :   -0.481579
   8 H :    0.033308
   9 H :    0.036775
  10 H :    0.026579

  Mayer bond orders larger than 0.100000
B(  0-C ,  1-C ) :   1.0488 B(  0-C ,  8-H ) :   0.9701 B(  0-C ,  9-H ) :   0.9630
B(  0-C , 10-H ) :   0.9743 B(  1-C ,  2-H ) :   0.9381 B(  1-C ,  3-H ) :   0.9380
B(  1-C ,  4-S ) :   0.9212 B(  4-S ,  5-F ) :   0.9667 B(  4-S ,  6-O ) :   1.7723
B(  4-S ,  7-O ) :   1.7969

FINAL SINGLE POINT ENERGY      -727.131120242257

DIPOLE MOMENT
-------------
                                X             Y             Z
Electronic contribution:      1.30472       2.63853      -8.79050
Nuclear contribution   :     -0.98922      -2.24849      10.35711
                        -----------------------------------------
Total Dipole Moment    :      0.31550       0.39004       1.56660
                        -----------------------------------------
Magnitude (a.u.)       :      1.64497
Magnitude (Debye)      :      4.18118

Rotational constants in cm-1:     0.151436     0.080885     0.078670
Rotational constants in MHz :  4539.936009  2424.868817  2358.476812

                             ****ORCA TERMINATED NORMALLY****
TOTAL RUN TIME: 0 days 0 hours 0 minutes 19 seconds 198 msec
