                         Program Version 5.0.0 -  RELEASE  -
|  1> !CAM-B3LYP RIJCOSX def2-SVP def2/J TightSCF
|  2> *xyz 0 1
|  3> C          5.55821       -1.99291       -6.21505
|  4> C          4.18188       -2.58967       -6.29891
|  5> C          3.14587       -1.76843       -6.48675
|  6> N          4.01910       -3.86431       -6.22743
|  7> H          4.76849       -4.59115       -5.99077
|  8> H          3.12241       -4.33339       -6.31462
|  9> H          3.28164       -0.77779       -6.56655
| 10> H          2.21255       -2.13419       -6.56225
| 11> C          6.41926       -2.54294       -5.07763
| 12> H          6.03683       -2.19819       -7.17685
| 13> H          5.46761       -0.90737       -6.12797
| 14> H          6.50056       -3.60553       -5.17358
| 15> H          5.96544       -2.30329       -4.13874
| 16> H          7.39438       -2.10494       -5.12457
| 17> *
| 18>
| 19> %MaxCore 64000
| 20>
| 21> %pal nprocs 4
| 22> end
| 23>
| 24> %scf
| 25>   MaxIter 150
| 26> end
| 27>
| 28>
| 29>                          ****END OF INPUT****

CARTESIAN COORDINATES (ANGSTROEM)
---------------------------------
  C      5.558210   -1.992910   -6.215050
  C      4.181880   -2.589670   -6.298910
  C      3.145870   -1.768430   -6.486750
  N      4.019100   -3.864310   -6.227430
  H      4.768490   -4.591150   -5.990770
  H      3.122410   -4.333390   -6.314620
  H      3.281640   -0.777790   -6.566550
  H      2.212550   -2.134190   -6.562250
  C      6.419260   -2.542940   -5.077630
  H      6.036830   -2.198190   -7.176850
  H      5.467610   -0.907370   -6.127970
  H      6.500560   -3.605530   -5.173580
  H      5.965440   -2.303290   -4.138740
  H      7.394380   -2.104940   -5.124570

 Total Charge           Charge          ....    0
 Multiplicity           Mult            ....    1
 Number of Electrons    NEL             ....   40
 Basis Dimension        Dim             ....  115

ORBITAL ENERGIES
----------------

  NO   OCC          E(Eh)            E(eV)
   0   2.0000     -14.404499      -391.9663
   1   2.0000     -10.274585      -279.5857
   2   2.0000     -10.253344      -279.0077
   3   2.0000     -10.246856      -278.8311
   4   2.0000     -10.180771      -277.0329
   5   2.0000      -1.000626       -27.2284
   6   2.0000      -0.849258       -23.1095
   7   2.0000      -0.785441       -21.3729
   8   2.0000      -0.698898       -19.0180
   9   2.0000      -0.648196       -17.6383
  10   2.0000      -0.581751       -15.8303
  11   2.0000      -0.537696       -14.6314
  12   2.0000      -0.508731       -13.8433
  13   2.0000      -0.487124       -13.2553
  14   2.0000      -0.453799       -12.3485
  15   2.0000      -0.444539       -12.0965
  16   2.0000      -0.420707       -11.4480
  17   2.0000      -0.395058       -10.7501
  18   2.0000      -0.389277       -10.5928
  19   2.0000      -0.234257        -6.3744
  20   0.0000       0.084706         2.3050
  21   0.0000       0.112478         3.0607
  22   0.0000       0.134555         3.6614
  23   0.0000       0.139729         3.8022
  24   0.0000       0.164145         4.4666

MULLIKEN ATOMIC CHARGES
-----------------------
   0 C :    0.062628
   1 C :   -0.127479
   2 C :   -0.032595
   3 N :   -0.064368
   4 H :    0.121379
   5 H :    0.112807
   6 H :   -0.055128
   7 H :   -0.067825
   8 C :    0.021432
   9 H :    0.012821
  10 H :    0.001411
  11 H :   -0.010025
  12 H :    0.015842
  13 H :    0.009100
Sum of atomic charges:    0.0000000

LOEWDIN ATOMIC CHARGES
----------------------
   0 C :   -0.025022
   1 C :    0.003477
   2 C :   -0.185212
   3 N :   -0.011564
   4 H :    0.089647
   5 H :    0.077303
   6 H :   -0.006334
   7 H :   -0.012766
   8 C :   -0.050491
   9 H :    0.028364
  10 H :    0.032770
  11 H :    0.011191
  12 H :    0.024605
  13 H :    0.024031

  Mayer bond orders larger than 0.100000
B(  0-C ,  1-C ) :   1.0324 B(  0-C ,  8-C ) :   1.0889 B(  0-C ,  9-H ) :   0.9320
B(  0-C , 10-H ) :   0.9329 B(  1-C ,  2-C ) :   1.8601 B(  1-C ,  3-N ) :   1.2685
B(  2-C ,  6-H ) :   0.9366 B(  2-C ,  7-H ) :   0.9456 B(  3-N ,  4-H ) :   0.9477
B(  3-N ,  5-H ) :   0.9494 B(  8-C , 11-H ) :   0.9700 B(  8-C , 12-H ) :   0.9737
B(  8-C , 13-H ) :   0.9655

FINAL SINGLE POINT ENERGY      -212.269479824497

DIPOLE MOMENT
-------------
                                X             Y             Z
Electronic contribution:     -2.00890      -1.14507      -1.01948
Nuclear contribution   :      2.41345       0.31141       1.16343
                        -----------------------------------------
Total Dipole Moment    :      0.40455      -0.83366       0.14395
                        -----------------------------------------
Magnitude (a.u.)       :      0.93775
Magnitude (Debye)      :      2.38357

Rotational constants in cm-1:     0.287957     0.129204     0.097498
Rotational constants in MHz :  8632.737925  3873.424745  2922.919500

                             ****ORCA TERMINATED NORMALLY****
TOTAL RUN TIME: 0 days 0 hours 0 minutes 20 seconds 386 msec
