                         Program Version 5.0.0 -  RELEASE  -
|  1> !CAM-B3LYP RIJCOSX def2-SVP def2/J TightSCF
|  2> *xyz 0 1
|  3> C          4.93020       -7.37532       -2.64962
|  4> C          3.84189       -6.95161       -3.63283
|  5> H          3.45814       -5.95442       -3.40712
|  6> H          2.98848       -7.64361       -3.56708
|  7> S          4.31812       -6.91593       -5.36869
|  8> O          5.40615       -5.89948       -5.51297
|  9> F          3.11191       -6.44508       -6.04379
| 10> O          4.76340       -8.23942       -5.69863
| 11> H          5.27901       -8.35440       -2.90385
| 12> H          4.53000       -7.38577       -1.65734
| 13> H          5.74437       -6.68276       -2.69856
| 14> *
| 15>
| 16> %MaxCore 64000
| 17>
| 18> %pal nprocs 4
| 19> end
| 20>
| 21> %scf
| 22>   MaxIter 150
| 23> end
| 24>
| 25>
| 26>                          ****END OF INPUT****

CARTESIAN COORDINATES (ANGSTROEM)
---------------------------------
  C      4.930200   -7.375320   -2.649620
  C      3.841890   -6.951610   -3.632830
  H      3.458140   -5.954420   -3.407120
  H      2.988480   -7.643610   -3.567080
  S      4.318120   -6.915930   -5.368690
  O      5.406150   -5.899480   -5.512970
  F      3.111910   -6.445080   -6.043790
  O      4.763400   -8.239420   -5.698630
  H      5.279010   -8.354400   -2.903850
  H      4.530000   -7.385770   -1.657340
  H      5.744370   -6.682760   -2.698560

 Total Charge           Charge          ....    0
 Multiplicity           Mult            ....    1
 Number of Electrons    NEL             ....   58
 Basis Dimension        Dim             ....  113

ORBITAL ENERGIES
----------------

  NO   OCC          E(Eh)            E(eV)
   0   2.0000     -89.194965     -2427.1184
   1   2.0000     -24.867730      -676.6853
   2   2.0000     -19.212310      -522.7935
   3   2.0000     -19.193157      -522.2723
   4   2.0000     -10.320686      -280.8401
   5   2.0000     -10.280756      -279.7536
   6   2.0000      -8.257244      -224.6910
   7   2.0000      -6.230656      -169.5448
   8   2.0000      -6.224223      -169.3697
   9   2.0000      -6.223048      -169.3377
  10   2.0000      -1.436341       -39.0848
  11   2.0000      -1.181298       -32.1447
  12   2.0000      -1.067760       -29.0552
  13   2.0000      -0.901123       -24.5208
  14   2.0000      -0.804688       -21.8967
  15   2.0000      -0.743760       -20.2387
  16   2.0000      -0.651720       -17.7342
  17   2.0000      -0.645850       -17.5745
  18   2.0000      -0.619091       -16.8463
  19   2.0000      -0.565301       -15.3826
  20   2.0000      -0.546538       -14.8721
  21   2.0000      -0.501665       -13.6510
  22   2.0000      -0.496686       -13.5155
  23   2.0000      -0.477900       -13.0043
  24   2.0000      -0.454911       -12.3788
  25   2.0000      -0.443750       -12.0751
  26   2.0000      -0.391745       -10.6599
  27   2.0000      -0.375336       -10.2134
  28   2.0000      -0.358265        -9.7489
  29   0.0000       0.084607         2.3023
  30   0.0000       0.091578         2.4920
  31   0.0000       0.127577         3.4716
  32   0.0000       0.133736         3.6391
  33   0.0000       0.141176         3.8416

MULLIKEN ATOMIC CHARGES
-----------------------
   0 C :    0.030126
   1 C :   -0.127192
   2 H :    0.060839
   3 H :    0.060700
   4 S :    0.949955
   5 O :   -0.486101
   6 F :   -0.188363
   7 O :   -0.427622
   8 H :    0.044895
   9 H :    0.036102
  10 H :    0.046662
Sum of atomic charges:   -0.0000000

LOEWDIN ATOMIC CHARGES
----------------------
   0 C :   -0.045567
   1 C :   -0.152682
   2 H :    0.034932
   3 H :    0.036327
   4 S :    1.177639
   5 O :   -0.541389
   6 F :   -0.137292
   7 O :   -0.480122
   8 H :    0.035190
   9 H :    0.037094
  10 H :    0.035870

  Mayer bond orders larger than 0.100000
B(  0-C ,  1-C ) :   1.0729 B(  0-C ,  8-H ) :   0.9707 B(  0-C ,  9-H ) :   0.9644
B(  0-C , 10-H ) :   0.9714 B(  1-C ,  2-H ) :   0.9336 B(  1-C ,  3-H ) :   0.9312
B(  1-C ,  4-S ) :   0.9180 B(  4-S ,  5-O ) :   1.7322 B(  4-S ,  6-F ) :   1.0054
B(  4-S ,  7-O ) :   1.7936

FINAL SINGLE POINT ENERGY      -727.118619010856

DIPOLE MOMENT
-------------
                                X             Y             Z
Electronic contribution:     -2.61215       1.70680      -9.70628
Nuclear contribution   :      1.40145      -1.67996      10.91024
                        -----------------------------------------
Total Dipole Moment    :     -1.21070       0.02684       1.20396
                        -----------------------------------------
Magnitude (a.u.)       :      1.70764
Magnitude (Debye)      :      4.34048

Rotational constants in cm-1:     0.155875     0.079864     0.077188
Rotational constants in MHz :  4673.017506  2394.277415  2314.027118

                             ****ORCA TERMINATED NORMALLY****
TOTAL RUN TIME: 0 days 0 hours 0 minutes 18 seconds 596 msec
