                         Program Version 5.0.0 -  RELEASE  -
|  1> !CAM-B3LYP RIJCOSX def2-SVP def2/J TightSCF
|  2> *xyz 0 1
|  3> C          5.55821       -1.99291       -6.21505
|  4> C          4.18188       -2.58967       -6.29891
|  5> N          3.14587       -1.76843       -6.48675
|  6> C          4.01910       -3.86431       -6.22743
|  7> H          4.76849       -4.59115       -5.99077
|  8> H          3.12241       -4.33339       -6.31462
|  9> H          3.28164       -0.77779       -6.56655
| 10> H          2.21255       -2.13419       -6.56225
| 11> C          6.41926       -2.54294       -5.07763
| 12> H          6.03683       -2.19819       -7.17685
| 13> H          5.46761       -0.90737       -6.12797
| 14> H          6.50056       -3.60553       -5.17358
| 15> H          5.96544       -2.30329       -4.13874
| 16> H          7.39438       -2.10494       -5.12457
| 17> *
| 18>
| 19> %MaxCore 64000
| 20>
| 21> %pal nprocs 4
| 22> end
| 23>
| 24> %scf
| 25>   MaxIter 150
| 26> end
| 27>
| 28>
| 29>                          ****END OF INPUT****

CARTESIAN COORDINATES (ANGSTROEM)
---------------------------------
  C      5.558210   -1.992910   -6.215050
  C      4.181880   -2.589670   -6.298910
  N      3.145870   -1.768430   -6.486750
  C      4.019100   -3.864310   -6.227430
  H      4.768490   -4.591150   -5.990770
  H      3.122410   -4.333390   -6.314620
  H      3.281640   -0.777790   -6.566550
  H      2.212550   -2.134190   -6.562250
  C      6.419260   -2.542940   -5.077630
  H      6.036830   -2.198190   -7.176850
  H      5.467610   -0.907370   -6.127970
  H      6.500560   -3.605530   -5.173580
  H      5.965440   -2.303290   -4.138740
  H      7.394380   -2.104940   -5.124570

 Total Charge           Charge          ....    0
 Multiplicity           Mult            ....    1
 Number of Electrons    NEL             ....   40
 Basis Dimension        Dim             ....  115

ORBITAL ENERGIES
----------------

  NO   OCC          E(Eh)            E(eV)
   0   2.0000     -14.392476      -391.6392
   1   2.0000     -10.272166      -279.5198
   2   2.0000     -10.254522      -279.0397
   3   2.0000     -10.240047      -278.6458
   4   2.0000     -10.188452      -277.2419
   5   2.0000      -0.989533       -26.9266
   6   2.0000      -0.852193       -23.1893
   7   2.0000      -0.781117       -21.2553
   8   2.0000      -0.709798       -19.3146
   9   2.0000      -0.621876       -16.9221
  10   2.0000      -0.586167       -15.9504
  11   2.0000      -0.551210       -14.9992
  12   2.0000      -0.513816       -13.9817
  13   2.0000      -0.482665       -13.1340
  14   2.0000      -0.447864       -12.1870
  15   2.0000      -0.433755       -11.8031
  16   2.0000      -0.412799       -11.2328
  17   2.0000      -0.396209       -10.7814
  18   2.0000      -0.385675       -10.4947
  19   2.0000      -0.243046        -6.6136
  20   0.0000       0.098347         2.6762
  21   0.0000       0.111661         3.0385
  22   0.0000       0.138499         3.7687
  23   0.0000       0.144265         3.9257
  24   0.0000       0.167508         4.5581

MULLIKEN ATOMIC CHARGES
-----------------------
   0 C :    0.060774
   1 C :   -0.069847
   2 N :   -0.070466
   3 C :   -0.106555
   4 H :   -0.020924
   5 H :   -0.057435
   6 H :    0.099656
   7 H :    0.104932
   8 C :    0.028996
   9 H :    0.025267
  10 H :   -0.023913
  11 H :    0.017475
  12 H :    0.010995
  13 H :    0.001045
Sum of atomic charges:    0.0000000

LOEWDIN ATOMIC CHARGES
----------------------
   0 C :   -0.027693
   1 C :    0.009924
   2 N :   -0.014385
   3 C :   -0.182843
   4 H :    0.011297
   5 H :   -0.007309
   6 H :    0.063474
   7 H :    0.072169
   8 C :   -0.040501
   9 H :    0.035759
  10 H :    0.014534
  11 H :    0.023007
  12 H :    0.023081
  13 H :    0.019484

  Mayer bond orders larger than 0.100000
B(  0-C ,  1-C ) :   0.9979 B(  0-C ,  8-C ) :   1.1098 B(  0-C ,  9-H ) :   0.9336
B(  0-C , 10-H ) :   0.9324 B(  1-C ,  2-N ) :   1.2539 B(  1-C ,  3-C ) :   1.8921
B(  2-N ,  6-H ) :   0.9538 B(  2-N ,  7-H ) :   0.9525 B(  3-C ,  4-H ) :   0.9559
B(  3-C ,  5-H ) :   0.9464 B(  8-C , 11-H ) :   0.9721 B(  8-C , 12-H ) :   0.9747
B(  8-C , 13-H ) :   0.9646

FINAL SINGLE POINT ENERGY      -212.279384350407

DIPOLE MOMENT
-------------
                                X             Y             Z
Electronic contribution:     -2.83189       0.86196      -1.30495
Nuclear contribution   :      2.61570      -0.17401       1.22349
                        -----------------------------------------
Total Dipole Moment    :     -0.21619       0.68795      -0.08146
                        -----------------------------------------
Magnitude (a.u.)       :      0.72571
Magnitude (Debye)      :      1.84460

Rotational constants in cm-1:     0.298189     0.125314     0.096441
Rotational constants in MHz :  8939.495008  3756.825352  2891.223400

                             ****ORCA TERMINATED NORMALLY****
TOTAL RUN TIME: 0 days 0 hours 0 minutes 20 seconds 967 msec
