                         Program Version 5.0.0 -  RELEASE  -
|  1> !CAM-B3LYP RIJCOSX def2-SVP def2/J TightSCF
|  2> *xyz 0 1
|  3> C          4.93020       -7.37532       -2.64962
|  4> C          3.84189       -6.95161       -3.63283
|  5> H          3.45814       -5.95442       -3.40712
|  6> H          2.98848       -7.64361       -3.56708
|  7> S          4.31812       -6.91593       -5.36869
|  8> O          5.40615       -5.89948       -5.51297
|  9> O          3.11191       -6.44508       -6.04379
| 10> F          4.76340       -8.23942       -5.69863
| 11> H          5.27901       -8.35440       -2.90385
| 12> H          4.53000       -7.38577       -1.65734
| 13> H          5.74437       -6.68276       -2.69856
| 14> *
| 15>
| 16> %MaxCore 64000
| 17>
| 18> %pal nprocs 4
| 19> end
| 20>
| 21> %scf
| 22>   MaxIter 150
| 23> end
| 24>
| 25>
| 26>                          ****END OF INPUT****

CARTESIAN COORDINATES (ANGSTROEM)
---------------------------------
  C      4.930200   -7.375320   -2.649620
  C      3.841890   -6.951610   -3.632830
  H      3.458140   -5.954420   -3.407120
  H      2.988480   -7.643610   -3.567080
  S      4.318120   -6.915930   -5.368690
  O      5.406150   -5.899480   -5.512970
  O      3.111910   -6.445080   -6.043790
  F      4.763400   -8.239420   -5.698630
  H      5.279010   -8.354400   -2.903850
  H      4.530000   -7.385770   -1.657340
  H      5.744370   -6.682760   -2.698560

 Total Charge           Charge          ....    0
 Multiplicity           Mult            ....    1
 Number of Electrons    NEL             ....   58
 Basis Dimension        Dim             ....  113

ORBITAL ENERGIES
----------------

  NO   OCC          E(Eh)            E(eV)
   0   2.0000     -89.195656     -2427.1372
   1   2.0000     -24.881476      -677.0594
   2   2.0000     -19.201957      -522.5118
   3   2.0000     -19.194184      -522.3003
   4   2.0000     -10.320613      -280.8382
   5   2.0000     -10.283711      -279.8340
   6   2.0000      -8.258067      -224.7134
   7   2.0000      -6.231741      -169.5743
   8   2.0000      -6.224757      -169.3843
   9   2.0000      -6.223731      -169.3563
  10   2.0000      -1.458978       -39.7008
  11   2.0000      -1.169479       -31.8231
  12   2.0000      -1.059750       -28.8373
  13   2.0000      -0.903857       -24.5952
  14   2.0000      -0.807659       -21.9775
  15   2.0000      -0.755079       -20.5468
  16   2.0000      -0.672467       -18.2987
  17   2.0000      -0.660551       -17.9745
  18   2.0000      -0.613348       -16.6901
  19   2.0000      -0.563735       -15.3400
  20   2.0000      -0.543338       -14.7850
  21   2.0000      -0.514831       -14.0093
  22   2.0000      -0.491167       -13.3653
  23   2.0000      -0.475163       -12.9298
  24   2.0000      -0.462215       -12.5775
  25   2.0000      -0.432891       -11.7796
  26   2.0000      -0.382270       -10.4021
  27   2.0000      -0.374606       -10.1935
  28   2.0000      -0.352272        -9.5858
  29   0.0000       0.070808         1.9268
  30   0.0000       0.103260         2.8098
  31   0.0000       0.130468         3.5502
  32   0.0000       0.134957         3.6724
  33   0.0000       0.137333         3.7370

MULLIKEN ATOMIC CHARGES
-----------------------
   0 C :    0.019222
   1 C :   -0.131833
   2 H :    0.091738
   3 H :    0.063965
   4 S :    0.943423
   5 O :   -0.481797
   6 O :   -0.449300
   7 F :   -0.163061
   8 H :    0.022774
   9 H :    0.037426
  10 H :    0.047443
Sum of atomic charges:    0.0000000

LOEWDIN ATOMIC CHARGES
----------------------
   0 C :   -0.060354
   1 C :   -0.148249
   2 H :    0.054392
   3 H :    0.037417
   4 S :    1.173650
   5 O :   -0.537438
   6 O :   -0.503217
   7 F :   -0.112585
   8 H :    0.025126
   9 H :    0.037064
  10 H :    0.034193

  Mayer bond orders larger than 0.100000
B(  0-C ,  1-C ) :   1.0478 B(  0-C ,  8-H ) :   0.9733 B(  0-C ,  9-H ) :   0.9629
B(  0-C , 10-H ) :   0.9705 B(  1-C ,  2-H ) :   0.9391 B(  1-C ,  3-H ) :   0.9354
B(  1-C ,  4-S ) :   0.9179 B(  4-S ,  5-O ) :   1.7298 B(  4-S ,  6-O ) :   1.7670
B(  4-S ,  7-F ) :   1.0308

FINAL SINGLE POINT ENERGY      -727.106307630766

DIPOLE MOMENT
-------------
                                X             Y             Z
Electronic contribution:      0.20380      -1.33700      -9.11516
Nuclear contribution   :     -0.31946       0.18980      10.55057
                        -----------------------------------------
Total Dipole Moment    :     -0.11566      -1.14720       1.43541
                        -----------------------------------------
Magnitude (a.u.)       :      1.84116
Magnitude (Debye)      :      4.67985

Rotational constants in cm-1:     0.151421     0.081183     0.078684
Rotational constants in MHz :  4539.489207  2433.790160  2358.892966

                             ****ORCA TERMINATED NORMALLY****
TOTAL RUN TIME: 0 days 0 hours 0 minutes 19 seconds 318 msec
