                         Program Version 5.0.0 -  RELEASE  -
|  1> !CAM-B3LYP RIJCOSX def2-TZVP def2/J TightSCF xyzfile
|  2>
|  3> *xyzfile 0 1 D3.xyz
|  4>
|  5> %MaxCore 64000
|  6>
|  7> %pal nprocs 18
|  8> end
|  9>
| 10> %scf
| 11>   MaxIter 150
| 12> end
| 13>
| 14>
| 15>                          ****END OF INPUT****

CARTESIAN COORDINATES (ANGSTROEM)
---------------------------------
  C      5.558206   -1.992914   -6.215054
  C      4.930199   -7.375319   -2.649623
  C      3.841892   -6.951611   -3.632829
  H      3.458144   -5.954425   -3.407121
  H      2.988484   -7.643606   -3.567078
  S      4.318115   -6.915930   -5.368692
  C      4.181880   -2.589671   -6.298911
  C      3.145873   -1.768431   -6.486753
  N      4.019102   -3.864307   -6.227427
  H      4.768490   -4.591153   -5.990773
  H      3.122405   -4.333392   -6.314620
  H      3.281635   -0.777786   -6.566549
  H      2.212549   -2.134193   -6.562246
  O      5.406154   -5.899480   -5.512972
  F      3.111910   -6.445079   -6.043792
  C      6.419260   -2.542944   -5.077630
  C      5.872267   -5.002756   -2.427819
  C      6.173994   -6.485522   -2.606315
  H      6.734852   -6.613767   -3.534015
  H      6.821463   -6.831018   -1.793617
  H      4.469612   -7.406168   -1.655876
  H      5.230134   -8.398678   -2.885906
  C      5.896512   -2.169314   -3.694552
  H      7.428880   -2.143665   -5.208078
  H      6.505894   -3.627541   -5.175502
  C      6.807804   -2.623428   -2.551019
  H      4.894708   -2.589732   -3.557501
  H      5.778823   -1.081255   -3.635790
  C      7.111544   -4.122463   -2.520363
  H      7.751615   -2.071393   -2.614406
  H      6.345837   -2.326401   -1.604086
  H      5.362882   -4.828697   -1.471335
  H      5.174429   -4.702577   -3.211298
  H      7.778329   -4.329347   -1.677651
  H      7.673189   -4.402845   -3.417586
  O      4.763396   -8.239424   -5.698629
  H      6.036826   -2.198189   -7.176852
  H      5.467610   -0.907371   -6.127968

 Total Charge           Charge          ....    0
 Multiplicity           Mult            ....    1
 Number of Electrons    NEL             ....  136
 Basis Dimension        Dim             ....  634

ORBITAL ENERGIES
----------------

  NO   OCC          E(Eh)            E(eV)
   0   2.0000     -89.206183     -2427.4236
   1   2.0000     -24.896755      -677.4752
   2   2.0000     -19.239504      -523.5335
   3   2.0000     -19.231677      -523.3205
   4   2.0000     -14.358127      -390.7045
   5   2.0000     -10.323083      -280.9054
   6   2.0000     -10.281881      -279.7842
   7   2.0000     -10.251120      -278.9472
   8   2.0000     -10.248259      -278.8693
   9   2.0000     -10.241542      -278.6865
  10   2.0000     -10.235519      -278.5226
  11   2.0000     -10.232045      -278.4281
  12   2.0000     -10.226565      -278.2790
  13   2.0000     -10.226301      -278.2718
  14   2.0000     -10.226155      -278.2678
  15   2.0000     -10.152724      -276.2697
  16   2.0000      -8.250116      -224.4971
  17   2.0000      -6.217955      -169.1992
  18   2.0000      -6.211539      -169.0246
  19   2.0000      -6.211050      -169.0113
  20   2.0000      -1.481726       -40.3198
  21   2.0000      -1.219153       -33.1748
  22   2.0000      -1.122797       -30.5529
  23   2.0000      -0.994237       -27.0546
  24   2.0000      -0.935878       -25.4665
  25   2.0000      -0.896519       -24.3955
  26   2.0000      -0.870595       -23.6901
  27   2.0000      -0.841449       -22.8970
  28   2.0000      -0.818610       -22.2755
  29   2.0000      -0.789759       -21.4904
  30   2.0000      -0.769485       -20.9387
  31   2.0000      -0.733447       -19.9581
  32   2.0000      -0.699590       -19.0368
  33   2.0000      -0.689052       -18.7500
  34   2.0000      -0.679377       -18.4868
  35   2.0000      -0.667746       -18.1703
  36   2.0000      -0.654323       -17.8050
  37   2.0000      -0.634177       -17.2568
  38   2.0000      -0.626577       -17.0500
  39   2.0000      -0.593848       -16.1594
  40   2.0000      -0.578912       -15.7530
  41   2.0000      -0.568621       -15.4730
  42   2.0000      -0.553216       -15.0538
  43   2.0000      -0.537352       -14.6221
  44   2.0000      -0.530223       -14.4281
  45   2.0000      -0.526781       -14.3344
  46   2.0000      -0.516446       -14.0532
  47   2.0000      -0.500431       -13.6174
  48   2.0000      -0.492246       -13.3947
  49   2.0000      -0.487159       -13.2563
  50   2.0000      -0.480896       -13.0859
  51   2.0000      -0.470910       -12.8141
  52   2.0000      -0.458030       -12.4636
  53   2.0000      -0.452162       -12.3040
  54   2.0000      -0.439825       -11.9683
  55   2.0000      -0.429976       -11.7002
  56   2.0000      -0.426905       -11.6167
  57   2.0000      -0.423436       -11.5223
  58   2.0000      -0.415995       -11.3198
  59   2.0000      -0.403167       -10.9707
  60   2.0000      -0.397841       -10.8258
  61   2.0000      -0.394384       -10.7317
  62   2.0000      -0.390860       -10.6358
  63   2.0000      -0.380661       -10.3583
  64   2.0000      -0.372557       -10.1378
  65   2.0000      -0.365849        -9.9553
  66   2.0000      -0.362470        -9.8633
  67   2.0000      -0.225026        -6.1233
  68   0.0000       0.043971         1.1965
  69   0.0000       0.051018         1.3883
  70   0.0000       0.073360         1.9962
  71   0.0000       0.079096         2.1523
  72   0.0000       0.087067         2.3692

MULLIKEN ATOMIC CHARGES
-----------------------
   0 C :   -0.173882
   1 C :   -0.201785
   2 C :   -0.309690
   3 H :    0.175316
   4 H :    0.170193
   5 S :    0.905255
   6 C :    0.184373
   7 C :   -0.459305
   8 N :   -0.470374
   9 H :    0.296329
  10 H :    0.196987
  11 H :    0.086678
  12 H :    0.079510
  13 O :   -0.472891
  14 F :   -0.118967
  15 C :   -0.261767
  16 C :   -0.221497
  17 C :   -0.231163
  18 H :    0.148507
  19 H :    0.112981
  20 H :    0.129212
  21 H :    0.146579
  22 C :   -0.224167
  23 H :    0.100253
  24 H :    0.131538
  25 C :   -0.165696
  26 H :    0.123925
  27 H :    0.102325
  28 C :   -0.228972
  29 H :    0.104687
  30 H :    0.099894
  31 H :    0.099103
  32 H :    0.094115
  33 H :    0.104069
  34 H :    0.123173
  35 O :   -0.388092
  36 H :    0.109893
  37 H :    0.103352
Sum of atomic charges:   -0.0000000

LOEWDIN ATOMIC CHARGES
----------------------
   0 C :   -0.209304
   1 C :   -0.273451
   2 C :   -0.368019
   3 H :    0.143321
   4 H :    0.147057
   5 S :    0.593696
   6 C :   -0.375839
   7 C :   -0.302600
   8 N :   -0.023074
   9 H :    0.149183
  10 H :    0.153944
  11 H :    0.095517
  12 H :    0.089277
  13 O :   -0.285049
  14 F :    0.085632
  15 C :   -0.265283
  16 C :   -0.270528
  17 C :   -0.270023
  18 H :    0.142473
  19 H :    0.139646
  20 H :    0.149932
  21 H :    0.147593
  22 C :   -0.265513
  23 H :    0.136078
  24 H :    0.135248
  25 C :   -0.267410
  26 H :    0.136745
  27 H :    0.137520
  28 C :   -0.266915
  29 H :    0.135829
  30 H :    0.134121
  31 H :    0.133975
  32 H :    0.132205
  33 H :    0.134521
  34 H :    0.138794
  35 O :   -0.241786
  36 H :    0.144923
  37 H :    0.147567

  Mayer bond orders larger than 0.100000
B(  0-C ,  6-C ) :   0.9558 B(  0-C , 15-C ) :   0.9487 B(  0-C , 36-H ) :   0.9709
B(  0-C , 37-H ) :   0.9899 B(  1-C ,  2-C ) :   0.9352 B(  1-C , 17-C ) :   0.9626
B(  1-C , 20-H ) :   0.9607 B(  1-C , 21-H ) :   0.9743 B(  2-C ,  3-H ) :   0.9369
B(  2-C ,  4-H ) :   0.9433 B(  2-C ,  5-S ) :   0.9203 B(  5-S , 13-O ) :   1.7045
B(  5-S , 14-F ) :   1.1085 B(  5-S , 35-O ) :   1.9885 B(  6-C ,  7-C ) :   1.7062
B(  6-C ,  8-N ) :   1.2248 B(  7-C , 11-H ) :   1.0017 B(  7-C , 12-H ) :   0.9996
B(  8-N ,  9-H ) :   0.8122 B(  8-N , 10-H ) :   0.9247 B(  9-H , 13-O ) :   0.1069
B( 15-C , 22-C ) :   0.9138 B( 15-C , 23-H ) :   0.9728 B( 15-C , 24-H ) :   0.9874
B( 16-C , 17-C ) :   0.9113 B( 16-C , 28-C ) :   0.9505 B( 16-C , 31-H ) :   0.9661
B( 16-C , 32-H ) :   0.9773 B( 17-C , 18-H ) :   0.9805 B( 17-C , 19-H ) :   0.9800
B( 22-C , 25-C ) :   0.9436 B( 22-C , 26-H ) :   0.9906 B( 22-C , 27-H ) :   0.9774
B( 25-C , 28-C ) :   0.9466 B( 25-C , 29-H ) :   0.9836 B( 25-C , 30-H ) :   0.9883
B( 28-C , 33-H ) :   0.9792 B( 28-C , 34-H ) :   0.9881

FINAL SINGLE POINT ENERGY     -1135.548021855237

DIPOLE MOMENT
-------------
                                X             Y             Z
Electronic contribution:    -10.99101     -20.06503     -14.21720
Nuclear contribution   :     10.48431      18.81367      15.71750
                        -----------------------------------------
Total Dipole Moment    :     -0.50670      -1.25136       1.50030
                        -----------------------------------------
Magnitude (a.u.)       :      2.01830
Magnitude (Debye)      :      5.13012

Rotational constants in cm-1:     0.017977     0.012528     0.008321
Rotational constants in MHz :   538.924099   375.570730   249.458530

                             ****ORCA TERMINATED NORMALLY****
TOTAL RUN TIME: 0 days 0 hours 2 minutes 17 seconds 605 msec
