                         Program Version 5.0.0 -  RELEASE  -
|  1> !CAM-B3LYP RIJCOSX def2-TZVP def2/J TightSCF xyzfile
|  2>
|  3> *xyzfile 0 1 D4.xyz
|  4>
|  5> %MaxCore 64000
|  6>
|  7> %pal nprocs 18
|  8> end
|  9>
| 10> %scf
| 11>   MaxIter 150
| 12> end
| 13>
| 14>
| 15>                          ****END OF INPUT****

CARTESIAN COORDINATES (ANGSTROEM)
---------------------------------
  C      5.558206   -1.992914   -6.215054
  C      4.930199   -7.375319   -2.649623
  C      3.841892   -6.951611   -3.632829
  H      3.458144   -5.954425   -3.407121
  H      2.988484   -7.643606   -3.567078
  S      4.318115   -6.915930   -5.368692
  C      4.181880   -2.589671   -6.298911
  N      3.145873   -1.768431   -6.486753
  C      4.019102   -3.864307   -6.227427
  H      4.768490   -4.591153   -5.990773
  H      3.122405   -4.333392   -6.314620
  H      3.281635   -0.777786   -6.566549
  H      2.212549   -2.134193   -6.562246
  O      5.406154   -5.899480   -5.512972
  F      3.111910   -6.445079   -6.043792
  C      6.419260   -2.542944   -5.077630
  C      5.872267   -5.002756   -2.427819
  C      6.173994   -6.485522   -2.606315
  H      6.734852   -6.613767   -3.534015
  H      6.821463   -6.831018   -1.793617
  H      4.469612   -7.406168   -1.655876
  H      5.230134   -8.398678   -2.885906
  C      5.896512   -2.169314   -3.694552
  H      7.428880   -2.143665   -5.208078
  H      6.505894   -3.627541   -5.175502
  C      6.807804   -2.623428   -2.551019
  H      4.894708   -2.589732   -3.557501
  H      5.778823   -1.081255   -3.635790
  C      7.111544   -4.122463   -2.520363
  H      7.751615   -2.071393   -2.614406
  H      6.345837   -2.326401   -1.604086
  H      5.362882   -4.828697   -1.471335
  H      5.174429   -4.702577   -3.211298
  H      7.778329   -4.329347   -1.677651
  H      7.673189   -4.402845   -3.417586
  O      4.763396   -8.239424   -5.698629
  H      6.036826   -2.198189   -7.176852
  H      5.467610   -0.907371   -6.127968

 Total Charge           Charge          ....    0
 Multiplicity           Mult            ....    1
 Number of Electrons    NEL             ....  136
 Basis Dimension        Dim             ....  634

ORBITAL ENERGIES
----------------

  NO   OCC          E(Eh)            E(eV)
   0   2.0000     -89.182383     -2426.7760
   1   2.0000     -24.870448      -676.7593
   2   2.0000     -19.217784      -522.9425
   3   2.0000     -19.200488      -522.4718
   4   2.0000     -14.371935      -391.0802
   5   2.0000     -10.306394      -280.4512
   6   2.0000     -10.269435      -279.4455
   7   2.0000     -10.247088      -278.8375
   8   2.0000     -10.240389      -278.6552
   9   2.0000     -10.232283      -278.4346
  10   2.0000     -10.229688      -278.3640
  11   2.0000     -10.229285      -278.3530
  12   2.0000     -10.228487      -278.3313
  13   2.0000     -10.223738      -278.2021
  14   2.0000     -10.223521      -278.1961
  15   2.0000     -10.142695      -275.9968
  16   2.0000      -8.226100      -223.8436
  17   2.0000      -6.193791      -168.5416
  18   2.0000      -6.187456      -168.3692
  19   2.0000      -6.187341      -168.3661
  20   2.0000      -1.455613       -39.6092
  21   2.0000      -1.195168       -32.5222
  22   2.0000      -1.095637       -29.8138
  23   2.0000      -0.993855       -27.0442
  24   2.0000      -0.921271       -25.0691
  25   2.0000      -0.891019       -24.2459
  26   2.0000      -0.862755       -23.4768
  27   2.0000      -0.837376       -22.7862
  28   2.0000      -0.803325       -21.8596
  29   2.0000      -0.784874       -21.3575
  30   2.0000      -0.759123       -20.6568
  31   2.0000      -0.730075       -19.8664
  32   2.0000      -0.694845       -18.9077
  33   2.0000      -0.675853       -18.3909
  34   2.0000      -0.661410       -17.9979
  35   2.0000      -0.643316       -17.5055
  36   2.0000      -0.640368       -17.4253
  37   2.0000      -0.625991       -17.0341
  38   2.0000      -0.610916       -16.6239
  39   2.0000      -0.584159       -15.8958
  40   2.0000      -0.567707       -15.4481
  41   2.0000      -0.563905       -15.3446
  42   2.0000      -0.549126       -14.9425
  43   2.0000      -0.537448       -14.6247
  44   2.0000      -0.526637       -14.3305
  45   2.0000      -0.517885       -14.0924
  46   2.0000      -0.513096       -13.9621
  47   2.0000      -0.494611       -13.4590
  48   2.0000      -0.482482       -13.1290
  49   2.0000      -0.477242       -12.9864
  50   2.0000      -0.474566       -12.9136
  51   2.0000      -0.459752       -12.5105
  52   2.0000      -0.454658       -12.3719
  53   2.0000      -0.436395       -11.8749
  54   2.0000      -0.430516       -11.7149
  55   2.0000      -0.422473       -11.4961
  56   2.0000      -0.415999       -11.3199
  57   2.0000      -0.407480       -11.0881
  58   2.0000      -0.404473       -11.0063
  59   2.0000      -0.399988       -10.8842
  60   2.0000      -0.387853       -10.5540
  61   2.0000      -0.386313       -10.5121
  62   2.0000      -0.384063       -10.4509
  63   2.0000      -0.369893       -10.0653
  64   2.0000      -0.365544        -9.9470
  65   2.0000      -0.361676        -9.8417
  66   2.0000      -0.333373        -9.0715
  67   2.0000      -0.235493        -6.4081
  68   0.0000       0.059588         1.6215
  69   0.0000       0.069289         1.8854
  70   0.0000       0.075652         2.0586
  71   0.0000       0.080320         2.1856
  72   0.0000       0.085478         2.3260

MULLIKEN ATOMIC CHARGES
-----------------------
   0 C :   -0.181170
   1 C :   -0.196542
   2 C :   -0.306243
   3 H :    0.171160
   4 H :    0.161378
   5 S :    0.904677
   6 C :    0.168209
   7 N :   -0.451971
   8 C :   -0.463380
   9 H :    0.174972
  10 H :    0.069353
  11 H :    0.213793
  12 H :    0.213375
  13 O :   -0.460262
  14 F :   -0.113104
  15 C :   -0.234901
  16 C :   -0.225783
  17 C :   -0.230235
  18 H :    0.148726
  19 H :    0.106932
  20 H :    0.123109
  21 H :    0.142057
  22 C :   -0.234824
  23 H :    0.094436
  24 H :    0.141947
  25 C :   -0.162648
  26 H :    0.127404
  27 H :    0.093116
  28 C :   -0.230596
  29 H :    0.102505
  30 H :    0.096987
  31 H :    0.093500
  32 H :    0.116532
  33 H :    0.100796
  34 H :    0.124005
  35 O :   -0.400260
  36 H :    0.119366
  37 H :    0.083584
Sum of atomic charges:    0.0000000

LOEWDIN ATOMIC CHARGES
----------------------
   0 C :   -0.211256
   1 C :   -0.274775
   2 C :   -0.369246
   3 H :    0.142341
   4 H :    0.144028
   5 S :    0.591669
   6 C :   -0.368873
   7 N :   -0.016514
   8 C :   -0.319617
   9 H :    0.099131
  10 H :    0.086463
  11 H :    0.156949
  12 H :    0.163229
  13 O :   -0.280210
  14 F :    0.092036
  15 C :   -0.254506
  16 C :   -0.270316
  17 C :   -0.270389
  18 H :    0.143124
  19 H :    0.137615
  20 H :    0.147449
  21 H :    0.146628
  22 C :   -0.267297
  23 H :    0.134570
  24 H :    0.143446
  25 C :   -0.267859
  26 H :    0.136959
  27 H :    0.133269
  28 C :   -0.266827
  29 H :    0.134883
  30 H :    0.133372
  31 H :    0.132286
  32 H :    0.136537
  33 H :    0.133701
  34 H :    0.139295
  35 O :   -0.254404
  36 H :    0.150167
  37 H :    0.132941

  Mayer bond orders larger than 0.100000
B(  0-C ,  6-C ) :   0.9366 B(  0-C , 15-C ) :   0.9680 B(  0-C , 36-H ) :   0.9663
B(  0-C , 37-H ) :   0.9938 B(  1-C ,  2-C ) :   0.9375 B(  1-C , 17-C ) :   0.9643
B(  1-C , 20-H ) :   0.9629 B(  1-C , 21-H ) :   0.9740 B(  2-C ,  3-H ) :   0.9404
B(  2-C ,  4-H ) :   0.9454 B(  2-C ,  5-S ) :   0.9188 B(  5-S , 13-O ) :   1.7443
B(  5-S , 14-F ) :   1.1214 B(  5-S , 35-O ) :   1.9777 B(  6-C ,  7-N ) :   1.1296
B(  6-C ,  8-C ) :   1.8109 B(  7-N , 11-H ) :   0.9310 B(  7-N , 12-H ) :   0.9298
B(  8-C ,  9-H ) :   0.9724 B(  8-C , 10-H ) :   0.9665 B( 15-C , 22-C ) :   0.9261
B( 15-C , 23-H ) :   0.9731 B( 15-C , 24-H ) :   0.9753 B( 16-C , 17-C ) :   0.9176
B( 16-C , 28-C ) :   0.9514 B( 16-C , 31-H ) :   0.9670 B( 16-C , 32-H ) :   0.9745
B( 17-C , 18-H ) :   0.9786 B( 17-C , 19-H ) :   0.9796 B( 22-C , 25-C ) :   0.9506
B( 22-C , 26-H ) :   0.9871 B( 22-C , 27-H ) :   0.9769 B( 25-C , 28-C ) :   0.9480
B( 25-C , 29-H ) :   0.9842 B( 25-C , 30-H ) :   0.9880 B( 28-C , 33-H ) :   0.9795
B( 28-C , 34-H ) :   0.9880

FINAL SINGLE POINT ENERGY     -1135.535122745703

DIPOLE MOMENT
-------------
                                X             Y             Z
Electronic contribution:    -11.74423     -18.14260     -14.64980
Nuclear contribution   :     10.61624      18.49702      15.75668
                        -----------------------------------------
Total Dipole Moment    :     -1.12798       0.35442       1.10688
                        -----------------------------------------
Magnitude (a.u.)       :      1.61961
Magnitude (Debye)      :      4.11673

Rotational constants in cm-1:     0.017796     0.012372     0.008231
Rotational constants in MHz :   533.524905   370.895973   246.762347

                             ****ORCA TERMINATED NORMALLY****
TOTAL RUN TIME: 0 days 0 hours 2 minutes 41 seconds 835 msec
