                         Program Version 5.0.0 -  RELEASE  -
|  1> !CAM-B3LYP RIJCOSX def2-TZVP def2/J TightSCF xyzfile
|  2>
|  3> *xyzfile 0 1 D5.xyz
|  4>
|  5> %MaxCore 64000
|  6>
|  7> %pal nprocs 18
|  8> end
|  9>
| 10> %scf
| 11>   MaxIter 150
| 12> end
| 13>
| 14>
| 15>                          ****END OF INPUT****

CARTESIAN COORDINATES (ANGSTROEM)
---------------------------------
  C      5.558206   -1.992914   -6.215054
  C      4.930199   -7.375319   -2.649623
  C      3.841892   -6.951611   -3.632829
  H      3.458144   -5.954425   -3.407121
  H      2.988484   -7.643606   -3.567078
  S      4.318115   -6.915930   -5.368692
  C      4.181880   -2.589671   -6.298911
  C      3.145873   -1.768431   -6.486753
  N      4.019102   -3.864307   -6.227427
  H      4.768490   -4.591153   -5.990773
  H      3.122405   -4.333392   -6.314620
  H      3.281635   -0.777786   -6.566549
  H      2.212549   -2.134193   -6.562246
  O      5.406154   -5.899480   -5.512972
  O      3.111910   -6.445079   -6.043792
  C      6.419260   -2.542944   -5.077630
  C      5.872267   -5.002756   -2.427819
  C      6.173994   -6.485522   -2.606315
  H      6.734852   -6.613767   -3.534015
  H      6.821463   -6.831018   -1.793617
  H      4.469612   -7.406168   -1.655876
  H      5.230134   -8.398678   -2.885906
  C      5.896512   -2.169314   -3.694552
  H      7.428880   -2.143665   -5.208078
  H      6.505894   -3.627541   -5.175502
  C      6.807804   -2.623428   -2.551019
  H      4.894708   -2.589732   -3.557501
  H      5.778823   -1.081255   -3.635790
  C      7.111544   -4.122463   -2.520363
  H      7.751615   -2.071393   -2.614406
  H      6.345837   -2.326401   -1.604086
  H      5.362882   -4.828697   -1.471335
  H      5.174429   -4.702577   -3.211298
  H      7.778329   -4.329347   -1.677651
  H      7.673189   -4.402845   -3.417586
  F      4.763396   -8.239424   -5.698629
  H      6.036826   -2.198189   -7.176852
  H      5.467610   -0.907371   -6.127968

 Total Charge           Charge          ....    0
 Multiplicity           Mult            ....    1
 Number of Electrons    NEL             ....  136
 Basis Dimension        Dim             ....  634

ORBITAL ENERGIES
----------------

  NO   OCC          E(Eh)            E(eV)
   0   2.0000     -89.210173     -2427.5322
   1   2.0000     -24.908894      -677.8055
   2   2.0000     -19.234043      -523.3849
   3   2.0000     -19.233571      -523.3721
   4   2.0000     -14.340409      -390.2224
   5   2.0000     -10.324614      -280.9470
   6   2.0000     -10.284728      -279.8617
   7   2.0000     -10.255230      -279.0590
   8   2.0000     -10.242686      -278.7176
   9   2.0000     -10.235963      -278.5347
  10   2.0000     -10.235679      -278.5270
  11   2.0000     -10.230430      -278.3841
  12   2.0000     -10.222528      -278.1691
  13   2.0000     -10.221980      -278.1542
  14   2.0000     -10.218589      -278.0619
  15   2.0000     -10.140423      -275.9349
  16   2.0000      -8.253940      -224.6011
  17   2.0000      -6.221761      -169.3027
  18   2.0000      -6.215484      -169.1319
  19   2.0000      -6.214761      -169.1122
  20   2.0000      -1.500670       -40.8353
  21   2.0000      -1.214102       -33.0374
  22   2.0000      -1.115041       -30.3418
  23   2.0000      -0.978415       -26.6240
  24   2.0000      -0.939885       -25.5756
  25   2.0000      -0.895669       -24.3724
  26   2.0000      -0.868836       -23.6422
  27   2.0000      -0.839317       -22.8390
  28   2.0000      -0.820229       -22.3196
  29   2.0000      -0.788490       -21.4559
  30   2.0000      -0.765930       -20.8420
  31   2.0000      -0.731127       -19.8950
  32   2.0000      -0.706218       -19.2172
  33   2.0000      -0.696791       -18.9606
  34   2.0000      -0.683929       -18.6107
  35   2.0000      -0.669970       -18.2308
  36   2.0000      -0.647302       -17.6140
  37   2.0000      -0.630523       -17.1574
  38   2.0000      -0.620208       -16.8767
  39   2.0000      -0.584849       -15.9146
  40   2.0000      -0.581328       -15.8187
  41   2.0000      -0.574638       -15.6367
  42   2.0000      -0.552868       -15.0443
  43   2.0000      -0.535285       -14.5658
  44   2.0000      -0.531260       -14.4563
  45   2.0000      -0.521917       -14.2021
  46   2.0000      -0.510340       -13.8871
  47   2.0000      -0.500513       -13.6196
  48   2.0000      -0.490596       -13.3498
  49   2.0000      -0.487771       -13.2729
  50   2.0000      -0.472468       -12.8565
  51   2.0000      -0.466586       -12.6964
  52   2.0000      -0.458600       -12.4791
  53   2.0000      -0.444134       -12.0855
  54   2.0000      -0.435905       -11.8616
  55   2.0000      -0.425802       -11.5866
  56   2.0000      -0.423217       -11.5163
  57   2.0000      -0.415115       -11.2959
  58   2.0000      -0.413887       -11.2624
  59   2.0000      -0.404643       -11.0109
  60   2.0000      -0.393559       -10.7093
  61   2.0000      -0.391201       -10.6451
  62   2.0000      -0.386825       -10.5261
  63   2.0000      -0.377559       -10.2739
  64   2.0000      -0.369869       -10.0647
  65   2.0000      -0.359576        -9.7846
  66   2.0000      -0.355334        -9.6691
  67   2.0000      -0.211366        -5.7516
  68   0.0000       0.033066         0.8998
  69   0.0000       0.059296         1.6135
  70   0.0000       0.074600         2.0300
  71   0.0000       0.075922         2.0660
  72   0.0000       0.083536         2.2731

MULLIKEN ATOMIC CHARGES
-----------------------
   0 C :   -0.173964
   1 C :   -0.220577
   2 C :   -0.314901
   3 H :    0.194452
   4 H :    0.174465
   5 S :    0.914741
   6 C :    0.184396
   7 C :   -0.469942
   8 N :   -0.448751
   9 H :    0.279923
  10 H :    0.227381
  11 H :    0.081772
  12 H :    0.081919
  13 O :   -0.474434
  14 O :   -0.433186
  15 C :   -0.259691
  16 C :   -0.220921
  17 C :   -0.215515
  18 H :    0.133685
  19 H :    0.114067
  20 H :    0.130845
  21 H :    0.135102
  22 C :   -0.225359
  23 H :    0.097169
  24 H :    0.125886
  25 C :   -0.165339
  26 H :    0.127125
  27 H :    0.102087
  28 C :   -0.229392
  29 H :    0.103826
  30 H :    0.099578
  31 H :    0.101219
  32 H :    0.099758
  33 H :    0.103278
  34 H :    0.122019
  35 F :   -0.089435
  36 H :    0.106005
  37 H :    0.100708
Sum of atomic charges:   -0.0000000

LOEWDIN ATOMIC CHARGES
----------------------
   0 C :   -0.210725
   1 C :   -0.286085
   2 C :   -0.361736
   3 H :    0.156156
   4 H :    0.148602
   5 S :    0.594278
   6 C :   -0.378194
   7 C :   -0.310607
   8 N :   -0.010880
   9 H :    0.152483
  10 H :    0.165641
  11 H :    0.093703
  12 H :    0.089763
  13 O :   -0.289864
  14 O :   -0.271805
  15 C :   -0.266234
  16 C :   -0.269446
  17 C :   -0.273791
  18 H :    0.137883
  19 H :    0.139333
  20 H :    0.149361
  21 H :    0.139357
  22 C :   -0.265169
  23 H :    0.134867
  24 H :    0.133917
  25 C :   -0.267635
  26 H :    0.137814
  27 H :    0.137678
  28 C :   -0.267212
  29 H :    0.135633
  30 H :    0.133965
  31 H :    0.134703
  32 H :    0.134280
  33 H :    0.133994
  34 H :    0.138396
  35 F :    0.117353
  36 H :    0.143644
  37 H :    0.146581

  Mayer bond orders larger than 0.100000
B(  0-C ,  6-C ) :   0.9562 B(  0-C , 15-C ) :   0.9490 B(  0-C , 36-H ) :   0.9719
B(  0-C , 37-H ) :   0.9899 B(  1-C ,  2-C ) :   0.9209 B(  1-C , 17-C ) :   0.9366
B(  1-C , 20-H ) :   0.9619 B(  1-C , 21-H ) :   0.9859 B(  2-C ,  3-H ) :   0.9381
B(  2-C ,  4-H ) :   0.9518 B(  2-C ,  5-S ) :   0.9177 B(  5-S , 13-O ) :   1.7248
B(  5-S , 14-O ) :   1.8848 B(  5-S , 35-F ) :   1.1663 B(  6-C ,  7-C ) :   1.6922
B(  6-C ,  8-N ) :   1.2354 B(  7-C , 11-H ) :   1.0011 B(  7-C , 12-H ) :   0.9984
B(  8-N ,  9-H ) :   0.8382 B(  8-N , 10-H ) :   0.9152 B( 15-C , 22-C ) :   0.9148
B( 15-C , 23-H ) :   0.9730 B( 15-C , 24-H ) :   0.9876 B( 16-C , 17-C ) :   0.9062
B( 16-C , 28-C ) :   0.9492 B( 16-C , 31-H ) :   0.9668 B( 16-C , 32-H ) :   0.9775
B( 17-C , 18-H ) :   0.9846 B( 17-C , 19-H ) :   0.9787 B( 22-C , 25-C ) :   0.9417
B( 22-C , 26-H ) :   0.9911 B( 22-C , 27-H ) :   0.9776 B( 25-C , 28-C ) :   0.9486
B( 25-C , 29-H ) :   0.9833 B( 25-C , 30-H ) :   0.9885 B( 28-C , 33-H ) :   0.9793
B( 28-C , 34-H ) :   0.9876

FINAL SINGLE POINT ENERGY     -1135.539397396407

DIPOLE MOMENT
-------------
                                X             Y             Z
Electronic contribution:     -8.09016     -23.41918     -13.59697
Nuclear contribution   :      8.54118      20.92489      15.31138
                        -----------------------------------------
Total Dipole Moment    :      0.45102      -2.49428       1.71441
                        -----------------------------------------
Magnitude (a.u.)       :      3.06008
Magnitude (Debye)      :      7.77809

Rotational constants in cm-1:     0.018156     0.012306     0.008278
Rotational constants in MHz :   544.309022   368.914527   248.178402

                             ****ORCA TERMINATED NORMALLY****
TOTAL RUN TIME: 0 days 0 hours 2 minutes 7 seconds 736 msec
