                         Program Version 5.0.0 -  RELEASE  -
|  1> !wB97X-D3 RIJCOSX def2-SVPD def2/J TightSCF CPCM(Water)
|  2> *xyz -1 1
|  3> C         -1.91658       -2.48508       -3.64367
|  4> C         -1.36353       -1.98134       -2.29361
|  5> O         -0.35039       -2.74969       -1.79601
|  6> H         -2.22622       -1.90839       -1.60204
|  7> H         -1.05135       -0.91567       -2.44333
|  8> H         -1.11522       -2.57167       -4.34739
|  9> H         -2.64227       -1.79099       -4.01314
| 10> H         -2.37564       -3.44180       -3.50640
| 11> *
| 12>
| 13> %MaxCore 64000
| 14> %pal nprocs 18
| 15> end
| 16>
| 17> %scf
| 18>   MaxIter 150
| 19> end
| 20>
| 21>
| 22>                          ****END OF INPUT****

CARTESIAN COORDINATES (ANGSTROEM)
---------------------------------
  C     -1.916580   -2.485080   -3.643670
  C     -1.363530   -1.981340   -2.293610
  O     -0.350390   -2.749690   -1.796010
  H     -2.226220   -1.908390   -1.602040
  H     -1.051350   -0.915670   -2.443330
  H     -1.115220   -2.571670   -4.347390
  H     -2.642270   -1.790990   -4.013140
  H     -2.375640   -3.441800   -3.506400

 Total Charge           Charge          ....   -1
 Multiplicity           Mult            ....    1
 Number of Electrons    NEL             ....   26
 Basis Dimension        Dim             ....  103

ORBITAL ENERGIES
----------------

  NO   OCC          E(Eh)            E(eV)
   0   2.0000     -19.120506      -520.2954
   1   2.0000     -10.288125      -279.9541
   2   2.0000     -10.245378      -278.7909
   3   2.0000      -0.990355       -26.9489
   4   2.0000      -0.805603       -21.9216
   5   2.0000      -0.655748       -17.8438
   6   2.0000      -0.526211       -14.3189
   7   2.0000      -0.498850       -13.5744
   8   2.0000      -0.448575       -12.2064
   9   2.0000      -0.429844       -11.6967
  10   2.0000      -0.413970       -11.2647
  11   2.0000      -0.272048        -7.4028
  12   2.0000      -0.270422        -7.3585
  13   0.0000       0.106775         2.9055
  14   0.0000       0.134404         3.6573
  15   0.0000       0.151351         4.1185
  16   0.0000       0.155402         4.2287
  17   0.0000       0.189118         5.1462

MULLIKEN ATOMIC CHARGES
-----------------------
   0 C :    0.363055
   1 C :    0.090603
   2 O :   -0.950936
   3 H :   -0.154539
   4 H :   -0.129540
   5 H :   -0.098252
   6 H :   -0.033980
   7 H :   -0.086411
Sum of atomic charges:   -1.0000000

LOEWDIN ATOMIC CHARGES
----------------------
   0 C :    0.080103
   1 C :   -0.273869
   2 O :   -0.678102
   3 H :   -0.017709
   4 H :   -0.013045
   5 H :   -0.033357
   6 H :   -0.031702
   7 H :   -0.032319

  Mayer bond orders larger than 0.100000
B(  0-C ,  1-C ) :   1.2151 B(  0-C ,  5-H ) :   0.8882 B(  0-C ,  6-H ) :   0.8769
B(  0-C ,  7-H ) :   0.8870 B(  1-C ,  2-O ) :   1.2879 B(  1-C ,  3-H ) :   0.9704
B(  1-C ,  4-H ) :   0.9662 B(  1-C ,  5-H ) :   0.1568 B(  1-C ,  6-H ) :   0.1090
B(  1-C ,  7-H ) :   0.1472

Dispersion correction           -0.000862866
FINAL SINGLE POINT ENERGY      -154.390676710325

DIPOLE MOMENT
-------------
                                X             Y             Z
Electronic contribution:      1.40701      -0.53324       1.35218
Nuclear contribution   :     -3.14382       1.30299      -2.83231
                        -----------------------------------------
Total Dipole Moment    :     -1.73682       0.76975      -1.48013
                        -----------------------------------------
Magnitude (a.u.)       :      2.40829
Magnitude (Debye)      :      6.12137

Rotational constants in cm-1:     1.288206     0.322942     0.285188
Rotational constants in MHz : 38619.437223  9681.562038  8549.712012

                             ****ORCA TERMINATED NORMALLY****
TOTAL RUN TIME: 0 days 0 hours 0 minutes 5 seconds 355 msec
