                         Program Version 5.0.0 -  RELEASE  -
|  1> !wB97X-D3 RIJCOSX def2-SVPD def2/J TightSCF CPCM(Water)
|  2> *xyz 1 1
|  3> C          1.64703       -2.34528       -5.02041
|  4> C          2.20996       -2.81239       -3.66571
|  5> C          2.48901       -1.66851       -2.73754
|  6> N          3.59631       -0.94761       -2.95225
|  7> N          1.66394       -1.41369       -1.77781
|  8> H          0.81164       -1.96318       -1.70275
|  9> H          1.84550       -0.63508       -1.15875
| 10> H          4.20535       -1.17600       -3.73383
| 11> H          3.81723       -0.12585       -2.40604
| 12> H          3.14311       -3.36280       -3.81152
| 13> H          1.48768       -3.45893       -3.16521
| 14> H          1.46566       -3.19589       -5.64368
| 15> H          2.35406       -1.69850       -5.49654
| 16> H          0.73014       -1.81680       -4.86253
| 17> *
| 18>
| 19> %MaxCore 64000
| 20> %pal nprocs 18
| 21> end
| 22>
| 23> %scf
| 24>   MaxIter 150
| 25> end
| 26>
| 27>
| 28>                          ****END OF INPUT****

CARTESIAN COORDINATES (ANGSTROEM)
---------------------------------
  C      1.647030   -2.345280   -5.020410
  C      2.209960   -2.812390   -3.665710
  C      2.489010   -1.668510   -2.737540
  N      3.596310   -0.947610   -2.952250
  N      1.663940   -1.413690   -1.777810
  H      0.811640   -1.963180   -1.702750
  H      1.845500   -0.635080   -1.158750
  H      4.205350   -1.176000   -3.733830
  H      3.817230   -0.125850   -2.406040
  H      3.143110   -3.362800   -3.811520
  H      1.487680   -3.458930   -3.165210
  H      1.465660   -3.195890   -5.643680
  H      2.354060   -1.698500   -5.496540
  H      0.730140   -1.816800   -4.862530

 Total Charge           Charge          ....    1
 Multiplicity           Mult            ....    1
 Number of Electrons    NEL             ....   40
 Basis Dimension        Dim             ....  172

ORBITAL ENERGIES
----------------

  NO   OCC          E(Eh)            E(eV)
   0   2.0000     -14.502959      -394.6456
   1   2.0000     -14.494663      -394.4198
   2   2.0000     -10.434783      -283.9449
   3   2.0000     -10.320260      -280.8285
   4   2.0000     -10.290114      -280.0082
   5   2.0000      -1.132105       -30.8061
   6   2.0000      -1.032135       -28.0858
   7   2.0000      -0.910483       -24.7755
   8   2.0000      -0.795631       -21.6502
   9   2.0000      -0.745541       -20.2872
  10   2.0000      -0.695509       -18.9258
  11   2.0000      -0.675718       -18.3872
  12   2.0000      -0.617721       -16.8091
  13   2.0000      -0.578618       -15.7450
  14   2.0000      -0.557037       -15.1578
  15   2.0000      -0.540655       -14.7120
  16   2.0000      -0.477950       -13.0057
  17   2.0000      -0.468944       -12.7606
  18   2.0000      -0.463451       -12.6111
  19   2.0000      -0.403627       -10.9832
  20   0.0000       0.050676         1.3790
  21   0.0000       0.088781         2.4159
  22   0.0000       0.121625         3.3096
  23   0.0000       0.130917         3.5624
  24   0.0000       0.135324         3.6823

MULLIKEN ATOMIC CHARGES
-----------------------
   0 C :    0.495217
   1 C :   -0.404125
   2 C :    0.597517
   3 N :   -0.041881
   4 N :    0.002798
   5 H :    0.122973
   6 H :   -0.027453
   7 H :    0.101728
   8 H :   -0.074083
   9 H :    0.086502
  10 H :    0.083915
  11 H :    0.053320
  12 H :    0.008701
  13 H :   -0.005131
Sum of atomic charges:    1.0000000

LOEWDIN ATOMIC CHARGES
----------------------
   0 C :    0.154289
   1 C :    0.011910
   2 C :   -0.043243
   3 N :    0.281020
   4 N :    0.289979
   5 H :    0.068693
   6 H :    0.064926
   7 H :    0.056119
   8 H :    0.051112
   9 H :    0.047533
  10 H :    0.037828
  11 H :   -0.003829
  12 H :   -0.010950
  13 H :   -0.005387

  Mayer bond orders larger than 0.100000
B(  0-C ,  1-C ) :   1.2553 B(  0-C , 11-H ) :   0.8519 B(  0-C , 12-H ) :   0.8233
B(  0-C , 13-H ) :   0.8765 B(  1-C ,  2-C ) :   1.1612 B(  1-C ,  9-H ) :   0.9104
B(  1-C , 10-H ) :   0.9109 B(  1-C , 11-H ) :   0.1348 B(  1-C , 12-H ) :   0.1764
B(  1-C , 13-H ) :   0.1491 B(  2-C ,  3-N ) :   1.1060 B(  2-C ,  4-N ) :   1.1542
B(  2-C ,  6-H ) :  -0.1337 B(  2-C ,  8-H ) :  -0.1482 B(  2-C , 10-H ) :   0.1302
B(  3-N ,  4-N ) :   0.1373 B(  3-N ,  7-H ) :   1.0632 B(  3-N ,  8-H ) :   1.2794
B(  4-N ,  5-H ) :   1.0492 B(  4-N ,  6-H ) :   1.2664 B(  5-H ,  6-H ) :  -0.1536
B(  7-H ,  8-H ) :  -0.1628

Dispersion correction           -0.003021138
FINAL SINGLE POINT ENERGY      -228.920253553622

DIPOLE MOMENT
-------------
                                X             Y             Z
Electronic contribution:      1.26500       1.82903       3.91589
Nuclear contribution   :     -0.98617      -1.03178      -2.77619
                        -----------------------------------------
Total Dipole Moment    :      0.27883       0.79726       1.13970
                        -----------------------------------------
Magnitude (a.u.)       :      1.41855
Magnitude (Debye)      :      3.60568

Rotational constants in cm-1:     0.257311     0.127495     0.099037
Rotational constants in MHz :  7713.982239  3822.189706  2969.039713

                             ****ORCA TERMINATED NORMALLY****
TOTAL RUN TIME: 0 days 0 hours 0 minutes 10 seconds 265 msec
