                         Program Version 5.0.0 -  RELEASE  -
|  1> !wB97X-D3 RIJCOSX def2-SVPD def2/J TightSCF CPCM(Water) xyzfile
|  2>
|  3> *xyzfile 0 1 B.xyz
|  4>
|  5> %MaxCore 64000
|  6>
|  7> %pal nprocs 18
|  8> end
|  9>
| 10> %scf
| 11>   MaxIter 150
| 12> end
| 13>
| 14>
| 15>                          ****END OF INPUT****

CARTESIAN COORDINATES (ANGSTROEM)
---------------------------------
  C      1.647032   -2.345276   -5.020411
  C      0.217628   -1.814022   -4.924389
  C      2.209964   -2.812388   -3.665708
  C     -0.811356   -2.908780   -4.607625
  C     -1.916579   -2.485081   -3.643665
  H     -2.554525   -1.712428   -4.091993
  C     -1.363531   -1.981337   -2.293608
  H     -2.553448   -3.355667   -3.458815
  O     -0.350395   -2.749689   -1.796006
  H      2.308385   -1.588704   -5.457128
  H      1.674286   -3.203478   -5.697392
  C      2.489007   -1.668510   -2.737538
  N      3.596314   -0.947608   -2.952247
  N      1.663936   -1.413685   -1.777806
  H      0.811642   -1.963178   -1.702755
  H      1.845503   -0.635078   -1.158749
  H      4.205351   -1.176003   -3.733825
  H      3.817230   -0.125845   -2.406041
  H     -1.244829   -3.280884   -5.541040
  H     -0.306331   -3.757746   -4.142734
  H     -0.036244   -1.318555   -5.865303
  H      0.175004   -1.035382   -4.158095
  H      3.143106   -3.362803   -3.811524
  H      1.487683   -3.458935   -3.165211
  H     -2.226220   -1.908386   -1.602039
  H     -1.051353   -0.915671   -2.443331

 Total Charge           Charge          ....    0
 Multiplicity           Mult            ....    1
 Number of Electrons    NEL             ....   80
 Basis Dimension        Dim             ....  331

ORBITAL ENERGIES
----------------

  NO   OCC          E(Eh)            E(eV)
   0   2.0000     -19.136679      -520.7355
   1   2.0000     -14.475891      -393.9090
   2   2.0000     -14.446611      -393.1123
   3   2.0000     -10.407622      -283.2058
   4   2.0000     -10.298766      -280.2437
   5   2.0000     -10.295530      -280.1556
   6   2.0000     -10.290165      -280.0096
   7   2.0000     -10.273885      -279.5666
   8   2.0000     -10.266924      -279.3772
   9   2.0000     -10.260419      -279.2002
  10   2.0000      -1.104149       -30.0454
  11   2.0000      -1.027886       -27.9702
  12   2.0000      -0.997846       -27.1528
  13   2.0000      -0.918274       -24.9875
  14   2.0000      -0.867610       -23.6089
  15   2.0000      -0.812750       -22.1160
  16   2.0000      -0.748673       -20.3724
  17   2.0000      -0.731547       -19.9064
  18   2.0000      -0.690759       -18.7965
  19   2.0000      -0.668865       -18.2007
  20   2.0000      -0.655273       -17.8309
  21   2.0000      -0.628848       -17.1118
  22   2.0000      -0.597227       -16.2514
  23   2.0000      -0.577523       -15.7152
  24   2.0000      -0.557168       -15.1613
  25   2.0000      -0.545008       -14.8304
  26   2.0000      -0.528637       -14.3850
  27   2.0000      -0.501440       -13.6449
  28   2.0000      -0.488127       -13.2826
  29   2.0000      -0.483761       -13.1638
  30   2.0000      -0.460496       -12.5307
  31   2.0000      -0.452747       -12.3199
  32   2.0000      -0.438826       -11.9411
  33   2.0000      -0.425432       -11.5766
  34   2.0000      -0.406305       -11.0561
  35   2.0000      -0.398612       -10.8468
  36   2.0000      -0.395986       -10.7753
  37   2.0000      -0.376271       -10.2389
  38   2.0000      -0.295151        -8.0315
  39   2.0000      -0.292132        -7.9493
  40   0.0000       0.070040         1.9059
  41   0.0000       0.096021         2.6129
  42   0.0000       0.108921         2.9639
  43   0.0000       0.117006         3.1839
  44   0.0000       0.118107         3.2139

MULLIKEN ATOMIC CHARGES
-----------------------
   0 C :    0.220414
   1 C :    0.125366
   2 C :    0.067939
   3 C :    0.060269
   4 C :    0.212531
   5 H :   -0.143873
   6 C :    0.483412
   7 H :    0.027233
   8 O :   -0.808272
   9 H :   -0.029664
  10 H :   -0.049036
  11 C :    0.670453
  12 N :   -0.070083
  13 N :    0.345914
  14 H :   -0.394139
  15 H :   -0.037363
  16 H :    0.031347
  17 H :   -0.071960
  18 H :   -0.196590
  19 H :    0.021461
  20 H :   -0.140423
  21 H :   -0.083057
  22 H :   -0.037253
  23 H :    0.038443
  24 H :   -0.370846
  25 H :    0.127776
Sum of atomic charges:    0.0000000

LOEWDIN ATOMIC CHARGES
----------------------
   0 C :   -0.008980
   1 C :   -0.015428
   2 C :    0.053538
   3 C :   -0.034010
   4 C :   -0.041257
   5 H :    0.018773
   6 C :   -0.102155
   7 H :    0.013923
   8 O :   -0.466811
   9 H :    0.023003
  10 H :    0.030494
  11 C :   -0.040067
  12 N :    0.259755
  13 N :    0.297290
  14 H :   -0.204297
  15 H :    0.055208
  16 H :    0.044623
  17 H :    0.041163
  18 H :    0.018437
  19 H :   -0.002869
  20 H :    0.022452
  21 H :   -0.001734
  22 H :    0.041246
  23 H :   -0.000705
  24 H :   -0.002745
  25 H :    0.001153

  Mayer bond orders larger than 0.100000
B(  0-C ,  1-C ) :   1.2231 B(  0-C ,  2-C ) :   1.1630 B(  0-C ,  9-H ) :   0.7684
B(  0-C , 10-H ) :   0.8748 B(  0-C , 21-H ) :   0.1506 B(  0-C , 22-H ) :   0.1040
B(  0-C , 23-H ) :   0.1047 B(  1-C ,  3-C ) :   1.1696 B(  1-C ,  9-H ) :   0.1655
B(  1-C , 10-H ) :   0.1111 B(  1-C , 18-H ) :   0.2075 B(  1-C , 20-H ) :   0.8825
B(  1-C , 21-H ) :   0.8140 B(  2-C ,  9-H ) :   0.1554 B(  2-C , 10-H ) :   0.1162
B(  2-C , 11-C ) :   1.0910 B(  2-C , 22-H ) :   0.8430 B(  2-C , 23-H ) :   0.8460
B(  3-C ,  4-C ) :   1.2255 B(  3-C ,  5-H ) :   0.1325 B(  3-C ,  7-H ) :   0.1995
B(  3-C , 18-H ) :   0.8990 B(  3-C , 19-H ) :   0.8158 B(  3-C , 20-H ) :   0.1176
B(  3-C , 21-H ) :   0.1420 B(  4-C ,  5-H ) :   0.9212 B(  4-C ,  6-C ) :   1.1380
B(  4-C ,  7-H ) :   0.7017 B(  4-C , 24-H ) :   0.1331 B(  5-H ,  6-C ) :   0.1045
B(  6-C ,  7-H ) :   0.1122 B(  6-C ,  8-O ) :   0.9818 B(  6-C , 24-H ) :   1.0382
B(  6-C , 25-H ) :   0.7900 B(  8-O , 14-H ) :   0.4776 B( 11-C , 12-N ) :   0.9991
B( 11-C , 13-N ) :   1.1820 B( 11-C , 15-H ) :  -0.2167 B( 11-C , 16-H ) :  -0.1208
B( 11-C , 17-H ) :  -0.1130 B( 11-C , 22-H ) :   0.1305 B( 11-C , 23-H ) :   0.1703
B( 12-N , 13-N ) :   0.1487 B( 12-N , 16-H ) :   1.1673 B( 12-N , 17-H ) :   1.2672
B( 13-N , 14-H ) :   0.9416 B( 13-N , 15-H ) :   1.3058 B( 14-H , 15-H ) :  -0.2185
B( 16-H , 17-H ) :  -0.1663 B( 19-H , 23-H ) :   0.1031

Dispersion correction           -0.011117851
FINAL SINGLE POINT ENERGY      -460.693594187233

DIPOLE MOMENT
-------------
                                X             Y             Z
Electronic contribution:      6.53020       1.57239       3.80436
Nuclear contribution   :     -2.25948       0.71378      -5.15247
                        -----------------------------------------
Total Dipole Moment    :      4.27072       2.28617      -1.34811
                        -----------------------------------------
Magnitude (a.u.)       :      5.02822
Magnitude (Debye)      :     12.78072

Rotational constants in cm-1:     0.063973     0.031829     0.024059
Rotational constants in MHz :  1917.874550   954.201145   721.285252

                             ****ORCA TERMINATED NORMALLY****
TOTAL RUN TIME: 0 days 0 hours 0 minutes 39 seconds 741 msec
