                         Program Version 5.0.0 -  RELEASE  -
|  1> !wB97X-D3 RIJCOSX def2-SVPD def2/J TightSCF CPCM(Water)
|  2> *xyz 0 1
|  3> C         -1.91658       -2.48508       -3.64367
|  4> C         -1.36353       -1.98134       -2.29361
|  5> F         -0.35039       -2.74969       -1.79601
|  6> H         -2.22622       -1.90839       -1.60204
|  7> H         -1.05135       -0.91567       -2.44333
|  8> H         -1.11522       -2.57167       -4.34739
|  9> H         -2.64227       -1.79099       -4.01314
| 10> H         -2.37564       -3.44180       -3.50640
| 11> *
| 12>
| 13> %MaxCore 64000
| 14> %pal nprocs 18
| 15> end
| 16>
| 17> %scf
| 18>   MaxIter 150
| 19> end
| 20>
| 21>
| 22>                          ****END OF INPUT****

CARTESIAN COORDINATES (ANGSTROEM)
---------------------------------
  C     -1.916580   -2.485080   -3.643670
  C     -1.363530   -1.981340   -2.293610
  F     -0.350390   -2.749690   -1.796010
  H     -2.226220   -1.908390   -1.602040
  H     -1.051350   -0.915670   -2.443330
  H     -1.115220   -2.571670   -4.347390
  H     -2.642270   -1.790990   -4.013140
  H     -2.375640   -3.441800   -3.506400

 Total Charge           Charge          ....    0
 Multiplicity           Mult            ....    1
 Number of Electrons    NEL             ....   26
 Basis Dimension        Dim             ....  103

ORBITAL ENERGIES
----------------

  NO   OCC          E(Eh)            E(eV)
   0   2.0000     -24.798523      -674.8021
   1   2.0000     -10.365226      -282.0521
   2   2.0000     -10.276691      -279.6430
   3   2.0000      -1.309043       -35.6209
   4   2.0000      -0.866200       -23.5705
   5   2.0000      -0.734000       -19.9731
   6   2.0000      -0.616078       -16.7643
   7   2.0000      -0.599836       -16.3224
   8   2.0000      -0.566048       -15.4030
   9   2.0000      -0.503246       -13.6940
  10   2.0000      -0.490946       -13.3593
  11   2.0000      -0.431469       -11.7409
  12   2.0000      -0.421999       -11.4832
  13   0.0000       0.100823         2.7435
  14   0.0000       0.129259         3.5173
  15   0.0000       0.154913         4.2154
  16   0.0000       0.166361         4.5269
  17   0.0000       0.197681         5.3792

MULLIKEN ATOMIC CHARGES
-----------------------
   0 C :    0.198765
   1 C :    0.312472
   2 F :   -0.477355
   3 H :   -0.013656
   4 H :    0.014643
   5 H :   -0.029492
   6 H :    0.014495
   7 H :   -0.019873
Sum of atomic charges:   -0.0000000

LOEWDIN ATOMIC CHARGES
----------------------
   0 C :    0.133433
   1 C :    0.066911
   2 F :   -0.242973
   3 H :    0.035254
   4 H :    0.041566
   5 H :   -0.013779
   6 H :   -0.006286
   7 H :   -0.014127

  Mayer bond orders larger than 0.100000
B(  0-C ,  1-C ) :   1.3262 B(  0-C ,  5-H ) :   0.9109 B(  0-C ,  6-H ) :   0.8800
B(  0-C ,  7-H ) :   0.9095 B(  1-C ,  2-F ) :   0.7226 B(  1-C ,  3-H ) :   0.9666
B(  1-C ,  4-H ) :   0.9579 B(  1-C ,  5-H ) :   0.1234 B(  1-C ,  6-H ) :   0.1064
B(  1-C ,  7-H ) :   0.1151

Dispersion correction           -0.000873249
FINAL SINGLE POINT ENERGY      -178.891624372736

DIPOLE MOMENT
-------------
                                X             Y             Z
Electronic contribution:      3.46617      -1.23617       3.35894
Nuclear contribution   :     -4.15401       1.70894      -3.75000
                        -----------------------------------------
Total Dipole Moment    :     -0.68784       0.47277      -0.39105
                        -----------------------------------------
Magnitude (a.u.)       :      0.92171
Magnitude (Debye)      :      2.34280

Rotational constants in cm-1:     1.266842     0.300492     0.266603
Rotational constants in MHz : 37978.968232  9008.526876  7992.551454

                             ****ORCA TERMINATED NORMALLY****
TOTAL RUN TIME: 0 days 0 hours 0 minutes 5 seconds 372 msec
