                         Program Version 5.0.0 -  RELEASE  -
|  1> !wB97X-D3 RIJCOSX def2-SVPD def2/J TightSCF CPCM(Water)
|  2> *xyz 0 1
|  3> C          1.64703       -2.34528       -5.02041
|  4> C          2.20996       -2.81239       -3.66571
|  5> C          2.48901       -1.66851       -2.73754
|  6> C          3.59631       -0.94761       -2.95225
|  7> N          1.66394       -1.41369       -1.77781
|  8> H          0.81164       -1.96318       -1.70275
|  9> H          1.84550       -0.63508       -1.15875
| 10> H          4.20535       -1.17600       -3.73383
| 11> H          3.81723       -0.12585       -2.40604
| 12> H          3.14311       -3.36280       -3.81152
| 13> H          1.48768       -3.45893       -3.16521
| 14> H          1.46566       -3.19589       -5.64368
| 15> H          2.35406       -1.69850       -5.49654
| 16> H          0.73014       -1.81680       -4.86253
| 17> *
| 18>
| 19> %MaxCore 64000
| 20> %pal nprocs 18
| 21> end
| 22>
| 23> %scf
| 24>   MaxIter 150
| 25> end
| 26>
| 27>
| 28>                          ****END OF INPUT****

CARTESIAN COORDINATES (ANGSTROEM)
---------------------------------
  C      1.647030   -2.345280   -5.020410
  C      2.209960   -2.812390   -3.665710
  C      2.489010   -1.668510   -2.737540
  C      3.596310   -0.947610   -2.952250
  N      1.663940   -1.413690   -1.777810
  H      0.811640   -1.963180   -1.702750
  H      1.845500   -0.635080   -1.158750
  H      4.205350   -1.176000   -3.733830
  H      3.817230   -0.125850   -2.406040
  H      3.143110   -3.362800   -3.811520
  H      1.487680   -3.458930   -3.165210
  H      1.465660   -3.195890   -5.643680
  H      2.354060   -1.698500   -5.496540
  H      0.730140   -1.816800   -4.862530

 Total Charge           Charge          ....    0
 Multiplicity           Mult            ....    1
 Number of Electrons    NEL             ....   40
 Basis Dimension        Dim             ....  172

ORBITAL ENERGIES
----------------

  NO   OCC          E(Eh)            E(eV)
   0   2.0000     -14.436050      -392.8249
   1   2.0000     -10.315083      -280.6877
   2   2.0000     -10.285609      -279.8857
   3   2.0000     -10.271638      -279.5055
   4   2.0000     -10.221053      -278.1290
   5   2.0000      -1.045336       -28.4450
   6   2.0000      -0.886961       -24.1354
   7   2.0000      -0.818000       -22.2589
   8   2.0000      -0.743656       -20.2359
   9   2.0000      -0.668236       -18.1836
  10   2.0000      -0.627991       -17.0885
  11   2.0000      -0.582710       -15.8563
  12   2.0000      -0.539143       -14.6708
  13   2.0000      -0.510874       -13.9016
  14   2.0000      -0.493383       -13.4256
  15   2.0000      -0.479788       -13.0557
  16   2.0000      -0.442171       -12.0321
  17   2.0000      -0.429822       -11.6960
  18   2.0000      -0.427001       -11.6193
  19   2.0000      -0.276916        -7.5353
  20   0.0000       0.094719         2.5774
  21   0.0000       0.117722         3.2034
  22   0.0000       0.126827         3.4511
  23   0.0000       0.130861         3.5609
  24   0.0000       0.144362         3.9283

MULLIKEN ATOMIC CHARGES
-----------------------
   0 C :    0.524219
   1 C :   -0.183741
   2 C :   -0.227991
   3 C :    0.464818
   4 N :    0.143308
   5 H :   -0.019245
   6 H :   -0.070406
   7 H :   -0.159736
   8 H :   -0.450028
   9 H :    0.080330
  10 H :   -0.032468
  11 H :    0.031231
  12 H :   -0.059591
  13 H :   -0.040702
Sum of atomic charges:    0.0000000

LOEWDIN ATOMIC CHARGES
----------------------
   0 C :    0.131906
   1 C :   -0.031022
   2 C :   -0.278383
   3 C :    0.143188
   4 N :    0.176383
   5 H :    0.026244
   6 H :    0.028947
   7 H :   -0.091046
   8 H :   -0.099608
   9 H :    0.028253
  10 H :    0.018542
  11 H :   -0.016818
  12 H :   -0.022586
  13 H :   -0.014002

  Mayer bond orders larger than 0.100000
B(  0-C ,  1-C ) :   1.2648 B(  0-C , 11-H ) :   0.8322 B(  0-C , 12-H ) :   0.8575
B(  0-C , 13-H ) :   0.8634 B(  1-C ,  2-C ) :   1.1304 B(  1-C ,  3-C ) :   0.1702
B(  1-C ,  9-H ) :   0.8541 B(  1-C , 10-H ) :   0.8638 B(  1-C , 11-H ) :   0.1381
B(  1-C , 12-H ) :   0.1810 B(  1-C , 13-H ) :   0.1723 B(  2-C ,  3-C ) :   1.8265
B(  2-C ,  4-N ) :   1.2777 B(  2-C ,  8-H ) :   0.1714 B(  2-C ,  9-H ) :   0.1065
B(  2-C , 10-H ) :   0.1733 B(  3-C ,  4-N ) :   0.2107 B(  3-C ,  7-H ) :   0.8211
B(  3-C ,  8-H ) :   0.8091 B(  4-N ,  5-H ) :   1.0638 B(  4-N ,  6-H ) :   1.2205
B(  5-H ,  6-H ) :  -0.1361

Dispersion correction           -0.003005821
FINAL SINGLE POINT ENERGY      -212.369894368099

DIPOLE MOMENT
-------------
                                X             Y             Z
Electronic contribution:     -0.38530       0.53743       3.13839
Nuclear contribution   :     -0.69146      -0.83112      -2.71336
                        -----------------------------------------
Total Dipole Moment    :     -1.07676      -0.29369       0.42503
                        -----------------------------------------
Magnitude (a.u.)       :      1.19429
Magnitude (Debye)      :      3.03563

Rotational constants in cm-1:     0.270661     0.129240     0.102040
Rotational constants in MHz :  8114.202941  3874.518141  3059.074383

                             ****ORCA TERMINATED NORMALLY****
TOTAL RUN TIME: 0 days 0 hours 0 minutes 11 seconds 397 msec
