                         Program Version 5.0.0 -  RELEASE  -
|  1> !wB97X-D3 RIJCOSX def2-SVPD def2/J TightSCF CPCM(Water)
|  2> *xyz 0 1
|  3> C          1.64703       -2.34528       -5.02041
|  4> C          2.20996       -2.81239       -3.66571
|  5> C          2.48901       -1.66851       -2.73754
|  6> N          3.59631       -0.94761       -2.95225
|  7> C          1.66394       -1.41369       -1.77781
|  8> H          0.81164       -1.96318       -1.70275
|  9> H          1.84550       -0.63508       -1.15875
| 10> H          4.20535       -1.17600       -3.73383
| 11> H          3.81723       -0.12585       -2.40604
| 12> H          3.14311       -3.36280       -3.81152
| 13> H          1.48768       -3.45893       -3.16521
| 14> H          1.46566       -3.19589       -5.64368
| 15> H          2.35406       -1.69850       -5.49654
| 16> H          0.73014       -1.81680       -4.86253
| 17> *
| 18>
| 19> %MaxCore 64000
| 20> %pal nprocs 18
| 21> end
| 22>
| 23> %scf
| 24>   MaxIter 150
| 25> end
| 26>
| 27>
| 28>                          ****END OF INPUT****

CARTESIAN COORDINATES (ANGSTROEM)
---------------------------------
  C      1.647030   -2.345280   -5.020410
  C      2.209960   -2.812390   -3.665710
  C      2.489010   -1.668510   -2.737540
  N      3.596310   -0.947610   -2.952250
  C      1.663940   -1.413690   -1.777810
  H      0.811640   -1.963180   -1.702750
  H      1.845500   -0.635080   -1.158750
  H      4.205350   -1.176000   -3.733830
  H      3.817230   -0.125850   -2.406040
  H      3.143110   -3.362800   -3.811520
  H      1.487680   -3.458930   -3.165210
  H      1.465660   -3.195890   -5.643680
  H      2.354060   -1.698500   -5.496540
  H      0.730140   -1.816800   -4.862530

 Total Charge           Charge          ....    0
 Multiplicity           Mult            ....    1
 Number of Electrons    NEL             ....   40
 Basis Dimension        Dim             ....  172

ORBITAL ENERGIES
----------------

  NO   OCC          E(Eh)            E(eV)
   0   2.0000     -14.430086      -392.6626
   1   2.0000     -10.311036      -280.5775
   2   2.0000     -10.284487      -279.8551
   3   2.0000     -10.271227      -279.4943
   4   2.0000     -10.223929      -278.2073
   5   2.0000      -1.027408       -27.9572
   6   2.0000      -0.886626       -24.1263
   7   2.0000      -0.831512       -22.6266
   8   2.0000      -0.738685       -20.1006
   9   2.0000      -0.665040       -18.0967
  10   2.0000      -0.616746       -16.7825
  11   2.0000      -0.582575       -15.8527
  12   2.0000      -0.529543       -14.4096
  13   2.0000      -0.522154       -14.2085
  14   2.0000      -0.496778       -13.5180
  15   2.0000      -0.480617       -13.0783
  16   2.0000      -0.441698       -12.0192
  17   2.0000      -0.426166       -11.5966
  18   2.0000      -0.421774       -11.4771
  19   2.0000      -0.287792        -7.8312
  20   0.0000       0.095080         2.5873
  21   0.0000       0.120384         3.2758
  22   0.0000       0.126098         3.4313
  23   0.0000       0.134398         3.6571
  24   0.0000       0.144549         3.9334

MULLIKEN ATOMIC CHARGES
-----------------------
   0 C :    0.551780
   1 C :   -0.228262
   2 C :   -0.143258
   3 N :    0.088888
   4 C :    0.330008
   5 H :   -0.100474
   6 H :   -0.330813
   7 H :   -0.056609
   8 H :   -0.127358
   9 H :   -0.020032
  10 H :    0.091172
  11 H :    0.020191
  12 H :   -0.023743
  13 H :   -0.051489
Sum of atomic charges:   -0.0000000

LOEWDIN ATOMIC CHARGES
----------------------
   0 C :    0.131323
   1 C :   -0.033121
   2 C :   -0.281355
   3 N :    0.173910
   4 C :    0.144521
   5 H :   -0.076580
   6 H :   -0.079904
   7 H :    0.013265
   8 H :    0.013929
   9 H :    0.026641
  10 H :    0.020809
  11 H :   -0.016905
  12 H :   -0.020820
  13 H :   -0.015715

  Mayer bond orders larger than 0.100000
B(  0-C ,  1-C ) :   1.2357 B(  0-C , 11-H ) :   0.8389 B(  0-C , 12-H ) :   0.8157
B(  0-C , 13-H ) :   0.8744 B(  1-C ,  2-C ) :   1.2132 B(  1-C ,  4-C ) :   0.1422
B(  1-C ,  9-H ) :   0.8903 B(  1-C , 10-H ) :   0.8667 B(  1-C , 11-H ) :   0.1478
B(  1-C , 12-H ) :   0.1973 B(  1-C , 13-H ) :   0.1568 B(  2-C ,  3-N ) :   1.2158
B(  2-C ,  4-C ) :   1.8053 B(  2-C ,  6-H ) :   0.2413 B(  2-C ,  9-H ) :   0.1513
B(  2-C , 10-H ) :   0.1369 B(  3-N ,  4-C ) :   0.2179 B(  3-N ,  7-H ) :   1.1227
B(  3-N ,  8-H ) :   1.2306 B(  4-C ,  5-H ) :   0.9357 B(  4-C ,  6-H ) :   0.7074
B(  7-H ,  8-H ) :  -0.1419

Dispersion correction           -0.003021473
FINAL SINGLE POINT ENERGY      -212.373111577000

DIPOLE MOMENT
-------------
                                X             Y             Z
Electronic contribution:      1.85144       1.09337       1.80301
Nuclear contribution   :     -1.13902      -0.93906      -2.44135
                        -----------------------------------------
Total Dipole Moment    :      0.71242       0.15431      -0.63834
                        -----------------------------------------
Magnitude (a.u.)       :      0.96893
Magnitude (Debye)      :      2.46283

Rotational constants in cm-1:     0.267243     0.130607     0.102304
Rotational constants in MHz :  8011.748167  3915.504600  3066.999841

                             ****ORCA TERMINATED NORMALLY****
TOTAL RUN TIME: 0 days 0 hours 0 minutes 11 seconds 141 msec
