                         Program Version 5.0.0 -  RELEASE  -
|  1> !wB97X-D3 RIJCOSX def2-SVPD def2/J TightSCF CPCM(Water) xyzfile
|  2>
|  3> *xyzfile 0 1 D1.xyz
|  4>
|  5> %MaxCore 64000
|  6>
|  7> %pal nprocs 18
|  8> end
|  9>
| 10> %scf
| 11>   MaxIter 150
| 12> end
| 13>
| 14>
| 15>                          ****END OF INPUT****

CARTESIAN COORDINATES (ANGSTROEM)
---------------------------------
  C      1.647032   -2.345276   -5.020411
  C      0.217628   -1.814022   -4.924389
  C      2.209964   -2.812388   -3.665708
  C     -0.811356   -2.908780   -4.607625
  C     -1.916579   -2.485081   -3.643665
  H     -2.554525   -1.712428   -4.091993
  C     -1.363531   -1.981337   -2.293608
  H     -2.553448   -3.355667   -3.458815
  F     -0.350395   -2.749689   -1.796006
  H      2.308385   -1.588704   -5.457128
  H      1.674286   -3.203478   -5.697392
  C      2.489007   -1.668510   -2.737538
  C      3.596314   -0.947608   -2.952247
  N      1.663936   -1.413685   -1.777806
  H      0.811642   -1.963178   -1.702755
  H      1.845503   -0.635078   -1.158749
  H      4.205351   -1.176003   -3.733825
  H      3.817230   -0.125845   -2.406041
  H     -1.244829   -3.280884   -5.541040
  H     -0.306331   -3.757746   -4.142734
  H     -0.036244   -1.318555   -5.865303
  H      0.175004   -1.035382   -4.158095
  H      3.143106   -3.362803   -3.811524
  H      1.487683   -3.458935   -3.165211
  H     -2.226220   -1.908386   -1.602039
  H     -1.051353   -0.915671   -2.443331

 Total Charge           Charge          ....    0
 Multiplicity           Mult            ....    1
 Number of Electrons    NEL             ....   80
 Basis Dimension        Dim             ....  331

ORBITAL ENERGIES
----------------

  NO   OCC          E(Eh)            E(eV)
   0   2.0000     -24.827993      -675.6040
   1   2.0000     -14.411988      -392.1701
   2   2.0000     -10.372628      -282.2536
   3   2.0000     -10.308717      -280.5144
   4   2.0000     -10.290688      -280.0238
   5   2.0000     -10.280827      -279.7555
   6   2.0000     -10.280393      -279.7437
   7   2.0000     -10.279605      -279.7223
   8   2.0000     -10.277394      -279.6621
   9   2.0000     -10.215074      -277.9663
  10   2.0000      -1.347989       -36.6806
  11   2.0000      -1.034679       -28.1551
  12   2.0000      -0.924062       -25.1450
  13   2.0000      -0.885878       -24.1060
  14   2.0000      -0.844642       -22.9839
  15   2.0000      -0.799287       -21.7497
  16   2.0000      -0.773270       -21.0418
  17   2.0000      -0.714174       -19.4337
  18   2.0000      -0.690759       -18.7965
  19   2.0000      -0.679582       -18.4924
  20   2.0000      -0.634611       -17.2686
  21   2.0000      -0.628641       -17.1062
  22   2.0000      -0.606766       -16.5109
  23   2.0000      -0.586343       -15.9552
  24   2.0000      -0.571999       -15.5649
  25   2.0000      -0.557513       -15.1707
  26   2.0000      -0.536337       -14.5945
  27   2.0000      -0.515019       -14.0144
  28   2.0000      -0.512541       -13.9469
  29   2.0000      -0.485760       -13.2182
  30   2.0000      -0.471089       -12.8190
  31   2.0000      -0.455098       -12.3838
  32   2.0000      -0.453180       -12.3317
  33   2.0000      -0.443839       -12.0775
  34   2.0000      -0.432279       -11.7629
  35   2.0000      -0.422367       -11.4932
  36   2.0000      -0.408691       -11.1210
  37   2.0000      -0.403054       -10.9677
  38   2.0000      -0.396968       -10.8020
  39   2.0000      -0.269378        -7.3302
  40   0.0000       0.095843         2.6080
  41   0.0000       0.106129         2.8879
  42   0.0000       0.108722         2.9585
  43   0.0000       0.117928         3.2090
  44   0.0000       0.130757         3.5581

MULLIKEN ATOMIC CHARGES
-----------------------
   0 C :    0.166736
   1 C :    0.104313
   2 C :    0.464654
   3 C :    0.017322
   4 C :    0.097136
   5 H :   -0.051384
   6 C :    0.573819
   7 H :    0.055316
   8 F :   -0.512115
   9 H :   -0.047317
  10 H :   -0.092805
  11 C :   -0.286090
  12 C :    0.309839
  13 N :    0.575556
  14 H :   -0.456420
  15 H :   -0.060900
  16 H :   -0.106635
  17 H :   -0.319125
  18 H :   -0.181196
  19 H :    0.039497
  20 H :   -0.129618
  21 H :   -0.073052
  22 H :    0.033534
  23 H :   -0.188391
  24 H :   -0.195580
  25 H :    0.262909
Sum of atomic charges:   -0.0000000

LOEWDIN ATOMIC CHARGES
----------------------
   0 C :   -0.017441
   1 C :   -0.016764
   2 C :    0.020117
   3 C :   -0.026295
   4 C :   -0.007263
   5 H :    0.041442
   6 C :    0.155194
   7 H :    0.027871
   8 F :   -0.183496
   9 H :    0.017843
  10 H :    0.024473
  11 C :   -0.256601
  12 C :    0.136013
  13 N :    0.209658
  14 H :   -0.132486
  15 H :    0.032534
  16 H :   -0.095666
  17 H :   -0.102449
  18 H :    0.027406
  19 H :    0.006278
  20 H :    0.023905
  21 H :   -0.000525
  22 H :    0.029927
  23 H :   -0.002868
  24 H :    0.046577
  25 H :    0.042617

  Mayer bond orders larger than 0.100000
B(  0-C ,  1-C ) :   1.2371 B(  0-C ,  2-C ) :   1.1824 B(  0-C ,  9-H ) :   0.7839
B(  0-C , 10-H ) :   0.8968 B(  0-C , 21-H ) :   0.1541 B(  0-C , 22-H ) :   0.1198
B(  0-C , 23-H ) :   0.1571 B(  1-C ,  3-C ) :   1.1728 B(  1-C ,  9-H ) :   0.1721
B(  1-C , 10-H ) :   0.1328 B(  1-C , 18-H ) :   0.1987 B(  1-C , 20-H ) :   0.8799
B(  1-C , 21-H ) :   0.8174 B(  2-C ,  9-H ) :   0.1548 B(  2-C , 11-C ) :   1.0213
B(  2-C , 13-N ) :   0.1142 B(  2-C , 17-H ) :   0.1097 B(  2-C , 22-H ) :   0.7693
B(  2-C , 23-H ) :   0.6811 B(  3-C ,  4-C ) :   1.2235 B(  3-C ,  5-H ) :   0.1251
B(  3-C ,  7-H ) :   0.1884 B(  3-C , 18-H ) :   0.9305 B(  3-C , 19-H ) :   0.8348
B(  3-C , 20-H ) :   0.1109 B(  3-C , 21-H ) :   0.1429 B(  4-C ,  5-H ) :   0.9200
B(  4-C ,  6-C ) :   1.2511 B(  4-C ,  7-H ) :   0.7377 B(  4-C , 24-H ) :   0.1340
B(  5-H ,  6-C ) :   0.1006 B(  6-C ,  8-F ) :   0.5637 B(  6-C , 24-H ) :   1.0415
B(  6-C , 25-H ) :   0.7668 B(  8-F , 14-H ) :   0.2043 B(  9-H , 10-H ) :  -0.1194
B( 11-C , 12-C ) :   1.8669 B( 11-C , 13-N ) :   1.2521 B( 11-C , 14-H ) :   0.1216
B( 11-C , 17-H ) :   0.1507 B( 11-C , 22-H ) :   0.1568 B( 11-C , 23-H ) :   0.2246
B( 12-C , 13-N ) :   0.1640 B( 12-C , 16-H ) :   0.8173 B( 12-C , 17-H ) :   0.7135
B( 13-N , 14-H ) :   0.8105 B( 13-N , 15-H ) :   1.2041 B( 14-H , 15-H ) :  -0.2021
B( 16-H , 17-H ) :   0.1467 B( 19-H , 23-H ) :   0.1058

Dispersion correction           -0.011043733
FINAL SINGLE POINT ENERGY      -468.606547979202

DIPOLE MOMENT
-------------
                                X             Y             Z
Electronic contribution:     -1.85987      -1.74807       6.94836
Nuclear contribution   :     -0.37390       1.73388      -6.94752
                        -----------------------------------------
Total Dipole Moment    :     -2.23378      -0.01418       0.00084
                        -----------------------------------------
Magnitude (a.u.)       :      2.23382
Magnitude (Debye)      :      5.67793

Rotational constants in cm-1:     0.062220     0.032742     0.024374
Rotational constants in MHz :  1865.297979   981.573941   730.711364

                             ****ORCA TERMINATED NORMALLY****
TOTAL RUN TIME: 0 days 0 hours 0 minutes 39 seconds 729 msec
