                         Program Version 5.0.0 -  RELEASE  -
|  1> !wB97X-D3 RIJCOSX def2-SVPD def2/J TightSCF CPCM(Water) xyzfile
|  2>
|  3> *xyzfile 0 1 D2.xyz
|  4>
|  5> %MaxCore 64000
|  6>
|  7> %pal nprocs 18
|  8> end
|  9>
| 10> %scf
| 11>   MaxIter 150
| 12> end
| 13>
| 14>
| 15>                          ****END OF INPUT****

CARTESIAN COORDINATES (ANGSTROEM)
---------------------------------
  C      1.647032   -2.345276   -5.020411
  C      0.217628   -1.814022   -4.924389
  C      2.209964   -2.812388   -3.665708
  C     -0.811356   -2.908780   -4.607625
  C     -1.916579   -2.485081   -3.643665
  H     -2.554525   -1.712428   -4.091993
  C     -1.363531   -1.981337   -2.293608
  H     -2.553448   -3.355667   -3.458815
  F     -0.350395   -2.749689   -1.796006
  H      2.308385   -1.588704   -5.457128
  H      1.674286   -3.203478   -5.697392
  C      2.489007   -1.668510   -2.737538
  N      3.596314   -0.947608   -2.952247
  C      1.663936   -1.413685   -1.777806
  H      0.811642   -1.963178   -1.702755
  H      1.845503   -0.635078   -1.158749
  H      4.205351   -1.176003   -3.733825
  H      3.817230   -0.125845   -2.406041
  H     -1.244829   -3.280884   -5.541040
  H     -0.306331   -3.757746   -4.142734
  H     -0.036244   -1.318555   -5.865303
  H      0.175004   -1.035382   -4.158095
  H      3.143106   -3.362803   -3.811524
  H      1.487683   -3.458935   -3.165211
  H     -2.226220   -1.908386   -1.602039
  H     -1.051353   -0.915671   -2.443331

 Total Charge           Charge          ....    0
 Multiplicity           Mult            ....    1
 Number of Electrons    NEL             ....   80
 Basis Dimension        Dim             ....  331

ORBITAL ENERGIES
----------------

  NO   OCC          E(Eh)            E(eV)
   0   2.0000     -24.806970      -675.0320
   1   2.0000     -14.423481      -392.4829
   2   2.0000     -10.365406      -282.0570
   3   2.0000     -10.299077      -280.2521
   4   2.0000     -10.287337      -279.9327
   5   2.0000     -10.279231      -279.7121
   6   2.0000     -10.278037      -279.6796
   7   2.0000     -10.276769      -279.6451
   8   2.0000     -10.273914      -279.5674
   9   2.0000     -10.195751      -277.4405
  10   2.0000      -1.329419       -36.1753
  11   2.0000      -1.020064       -27.7574
  12   2.0000      -0.919867       -25.0309
  13   2.0000      -0.885661       -24.1001
  14   2.0000      -0.837769       -22.7968
  15   2.0000      -0.809693       -22.0329
  16   2.0000      -0.763973       -20.7888
  17   2.0000      -0.707643       -19.2559
  18   2.0000      -0.674664       -18.3585
  19   2.0000      -0.673137       -18.3170
  20   2.0000      -0.631328       -17.1793
  21   2.0000      -0.616757       -16.7828
  22   2.0000      -0.600312       -16.3353
  23   2.0000      -0.588479       -16.0133
  24   2.0000      -0.567884       -15.4529
  25   2.0000      -0.548360       -14.9216
  26   2.0000      -0.540545       -14.7090
  27   2.0000      -0.526342       -14.3225
  28   2.0000      -0.500844       -13.6287
  29   2.0000      -0.478919       -13.0320
  30   2.0000      -0.464663       -12.6441
  31   2.0000      -0.452512       -12.3135
  32   2.0000      -0.444574       -12.0975
  33   2.0000      -0.432135       -11.7590
  34   2.0000      -0.422800       -11.5050
  35   2.0000      -0.415687       -11.3114
  36   2.0000      -0.401571       -10.9273
  37   2.0000      -0.398806       -10.8521
  38   2.0000      -0.388056       -10.5595
  39   2.0000      -0.276573        -7.5259
  40   0.0000       0.096623         2.6292
  41   0.0000       0.106855         2.9077
  42   0.0000       0.110963         3.0194
  43   0.0000       0.117067         3.1855
  44   0.0000       0.135921         3.6986

MULLIKEN ATOMIC CHARGES
-----------------------
   0 C :    0.254605
   1 C :    0.133530
   2 C :    0.225751
   3 C :    0.038296
   4 C :    0.111399
   5 H :   -0.071192
   6 C :    0.531781
   7 H :    0.043620
   8 F :   -0.561966
   9 H :   -0.026283
  10 H :   -0.080427
  11 C :   -0.038483
  12 N :    0.005142
  13 C :    1.114477
  14 H :   -0.443222
  15 H :   -0.715113
  16 H :   -0.058695
  17 H :   -0.115701
  18 H :   -0.172168
  19 H :    0.015702
  20 H :   -0.141323
  21 H :   -0.062959
  22 H :   -0.135035
  23 H :    0.024233
  24 H :   -0.213701
  25 H :    0.337731
Sum of atomic charges:   -0.0000000

LOEWDIN ATOMIC CHARGES
----------------------
   0 C :   -0.018595
   1 C :   -0.017107
   2 C :    0.019495
   3 C :   -0.026485
   4 C :   -0.009848
   5 H :    0.039150
   6 C :    0.150626
   7 H :    0.026020
   8 F :   -0.214254
   9 H :    0.019089
  10 H :    0.023019
  11 C :   -0.252141
  12 N :    0.167674
  13 C :    0.179556
  14 H :   -0.190202
  15 H :   -0.074847
  16 H :    0.008203
  17 H :    0.009814
  18 H :    0.025838
  19 H :    0.006110
  20 H :    0.022380
  21 H :   -0.003653
  22 H :    0.026648
  23 H :    0.000963
  24 H :    0.042843
  25 H :    0.039704

  Mayer bond orders larger than 0.100000
B(  0-C ,  1-C ) :   1.2179 B(  0-C ,  2-C ) :   1.1215 B(  0-C ,  9-H ) :   0.7733
B(  0-C , 10-H ) :   0.8425 B(  0-C , 21-H ) :   0.1631 B(  0-C , 22-H ) :   0.1070
B(  1-C ,  3-C ) :   1.1662 B(  1-C ,  9-H ) :   0.1632 B(  1-C , 10-H ) :   0.1012
B(  1-C , 18-H ) :   0.1914 B(  1-C , 20-H ) :   0.8814 B(  1-C , 21-H ) :   0.8339
B(  2-C ,  9-H ) :   0.1368 B(  2-C , 10-H ) :   0.1484 B(  2-C , 11-C ) :   1.2024
B(  2-C , 12-N ) :   0.1393 B(  2-C , 13-C ) :   0.1199 B(  2-C , 22-H ) :   0.8509
B(  2-C , 23-H ) :   0.8351 B(  3-C ,  4-C ) :   1.2310 B(  3-C ,  5-H ) :   0.1233
B(  3-C ,  7-H ) :   0.1906 B(  3-C , 18-H ) :   0.9172 B(  3-C , 19-H ) :   0.8224
B(  3-C , 20-H ) :   0.1165 B(  3-C , 21-H ) :   0.1343 B(  4-C ,  5-H ) :   0.9086
B(  4-C ,  6-C ) :   1.2512 B(  4-C ,  7-H ) :   0.7297 B(  4-C , 24-H ) :   0.1326
B(  5-H ,  6-C ) :   0.1146 B(  6-C ,  8-F ) :   0.5779 B(  6-C , 14-H ) :   0.1083
B(  6-C , 24-H ) :   1.0614 B(  6-C , 25-H ) :   0.7219 B(  8-F , 14-H ) :   0.2574
B( 11-C , 12-N ) :   1.0341 B( 11-C , 13-C ) :   1.9290 B( 11-C , 14-H ) :   0.2116
B( 11-C , 15-H ) :   0.2083 B( 11-C , 22-H ) :   0.2162 B( 11-C , 23-H ) :   0.1210
B( 12-N , 13-C ) :   0.3047 B( 12-N , 16-H ) :   1.1569 B( 12-N , 17-H ) :   1.2563
B( 13-C , 14-H ) :   0.4508 B( 13-C , 15-H ) :   0.6154 B( 14-H , 15-H ) :  -0.2988
B( 15-H , 21-H ) :  -0.1085 B( 16-H , 17-H ) :  -0.1463 B( 19-H , 23-H ) :   0.1196

Dispersion correction           -0.010964995
FINAL SINGLE POINT ENERGY      -468.588663258933

DIPOLE MOMENT
-------------
                                X             Y             Z
Electronic contribution:      0.34506      -1.19986       5.74914
Nuclear contribution   :     -0.73748       1.64619      -6.72655
                        -----------------------------------------
Total Dipole Moment    :     -0.39243       0.44634      -0.97741
                        -----------------------------------------
Magnitude (a.u.)       :      1.14391
Magnitude (Debye)      :      2.90760

Rotational constants in cm-1:     0.063169     0.031711     0.023958
Rotational constants in MHz :  1893.751676   950.657187   718.229932

                             ****ORCA TERMINATED NORMALLY****
TOTAL RUN TIME: 0 days 0 hours 0 minutes 41 seconds 935 msec
