                         Program Version 5.0.0 -  RELEASE  -
|  1> !BLYP D3BJ RIJCOSX def2-SVP def2/J TightSCF
|  2> *xyz -1 1
|  3> C         -0.90349       -0.87394       -1.98739
|  4> C         -0.96015       -0.52236       -0.48987
|  5> H         -1.69039       -1.20813       -0.02168
|  6> H         -1.41449        0.48633       -0.40668
|  7> O          0.26170       -0.58031        0.13861
|  8> H         -1.88568       -0.80774       -2.40670
|  9> H         -0.53143       -1.87013       -2.10605
| 10> H         -0.25399       -0.18836       -2.49039
| 11> *
| 12>
| 13> %MaxCore 64000
| 14>
| 15> %pal nprocs 4
| 16> end
| 17>
| 18> %scf
| 19>   MaxIter 150
| 20> end
| 21>
| 22>
| 23>                          ****END OF INPUT****

CARTESIAN COORDINATES (ANGSTROEM)
---------------------------------
  C     -0.903490   -0.873940   -1.987390
  C     -0.960150   -0.522360   -0.489870
  H     -1.690390   -1.208130   -0.021680
  H     -1.414490    0.486330   -0.406680
  O      0.261700   -0.580310    0.138610
  H     -1.885680   -0.807740   -2.406700
  H     -0.531430   -1.870130   -2.106050
  H     -0.253990   -0.188360   -2.490390

 Total Charge           Charge          ....   -1
 Multiplicity           Mult            ....    1
 Number of Electrons    NEL             ....   26
 Basis Dimension        Dim             ....   67

ORBITAL ENERGIES
----------------

  NO   OCC          E(Eh)            E(eV)
   0   2.0000     -18.404607      -500.8148
   1   2.0000      -9.708927      -264.1933
   2   2.0000      -9.697635      -263.8861
   3   2.0000      -0.536338       -14.5945
   4   2.0000      -0.420675       -11.4471
   5   2.0000      -0.277992        -7.5646
   6   2.0000      -0.177113        -4.8195
   7   2.0000      -0.156157        -4.2493
   8   2.0000      -0.101892        -2.7726
   9   2.0000      -0.087361        -2.3772
  10   2.0000      -0.018460        -0.5023
  11   2.0000       0.121182         3.2975
  12   2.0000       0.127075         3.4579
  13   0.0000       0.232684         6.3316
  14   0.0000       0.274176         7.4607
  15   0.0000       0.286270         7.7898
  16   0.0000       0.294668         8.0183
  17   0.0000       0.334966         9.1149

MULLIKEN ATOMIC CHARGES
-----------------------
   0 C :    0.184725
   1 C :    0.270031
   2 H :   -0.207945
   3 H :   -0.208985
   4 O :   -0.634404
   5 H :   -0.177021
   6 H :   -0.113174
   7 H :   -0.113228
Sum of atomic charges:   -1.0000000

LOEWDIN ATOMIC CHARGES
----------------------
   0 C :   -0.097717
   1 C :    0.011690
   2 H :   -0.092419
   3 H :   -0.093235
   4 O :   -0.616352
   5 H :   -0.053976
   6 H :   -0.028973
   7 H :   -0.029017

  Mayer bond orders larger than 0.100000
B(  0-C ,  1-C ) :   1.0059 B(  0-C ,  4-O ) :  -0.1224 B(  0-C ,  5-H ) :   0.8674
B(  0-C ,  6-H ) :   0.9309 B(  0-C ,  7-H ) :   0.9308 B(  1-C ,  2-H ) :   0.8332
B(  1-C ,  3-H ) :   0.8312 B(  1-C ,  4-O ) :   1.5658 B(  4-O ,  5-H ) :   0.1175

Dispersion correction           -0.007732888
FINAL SINGLE POINT ENERGY      -154.214179467362

DIPOLE MOMENT
-------------
                                X             Y             Z
Electronic contribution:      2.40172       0.16893       2.49651
Nuclear contribution   :     -2.90669      -0.27617      -3.31210
                        -----------------------------------------
Total Dipole Moment    :     -0.50498      -0.10724      -0.81560
                        -----------------------------------------
Magnitude (a.u.)       :      0.96525
Magnitude (Debye)      :      2.45347

Rotational constants in cm-1:     1.291883     0.321656     0.284469
Rotational constants in MHz : 38729.676116  9643.011620  8528.167295

                             ****ORCA TERMINATED NORMALLY****
TOTAL RUN TIME: 0 days 0 hours 0 minutes 5 seconds 889 msec
