                         Program Version 5.0.0 -  RELEASE  -
|  1> !BLYP D3BJ RIJCOSX def2-SVP def2/J TightSCF
|  2> *xyz 1 1
|  3> C          4.36645       -0.13321       -1.41606
|  4> C          4.50829       -0.93187       -2.72425
|  5> C          3.05650       -0.32080       -0.70738
|  6> N          2.38983        0.71129       -0.24391
|  7> N          2.51600       -1.50772       -0.55023
|  8> H          2.96768       -2.32291       -0.95631
|  9> H          1.54987       -1.49063       -0.24988
| 10> H          2.74307        1.64947       -0.41280
| 11> H          1.44036        0.50278        0.03703
| 12> H          4.48784        0.93300       -1.61157
| 13> H          5.16967       -0.41443       -0.72982
| 14> H          5.46700       -0.73824       -3.15818
| 15> H          3.74074       -0.63528       -3.40821
| 16> H          4.41574       -1.97727       -2.51573
| 17> *
| 18>
| 19> %MaxCore 64000
| 20>
| 21> %pal nprocs 4
| 22> end
| 23>
| 24> %scf
| 25>   MaxIter 150
| 26> end
| 27>
| 28>
| 29>                          ****END OF INPUT****

CARTESIAN COORDINATES (ANGSTROEM)
---------------------------------
  C      4.366450   -0.133210   -1.416060
  C      4.508290   -0.931870   -2.724250
  C      3.056500   -0.320800   -0.707380
  N      2.389830    0.711290   -0.243910
  N      2.516000   -1.507720   -0.550230
  H      2.967680   -2.322910   -0.956310
  H      1.549870   -1.490630   -0.249880
  H      2.743070    1.649470   -0.412800
  H      1.440360    0.502780    0.037030
  H      4.487840    0.933000   -1.611570
  H      5.169670   -0.414430   -0.729820
  H      5.467000   -0.738240   -3.158180
  H      3.740740   -0.635280   -3.408210
  H      4.415740   -1.977270   -2.515730

 Total Charge           Charge          ....    1
 Multiplicity           Mult            ....    1
 Number of Electrons    NEL             ....   40
 Basis Dimension        Dim             ....  115

ORBITAL ENERGIES
----------------

  NO   OCC          E(Eh)            E(eV)
   0   2.0000     -14.267596      -388.2410
   1   2.0000     -14.266526      -388.2119
   2   2.0000     -10.232467      -278.4396
   3   2.0000     -10.121177      -275.4112
   4   2.0000     -10.082129      -274.3487
   5   2.0000      -1.110851       -30.2278
   6   2.0000      -1.012106       -27.5408
   7   2.0000      -0.883662       -24.0457
   8   2.0000      -0.784714       -21.3531
   9   2.0000      -0.751777       -20.4569
  10   2.0000      -0.708681       -19.2842
  11   2.0000      -0.692922       -18.8554
  12   2.0000      -0.650587       -17.7034
  13   2.0000      -0.603921       -16.4335
  14   2.0000      -0.574693       -15.6382
  15   2.0000      -0.548586       -14.9278
  16   2.0000      -0.505712       -13.7611
  17   2.0000      -0.492329       -13.3969
  18   2.0000      -0.479115       -13.0374
  19   2.0000      -0.446982       -12.1630
  20   0.0000      -0.235502        -6.4083
  21   0.0000      -0.176418        -4.8006
  22   0.0000      -0.131226        -3.5708
  23   0.0000      -0.127984        -3.4826
  24   0.0000      -0.090068        -2.4509

MULLIKEN ATOMIC CHARGES
-----------------------
   0 C :    0.105184
   1 C :    0.063569
   2 C :   -0.212965
   3 N :    0.119862
   4 N :    0.114770
   5 H :    0.161425
   6 H :    0.148656
   7 H :    0.169069
   8 H :    0.145748
   9 H :    0.016861
  10 H :    0.072203
  11 H :    0.049568
  12 H :    0.030756
  13 H :    0.015296
Sum of atomic charges:    1.0000000

LOEWDIN ATOMIC CHARGES
----------------------
   0 C :   -0.021828
   1 C :   -0.012712
   2 C :    0.122952
   3 N :    0.121916
   4 N :    0.118483
   5 H :    0.115521
   6 H :    0.105031
   7 H :    0.119648
   8 H :    0.104140
   9 H :    0.047700
  10 H :    0.068753
  11 H :    0.051136
  12 H :    0.035019
  13 H :    0.024242

  Mayer bond orders larger than 0.100000
B(  0-C ,  1-C ) :   1.1073 B(  0-C ,  2-C ) :   1.0450 B(  0-C ,  9-H ) :   0.9002
B(  0-C , 10-H ) :   0.8962 B(  1-C , 11-H ) :   0.9480 B(  1-C , 12-H ) :   0.9722
B(  1-C , 13-H ) :   0.9621 B(  2-C ,  3-N ) :   1.5269 B(  2-C ,  4-N ) :   1.5200
B(  3-N ,  7-H ) :   0.9128 B(  3-N ,  8-H ) :   0.9237 B(  4-N ,  5-H ) :   0.9195
B(  4-N ,  6-H ) :   0.9228

Dispersion correction           -0.020577477
FINAL SINGLE POINT ENERGY      -228.762198054555

DIPOLE MOMENT
-------------
                                X             Y             Z
Electronic contribution:     -2.72701       0.61758       3.16432
Nuclear contribution   :      1.78847      -0.48174      -2.67127
                        -----------------------------------------
Total Dipole Moment    :     -0.93854       0.13584       0.49304
                        -----------------------------------------
Magnitude (a.u.)       :      1.06883
Magnitude (Debye)      :      2.71675

Rotational constants in cm-1:     0.286883     0.123210     0.094446
Rotational constants in MHz :  8600.540572  3693.747366  2831.415242

                             ****ORCA TERMINATED NORMALLY****
TOTAL RUN TIME: 0 days 0 hours 0 minutes 8 seconds 520 msec
