                         Program Version 5.0.0 -  RELEASE  -
|  1> !BLYP D3BJ RIJCOSX def2-SVP def2/J TightSCF
|  2> *xyz 0 1
|  3> C         -0.90349       -0.87394       -1.98739
|  4> C         -0.96015       -0.52236       -0.48987
|  5> H         -1.69039       -1.20813       -0.02168
|  6> H         -1.41449        0.48633       -0.40668
|  7> F          0.26170       -0.58031        0.13861
|  8> H         -1.88568       -0.80774       -2.40670
|  9> H         -0.53143       -1.87013       -2.10605
| 10> H         -0.25399       -0.18836       -2.49039
| 11> *
| 12>
| 13> %MaxCore 64000
| 14>
| 15> %pal nprocs 4
| 16> end
| 17>
| 18> %scf
| 19>   MaxIter 150
| 20> end
| 21>
| 22>
| 23>                          ****END OF INPUT****

CARTESIAN COORDINATES (ANGSTROEM)
---------------------------------
  C     -0.903490   -0.873940   -1.987390
  C     -0.960150   -0.522360   -0.489870
  H     -1.690390   -1.208130   -0.021680
  H     -1.414490    0.486330   -0.406680
  F      0.261700   -0.580310    0.138610
  H     -1.885680   -0.807740   -2.406700
  H     -0.531430   -1.870130   -2.106050
  H     -0.253990   -0.188360   -2.490390

 Total Charge           Charge          ....    0
 Multiplicity           Mult            ....    1
 Number of Electrons    NEL             ....   26
 Basis Dimension        Dim             ....   67

ORBITAL ENERGIES
----------------

  NO   OCC          E(Eh)            E(eV)
   0   2.0000     -24.265653      -660.3020
   1   2.0000      -9.992351      -271.9057
   2   2.0000      -9.917058      -269.8569
   3   2.0000      -1.054175       -28.6856
   4   2.0000      -0.674002       -18.3405
   5   2.0000      -0.549666       -14.9572
   6   2.0000      -0.435355       -11.8466
   7   2.0000      -0.426172       -11.5967
   8   2.0000      -0.385955       -10.5024
   9   2.0000      -0.346311        -9.4236
  10   2.0000      -0.341088        -9.2815
  11   2.0000      -0.271417        -7.3856
  12   2.0000      -0.268160        -7.2970
  13   0.0000       0.042236         1.1493
  14   0.0000       0.085613         2.3297
  15   0.0000       0.091610         2.4928
  16   0.0000       0.101929         2.7736
  17   0.0000       0.118615         3.2277

MULLIKEN ATOMIC CHARGES
-----------------------
   0 C :    0.038349
   1 C :    0.240833
   2 H :   -0.018646
   3 H :   -0.018154
   4 F :   -0.231736
   5 H :   -0.010561
   6 H :   -0.000057
   7 H :   -0.000027
Sum of atomic charges:    0.0000000

LOEWDIN ATOMIC CHARGES
----------------------
   0 C :   -0.059637
   1 C :    0.108760
   2 H :    0.003020
   3 H :    0.003460
   4 F :   -0.120559
   5 H :    0.025349
   6 H :    0.019807
   7 H :    0.019800

  Mayer bond orders larger than 0.100000
B(  0-C ,  1-C ) :   1.1180 B(  0-C ,  5-H ) :   0.9503 B(  0-C ,  6-H ) :   0.9648
B(  0-C ,  7-H ) :   0.9649 B(  1-C ,  2-H ) :   0.9479 B(  1-C ,  3-H ) :   0.9476
B(  1-C ,  4-F ) :   1.0500

Dispersion correction           -0.007126479
FINAL SINGLE POINT ENERGY      -178.859489012211

DIPOLE MOMENT
-------------
                                X             Y             Z
Electronic contribution:      3.32478       0.37438       4.04891
Nuclear contribution   :     -3.84149      -0.36812      -4.38946
                        -----------------------------------------
Total Dipole Moment    :     -0.51671       0.00627      -0.34056
                        -----------------------------------------
Magnitude (a.u.)       :      0.61887
Magnitude (Debye)      :      1.57305

Rotational constants in cm-1:     1.270659     0.299196     0.265842
Rotational constants in MHz : 38093.410361  8969.665806  7969.741481

                             ****ORCA TERMINATED NORMALLY****
TOTAL RUN TIME: 0 days 0 hours 0 minutes 5 seconds 537 msec
