                         Program Version 5.0.0 -  RELEASE  -
|  1> !BLYP D3BJ RIJCOSX def2-SVP def2/J TightSCF
|  2> *xyz 0 1
|  3> C          4.36645       -0.13321       -1.41606
|  4> C          4.50829       -0.93187       -2.72425
|  5> C          3.05650       -0.32080       -0.70738
|  6> C          2.38983        0.71129       -0.24391
|  7> N          2.51600       -1.50772       -0.55023
|  8> H          2.96768       -2.32291       -0.95631
|  9> H          1.54987       -1.49063       -0.24988
| 10> H          2.74307        1.64947       -0.41280
| 11> H          1.44036        0.50278        0.03703
| 12> H          4.48784        0.93300       -1.61157
| 13> H          5.16967       -0.41443       -0.72982
| 14> H          5.46700       -0.73824       -3.15818
| 15> H          3.74074       -0.63528       -3.40821
| 16> H          4.41574       -1.97727       -2.51573
| 17> *
| 18>
| 19> %MaxCore 64000
| 20>
| 21> %pal nprocs 4
| 22> end
| 23>
| 24> %scf
| 25>   MaxIter 150
| 26> end
| 27>
| 28>
| 29>                          ****END OF INPUT****

CARTESIAN COORDINATES (ANGSTROEM)
---------------------------------
  C      4.366450   -0.133210   -1.416060
  C      4.508290   -0.931870   -2.724250
  C      3.056500   -0.320800   -0.707380
  C      2.389830    0.711290   -0.243910
  N      2.516000   -1.507720   -0.550230
  H      2.967680   -2.322910   -0.956310
  H      1.549870   -1.490630   -0.249880
  H      2.743070    1.649470   -0.412800
  H      1.440360    0.502780    0.037030
  H      4.487840    0.933000   -1.611570
  H      5.169670   -0.414430   -0.729820
  H      5.467000   -0.738240   -3.158180
  H      3.740740   -0.635280   -3.408210
  H      4.415740   -1.977270   -2.515730

 Total Charge           Charge          ....    0
 Multiplicity           Mult            ....    1
 Number of Electrons    NEL             ....   40
 Basis Dimension        Dim             ....  115

ORBITAL ENERGIES
----------------

  NO   OCC          E(Eh)            E(eV)
   0   2.0000     -14.013774      -381.3342
   1   2.0000      -9.926139      -270.1040
   2   2.0000      -9.918161      -269.8869
   3   2.0000      -9.913818      -269.7687
   4   2.0000      -9.847295      -267.9585
   5   2.0000      -0.827180       -22.5087
   6   2.0000      -0.686319       -18.6757
   7   2.0000      -0.631562       -17.1857
   8   2.0000      -0.556533       -15.1440
   9   2.0000      -0.491662       -13.3788
  10   2.0000      -0.468845       -12.7579
  11   2.0000      -0.407622       -11.0919
  12   2.0000      -0.382744       -10.4150
  13   2.0000      -0.371813       -10.1175
  14   2.0000      -0.334695        -9.1075
  15   2.0000      -0.326013        -8.8713
  16   2.0000      -0.306897        -8.3511
  17   2.0000      -0.291120        -7.9218
  18   2.0000      -0.270728        -7.3669
  19   2.0000      -0.140768        -3.8305
  20   0.0000       0.022890         0.6229
  21   0.0000       0.034812         0.9473
  22   0.0000       0.070355         1.9145
  23   0.0000       0.073999         2.0136
  24   0.0000       0.096772         2.6333

MULLIKEN ATOMIC CHARGES
-----------------------
   0 C :    0.140381
   1 C :    0.073698
   2 C :   -0.198717
   3 C :    0.036812
   4 N :    0.041581
   5 H :    0.078401
   6 H :    0.091533
   7 H :   -0.076784
   8 H :   -0.094561
   9 H :   -0.031338
  10 H :   -0.016189
  11 H :   -0.014592
  12 H :   -0.006589
  13 H :   -0.023635
Sum of atomic charges:    0.0000000

LOEWDIN ATOMIC CHARGES
----------------------
   0 C :   -0.018681
   1 C :   -0.037608
   2 C :   -0.005934
   3 C :   -0.164218
   4 N :    0.013270
   5 H :    0.062943
   6 H :    0.073296
   7 H :   -0.007008
   8 H :   -0.014993
   9 H :    0.027683
  10 H :    0.023021
  11 H :    0.020354
  12 H :    0.019392
  13 H :    0.008484

  Mayer bond orders larger than 0.100000
B(  0-C ,  1-C ) :   1.1100 B(  0-C ,  2-C ) :   1.0612 B(  0-C ,  9-H ) :   0.9063
B(  0-C , 10-H ) :   0.9096 B(  1-C , 11-H ) :   0.9529 B(  1-C , 12-H ) :   0.9682
B(  1-C , 13-H ) :   0.9623 B(  2-C ,  3-C ) :   1.8481 B(  2-C ,  4-N ) :   1.3070
B(  3-C ,  7-H ) :   0.9213 B(  3-C ,  8-H ) :   0.9142 B(  4-N ,  5-H ) :   0.9447
B(  4-N ,  6-H ) :   0.9333

Dispersion correction           -0.021424965
FINAL SINGLE POINT ENERGY      -212.289367248282

DIPOLE MOMENT
-------------
                                X             Y             Z
Electronic contribution:     -1.51741      -0.53227       2.10636
Nuclear contribution   :      1.56827      -0.21459      -2.46657
                        -----------------------------------------
Total Dipole Moment    :      0.05085      -0.74686      -0.36021
                        -----------------------------------------
Magnitude (a.u.)       :      0.83074
Magnitude (Debye)      :      2.11158

Rotational constants in cm-1:     0.294070     0.127722     0.097792
Rotational constants in MHz :  8815.983970  3829.010547  2931.715816

                             ****ORCA TERMINATED NORMALLY****
TOTAL RUN TIME: 0 days 0 hours 0 minutes 7 seconds 935 msec
