                         Program Version 5.0.0 -  RELEASE  -
|  1> !BLYP D3BJ RIJCOSX def2-SVP def2/J TightSCF
|  2> *xyz 0 1
|  3> C          4.36645       -0.13321       -1.41606
|  4> C          4.50829       -0.93187       -2.72425
|  5> C          3.05650       -0.32080       -0.70738
|  6> N          2.38983        0.71129       -0.24391
|  7> C          2.51600       -1.50772       -0.55023
|  8> H          2.96768       -2.32291       -0.95631
|  9> H          1.54987       -1.49063       -0.24988
| 10> H          2.74307        1.64947       -0.41280
| 11> H          1.44036        0.50278        0.03703
| 12> H          4.48784        0.93300       -1.61157
| 13> H          5.16967       -0.41443       -0.72982
| 14> H          5.46700       -0.73824       -3.15818
| 15> H          3.74074       -0.63528       -3.40821
| 16> H          4.41574       -1.97727       -2.51573
| 17> *
| 18>
| 19> %MaxCore 64000
| 20>
| 21> %pal nprocs 4
| 22> end
| 23>
| 24> %scf
| 25>   MaxIter 150
| 26> end
| 27>
| 28>
| 29>                          ****END OF INPUT****

CARTESIAN COORDINATES (ANGSTROEM)
---------------------------------
  C      4.366450   -0.133210   -1.416060
  C      4.508290   -0.931870   -2.724250
  C      3.056500   -0.320800   -0.707380
  N      2.389830    0.711290   -0.243910
  C      2.516000   -1.507720   -0.550230
  H      2.967680   -2.322910   -0.956310
  H      1.549870   -1.490630   -0.249880
  H      2.743070    1.649470   -0.412800
  H      1.440360    0.502780    0.037030
  H      4.487840    0.933000   -1.611570
  H      5.169670   -0.414430   -0.729820
  H      5.467000   -0.738240   -3.158180
  H      3.740740   -0.635280   -3.408210
  H      4.415740   -1.977270   -2.515730

 Total Charge           Charge          ....    0
 Multiplicity           Mult            ....    1
 Number of Electrons    NEL             ....   40
 Basis Dimension        Dim             ....  115

ORBITAL ENERGIES
----------------

  NO   OCC          E(Eh)            E(eV)
   0   2.0000     -14.013901      -381.3376
   1   2.0000      -9.926312      -270.1087
   2   2.0000      -9.919714      -269.9291
   3   2.0000      -9.906572      -269.5715
   4   2.0000      -9.845378      -267.9064
   5   2.0000      -0.827017       -22.5043
   6   2.0000      -0.686986       -18.6939
   7   2.0000      -0.620911       -16.8958
   8   2.0000      -0.565466       -15.3871
   9   2.0000      -0.482354       -13.1255
  10   2.0000      -0.466458       -12.6930
  11   2.0000      -0.414090       -11.2680
  12   2.0000      -0.391166       -10.6442
  13   2.0000      -0.349239        -9.5033
  14   2.0000      -0.333844        -9.0844
  15   2.0000      -0.325081        -8.8459
  16   2.0000      -0.305357        -8.3092
  17   2.0000      -0.290545        -7.9061
  18   2.0000      -0.271533        -7.3888
  19   2.0000      -0.138830        -3.7778
  20   0.0000       0.027890         0.7589
  21   0.0000       0.033982         0.9247
  22   0.0000       0.069270         1.8849
  23   0.0000       0.072736         1.9792
  24   0.0000       0.101348         2.7578

MULLIKEN ATOMIC CHARGES
-----------------------
   0 C :    0.138574
   1 C :    0.087176
   2 C :   -0.202077
   3 N :    0.040139
   4 C :    0.032114
   5 H :   -0.077429
   6 H :   -0.091569
   7 H :    0.082195
   8 H :    0.088318
   9 H :   -0.056585
  10 H :   -0.004973
  11 H :   -0.024130
  12 H :   -0.011973
  13 H :    0.000221
Sum of atomic charges:    0.0000000

LOEWDIN ATOMIC CHARGES
----------------------
   0 C :   -0.019816
   1 C :   -0.028261
   2 C :   -0.006278
   3 N :    0.016194
   4 C :   -0.168638
   5 H :   -0.008238
   6 H :   -0.014195
   7 H :    0.063927
   8 H :    0.072325
   9 H :    0.010107
  10 H :    0.030694
  11 H :    0.014824
  12 H :    0.017920
  13 H :    0.019435

  Mayer bond orders larger than 0.100000
B(  0-C ,  1-C ) :   1.1317 B(  0-C ,  2-C ) :   1.0304 B(  0-C ,  9-H ) :   0.9027
B(  0-C , 10-H ) :   0.9123 B(  1-C , 11-H ) :   0.9497 B(  1-C , 12-H ) :   0.9682
B(  1-C , 13-H ) :   0.9664 B(  2-C ,  3-N ) :   1.3057 B(  2-C ,  4-C ) :   1.8544
B(  3-N ,  7-H ) :   0.9382 B(  3-N ,  8-H ) :   0.9344 B(  4-C ,  5-H ) :   0.9320
B(  4-C ,  6-H ) :   0.9142

Dispersion correction           -0.021511839
FINAL SINGLE POINT ENERGY      -212.288031496112

DIPOLE MOMENT
-------------
                                X             Y             Z
Electronic contribution:     -1.63575       1.53005       2.41366
Nuclear contribution   :      1.59749      -0.72853      -2.53752
                        -----------------------------------------
Total Dipole Moment    :     -0.03826       0.80152      -0.12386
                        -----------------------------------------
Magnitude (a.u.)       :      0.81193
Magnitude (Debye)      :      2.06377

Rotational constants in cm-1:     0.304597     0.124127     0.096828
Rotational constants in MHz :  9131.600925  3721.227051  2902.830760

                             ****ORCA TERMINATED NORMALLY****
TOTAL RUN TIME: 0 days 0 hours 0 minutes 8 seconds 188 msec
