                         Program Version 5.0.0 -  RELEASE  -
|  1> !BLYP D3BJ RIJCOSX def2-TZVP def2/J TightSCF xyzfile
|  2>
|  3> *xyzfile 0 1 D1.xyz
|  4>
|  5> %MaxCore 64000
|  6>
|  7> %pal nprocs 18
|  8> end
|  9>
| 10> %scf
| 11>   MaxIter 150
| 12> end
| 13>
| 14>
| 15>                          ****END OF INPUT****

CARTESIAN COORDINATES (ANGSTROEM)
---------------------------------
  C      4.366454   -0.133215   -1.416062
  C      4.508292   -0.931872   -2.724249
  H      4.753716   -1.972051   -2.488408
  C      3.294164   -0.918214   -3.656570
  H      5.385637   -0.536236   -3.242640
  H      2.483463   -1.477378   -3.185764
  H      3.553092   -1.478495   -4.560331
  C      2.772335    0.460100   -4.051448
  H      2.608762    1.065107   -3.155194
  C      1.465354    0.410537   -4.853644
  H      3.532940    0.988848   -4.635671
  C      0.326171   -0.375613   -4.192580
  H      1.666704   -0.022269   -5.839323
  H      1.138198    1.439246   -5.035449
  C     -0.017405    0.080588   -2.778406
  H      0.585573   -1.439385   -4.168057
  H     -0.560005   -0.311425   -4.831461
  H      0.902090    0.201296   -2.206729
  C     -0.903495   -0.873945   -1.987388
  H     -0.479549    1.074657   -2.811915
  H     -0.502554   -1.892096   -2.081204
  H     -1.917039   -0.895427   -2.406277
  C     -0.960148   -0.522365   -0.489867
  H     -1.690392   -1.208130   -0.021677
  H     -1.414490    0.486329   -0.406677
  F      0.261703   -0.580307    0.138611
  C      3.056503   -0.320797   -0.707384
  C      2.389825    0.711285   -0.243909
  N      2.515999   -1.507721   -0.550229
  H      2.967683   -2.322915   -0.956305
  H      1.549872   -1.490634   -0.249876
  H      2.743071    1.649471   -0.412802
  H      1.440364    0.502778    0.037031
  H      4.487835    0.932997   -1.611569
  H      5.169672   -0.414432   -0.729817

 Total Charge           Charge          ....    0
 Multiplicity           Mult            ....    1
 Number of Electrons    NEL             ....  104
 Basis Dimension        Dim             ....  535

ORBITAL ENERGIES
----------------

  NO   OCC          E(Eh)            E(eV)
   0   2.0000     -24.301544      -661.2786
   1   2.0000     -13.979837      -380.4107
   2   2.0000      -9.992272      -271.9035
   3   2.0000      -9.914933      -269.7990
   4   2.0000      -9.899762      -269.3862
   5   2.0000      -9.895499      -269.2702
   6   2.0000      -9.895459      -269.2691
   7   2.0000      -9.893161      -269.2066
   8   2.0000      -9.893144      -269.2061
   9   2.0000      -9.890768      -269.1415
  10   2.0000      -9.888819      -269.0884
  11   2.0000      -9.886868      -269.0354
  12   2.0000      -9.809409      -266.9276
  13   2.0000      -1.128912       -30.7193
  14   2.0000      -0.828092       -22.5335
  15   2.0000      -0.735664       -20.0184
  16   2.0000      -0.715168       -19.4607
  17   2.0000      -0.690741       -18.7960
  18   2.0000      -0.655598       -17.8397
  19   2.0000      -0.630120       -17.1464
  20   2.0000      -0.611767       -16.6470
  21   2.0000      -0.568221       -15.4621
  22   2.0000      -0.548847       -14.9349
  23   2.0000      -0.520691       -14.1687
  24   2.0000      -0.495537       -13.4842
  25   2.0000      -0.481148       -13.0927
  26   2.0000      -0.474419       -12.9096
  27   2.0000      -0.467154       -12.7119
  28   2.0000      -0.451909       -12.2971
  29   2.0000      -0.429732       -11.6936
  30   2.0000      -0.414331       -11.2745
  31   2.0000      -0.404881       -11.0174
  32   2.0000      -0.390000       -10.6124
  33   2.0000      -0.385436       -10.4883
  34   2.0000      -0.375662       -10.2223
  35   2.0000      -0.370372       -10.0783
  36   2.0000      -0.345557        -9.4031
  37   2.0000      -0.339107        -9.2276
  38   2.0000      -0.331511        -9.0209
  39   2.0000      -0.324427        -8.8281
  40   2.0000      -0.317782        -8.6473
  41   2.0000      -0.308067        -8.3829
  42   2.0000      -0.301492        -8.2040
  43   2.0000      -0.296948        -8.0804
  44   2.0000      -0.292711        -7.9651
  45   2.0000      -0.286945        -7.8082
  46   2.0000      -0.270187        -7.3522
  47   2.0000      -0.266238        -7.2447
  48   2.0000      -0.263023        -7.1572
  49   2.0000      -0.260056        -7.0765
  50   2.0000      -0.254337        -6.9209
  51   2.0000      -0.136615        -3.7175
  52   0.0000       0.006550         0.1782
  53   0.0000       0.015803         0.4300
  54   0.0000       0.024731         0.6730
  55   0.0000       0.028599         0.7782
  56   0.0000       0.034787         0.9466

MULLIKEN ATOMIC CHARGES
-----------------------
   0 C :   -0.126140
   1 C :   -0.211859
   2 H :    0.083730
   3 C :   -0.106737
   4 H :    0.076690
   5 H :    0.062400
   6 H :    0.061791
   7 C :   -0.187856
   8 H :    0.108967
   9 C :   -0.104652
  10 H :    0.065458
  11 C :   -0.145315
  12 H :    0.070079
  13 H :    0.069614
  14 C :   -0.214342
  15 H :    0.080745
  16 H :    0.069634
  17 H :    0.156586
  18 C :   -0.159600
  19 H :    0.059933
  20 H :    0.079599
  21 H :    0.082869
  22 C :    0.053404
  23 H :    0.098349
  24 H :    0.089931
  25 F :   -0.218220
  26 C :    0.132107
  27 C :   -0.438603
  28 N :   -0.369931
  29 H :    0.194242
  30 H :    0.221092
  31 H :    0.059917
  32 H :    0.132319
  33 H :    0.087682
  34 H :    0.086114
Sum of atomic charges:   -0.0000000

LOEWDIN ATOMIC CHARGES
----------------------
   0 C :   -0.214134
   1 C :   -0.260551
   2 H :    0.128086
   3 C :   -0.264212
   4 H :    0.133778
   5 H :    0.128975
   6 H :    0.131023
   7 C :   -0.261555
   8 H :    0.138005
   9 C :   -0.258047
  10 H :    0.129906
  11 C :   -0.264471
  12 H :    0.131156
  13 H :    0.131849
  14 C :   -0.265806
  15 H :    0.130145
  16 H :    0.129616
  17 H :    0.148715
  18 C :   -0.270550
  19 H :    0.131746
  20 H :    0.133022
  21 H :    0.138856
  22 C :   -0.337404
  23 H :    0.121978
  24 H :    0.125187
  25 F :    0.158383
  26 C :   -0.381226
  27 C :   -0.289277
  28 N :    0.012385
  29 H :    0.159709
  30 H :    0.152223
  31 H :    0.096994
  32 H :    0.091130
  33 H :    0.144471
  34 H :    0.139895

  Mayer bond orders larger than 0.100000
B(  0-C ,  1-C ) :   0.9453 B(  0-C , 26-C ) :   0.9743 B(  0-C , 33-H ) :   0.9639
B(  0-C , 34-H ) :   0.9646 B(  1-C ,  2-H ) :   0.9765 B(  1-C ,  3-C ) :   0.9450
B(  1-C ,  4-H ) :   0.9599 B(  3-C ,  5-H ) :   0.9630 B(  3-C ,  6-H ) :   0.9579
B(  3-C ,  7-C ) :   0.9439 B(  7-C ,  8-H ) :   0.9711 B(  7-C ,  9-C ) :   0.9627
B(  7-C , 10-H ) :   0.9576 B(  9-C , 11-C ) :   0.9738 B(  9-C , 12-H ) :   0.9620
B(  9-C , 13-H ) :   0.9636 B( 11-C , 14-C ) :   0.9560 B( 11-C , 15-H ) :   0.9665
B( 11-C , 16-H ) :   0.9634 B( 14-C , 17-H ) :   0.9812 B( 14-C , 18-C ) :   0.9527
B( 14-C , 19-H ) :   0.9608 B( 18-C , 20-H ) :   0.9592 B( 18-C , 21-H ) :   0.9426
B( 18-C , 22-C ) :   0.9636 B( 22-C , 23-H ) :   0.9656 B( 22-C , 24-H ) :   0.9709
B( 22-C , 25-F ) :   0.9248 B( 26-C , 27-C ) :   1.6926 B( 26-C , 28-N ) :   1.1853
B( 27-C , 31-H ) :   0.9990 B( 27-C , 32-H ) :   0.9639 B( 28-N , 29-H ) :   0.9322
B( 28-N , 30-H ) :   0.8808

Dispersion correction           -0.078386322
FINAL SINGLE POINT ENERGY      -586.944038362057

DIPOLE MOMENT
-------------
                                X             Y             Z
Electronic contribution:     -2.67098      -1.62861      10.51330
Nuclear contribution   :      1.82572       1.04089     -11.09065
                        -----------------------------------------
Total Dipole Moment    :     -0.84526      -0.58772      -0.57735
                        -----------------------------------------
Magnitude (a.u.)       :      1.18034
Magnitude (Debye)      :      3.00020

Rotational constants in cm-1:     0.028436     0.022359     0.014416
Rotational constants in MHz :   852.496561   670.291843   432.183951

                             ****ORCA TERMINATED NORMALLY****
TOTAL RUN TIME: 0 days 0 hours 0 minutes 27 seconds 422 msec
