                         Program Version 5.0.0 -  RELEASE  -
|  1> !CAM-B3LYP RIJCOSX def2-SVPD def2/J TightSCF
|  2> *xyz -1 1
|  3> C         -5.57236       -5.80780       -0.81644
|  4> S         -6.90318       -4.61903       -0.52846
|  5> O         -8.11485       -5.25093       -0.95701
|  6> O         -6.53271       -3.42684       -1.31485
|  7> O         -6.86563       -4.29496        0.91412
|  8> H         -5.55376       -6.07856       -1.85145
|  9> H         -5.73990       -6.68165       -0.22212
| 10> H         -4.63562       -5.36690       -0.54622
| 11> *
| 12> %MaxCore 64000
| 13>
| 14> %pal nprocs 4
| 15> end
| 16>
| 17> %scf
| 18>   MaxIter 150
| 19> end
| 20>
| 21>                          ****END OF INPUT****

CARTESIAN COORDINATES (ANGSTROEM)
---------------------------------
  C     -5.572360   -5.807800   -0.816440
  S     -6.903180   -4.619030   -0.528460
  O     -8.114850   -5.250930   -0.957010
  O     -6.532710   -3.426840   -1.314850
  O     -6.865630   -4.294960    0.914120
  H     -5.553760   -6.078560   -1.851450
  H     -5.739900   -6.681650   -0.222120
  H     -4.635620   -5.366900   -0.546220

 Total Charge           Charge          ....   -1
 Multiplicity           Mult            ....    1
 Number of Electrons    NEL             ....   50
 Basis Dimension        Dim             ....  140

ORBITAL ENERGIES
----------------

  NO   OCC          E(Eh)            E(eV)
   0   2.0000     -88.964756     -2420.8541
   1   2.0000     -18.999164      -516.9935
   2   2.0000     -18.986444      -516.6474
   3   2.0000     -18.985432      -516.6199
   4   2.0000     -10.117618      -275.3144
   5   2.0000      -8.017537      -218.1683
   6   2.0000      -5.987453      -162.9269
   7   2.0000      -5.987284      -162.9223
   8   2.0000      -5.987117      -162.9177
   9   2.0000      -1.014542       -27.6071
  10   2.0000      -0.870447       -23.6861
  11   2.0000      -0.846425       -23.0324
  12   2.0000      -0.664844       -18.0913
  13   2.0000      -0.464980       -12.6528
  14   2.0000      -0.376224       -10.2376
  15   2.0000      -0.363983        -9.9045
  16   2.0000      -0.362673        -9.8688
  17   2.0000      -0.320048        -8.7089
  18   2.0000      -0.318497        -8.6667
  19   2.0000      -0.220376        -5.9967
  20   2.0000      -0.220169        -5.9911
  21   2.0000      -0.183742        -4.9999
  22   2.0000      -0.175006        -4.7622
  23   2.0000      -0.168687        -4.5902
  24   2.0000      -0.130070        -3.5394
  25   0.0000       0.175707         4.7812
  26   0.0000       0.206314         5.6141
  27   0.0000       0.206656         5.6234
  28   0.0000       0.211709         5.7609
  29   0.0000       0.237651         6.4668

MULLIKEN ATOMIC CHARGES
-----------------------
   0 C :    0.686517
   1 S :    1.081471
   2 O :   -0.741089
   3 O :   -0.790551
   4 O :   -0.791980
   5 H :   -0.145690
   6 H :   -0.152189
   7 H :   -0.146489
Sum of atomic charges:   -1.0000000

LOEWDIN ATOMIC CHARGES
----------------------
   0 C :    0.061821
   1 S :    0.837832
   2 O :   -0.579868
   3 O :   -0.603348
   4 O :   -0.602549
   5 H :   -0.038159
   6 H :   -0.038882
   7 H :   -0.036848

  Mayer bond orders larger than 0.100000
B(  0-C ,  1-S ) :   0.9281 B(  0-C ,  5-H ) :   0.8836 B(  0-C ,  6-H ) :   0.8850
B(  0-C ,  7-H ) :   0.8879 B(  1-S ,  2-O ) :   1.3524 B(  1-S ,  3-O ) :   1.3116
B(  1-S ,  4-O ) :   1.3068 B(  1-S ,  5-H ) :   0.1234 B(  1-S ,  6-H ) :   0.1232
B(  1-S ,  7-H ) :   0.1325

FINAL SINGLE POINT ENERGY      -663.408057942518

DIPOLE MOMENT
-------------
                                X             Y             Z
Electronic contribution:     -3.19353       2.67887       0.62199
Nuclear contribution   :      4.23639      -3.86101      -0.94151
                        -----------------------------------------
Total Dipole Moment    :      1.04285      -1.18214      -0.31952
                        -----------------------------------------
Magnitude (a.u.)       :      1.60844
Magnitude (Debye)      :      4.08834

Rotational constants in cm-1:     0.172406     0.155169     0.153146
Rotational constants in MHz :  5168.590738  4651.861875  4591.214998

                             ****ORCA TERMINATED NORMALLY****
TOTAL RUN TIME: 0 days 0 hours 0 minutes 17 seconds 10 msec
