                         Program Version 5.0.0 -  RELEASE  -
|  1> !CAM-B3LYP RIJCOSX def2-SVPD def2/J TightSCF
|  2> *xyz 1 1
|  3> C         -4.38262       -1.67089        1.21620
|  4> N         -5.76354       -1.91517        0.70501
|  5> H         -5.84081       -2.11520       -0.30065
|  6> H         -6.40882       -1.14866        0.93612
|  7> H         -6.17478       -2.79061        1.05143
|  8> H         -4.01369       -0.74796        0.81997
|  9> H         -3.74223       -2.47168        0.91037
| 10> H         -4.40201       -1.61791        2.28471
| 11> *
| 12> %MaxCore 64000
| 13>
| 14> %pal nprocs 4
| 15> end
| 16>
| 17> %scf
| 18>   MaxIter 150
| 19> end
| 20>
| 21>                          ****END OF INPUT****

CARTESIAN COORDINATES (ANGSTROEM)
---------------------------------
  C     -4.382620   -1.670890    1.216200
  N     -5.763540   -1.915170    0.705010
  H     -5.840810   -2.115200   -0.300650
  H     -6.408820   -1.148660    0.936120
  H     -6.174780   -2.790610    1.051430
  H     -4.013690   -0.747960    0.819970
  H     -3.742230   -2.471680    0.910370
  H     -4.402010   -1.617910    2.284710

 Total Charge           Charge          ....    1
 Multiplicity           Mult            ....    1
 Number of Electrons    NEL             ....   18
 Basis Dimension        Dim             ....   88

ORBITAL ENERGIES
----------------

  NO   OCC          E(Eh)            E(eV)
   0   2.0000     -14.755179      -401.5088
   1   2.0000     -10.519646      -286.2541
   2   2.0000      -1.300351       -35.3844
   3   2.0000      -1.018908       -27.7259
   4   2.0000      -0.888022       -24.1643
   5   2.0000      -0.863808       -23.5054
   6   2.0000      -0.789743       -21.4900
   7   2.0000      -0.697029       -18.9671
   8   2.0000      -0.693700       -18.8765
   9   0.0000      -0.169130        -4.6022
  10   0.0000      -0.101619        -2.7652
  11   0.0000      -0.096538        -2.6269
  12   0.0000      -0.095370        -2.5951
  13   0.0000      -0.047818        -1.3012

MULLIKEN ATOMIC CHARGES
-----------------------
   0 C :    1.147357
   1 N :   -0.781216
   2 H :    0.319990
   3 H :    0.350731
   4 H :    0.327916
   5 H :   -0.124733
   6 H :   -0.126615
   7 H :   -0.113430
Sum of atomic charges:    1.0000000

LOEWDIN ATOMIC CHARGES
----------------------
   0 C :    0.290460
   1 N :    0.308396
   2 H :    0.109322
   3 H :    0.111629
   4 H :    0.106748
   5 H :    0.024171
   6 H :    0.024204
   7 H :    0.025069

  Mayer bond orders larger than 0.100000
B(  0-C ,  1-N ) :   0.7395 B(  0-C ,  5-H ) :   0.8652 B(  0-C ,  6-H ) :   0.8652
B(  0-C ,  7-H ) :   0.8564 B(  1-N ,  2-H ) :   0.8431 B(  1-N ,  3-H ) :   0.7944
B(  1-N ,  4-H ) :   0.8383 B(  1-N ,  5-H ) :   0.1042 B(  1-N ,  6-H ) :   0.1058
B(  1-N ,  7-H ) :   0.1086

FINAL SINGLE POINT ENERGY       -96.090843200839

DIPOLE MOMENT
-------------
                                X             Y             Z
Electronic contribution:     -0.96272      -0.13515      -0.35480
Nuclear contribution   :      0.12888      -0.05969       0.04130
                        -----------------------------------------
Total Dipole Moment    :     -0.83384      -0.19485      -0.31351
                        -----------------------------------------
Magnitude (a.u.)       :      0.91189
Magnitude (Debye)      :      2.31785

Rotational constants in cm-1:     2.932748     0.676653     0.669753
Rotational constants in MHz : 87921.559023 20285.538082 20078.692306

                             ****ORCA TERMINATED NORMALLY****
TOTAL RUN TIME: 0 days 0 hours 0 minutes 6 seconds 325 msec
