                         Program Version 5.0.0 -  RELEASE  -
|  1> !CAM-B3LYP RIJCOSX def2-SVPD def2/J TightSCF
|  2> *xyz 0 1
|  3> C         -5.57236       -5.80780       -0.81644
|  4> S         -6.90318       -4.61903       -0.52846
|  5> F         -8.11485       -5.25093       -0.95701
|  6> O         -6.53271       -3.42684       -1.31485
|  7> O         -6.86563       -4.29496        0.91412
|  8> H         -5.55376       -6.07856       -1.85145
|  9> H         -5.73990       -6.68165       -0.22212
| 10> H         -4.63562       -5.36690       -0.54622
| 11> *
| 12> %MaxCore 64000
| 13>
| 14> %pal nprocs 4
| 15> end
| 16>
| 17> %scf
| 18>   MaxIter 150
| 19> end
| 20>
| 21>                          ****END OF INPUT****

CARTESIAN COORDINATES (ANGSTROEM)
---------------------------------
  C     -5.572360   -5.807800   -0.816440
  S     -6.903180   -4.619030   -0.528460
  F     -8.114850   -5.250930   -0.957010
  O     -6.532710   -3.426840   -1.314850
  O     -6.865630   -4.294960    0.914120
  H     -5.553760   -6.078560   -1.851450
  H     -5.739900   -6.681650   -0.222120
  H     -4.635620   -5.366900   -0.546220

 Total Charge           Charge          ....    0
 Multiplicity           Mult            ....    1
 Number of Electrons    NEL             ....   50
 Basis Dimension        Dim             ....  140

ORBITAL ENERGIES
----------------

  NO   OCC          E(Eh)            E(eV)
   0   2.0000     -89.231242     -2428.1055
   1   2.0000     -24.905919      -677.7245
   2   2.0000     -19.225584      -523.1547
   3   2.0000     -19.224550      -523.1266
   4   2.0000     -10.327997      -281.0391
   5   2.0000      -8.284699      -225.4381
   6   2.0000      -6.258941      -170.3144
   7   2.0000      -6.252041      -170.1267
   8   2.0000      -6.251185      -170.1034
   9   2.0000      -1.477892       -40.2155
  10   2.0000      -1.187570       -32.3154
  11   2.0000      -1.082108       -29.4457
  12   2.0000      -0.889074       -24.1929
  13   2.0000      -0.807869       -21.9832
  14   2.0000      -0.694364       -18.8946
  15   2.0000      -0.679852       -18.4997
  16   2.0000      -0.637217       -17.3396
  17   2.0000      -0.555608       -15.1189
  18   2.0000      -0.551200       -14.9989
  19   2.0000      -0.543869       -14.7994
  20   2.0000      -0.509473       -13.8635
  21   2.0000      -0.456670       -12.4266
  22   2.0000      -0.404329       -11.0024
  23   2.0000      -0.399903       -10.8819
  24   2.0000      -0.374319       -10.1857
  25   0.0000       0.018392         0.5005
  26   0.0000       0.057858         1.5744
  27   0.0000       0.065909         1.7935
  28   0.0000       0.066773         1.8170
  29   0.0000       0.072674         1.9776

MULLIKEN ATOMIC CHARGES
-----------------------
   0 C :    0.650934
   1 S :    1.233570
   2 F :   -0.359497
   3 O :   -0.639144
   4 O :   -0.639841
   5 H :   -0.077445
   6 H :   -0.082431
   7 H :   -0.086147
Sum of atomic charges:   -0.0000000

LOEWDIN ATOMIC CHARGES
----------------------
   0 C :    0.130705
   1 S :    1.109828
   2 F :   -0.252378
   3 O :   -0.483875
   4 O :   -0.482503
   5 H :   -0.011980
   6 H :   -0.012292
   7 H :    0.002496

  Mayer bond orders larger than 0.100000
B(  0-C ,  1-S ) :   0.9813 B(  0-C ,  5-H ) :   0.8842 B(  0-C ,  6-H ) :   0.8872
B(  0-C ,  7-H ) :   0.8891 B(  1-S ,  2-F ) :   0.7321 B(  1-S ,  3-O ) :   1.5242
B(  1-S ,  4-O ) :   1.5189 B(  1-S ,  7-H ) :   0.1316

FINAL SINGLE POINT ENERGY      -687.886626942166

DIPOLE MOMENT
-------------
                                X             Y             Z
Electronic contribution:     -5.19765       1.56894      -0.10706
Nuclear contribution   :      5.53040      -3.27628      -0.52239
                        -----------------------------------------
Total Dipole Moment    :      0.33275      -1.70734      -0.62945
                        -----------------------------------------
Magnitude (a.u.)       :      1.84985
Magnitude (Debye)      :      4.70195

Rotational constants in cm-1:     0.163239     0.153903     0.144751
Rotational constants in MHz :  4893.777363  4613.882823  4339.513182

                             ****ORCA TERMINATED NORMALLY****
TOTAL RUN TIME: 0 days 0 hours 0 minutes 16 seconds 624 msec
