                         Program Version 5.0.0 -  RELEASE  -
|  1> !CAM-B3LYP RIJCOSX def2-SVPD def2/J TightSCF
|  2> *xyz 0 1
|  3> C         -4.38262       -1.67089        1.21620
|  4> C         -5.76354       -1.91517        0.70501
|  5> H         -5.84081       -2.11520       -0.30065
|  6> H         -6.40882       -1.14866        0.93612
|  7> H         -6.17478       -2.79061        1.05143
|  8> H         -4.01369       -0.74796        0.81997
|  9> H         -3.74223       -2.47168        0.91037
| 10> H         -4.40201       -1.61791        2.28471
| 11> *
| 12> %MaxCore 64000
| 13>
| 14> %pal nprocs 4
| 15> end
| 16>
| 17> %scf
| 18>   MaxIter 150
| 19> end
| 20>
| 21>                          ****END OF INPUT****

CARTESIAN COORDINATES (ANGSTROEM)
---------------------------------
  C     -4.382620   -1.670890    1.216200
  C     -5.763540   -1.915170    0.705010
  H     -5.840810   -2.115200   -0.300650
  H     -6.408820   -1.148660    0.936120
  H     -6.174780   -2.790610    1.051430
  H     -4.013690   -0.747960    0.819970
  H     -3.742230   -2.471680    0.910370
  H     -4.402010   -1.617910    2.284710

 Total Charge           Charge          ....    0
 Multiplicity           Mult            ....    1
 Number of Electrons    NEL             ....   18
 Basis Dimension        Dim             ....   88

ORBITAL ENERGIES
----------------

  NO   OCC          E(Eh)            E(eV)
   0   2.0000     -10.238318      -278.5988
   1   2.0000     -10.223668      -278.2002
   2   2.0000      -0.843572       -22.9548
   3   2.0000      -0.700524       -19.0622
   4   2.0000      -0.521805       -14.1990
   5   2.0000      -0.508304       -13.8317
   6   2.0000      -0.442938       -12.0530
   7   2.0000      -0.416542       -11.3347
   8   2.0000      -0.403007       -10.9664
   9   0.0000       0.057101         1.5538
  10   0.0000       0.086309         2.3486
  11   0.0000       0.135133         3.6772
  12   0.0000       0.138468         3.7679
  13   0.0000       0.158122         4.3027

MULLIKEN ATOMIC CHARGES
-----------------------
   0 C :    0.492618
   1 C :    0.709717
   2 H :   -0.292960
   3 H :   -0.257390
   4 H :   -0.280214
   5 H :   -0.132328
   6 H :   -0.117590
   7 H :   -0.121852
Sum of atomic charges:    0.0000000

LOEWDIN ATOMIC CHARGES
----------------------
   0 C :    0.088057
   1 C :    0.078108
   2 H :   -0.038492
   3 H :   -0.033846
   4 H :   -0.040011
   5 H :   -0.018632
   6 H :   -0.017919
   7 H :   -0.017266

  Mayer bond orders larger than 0.100000
B(  0-C ,  1-C ) :   1.3965 B(  0-C ,  2-H ) :   0.1412 B(  0-C ,  3-H ) :   0.1684
B(  0-C ,  4-H ) :   0.1561 B(  0-C ,  5-H ) :   0.8245 B(  0-C ,  6-H ) :   0.8354
B(  0-C ,  7-H ) :   0.8097 B(  1-C ,  2-H ) :   0.6904 B(  1-C ,  3-H ) :   0.7302
B(  1-C ,  4-H ) :   0.6835 B(  1-C ,  5-H ) :   0.1656 B(  1-C ,  6-H ) :   0.1678
B(  1-C ,  7-H ) :   0.1713 B(  2-H ,  4-H ) :   0.2503

FINAL SINGLE POINT ENERGY       -79.701471267193

DIPOLE MOMENT
-------------
                                X             Y             Z
Electronic contribution:      0.07790       0.07451       0.03188
Nuclear contribution   :     -0.10782      -0.10031      -0.04623
                        -----------------------------------------
Total Dipole Moment    :     -0.02992      -0.02580      -0.01435
                        -----------------------------------------
Magnitude (a.u.)       :      0.04203
Magnitude (Debye)      :      0.10684

Rotational constants in cm-1:     2.932831     0.705715     0.698218
Rotational constants in MHz : 87924.050302 21156.813368 20932.044240

                             ****ORCA TERMINATED NORMALLY****
TOTAL RUN TIME: 0 days 0 hours 0 minutes 6 seconds 3 msec
