                         Program Version 5.0.0 -  RELEASE  -
|  1> !CAM-B3LYP RIJCOSX def2-SVPD def2/J TightSCF
|  2> *xyz 0 1
|  3> C         -5.57236       -5.80780       -0.81644
|  4> S         -6.90318       -4.61903       -0.52846
|  5> O         -8.11485       -5.25093       -0.95701
|  6> F         -6.53271       -3.42684       -1.31485
|  7> O         -6.86563       -4.29496        0.91412
|  8> H         -5.55376       -6.07856       -1.85145
|  9> H         -5.73990       -6.68165       -0.22212
| 10> H         -4.63562       -5.36690       -0.54622
| 11> *
| 12> %MaxCore 64000
| 13>
| 14> %pal nprocs 4
| 15> end
| 16>
| 17> %scf
| 18>   MaxIter 150
| 19> end
| 20>
| 21>                          ****END OF INPUT****

CARTESIAN COORDINATES (ANGSTROEM)
---------------------------------
  C     -5.572360   -5.807800   -0.816440
  S     -6.903180   -4.619030   -0.528460
  O     -8.114850   -5.250930   -0.957010
  F     -6.532710   -3.426840   -1.314850
  O     -6.865630   -4.294960    0.914120
  H     -5.553760   -6.078560   -1.851450
  H     -5.739900   -6.681650   -0.222120
  H     -4.635620   -5.366900   -0.546220

 Total Charge           Charge          ....    0
 Multiplicity           Mult            ....    1
 Number of Electrons    NEL             ....   50
 Basis Dimension        Dim             ....  140

ORBITAL ENERGIES
----------------

  NO   OCC          E(Eh)            E(eV)
   0   2.0000     -89.229134     -2428.0482
   1   2.0000     -24.884611      -677.1447
   2   2.0000     -19.238288      -523.5004
   3   2.0000     -19.224995      -523.1387
   4   2.0000     -10.327169      -281.0166
   5   2.0000      -8.282497      -225.3782
   6   2.0000      -6.256491      -170.2478
   7   2.0000      -6.250119      -170.0744
   8   2.0000      -6.249186      -170.0490
   9   2.0000      -1.440869       -39.2080
  10   2.0000      -1.203907       -32.7600
  11   2.0000      -1.098051       -29.8795
  12   2.0000      -0.886644       -24.1268
  13   2.0000      -0.789678       -21.4882
  14   2.0000      -0.676218       -18.4008
  15   2.0000      -0.654016       -17.7967
  16   2.0000      -0.633461       -17.2373
  17   2.0000      -0.556734       -15.1495
  18   2.0000      -0.554874       -15.0989
  19   2.0000      -0.542524       -14.7628
  20   2.0000      -0.516856       -14.0644
  21   2.0000      -0.465630       -12.6704
  22   2.0000      -0.417069       -11.3490
  23   2.0000      -0.403735       -10.9862
  24   2.0000      -0.386665       -10.5217
  25   0.0000       0.020482         0.5573
  26   0.0000       0.059707         1.6247
  27   0.0000       0.066878         1.8198
  28   0.0000       0.067241         1.8297
  29   0.0000       0.070943         1.9305

MULLIKEN ATOMIC CHARGES
-----------------------
   0 C :    0.649614
   1 S :    1.239225
   2 O :   -0.604818
   3 F :   -0.384236
   4 O :   -0.651397
   5 H :   -0.077033
   6 H :   -0.089844
   7 H :   -0.081510
Sum of atomic charges:   -0.0000000

LOEWDIN ATOMIC CHARGES
----------------------
   0 C :    0.131220
   1 S :    1.107423
   2 O :   -0.462539
   3 F :   -0.271154
   4 O :   -0.483154
   5 H :   -0.011687
   6 H :    0.001073
   7 H :   -0.011183

  Mayer bond orders larger than 0.100000
B(  0-C ,  1-S ) :   0.9813 B(  0-C ,  5-H ) :   0.8863 B(  0-C ,  6-H ) :   0.8851
B(  0-C ,  7-H ) :   0.8897 B(  1-S ,  2-O ) :   1.5615 B(  1-S ,  3-F ) :   0.6828
B(  1-S ,  4-O ) :   1.5162 B(  1-S ,  6-H ) :   0.1249 B(  1-S ,  7-H ) :   0.1053

FINAL SINGLE POINT ENERGY      -687.904975886132

DIPOLE MOMENT
-------------
                                X             Y             Z
Electronic contribution:     -2.54801       4.62969      -0.72155
Nuclear contribution   :      3.94974      -5.09866      -0.16489
                        -----------------------------------------
Total Dipole Moment    :      1.40173      -0.46898      -0.88643
                        -----------------------------------------
Magnitude (a.u.)       :      1.72353
Magnitude (Debye)      :      4.38087

Rotational constants in cm-1:     0.163657     0.151977     0.145976
Rotational constants in MHz :  4906.325390  4556.144033  4376.262759

                             ****ORCA TERMINATED NORMALLY****
TOTAL RUN TIME: 0 days 0 hours 0 minutes 16 seconds 636 msec
