                         Program Version 5.0.0 -  RELEASE  -
|  1> !CAM-B3LYP RIJCOSX def2-SVPD def2/J TightSCF
|  2> *xyz 0 1
|  3> C         -5.57236       -5.80780       -0.81644
|  4> S         -6.90318       -4.61903       -0.52846
|  5> O         -8.11485       -5.25093       -0.95701
|  6> O         -6.53271       -3.42684       -1.31485
|  7> F         -6.86563       -4.29496        0.91412
|  8> H         -5.55376       -6.07856       -1.85145
|  9> H         -5.73990       -6.68165       -0.22212
| 10> H         -4.63562       -5.36690       -0.54622
| 11> *
| 12> %MaxCore 64000
| 13>
| 14> %pal nprocs 4
| 15> end
| 16>
| 17> %scf
| 18>   MaxIter 150
| 19> end
| 20>
| 21>                          ****END OF INPUT****

CARTESIAN COORDINATES (ANGSTROEM)
---------------------------------
  C     -5.572360   -5.807800   -0.816440
  S     -6.903180   -4.619030   -0.528460
  O     -8.114850   -5.250930   -0.957010
  O     -6.532710   -3.426840   -1.314850
  F     -6.865630   -4.294960    0.914120
  H     -5.553760   -6.078560   -1.851450
  H     -5.739900   -6.681650   -0.222120
  H     -4.635620   -5.366900   -0.546220

 Total Charge           Charge          ....    0
 Multiplicity           Mult            ....    1
 Number of Electrons    NEL             ....   50
 Basis Dimension        Dim             ....  140

ORBITAL ENERGIES
----------------

  NO   OCC          E(Eh)            E(eV)
   0   2.0000     -89.228856     -2428.0406
   1   2.0000     -24.884515      -677.1421
   2   2.0000     -19.238375      -523.5028
   3   2.0000     -19.224081      -523.1138
   4   2.0000     -10.327155      -281.0162
   5   2.0000      -8.282251      -225.3715
   6   2.0000      -6.256205      -170.2400
   7   2.0000      -6.249871      -170.0676
   8   2.0000      -6.248968      -170.0431
   9   2.0000      -1.438918       -39.1550
  10   2.0000      -1.204674       -32.7809
  11   2.0000      -1.098869       -29.9018
  12   2.0000      -0.885867       -24.1057
  13   2.0000      -0.789354       -21.4794
  14   2.0000      -0.675511       -18.3816
  15   2.0000      -0.652794       -17.7634
  16   2.0000      -0.632929       -17.2229
  17   2.0000      -0.556070       -15.1314
  18   2.0000      -0.555081       -15.1045
  19   2.0000      -0.543387       -14.7863
  20   2.0000      -0.516966       -14.0674
  21   2.0000      -0.465744       -12.6735
  22   2.0000      -0.417102       -11.3499
  23   2.0000      -0.403142       -10.9701
  24   2.0000      -0.386720       -10.5232
  25   0.0000       0.019745         0.5373
  26   0.0000       0.059673         1.6238
  27   0.0000       0.065064         1.7705
  28   0.0000       0.067225         1.8293
  29   0.0000       0.070120         1.9081

MULLIKEN ATOMIC CHARGES
-----------------------
   0 C :    0.650670
   1 S :    1.239101
   2 O :   -0.604661
   3 O :   -0.650627
   4 F :   -0.386344
   5 H :   -0.084234
   6 H :   -0.084184
   7 H :   -0.079721
Sum of atomic charges:    0.0000000

LOEWDIN ATOMIC CHARGES
----------------------
   0 C :    0.131395
   1 S :    1.107748
   2 O :   -0.462340
   3 O :   -0.484103
   4 F :   -0.270782
   5 H :    0.001564
   6 H :   -0.012715
   7 H :   -0.010766

  Mayer bond orders larger than 0.100000
B(  0-C ,  1-S ) :   0.9814 B(  0-C ,  5-H ) :   0.8836 B(  0-C ,  6-H ) :   0.8868
B(  0-C ,  7-H ) :   0.8907 B(  1-S ,  2-O ) :   1.5608 B(  1-S ,  3-O ) :   1.5201
B(  1-S ,  4-F ) :   0.6778 B(  1-S ,  5-H ) :   0.1245 B(  1-S ,  7-H ) :   0.1056

FINAL SINGLE POINT ENERGY      -687.904590385621

DIPOLE MOMENT
-------------
                                X             Y             Z
Electronic contribution:     -3.10881       3.16208       3.03669
Nuclear contribution   :      4.28235      -4.23136      -2.39177
                        -----------------------------------------
Total Dipole Moment    :      1.17354      -1.06927       0.64491
                        -----------------------------------------
Magnitude (a.u.)       :      1.71361
Magnitude (Debye)      :      4.35564

Rotational constants in cm-1:     0.164456     0.151338     0.145749
Rotational constants in MHz :  4930.268698  4537.002642  4369.437533

                             ****ORCA TERMINATED NORMALLY****
TOTAL RUN TIME: 0 days 0 hours 0 minutes 16 seconds 764 msec
