                         Program Version 5.0.0 -  RELEASE  -
|  1> !CAM-B3LYP RIJCOSX def2-SVPD def2/J TightSCF xyzfile
|  2>
|  3> *xyzfile 0 1 D1.xyz
|  4>
|  5> %MaxCore 64000
|  6>
|  7> %pal nprocs 4
|  8> end
|  9>
| 10> %scf
| 11>   MaxIter 150
| 12> end
| 13>
| 14>
| 15>                          ****END OF INPUT****

CARTESIAN COORDINATES (ANGSTROEM)
---------------------------------
  C     -4.382623   -1.670889    1.216201
  C     -5.763539   -1.915170    0.705012
  C     -3.281728   -2.191272    0.294361
  C     -5.572364   -5.807798   -0.816445
  S     -6.903179   -4.619033   -0.528458
  H     -5.840812   -2.115205   -0.300646
  H     -6.408823   -1.148656    0.936124
  H     -6.174781   -2.790606    1.051433
  F     -8.114853   -5.250932   -0.957007
  O     -6.532715   -3.426838   -1.314848
  H     -4.328618   -2.139223    2.198103
  H     -4.261583   -0.597399    1.357248
  O     -6.865632   -4.294957    0.914118
  C     -3.474641   -3.605898   -0.259608
  H     -2.354548   -2.127602    0.871433
  H     -3.166611   -1.499693   -0.545037
  C     -3.827078   -4.661097    0.786174
  H     -2.560559   -3.889391   -0.788050
  H     -4.255932   -3.570040   -1.019300
  C     -4.457800   -5.941875    0.229195
  H     -5.177347   -5.542575   -1.797714
  H     -6.074202   -6.768894   -0.921272
  H     -4.530506   -4.253640    1.511979
  H     -2.933400   -4.932302    1.356825
  H     -3.681064   -6.562236   -0.229885
  H     -4.843942   -6.512728    1.075805

 Total Charge           Charge          ....    0
 Multiplicity           Mult            ....    1
 Number of Electrons    NEL             ....   98
 Basis Dimension        Dim             ....  356

ORBITAL ENERGIES
----------------

  NO   OCC          E(Eh)            E(eV)
   0   2.0000     -89.232461     -2428.1387
   1   2.0000     -24.907056      -677.7554
   2   2.0000     -19.228806      -523.2424
   3   2.0000     -19.227780      -523.2145
   4   2.0000     -10.329028      -281.0671
   5   2.0000     -10.289367      -279.9879
   6   2.0000     -10.255128      -279.0562
   7   2.0000     -10.244058      -278.7550
   8   2.0000     -10.235149      -278.5126
   9   2.0000     -10.220705      -278.1195
  10   2.0000     -10.163882      -276.5733
  11   2.0000      -8.285153      -225.4505
  12   2.0000      -6.259320      -170.3247
  13   2.0000      -6.252761      -170.1463
  14   2.0000      -6.251534      -170.1129
  15   2.0000      -1.478204       -40.2240
  16   2.0000      -1.196174       -32.5495
  17   2.0000      -1.090965       -29.6867
  18   2.0000      -0.918674       -24.9984
  19   2.0000      -0.875563       -23.8253
  20   2.0000      -0.834888       -22.7185
  21   2.0000      -0.807354       -21.9692
  22   2.0000      -0.770413       -20.9640
  23   2.0000      -0.723389       -19.6844
  24   2.0000      -0.690458       -18.7883
  25   2.0000      -0.682893       -18.5825
  26   2.0000      -0.663963       -18.0673
  27   2.0000      -0.631277       -17.1779
  28   2.0000      -0.612370       -16.6634
  29   2.0000      -0.572082       -15.5672
  30   2.0000      -0.569526       -15.4976
  31   2.0000      -0.545240       -14.8367
  32   2.0000      -0.542251       -14.7554
  33   2.0000      -0.513141       -13.9633
  34   2.0000      -0.505446       -13.7539
  35   2.0000      -0.487513       -13.2659
  36   2.0000      -0.480983       -13.0882
  37   2.0000      -0.456349       -12.4179
  38   2.0000      -0.447728       -12.1833
  39   2.0000      -0.444232       -12.0882
  40   2.0000      -0.414763       -11.2863
  41   2.0000      -0.409392       -11.1401
  42   2.0000      -0.403970       -10.9926
  43   2.0000      -0.399659       -10.8753
  44   2.0000      -0.390395       -10.6232
  45   2.0000      -0.377061       -10.2603
  46   2.0000      -0.358529        -9.7561
  47   2.0000      -0.352458        -9.5909
  48   2.0000      -0.330380        -8.9901
  49   0.0000       0.022280         0.6063
  50   0.0000       0.041453         1.1280
  51   0.0000       0.053765         1.4630
  52   0.0000       0.061400         1.6708
  53   0.0000       0.071861         1.9554

MULLIKEN ATOMIC CHARGES
-----------------------
   0 C :    0.107629
   1 C :    2.169817
   2 C :    0.599882
   3 C :    0.327659
   4 S :    1.642526
   5 H :   -0.508195
   6 H :   -0.474636
   7 H :   -1.019879
   8 F :   -0.526692
   9 O :   -0.672464
  10 H :    0.071011
  11 H :   -0.494430
  12 O :   -0.747752
  13 C :    0.300636
  14 H :   -0.130998
  15 H :   -0.018655
  16 C :    0.189545
  17 H :   -0.417454
  18 H :   -0.162749
  19 C :    0.622533
  20 H :    0.078140
  21 H :   -0.343528
  22 H :   -0.073592
  23 H :   -0.339520
  24 H :   -0.099664
  25 H :   -0.079170
Sum of atomic charges:    0.0000000

LOEWDIN ATOMIC CHARGES
----------------------
   0 C :   -0.044901
   1 C :    0.138181
   2 C :   -0.023540
   3 C :   -0.032944
   4 S :    1.203028
   5 H :   -0.096555
   6 H :   -0.019379
   7 H :   -0.136550
   8 F :   -0.244193
   9 O :   -0.464932
  10 H :    0.014428
  11 H :    0.014368
  12 O :   -0.454088
  13 C :   -0.009645
  14 H :    0.015183
  15 H :    0.025289
  16 C :   -0.007799
  17 H :    0.023121
  18 H :   -0.017054
  19 C :   -0.012154
  20 H :    0.023825
  21 H :    0.011971
  22 H :   -0.003094
  23 H :    0.031233
  24 H :    0.035018
  25 H :    0.031185

  Mayer bond orders larger than 0.100000
B(  0-C ,  1-C ) :   1.0135 B(  0-C ,  2-C ) :   1.1206 B(  0-C ,  5-H ) :   0.3621
B(  0-C ,  6-H ) :   0.1037 B(  0-C ,  7-H ) :   0.4328 B(  0-C , 10-H ) :   0.6646
B(  0-C , 11-H ) :   0.9605 B(  0-C , 14-H ) :   0.1870 B(  0-C , 15-H ) :   0.1806
B(  1-C ,  2-C ) :   0.1855 B(  1-C ,  5-H ) :  -0.2296 B(  1-C ,  6-H ) :   0.3639
B(  1-C ,  7-H ) :  -0.7389 B(  1-C , 10-H ) :   0.2186 B(  1-C , 17-H ) :   0.1280
B(  2-C , 10-H ) :   0.1386 B(  2-C , 13-C ) :   1.2440 B(  2-C , 14-H ) :   0.7172
B(  2-C , 15-H ) :   0.6064 B(  2-C , 18-H ) :   0.1252 B(  3-C ,  4-S ) :   0.9485
B(  3-C ,  8-F ) :   0.1067 B(  3-C , 19-C ) :   1.2013 B(  3-C , 20-H ) :   0.8542
B(  3-C , 21-H ) :   0.7980 B(  3-C , 24-H ) :   0.1528 B(  3-C , 25-H ) :   0.1330
B(  4-S ,  8-F ) :   0.6151 B(  4-S ,  9-O ) :   1.3684 B(  4-S , 12-O ) :   1.3578
B(  5-H ,  6-H ) :  -0.1082 B(  5-H ,  7-H ) :   1.0592 B(  5-H ,  9-O ) :   0.2159
B(  5-H , 11-H ) :   0.1778 B(  5-H , 17-H ) :  -0.1104 B(  5-H , 18-H ) :   0.1649
B(  6-H ,  7-H ) :   0.1621 B(  6-H , 11-H ) :  -0.1560 B(  6-H , 17-H ) :   0.1198
B(  6-H , 18-H ) :  -0.1522 B(  7-H , 10-H ) :  -0.1348 B(  7-H , 11-H ) :   0.1175
B(  7-H , 12-O ) :   0.1499 B(  7-H , 17-H ) :  -0.1331 B(  9-O , 12-O ) :   0.1765
B( 10-H , 11-H ) :  -0.2549 B( 10-H , 22-H ) :   0.1568 B( 11-H , 14-H ) :   0.1166
B( 13-C , 14-H ) :   0.1889 B( 13-C , 15-H ) :   0.2831 B( 13-C , 16-C ) :   1.1619
B( 13-C , 17-H ) :   0.7607 B( 13-C , 18-H ) :   0.7591 B( 13-C , 22-H ) :   0.1197
B( 13-C , 23-H ) :   0.1811 B( 14-H , 15-H ) :  -0.1248 B( 16-C , 17-H ) :   0.2084
B( 16-C , 18-H ) :   0.1915 B( 16-C , 19-C ) :   1.2402 B( 16-C , 22-H ) :   0.8483
B( 16-C , 23-H ) :   0.7759 B( 16-C , 24-H ) :   0.1413 B( 16-C , 25-H ) :   0.2862
B( 19-C , 21-H ) :   0.2305 B( 19-C , 24-H ) :   0.7132 B( 19-C , 25-H ) :   0.6199
B( 24-H , 25-H ) :  -0.1017

FINAL SINGLE POINT ENERGY      -923.404094570201

DIPOLE MOMENT
-------------
                                X             Y             Z
Electronic contribution:    -18.90994      -8.73113      -6.74427
Nuclear contribution   :     19.08524       6.89775       6.14221
                        -----------------------------------------
Total Dipole Moment    :      0.17530      -1.83338      -0.60206
                        -----------------------------------------
Magnitude (a.u.)       :      1.93765
Magnitude (Debye)      :      4.92511

Rotational constants in cm-1:     0.049343     0.024787     0.019726
Rotational constants in MHz :  1479.262779   743.087234   591.370705

                             ****ORCA TERMINATED NORMALLY****
TOTAL RUN TIME: 0 days 0 hours 2 minutes 52 seconds 280 msec
