                         Program Version 5.0.0 -  RELEASE  -
|  1> !PBE D3BJ RIJCOSX def2-TZVP def2/J TightSCF
|  2> *xyz -1 1
|  3> C         -0.05517        1.61942       -3.78858
|  4> C          1.22302        2.46987       -3.75691
|  5> H          1.11470        3.25807       -4.53300
|  6> H          1.23773        3.01124       -2.79216
|  7> O          2.35381        1.71203       -3.93448
|  8> H         -0.10198        1.08015       -4.71156
|  9> H         -0.91014        2.25726       -3.70441
| 10> H         -0.04403        0.92826       -2.97183
| 11> *
| 12>
| 13> %MaxCore 64000
| 14>
| 15> %pal nprocs 4
| 16> end
| 17>
| 18> %scf
| 19>   MaxIter 150
| 20> end
| 21>
| 22>
| 23>                          ****END OF INPUT****

CARTESIAN COORDINATES (ANGSTROEM)
---------------------------------
  C     -0.055170    1.619420   -3.788580
  C      1.223020    2.469870   -3.756910
  H      1.114700    3.258070   -4.533000
  H      1.237730    3.011240   -2.792160
  O      2.353810    1.712030   -3.934480
  H     -0.101980    1.080150   -4.711560
  H     -0.910140    2.257260   -3.704410
  H     -0.044030    0.928260   -2.971830

 Total Charge           Charge          ....   -1
 Multiplicity           Mult            ....    1
 Number of Electrons    NEL             ....   26
 Basis Dimension        Dim             ....  123

ORBITAL ENERGIES
----------------

  NO   OCC          E(Eh)            E(eV)
   0   2.0000     -18.403291      -500.7790
   1   2.0000      -9.683118      -263.4910
   2   2.0000      -9.662455      -262.9288
   3   2.0000      -0.585637       -15.9360
   4   2.0000      -0.448194       -12.1960
   5   2.0000      -0.304821        -8.2946
   6   2.0000      -0.194639        -5.2964
   7   2.0000      -0.172940        -4.7059
   8   2.0000      -0.122055        -3.3213
   9   2.0000      -0.104660        -2.8479
  10   2.0000      -0.057416        -1.5624
  11   2.0000       0.083495         2.2720
  12   2.0000       0.086811         2.3622
  13   0.0000       0.199719         5.4346
  14   0.0000       0.234588         6.3835
  15   0.0000       0.256975         6.9926
  16   0.0000       0.262047         7.1307
  17   0.0000       0.293743         7.9932

MULLIKEN ATOMIC CHARGES
-----------------------
   0 C :   -0.083613
   1 C :   -0.009082
   2 H :   -0.075142
   3 H :   -0.072817
   4 O :   -0.710215
   5 H :    0.007337
   6 H :   -0.066041
   7 H :    0.009573
Sum of atomic charges:   -1.0000000

LOEWDIN ATOMIC CHARGES
----------------------
   0 C :   -0.373570
   1 C :   -0.565823
   2 H :    0.048899
   3 H :    0.050684
   4 O :   -0.391983
   5 H :    0.083196
   6 H :    0.065254
   7 H :    0.083344

  Mayer bond orders larger than 0.100000
B(  0-C ,  1-C ) :   0.8789 B(  0-C ,  4-O ) :  -0.3600 B(  0-C ,  5-H ) :   0.9459
B(  0-C ,  6-H ) :   0.8796 B(  0-C ,  7-H ) :   0.9507 B(  1-C ,  2-H ) :   0.8999
B(  1-C ,  3-H ) :   0.9004 B(  1-C ,  4-O ) :   1.6941 B(  4-O ,  5-H ) :   0.1005
B(  4-O ,  6-H ) :   0.1539

Dispersion correction           -0.003764383
FINAL SINGLE POINT ENERGY      -154.289682814660

DIPOLE MOMENT
-------------
                                X             Y             Z
Electronic contribution:      3.13187      -0.68813      -0.29140
Nuclear contribution   :     -4.28298       0.81046       0.39340
                        -----------------------------------------
Total Dipole Moment    :     -1.15110       0.12233       0.10200
                        -----------------------------------------
Magnitude (a.u.)       :      1.16207
Magnitude (Debye)      :      2.95375

Rotational constants in cm-1:     1.266793     0.328147     0.288309
Rotational constants in MHz : 37977.512300  9837.594308  8643.275638

                             ****ORCA TERMINATED NORMALLY****
TOTAL RUN TIME: 0 days 0 hours 0 minutes 7 seconds 131 msec
