                         Program Version 5.0.0 -  RELEASE  -
|  1> !PBE D3BJ RIJCOSX def2-TZVP def2/J TightSCF
|  2> *xyz 1 1
|  3> C          1.63556       -1.67040       -5.29211
|  4> C          0.33848       -1.50091       -4.50540
|  5> N          2.48451       -0.50741       -5.14039
|  6> H          1.39834       -1.82924       -6.35259
|  7> H          2.15586       -2.56540       -4.93209
|  8> C          3.45115       -0.14953       -5.95259
|  9> N          3.92267        1.08956       -5.85071
| 10> N          3.96616       -1.00618       -6.86788
| 11> H          3.52139       -1.90647       -6.99527
| 12> H          4.44482       -0.62347       -7.67035
| 13> H          2.25200        0.24080       -4.49879
| 14> H          3.46428        1.64078       -5.13639
| 15> H          4.83447        1.31375       -6.22465
| 16> H         -0.17658       -0.62881       -4.85045
| 17> H          0.56384       -1.39374       -3.46490
| 18> H         -0.28102       -2.36136       -4.64938
| 19> *
| 20>
| 21> %MaxCore 64000
| 22>
| 23> %pal nprocs 4
| 24> end
| 25>
| 26> %scf
| 27>   MaxIter 150
| 28> end
| 29>
| 30>
| 31>                          ****END OF INPUT****

CARTESIAN COORDINATES (ANGSTROEM)
---------------------------------
  C      1.635560   -1.670400   -5.292110
  C      0.338480   -1.500910   -4.505400
  N      2.484510   -0.507410   -5.140390
  H      1.398340   -1.829240   -6.352590
  H      2.155860   -2.565400   -4.932090
  C      3.451150   -0.149530   -5.952590
  N      3.922670    1.089560   -5.850710
  N      3.966160   -1.006180   -6.867880
  H      3.521390   -1.906470   -6.995270
  H      4.444820   -0.623470   -7.670350
  H      2.252000    0.240800   -4.498790
  H      3.464280    1.640780   -5.136390
  H      4.834470    1.313750   -6.224650
  H     -0.176580   -0.628810   -4.850450
  H      0.563840   -1.393740   -3.464900
  H     -0.281020   -2.361360   -4.649380

 Total Charge           Charge          ....    1
 Multiplicity           Mult            ....    1
 Number of Electrons    NEL             ....   48
 Basis Dimension        Dim             ....  246

ORBITAL ENERGIES
----------------

  NO   OCC          E(Eh)            E(eV)
   0   2.0000     -14.211473      -386.7138
   1   2.0000     -14.204912      -386.5353
   2   2.0000     -14.203161      -386.4876
   3   2.0000     -10.200156      -277.5604
   4   2.0000     -10.090617      -274.5796
   5   2.0000     -10.019747      -272.6512
   6   2.0000      -1.133551       -30.8455
   7   2.0000      -1.028078       -27.9754
   8   2.0000      -1.015232       -27.6259
   9   2.0000      -0.867320       -23.6010
  10   2.0000      -0.772210       -21.0129
  11   2.0000      -0.755066       -20.5464
  12   2.0000      -0.722126       -19.6500
  13   2.0000      -0.691579       -18.8188
  14   2.0000      -0.640746       -17.4356
  15   2.0000      -0.635129       -17.2827
  16   2.0000      -0.611282       -16.6338
  17   2.0000      -0.595016       -16.1912
  18   2.0000      -0.554688       -15.0938
  19   2.0000      -0.504186       -13.7196
  20   2.0000      -0.489008       -13.3066
  21   2.0000      -0.477953       -13.0058
  22   2.0000      -0.435831       -11.8596
  23   2.0000      -0.414899       -11.2900
  24   0.0000      -0.200045        -5.4435
  25   0.0000      -0.178502        -4.8573
  26   0.0000      -0.144541        -3.9332
  27   0.0000      -0.127219        -3.4618
  28   0.0000      -0.107630        -2.9288

MULLIKEN ATOMIC CHARGES
-----------------------
   0 C :   -0.163790
   1 C :   -0.387675
   2 N :   -0.170674
   3 H :    0.144363
   4 H :    0.168325
   5 C :    0.352550
   6 N :   -0.346340
   7 N :   -0.377479
   8 H :    0.279593
   9 H :    0.275173
  10 H :    0.228531
  11 H :    0.257933
  12 H :    0.281690
  13 H :    0.145063
  14 H :    0.150215
  15 H :    0.162523
Sum of atomic charges:    1.0000000

LOEWDIN ATOMIC CHARGES
----------------------
   0 C :   -0.294991
   1 C :   -0.280969
   2 N :    0.185948
   3 H :    0.143920
   4 H :    0.147525
   5 C :   -0.430943
   6 N :    0.074605
   7 N :    0.064643
   8 H :    0.192618
   9 H :    0.194458
  10 H :    0.209273
  11 H :    0.196043
  12 H :    0.198485
  13 H :    0.128183
  14 H :    0.130137
  15 H :    0.141065

  Mayer bond orders larger than 0.100000
B(  0-C ,  1-C ) :   1.0166 B(  0-C ,  2-N ) :   0.8914 B(  0-C ,  3-H ) :   0.9488
B(  0-C ,  4-H ) :   0.9329 B(  1-C , 13-H ) :   0.9663 B(  1-C , 14-H ) :   0.9626
B(  1-C , 15-H ) :   0.9534 B(  2-N ,  5-C ) :   1.4021 B(  2-N , 10-H ) :   0.8992
B(  5-C ,  6-N ) :   1.3446 B(  5-C ,  7-N ) :   1.3307 B(  6-N , 11-H ) :   0.8987
B(  6-N , 12-H ) :   0.8890 B(  7-N ,  8-H ) :   0.8936 B(  7-N ,  9-H ) :   0.8941

Dispersion correction           -0.012048894
FINAL SINGLE POINT ENERGY      -284.152797356081

DIPOLE MOMENT
-------------
                                X             Y             Z
Electronic contribution:      4.70215       2.48169      -1.69695
Nuclear contribution   :     -3.96322      -1.85512       1.24891
                        -----------------------------------------
Total Dipole Moment    :      0.73893       0.62657      -0.44804
                        -----------------------------------------
Magnitude (a.u.)       :      1.06741
Magnitude (Debye)      :      2.71313

Rotational constants in cm-1:     0.261404     0.067000     0.054949
Rotational constants in MHz :  7836.702504  2008.609425  1647.329138

                             ****ORCA TERMINATED NORMALLY****
TOTAL RUN TIME: 0 days 0 hours 0 minutes 14 seconds 137 msec
