                         Program Version 5.0.0 -  RELEASE  -
|  1> !PBE D3BJ RIJCOSX def2-TZVP def2/J TightSCF xyzfile
|  2>
|  3> *xyzfile 0 1 B.xyz
|  4>
|  5> %MaxCore 64000
|  6>
|  7> %pal nprocs 18
|  8> end
|  9>
| 10> %scf
| 11>   MaxIter 150
| 12> end
| 13>
| 14>
| 15>                          ****END OF INPUT****

CARTESIAN COORDINATES (ANGSTROEM)
---------------------------------
  C      1.635557   -1.670396   -5.292109
  C      0.338484   -1.500907   -4.505398
  N      2.484511   -0.507410   -5.140392
  C     -0.684873   -0.528026   -5.099889
  C     -0.290406    0.951335   -5.153423
  H      0.607991    1.070692   -5.764412
  C     -0.055168    1.619420   -3.788577
  H     -1.080912    1.483775   -5.689436
  H      0.045006    0.862302   -3.003015
  H     -0.922936    2.230329   -3.517028
  C      1.223022    2.469865   -3.756911
  H      1.114701    3.258074   -4.532999
  H      1.237732    3.011242   -2.792157
  O      2.353815    1.712032   -3.934477
  H      1.398337   -1.829239   -6.352591
  H      2.155864   -2.565398   -4.932091
  C      3.451149   -0.149530   -5.952589
  N      3.922667    1.089559   -5.850711
  N      3.966162   -1.006183   -6.867880
  H      3.521391   -1.906467   -6.995270
  H      4.444824   -0.623472   -7.670348
  H      2.251995    0.240804   -4.498792
  H      3.464277    1.640782   -5.136392
  H      4.834470    1.313745   -6.224653
  H     -0.937999   -0.869056   -6.110838
  H     -1.604638   -0.622496   -4.513132
  H      0.594887   -1.211578   -3.482312
  H     -0.126530   -2.487656   -4.434176

 Total Charge           Charge          ....    0
 Multiplicity           Mult            ....    1
 Number of Electrons    NEL             ....   88
 Basis Dimension        Dim             ....  443

ORBITAL ENERGIES
----------------

  NO   OCC          E(Eh)            E(eV)
   0   2.0000     -18.622322      -506.7391
   1   2.0000     -14.038052      -381.9948
   2   2.0000     -13.999972      -380.9586
   3   2.0000     -13.995775      -380.8444
   4   2.0000     -10.011356      -272.4229
   5   2.0000      -9.931067      -270.2381
   6   2.0000      -9.884242      -268.9639
   7   2.0000      -9.871406      -268.6146
   8   2.0000      -9.857576      -268.2383
   9   2.0000      -9.853331      -268.1228
  10   2.0000      -9.835693      -267.6428
  11   2.0000      -0.944590       -25.7036
  12   2.0000      -0.847255       -23.0550
  13   2.0000      -0.827972       -22.5303
  14   2.0000      -0.801104       -21.7991
  15   2.0000      -0.726530       -19.7699
  16   2.0000      -0.676081       -18.3971
  17   2.0000      -0.623780       -16.9739
  18   2.0000      -0.591421       -16.0934
  19   2.0000      -0.565204       -15.3800
  20   2.0000      -0.541421       -14.7328
  21   2.0000      -0.521486       -14.1904
  22   2.0000      -0.505801       -13.7635
  23   2.0000      -0.469749       -12.7825
  24   2.0000      -0.458065       -12.4646
  25   2.0000      -0.444660       -12.0998
  26   2.0000      -0.436694       -11.8831
  27   2.0000      -0.427786       -11.6407
  28   2.0000      -0.390669       -10.6306
  29   2.0000      -0.378097       -10.2885
  30   2.0000      -0.369070       -10.0429
  31   2.0000      -0.364094        -9.9075
  32   2.0000      -0.338363        -9.2073
  33   2.0000      -0.322494        -8.7755
  34   2.0000      -0.314693        -8.5632
  35   2.0000      -0.294438        -8.0121
  36   2.0000      -0.278183        -7.5697
  37   2.0000      -0.268439        -7.3046
  38   2.0000      -0.262345        -7.1388
  39   2.0000      -0.255356        -6.9486
  40   2.0000      -0.249172        -6.7803
  41   2.0000      -0.224451        -6.1076
  42   2.0000      -0.137757        -3.7486
  43   2.0000      -0.128613        -3.4997
  44   0.0000      -0.025261        -0.6874
  45   0.0000      -0.016413        -0.4466
  46   0.0000       0.009668         0.2631
  47   0.0000       0.026014         0.7079
  48   0.0000       0.044055         1.1988

MULLIKEN ATOMIC CHARGES
-----------------------
   0 C :   -0.156697
   1 C :   -0.197939
   2 N :   -0.151449
   3 C :   -0.168709
   4 C :   -0.205445
   5 H :    0.099257
   6 C :   -0.130784
   7 H :    0.082113
   8 H :    0.059092
   9 H :    0.060217
  10 C :    0.013392
  11 H :    0.016752
  12 H :    0.038922
  13 O :   -0.664358
  14 H :    0.086823
  15 H :    0.118912
  16 C :    0.318229
  17 N :   -0.368756
  18 N :   -0.422982
  19 H :    0.246835
  20 H :    0.237656
  21 H :    0.226600
  22 H :    0.255747
  23 H :    0.212496
  24 H :    0.075606
  25 H :    0.095281
  26 H :    0.122604
  27 H :    0.100586
Sum of atomic charges:   -0.0000000

LOEWDIN ATOMIC CHARGES
----------------------
   0 C :   -0.292846
   1 C :   -0.269963
   2 N :    0.185617
   3 C :   -0.276526
   4 C :   -0.279353
   5 H :    0.137880
   6 C :   -0.289424
   7 H :    0.133416
   8 H :    0.128598
   9 H :    0.126678
  10 C :   -0.478035
  11 H :    0.094183
  12 H :    0.100884
  13 O :   -0.265991
  14 H :    0.129195
  15 H :    0.132151
  16 C :   -0.454989
  17 N :    0.049851
  18 N :    0.011119
  19 H :    0.174490
  20 H :    0.172604
  21 H :    0.155658
  22 H :    0.148187
  23 H :    0.165307
  24 H :    0.133529
  25 H :    0.140896
  26 H :    0.144172
  27 H :    0.142711

  Mayer bond orders larger than 0.100000
B(  0-C ,  1-C ) :   1.0214 B(  0-C ,  2-N ) :   0.9576 B(  0-C , 14-H ) :   0.9384
B(  0-C , 15-H ) :   0.9315 B(  1-C ,  3-C ) :   1.0261 B(  1-C , 26-H ) :   0.9549
B(  1-C , 27-H ) :   0.9440 B(  2-N , 16-C ) :   1.4470 B(  2-N , 21-H ) :   0.7276
B(  3-C ,  4-C ) :   1.0069 B(  3-C , 24-H ) :   0.9441 B(  3-C , 25-H ) :   0.9457
B(  4-C ,  5-H ) :   0.9587 B(  4-C ,  6-C ) :   1.0013 B(  4-C ,  7-H ) :   0.9481
B(  6-C ,  8-H ) :   0.9526 B(  6-C ,  9-H ) :   0.9260 B(  6-C , 10-C ) :   0.9721
B( 10-C , 11-H ) :   0.9433 B( 10-C , 12-H ) :   0.9272 B( 10-C , 13-O ) :   1.2361
B( 13-O , 21-H ) :   0.3005 B( 13-O , 22-H ) :   0.2553 B( 16-C , 17-N ) :   1.4088
B( 16-C , 18-N ) :   1.2362 B( 17-N , 22-H ) :   0.7428 B( 17-N , 23-H ) :   0.9089
B( 18-N , 19-H ) :   0.9077 B( 18-N , 20-H ) :   0.9075

Dispersion correction           -0.029107760
FINAL SINGLE POINT ENERGY      -516.014312431374

DIPOLE MOMENT
-------------
                                X             Y             Z
Electronic contribution:      8.41724      -0.85728      -2.17835
Nuclear contribution   :     -7.46499      -1.05836       0.01518
                        -----------------------------------------
Total Dipole Moment    :      0.95225      -1.91565      -2.16318
                        -----------------------------------------
Magnitude (a.u.)       :      3.04233
Magnitude (Debye)      :      7.73300

Rotational constants in cm-1:     0.044680     0.028958     0.019773
Rotational constants in MHz :  1339.486245   868.136755   592.791310

                             ****ORCA TERMINATED NORMALLY****
TOTAL RUN TIME: 0 days 0 hours 0 minutes 16 seconds 668 msec
