                         Program Version 5.0.0 -  RELEASE  -
|  1> !PBE D3BJ RIJCOSX def2-TZVP def2/J TightSCF
|  2> *xyz 0 1
|  3> C         -0.05517        1.61942       -3.78858
|  4> C          1.22302        2.46987       -3.75691
|  5> H          1.11470        3.25807       -4.53300
|  6> H          1.23773        3.01124       -2.79216
|  7> F          2.35381        1.71203       -3.93448
|  8> H         -0.10198        1.08015       -4.71156
|  9> H         -0.91014        2.25726       -3.70441
| 10> H         -0.04403        0.92826       -2.97183
| 11> *
| 12>
| 13> %MaxCore 64000
| 14>
| 15> %pal nprocs 4
| 16> end
| 17>
| 18> %scf
| 19>   MaxIter 150
| 20> end
| 21>
| 22>
| 23>                          ****END OF INPUT****

CARTESIAN COORDINATES (ANGSTROEM)
---------------------------------
  C     -0.055170    1.619420   -3.788580
  C      1.223020    2.469870   -3.756910
  H      1.114700    3.258070   -4.533000
  H      1.237730    3.011240   -2.792160
  F      2.353810    1.712030   -3.934480
  H     -0.101980    1.080150   -4.711560
  H     -0.910140    2.257260   -3.704410
  H     -0.044030    0.928260   -2.971830

 Total Charge           Charge          ....    0
 Multiplicity           Mult            ....    1
 Number of Electrons    NEL             ....   26
 Basis Dimension        Dim             ....  123

ORBITAL ENERGIES
----------------

  NO   OCC          E(Eh)            E(eV)
   0   2.0000     -24.241674      -659.6495
   1   2.0000      -9.954931      -270.8874
   2   2.0000      -9.873785      -268.6793
   3   2.0000      -1.095397       -29.8073
   4   2.0000      -0.693204       -18.8630
   5   2.0000      -0.567888       -15.4530
   6   2.0000      -0.453597       -12.3430
   7   2.0000      -0.438611       -11.9352
   8   2.0000      -0.400913       -10.9094
   9   2.0000      -0.354427        -9.6444
  10   2.0000      -0.352387        -9.5889
  11   2.0000      -0.285895        -7.7796
  12   2.0000      -0.281406        -7.6574
  13   0.0000       0.022990         0.6256
  14   0.0000       0.058939         1.6038
  15   0.0000       0.066899         1.8204
  16   0.0000       0.076767         2.0889
  17   0.0000       0.091651         2.4940

MULLIKEN ATOMIC CHARGES
-----------------------
   0 C :   -0.325020
   1 C :    0.006818
   2 H :    0.089394
   3 H :    0.089315
   4 F :   -0.205441
   5 H :    0.118623
   6 H :    0.108208
   7 H :    0.118103
Sum of atomic charges:   -0.0000000

LOEWDIN ATOMIC CHARGES
----------------------
   0 C :   -0.316697
   1 C :   -0.384468
   2 H :    0.116686
   3 H :    0.115980
   4 F :    0.109783
   5 H :    0.118272
   6 H :    0.122967
   7 H :    0.117478

  Mayer bond orders larger than 0.100000
B(  0-C ,  1-C ) :   1.0074 B(  0-C ,  5-H ) :   0.9648 B(  0-C ,  6-H ) :   0.9501
B(  0-C ,  7-H ) :   0.9661 B(  1-C ,  2-H ) :   0.9590 B(  1-C ,  3-H ) :   0.9592
B(  1-C ,  4-F ) :   1.0404

Dispersion correction           -0.003482557
FINAL SINGLE POINT ENERGY      -178.923716209295

DIPOLE MOMENT
-------------
                                X             Y             Z
Electronic contribution:      5.08090      -0.77187      -0.44027
Nuclear contribution   :     -5.66833       1.07099       0.52006
                        -----------------------------------------
Total Dipole Moment    :     -0.58743       0.29912       0.07980
                        -----------------------------------------
Magnitude (a.u.)       :      0.66402
Magnitude (Debye)      :      1.68780

Rotational constants in cm-1:     1.245689     0.305293     0.269541
Rotational constants in MHz : 37344.801915  9152.442838  8080.640229

                             ****ORCA TERMINATED NORMALLY****
TOTAL RUN TIME: 0 days 0 hours 0 minutes 7 seconds 338 msec
