                         Program Version 5.0.0 -  RELEASE  -
|  1> !PBE D3BJ RIJCOSX def2-TZVP def2/J TightSCF
|  2> *xyz 0 1
|  3> C          1.63556       -1.67040       -5.29211
|  4> C          0.33848       -1.50091       -4.50540
|  5> C          2.48451       -0.50741       -5.14039
|  6> H          1.39834       -1.82924       -6.35259
|  7> H          2.15586       -2.56540       -4.93209
|  8> C          3.45115       -0.14953       -5.95259
|  9> N          3.92267        1.08956       -5.85071
| 10> N          3.96616       -1.00618       -6.86788
| 11> H          3.52139       -1.90647       -6.99527
| 12> H          4.44482       -0.62347       -7.67035
| 13> H          2.25200        0.24080       -4.49879
| 14> H          3.46428        1.64078       -5.13639
| 15> H          4.83447        1.31375       -6.22465
| 16> H         -0.17658       -0.62881       -4.85045
| 17> H          0.56384       -1.39374       -3.46490
| 18> H         -0.28102       -2.36136       -4.64938
| 19> *
| 20>
| 21> %MaxCore 64000
| 22>
| 23> %pal nprocs 4
| 24> end
| 25>
| 26> %scf
| 27>   MaxIter 150
| 28> end
| 29>
| 30>
| 31>                          ****END OF INPUT****

CARTESIAN COORDINATES (ANGSTROEM)
---------------------------------
  C      1.635560   -1.670400   -5.292110
  C      0.338480   -1.500910   -4.505400
  C      2.484510   -0.507410   -5.140390
  H      1.398340   -1.829240   -6.352590
  H      2.155860   -2.565400   -4.932090
  C      3.451150   -0.149530   -5.952590
  N      3.922670    1.089560   -5.850710
  N      3.966160   -1.006180   -6.867880
  H      3.521390   -1.906470   -6.995270
  H      4.444820   -0.623470   -7.670350
  H      2.252000    0.240800   -4.498790
  H      3.464280    1.640780   -5.136390
  H      4.834470    1.313750   -6.224650
  H     -0.176580   -0.628810   -4.850450
  H      0.563840   -1.393740   -3.464900
  H     -0.281020   -2.361360   -4.649380

 Total Charge           Charge          ....    0
 Multiplicity           Mult            ....    1
 Number of Electrons    NEL             ....   48
 Basis Dimension        Dim             ....  246

ORBITAL ENERGIES
----------------

  NO   OCC          E(Eh)            E(eV)
   0   2.0000     -13.982733      -380.4895
   1   2.0000     -13.977809      -380.3555
   2   2.0000      -9.911489      -269.7053
   3   2.0000      -9.857410      -268.2338
   4   2.0000      -9.846597      -267.9395
   5   2.0000      -9.802539      -266.7406
   6   2.0000      -0.873978       -23.7821
   7   2.0000      -0.792763       -21.5722
   8   2.0000      -0.701686       -19.0938
   9   2.0000      -0.628592       -17.1049
  10   2.0000      -0.549772       -14.9601
  11   2.0000      -0.523100       -14.2343
  12   2.0000      -0.481033       -13.0896
  13   2.0000      -0.459196       -12.4953
  14   2.0000      -0.418211       -11.3801
  15   2.0000      -0.390405       -10.6235
  16   2.0000      -0.378888       -10.3101
  17   2.0000      -0.346877        -9.4390
  18   2.0000      -0.330309        -8.9882
  19   2.0000      -0.297128        -8.0853
  20   2.0000      -0.287835        -7.8324
  21   2.0000      -0.285997        -7.7824
  22   2.0000      -0.219272        -5.9667
  23   2.0000      -0.130906        -3.5621
  24   0.0000       0.002817         0.0767
  25   0.0000       0.031046         0.8448
  26   0.0000       0.043790         1.1916
  27   0.0000       0.049209         1.3390
  28   0.0000       0.058896         1.6026

MULLIKEN ATOMIC CHARGES
-----------------------
   0 C :   -0.183687
   1 C :   -0.355742
   2 C :   -0.266622
   3 H :    0.070185
   4 H :    0.087073
   5 C :    0.275040
   6 N :   -0.425250
   7 N :   -0.445812
   8 H :    0.232592
   9 H :    0.206811
  10 H :    0.052059
  11 H :    0.223699
  12 H :    0.207894
  13 H :    0.105915
  14 H :    0.109584
  15 H :    0.106261
Sum of atomic charges:   -0.0000000

LOEWDIN ATOMIC CHARGES
----------------------
   0 C :   -0.311018
   1 C :   -0.303752
   2 C :   -0.286092
   3 H :    0.129359
   4 H :    0.131780
   5 C :   -0.472189
   6 N :   -0.008927
   7 N :   -0.014937
   8 H :    0.171585
   9 H :    0.156347
  10 H :    0.125375
  11 H :    0.178761
  12 H :    0.157924
  13 H :    0.115770
  14 H :    0.117229
  15 H :    0.112784

  Mayer bond orders larger than 0.100000
B(  0-C ,  1-C ) :   0.9984 B(  0-C ,  2-C ) :   1.0288 B(  0-C ,  3-H ) :   0.9491
B(  0-C ,  4-H ) :   0.9475 B(  1-C , 13-H ) :   0.9741 B(  1-C , 14-H ) :   0.9747
B(  1-C , 15-H ) :   0.9719 B(  2-C ,  5-C ) :   1.6315 B(  2-C , 10-H ) :   0.9894
B(  5-C ,  6-N ) :   1.1871 B(  5-C ,  7-N ) :   1.1701 B(  6-N , 11-H ) :   0.9160
B(  6-N , 12-H ) :   0.9146 B(  7-N ,  8-H ) :   0.9183 B(  7-N ,  9-H ) :   0.9170

Dispersion correction           -0.012504408
FINAL SINGLE POINT ENERGY      -267.673490754155

DIPOLE MOMENT
-------------
                                X             Y             Z
Electronic contribution:      4.58785       2.19392      -1.94032
Nuclear contribution   :     -3.99655      -1.83277       1.34879
                        -----------------------------------------
Total Dipole Moment    :      0.59130       0.36115      -0.59154
                        -----------------------------------------
Magnitude (a.u.)       :      0.91103
Magnitude (Debye)      :      2.31566

Rotational constants in cm-1:     0.262971     0.067064     0.055026
Rotational constants in MHz :  7883.664566  2010.513309  1649.636654

                             ****ORCA TERMINATED NORMALLY****
TOTAL RUN TIME: 0 days 0 hours 0 minutes 14 seconds 207 msec
