                         Program Version 5.0.0 -  RELEASE  -
|  1> !PBE D3BJ RIJCOSX def2-TZVP def2/J TightSCF
|  2> *xyz 0 1
|  3> C          1.63556       -1.67040       -5.29211
|  4> C          0.33848       -1.50091       -4.50540
|  5> N          2.48451       -0.50741       -5.14039
|  6> H          1.39834       -1.82924       -6.35259
|  7> H          2.15586       -2.56540       -4.93209
|  8> C          3.45115       -0.14953       -5.95259
|  9> C          3.92267        1.08956       -5.85071
| 10> N          3.96616       -1.00618       -6.86788
| 11> H          3.52139       -1.90647       -6.99527
| 12> H          4.44482       -0.62347       -7.67035
| 13> H          2.25200        0.24080       -4.49879
| 14> H          3.46428        1.64078       -5.13639
| 15> H          4.83447        1.31375       -6.22465
| 16> H         -0.17658       -0.62881       -4.85045
| 17> H          0.56384       -1.39374       -3.46490
| 18> H         -0.28102       -2.36136       -4.64938
| 19> *
| 20>
| 21> %MaxCore 64000
| 22>
| 23> %pal nprocs 4
| 24> end
| 25>
| 26> %scf
| 27>   MaxIter 150
| 28> end
| 29>
| 30>
| 31>                          ****END OF INPUT****

CARTESIAN COORDINATES (ANGSTROEM)
---------------------------------
  C      1.635560   -1.670400   -5.292110
  C      0.338480   -1.500910   -4.505400
  N      2.484510   -0.507410   -5.140390
  H      1.398340   -1.829240   -6.352590
  H      2.155860   -2.565400   -4.932090
  C      3.451150   -0.149530   -5.952590
  C      3.922670    1.089560   -5.850710
  N      3.966160   -1.006180   -6.867880
  H      3.521390   -1.906470   -6.995270
  H      4.444820   -0.623470   -7.670350
  H      2.252000    0.240800   -4.498790
  H      3.464280    1.640780   -5.136390
  H      4.834470    1.313750   -6.224650
  H     -0.176580   -0.628810   -4.850450
  H      0.563840   -1.393740   -3.464900
  H     -0.281020   -2.361360   -4.649380

 Total Charge           Charge          ....    0
 Multiplicity           Mult            ....    1
 Number of Electrons    NEL             ....   48
 Basis Dimension        Dim             ....  246

ORBITAL ENERGIES
----------------

  NO   OCC          E(Eh)            E(eV)
   0   2.0000     -13.985877      -380.5751
   1   2.0000     -13.981223      -380.4484
   2   2.0000      -9.922402      -270.0023
   3   2.0000      -9.915547      -269.8158
   4   2.0000      -9.880046      -268.8497
   5   2.0000      -9.788949      -266.3708
   6   2.0000      -0.886729       -24.1291
   7   2.0000      -0.805524       -21.9194
   8   2.0000      -0.707798       -19.2602
   9   2.0000      -0.633913       -17.2497
  10   2.0000      -0.567662       -15.4469
  11   2.0000      -0.539450       -14.6792
  12   2.0000      -0.482250       -13.1227
  13   2.0000      -0.446821       -12.1586
  14   2.0000      -0.430679       -11.7194
  15   2.0000      -0.416061       -11.3216
  16   2.0000      -0.372013       -10.1230
  17   2.0000      -0.349846        -9.5198
  18   2.0000      -0.335395        -9.1266
  19   2.0000      -0.332792        -9.0557
  20   2.0000      -0.330337        -8.9889
  21   2.0000      -0.304301        -8.2804
  22   2.0000      -0.215377        -5.8607
  23   2.0000      -0.129136        -3.5140
  24   0.0000       0.004590         0.1249
  25   0.0000       0.025405         0.6913
  26   0.0000       0.032426         0.8823
  27   0.0000       0.045204         1.2301
  28   0.0000       0.065457         1.7812

MULLIKEN ATOMIC CHARGES
-----------------------
   0 C :   -0.109667
   1 C :   -0.377394
   2 N :   -0.224543
   3 H :    0.094778
   4 H :    0.108291
   5 C :    0.322799
   6 C :   -0.532745
   7 N :   -0.450572
   8 H :    0.215469
   9 H :    0.235319
  10 H :    0.201591
  11 H :    0.055154
  12 H :    0.093689
  13 H :    0.124027
  14 H :    0.122752
  15 H :    0.121052
Sum of atomic charges:   -0.0000000

LOEWDIN ATOMIC CHARGES
----------------------
   0 C :   -0.322155
   1 C :   -0.306210
   2 N :    0.130626
   3 H :    0.125985
   4 H :    0.125201
   5 C :   -0.476484
   6 C :   -0.349588
   7 N :   -0.012342
   8 H :    0.157897
   9 H :    0.172961
  10 H :    0.197685
  11 H :    0.097675
  12 H :    0.096759
  13 H :    0.119754
  14 H :    0.119378
  15 H :    0.122856

  Mayer bond orders larger than 0.100000
B(  0-C ,  1-C ) :   1.0110 B(  0-C ,  2-N ) :   0.9742 B(  0-C ,  3-H ) :   0.9444
B(  0-C ,  4-H ) :   0.9383 B(  1-C , 13-H ) :   0.9700 B(  1-C , 14-H ) :   0.9698
B(  1-C , 15-H ) :   0.9667 B(  2-N ,  5-C ) :   1.2340 B(  2-N , 10-H ) :   0.9161
B(  5-C ,  6-C ) :   1.6042 B(  5-C ,  7-N ) :   1.1462 B(  6-C , 11-H ) :   0.9937
B(  6-C , 12-H ) :   0.9871 B(  7-N ,  8-H ) :   0.9228 B(  7-N ,  9-H ) :   0.9188

Dispersion correction           -0.012392279
FINAL SINGLE POINT ENERGY      -267.662396857628

DIPOLE MOMENT
-------------
                                X             Y             Z
Electronic contribution:      2.98073       0.54335      -1.29451
Nuclear contribution   :     -3.69145      -1.49398       1.19810
                        -----------------------------------------
Total Dipole Moment    :     -0.71072      -0.95063      -0.09641
                        -----------------------------------------
Magnitude (a.u.)       :      1.19085
Magnitude (Debye)      :      3.02690

Rotational constants in cm-1:     0.270790     0.068966     0.056679
Rotational constants in MHz :  8118.084803  2067.559423  1699.196934

                             ****ORCA TERMINATED NORMALLY****
TOTAL RUN TIME: 0 days 0 hours 0 minutes 9 seconds 886 msec
