                         Program Version 5.0.0 -  RELEASE  -
|  1> !PBE D3BJ RIJCOSX def2-TZVP def2/J TightSCF
|  2> *xyz 0 1
|  3> C          1.63556       -1.67040       -5.29211
|  4> C          0.33848       -1.50091       -4.50540
|  5> N          2.48451       -0.50741       -5.14039
|  6> H          1.39834       -1.82924       -6.35259
|  7> H          2.15586       -2.56540       -4.93209
|  8> C          3.45115       -0.14953       -5.95259
|  9> N          3.92267        1.08956       -5.85071
| 10> C          3.96616       -1.00618       -6.86788
| 11> H          3.52139       -1.90647       -6.99527
| 12> H          4.44482       -0.62347       -7.67035
| 13> H          2.25200        0.24080       -4.49879
| 14> H          3.46428        1.64078       -5.13639
| 15> H          4.83447        1.31375       -6.22465
| 16> H         -0.17658       -0.62881       -4.85045
| 17> H          0.56384       -1.39374       -3.46490
| 18> H         -0.28102       -2.36136       -4.64938
| 19> *
| 20>
| 21> %MaxCore 64000
| 22>
| 23> %pal nprocs 4
| 24> end
| 25>
| 26> %scf
| 27>   MaxIter 150
| 28> end
| 29>
| 30>
| 31>                          ****END OF INPUT****

CARTESIAN COORDINATES (ANGSTROEM)
---------------------------------
  C      1.635560   -1.670400   -5.292110
  C      0.338480   -1.500910   -4.505400
  N      2.484510   -0.507410   -5.140390
  H      1.398340   -1.829240   -6.352590
  H      2.155860   -2.565400   -4.932090
  C      3.451150   -0.149530   -5.952590
  N      3.922670    1.089560   -5.850710
  C      3.966160   -1.006180   -6.867880
  H      3.521390   -1.906470   -6.995270
  H      4.444820   -0.623470   -7.670350
  H      2.252000    0.240800   -4.498790
  H      3.464280    1.640780   -5.136390
  H      4.834470    1.313750   -6.224650
  H     -0.176580   -0.628810   -4.850450
  H      0.563840   -1.393740   -3.464900
  H     -0.281020   -2.361360   -4.649380

 Total Charge           Charge          ....    0
 Multiplicity           Mult            ....    1
 Number of Electrons    NEL             ....   48
 Basis Dimension        Dim             ....  246

ORBITAL ENERGIES
----------------

  NO   OCC          E(Eh)            E(eV)
   0   2.0000     -13.991536      -380.7291
   1   2.0000     -13.983309      -380.5052
   2   2.0000      -9.916670      -269.8463
   3   2.0000      -9.915384      -269.8113
   4   2.0000      -9.876170      -268.7443
   5   2.0000      -9.790149      -266.4035
   6   2.0000      -0.894811       -24.3490
   7   2.0000      -0.810328       -22.0501
   8   2.0000      -0.694728       -18.9045
   9   2.0000      -0.633444       -17.2369
  10   2.0000      -0.584227       -15.8976
  11   2.0000      -0.512232       -13.9385
  12   2.0000      -0.483525       -13.1574
  13   2.0000      -0.472580       -12.8596
  14   2.0000      -0.425055       -11.5663
  15   2.0000      -0.419219       -11.4075
  16   2.0000      -0.354876        -9.6567
  17   2.0000      -0.350213        -9.5298
  18   2.0000      -0.346009        -9.4154
  19   2.0000      -0.325712        -8.8631
  20   2.0000      -0.317684        -8.6446
  21   2.0000      -0.305207        -8.3051
  22   2.0000      -0.210073        -5.7164
  23   2.0000      -0.133236        -3.6255
  24   0.0000      -0.003485        -0.0948
  25   0.0000       0.022387         0.6092
  26   0.0000       0.039151         1.0653
  27   0.0000       0.050650         1.3783
  28   0.0000       0.068266         1.8576

MULLIKEN ATOMIC CHARGES
-----------------------
   0 C :   -0.086036
   1 C :   -0.366997
   2 N :   -0.232633
   3 H :    0.110782
   4 H :    0.109263
   5 C :    0.294114
   6 N :   -0.418235
   7 C :   -0.537948
   8 H :    0.087431
   9 H :    0.087399
  10 H :    0.164159
  11 H :    0.191417
  12 H :    0.239559
  13 H :    0.117513
  14 H :    0.117073
  15 H :    0.123140
Sum of atomic charges:   -0.0000000

LOEWDIN ATOMIC CHARGES
----------------------
   0 C :   -0.303605
   1 C :   -0.309075
   2 N :    0.131907
   3 H :    0.134869
   4 H :    0.130312
   5 C :   -0.488711
   6 N :   -0.002872
   7 C :   -0.356833
   8 H :    0.096989
   9 H :    0.095118
  10 H :    0.177459
  11 H :    0.159140
  12 H :    0.177343
  13 H :    0.117130
  14 H :    0.117073
  15 H :    0.123758

  Mayer bond orders larger than 0.100000
B(  0-C ,  1-C ) :   0.9928 B(  0-C ,  2-N ) :   0.9649 B(  0-C ,  3-H ) :   0.9507
B(  0-C ,  4-H ) :   0.9472 B(  1-C , 13-H ) :   0.9699 B(  1-C , 14-H ) :   0.9693
B(  1-C , 15-H ) :   0.9684 B(  2-N ,  5-C ) :   1.1982 B(  2-N , 10-H ) :   0.9226
B(  5-C ,  6-N ) :   1.1629 B(  5-C ,  7-C ) :   1.6071 B(  6-N , 11-H ) :   0.9232
B(  6-N , 12-H ) :   0.9143 B(  7-C ,  8-H ) :   0.9940 B(  7-C ,  9-H ) :   0.9860

Dispersion correction           -0.012435794
FINAL SINGLE POINT ENERGY      -267.662567801351

DIPOLE MOMENT
-------------
                                X             Y             Z
Electronic contribution:      3.03857       2.67845      -0.17563
Nuclear contribution   :     -3.68222      -1.93858       0.98231
                        -----------------------------------------
Total Dipole Moment    :     -0.64365       0.73987       0.80668
                        -----------------------------------------
Magnitude (a.u.)       :      1.26981
Magnitude (Debye)      :      3.22760

Rotational constants in cm-1:     0.275407     0.068040     0.056255
Rotational constants in MHz :  8256.498401  2039.796466  1686.484500

                             ****ORCA TERMINATED NORMALLY****
TOTAL RUN TIME: 0 days 0 hours 0 minutes 14 seconds 139 msec
