                         Program Version 5.0.0 -  RELEASE  -
|  1> !PBE D3BJ RIJCOSX def2-TZVP def2/J TightSCF xyzfile
|  2>
|  3> *xyzfile 0 1 D3.xyz
|  4>
|  5> %MaxCore 64000
|  6>
|  7> %pal nprocs 18
|  8> end
|  9>
| 10> %scf
| 11>   MaxIter 150
| 12> end
| 13>
| 14>
| 15>                          ****END OF INPUT****

CARTESIAN COORDINATES (ANGSTROEM)
---------------------------------
  C      1.635557   -1.670396   -5.292109
  C      0.338484   -1.500907   -4.505398
  N      2.484511   -0.507410   -5.140392
  C     -0.684873   -0.528026   -5.099889
  C     -0.290406    0.951335   -5.153423
  H      0.607991    1.070692   -5.764412
  C     -0.055168    1.619420   -3.788577
  H     -1.080912    1.483775   -5.689436
  H      0.045006    0.862302   -3.003015
  H     -0.922936    2.230329   -3.517028
  C      1.223022    2.469865   -3.756911
  H      1.114701    3.258074   -4.532999
  H      1.237732    3.011242   -2.792157
  F      2.353815    1.712032   -3.934477
  H      1.398337   -1.829239   -6.352591
  H      2.155864   -2.565398   -4.932091
  C      3.451149   -0.149530   -5.952589
  N      3.922667    1.089559   -5.850711
  C      3.966162   -1.006183   -6.867880
  H      3.521391   -1.906467   -6.995270
  H      4.444824   -0.623472   -7.670348
  H      2.251995    0.240804   -4.498792
  H      3.464277    1.640782   -5.136392
  H      4.834470    1.313745   -6.224653
  H     -0.937999   -0.869056   -6.110838
  H     -1.604638   -0.622496   -4.513132
  H      0.594887   -1.211578   -3.482312
  H     -0.126530   -2.487656   -4.434176

 Total Charge           Charge          ....    0
 Multiplicity           Mult            ....    1
 Number of Electrons    NEL             ....   88
 Basis Dimension        Dim             ....  443

ORBITAL ENERGIES
----------------

  NO   OCC          E(Eh)            E(eV)
   0   2.0000     -24.302185      -661.2961
   1   2.0000     -13.963045      -379.9538
   2   2.0000     -13.956362      -379.7719
   3   2.0000      -9.984203      -271.6840
   4   2.0000      -9.905678      -269.5472
   5   2.0000      -9.901693      -269.4388
   6   2.0000      -9.898272      -269.3457
   7   2.0000      -9.888983      -269.0929
   8   2.0000      -9.885934      -269.0099
   9   2.0000      -9.882927      -268.9281
  10   2.0000      -9.774454      -265.9764
  11   2.0000      -1.162157       -31.6239
  12   2.0000      -0.874396       -23.7935
  13   2.0000      -0.791833       -21.5469
  14   2.0000      -0.750221       -20.4145
  15   2.0000      -0.709567       -19.3083
  16   2.0000      -0.662261       -18.0210
  17   2.0000      -0.625486       -17.0203
  18   2.0000      -0.596456       -16.2304
  19   2.0000      -0.573780       -15.6134
  20   2.0000      -0.522027       -14.2051
  21   2.0000      -0.513905       -13.9841
  22   2.0000      -0.501540       -13.6476
  23   2.0000      -0.475335       -12.9345
  24   2.0000      -0.473377       -12.8813
  25   2.0000      -0.445140       -12.1129
  26   2.0000      -0.439233       -11.9521
  27   2.0000      -0.424690       -11.5564
  28   2.0000      -0.413765       -11.2591
  29   2.0000      -0.389962       -10.6114
  30   2.0000      -0.380293       -10.3483
  31   2.0000      -0.369683       -10.0596
  32   2.0000      -0.354865        -9.6564
  33   2.0000      -0.333863        -9.0849
  34   2.0000      -0.331007        -9.0071
  35   2.0000      -0.319581        -8.6962
  36   2.0000      -0.314658        -8.5623
  37   2.0000      -0.309133        -8.4119
  38   2.0000      -0.298649        -8.1267
  39   2.0000      -0.292886        -7.9698
  40   2.0000      -0.284096        -7.7307
  41   2.0000      -0.279440        -7.6040
  42   2.0000      -0.189385        -5.1534
  43   2.0000      -0.117244        -3.1904
  44   0.0000       0.002346         0.0638
  45   0.0000       0.016859         0.4587
  46   0.0000       0.021529         0.5858
  47   0.0000       0.029009         0.7894
  48   0.0000       0.038074         1.0360

MULLIKEN ATOMIC CHARGES
-----------------------
   0 C :   -0.089750
   1 C :   -0.209839
   2 N :   -0.243121
   3 C :   -0.165204
   4 C :   -0.241208
   5 H :    0.140147
   6 C :   -0.206341
   7 H :    0.098480
   8 H :    0.112578
   9 H :    0.116707
  10 C :   -0.019198
  11 H :    0.112663
  12 H :    0.116185
  13 F :   -0.203705
  14 H :    0.090565
  15 H :    0.104739
  16 C :    0.274224
  17 N :   -0.451905
  18 C :   -0.541570
  19 H :    0.081175
  20 H :    0.080042
  21 H :    0.202164
  22 H :    0.221635
  23 H :    0.224472
  24 H :    0.096987
  25 H :    0.095408
  26 H :    0.097650
  27 H :    0.106019
Sum of atomic charges:   -0.0000000

LOEWDIN ATOMIC CHARGES
----------------------
   0 C :   -0.283442
   1 C :   -0.276309
   2 N :    0.132238
   3 C :   -0.271399
   4 C :   -0.276968
   5 H :    0.145344
   6 C :   -0.276289
   7 H :    0.138137
   8 H :    0.142472
   9 H :    0.147427
  10 C :   -0.353890
  11 H :    0.130253
  12 H :    0.128425
  13 F :    0.160765
  14 H :    0.135233
  15 H :    0.131284
  16 C :   -0.493334
  17 N :   -0.013255
  18 C :   -0.368418
  19 H :    0.094492
  20 H :    0.092343
  21 H :    0.159087
  22 H :    0.145024
  23 H :    0.170528
  24 H :    0.142526
  25 H :    0.139442
  26 H :    0.133940
  27 H :    0.144344

  Mayer bond orders larger than 0.100000
B(  0-C ,  1-C ) :   1.0046 B(  0-C ,  2-N ) :   0.9742 B(  0-C , 14-H ) :   0.9416
B(  0-C , 15-H ) :   0.9467 B(  1-C ,  3-C ) :   1.0185 B(  1-C , 26-H ) :   0.9588
B(  1-C , 27-H ) :   0.9501 B(  2-N , 16-C ) :   1.2077 B(  2-N , 21-H ) :   0.8848
B(  3-C ,  4-C ) :   1.0060 B(  3-C , 24-H ) :   0.9425 B(  3-C , 25-H ) :   0.9485
B(  4-C ,  5-H ) :   0.9623 B(  4-C ,  6-C ) :   0.9656 B(  4-C ,  7-H ) :   0.9450
B(  6-C ,  8-H ) :   0.9553 B(  6-C ,  9-H ) :   0.9327 B(  6-C , 10-C ) :   1.0100
B( 10-C , 11-H ) :   0.9639 B( 10-C , 12-H ) :   0.9531 B( 10-C , 13-F ) :   0.9311
B( 16-C , 17-N ) :   1.1761 B( 16-C , 18-C ) :   1.6185 B( 17-N , 22-H ) :   0.8844
B( 17-N , 23-H ) :   0.9196 B( 18-C , 19-H ) :   0.9940 B( 18-C , 20-H ) :   0.9888

Dispersion correction           -0.028790475
FINAL SINGLE POINT ENERGY      -523.928166862319

DIPOLE MOMENT
-------------
                                X             Y             Z
Electronic contribution:      6.32930       4.45417       2.80275
Nuclear contribution   :     -7.84660      -3.08098      -1.66782
                        -----------------------------------------
Total Dipole Moment    :     -1.51730       1.37318       1.13493
                        -----------------------------------------
Magnitude (a.u.)       :      2.34007
Magnitude (Debye)      :      5.94797

Rotational constants in cm-1:     0.043547     0.029898     0.020008
Rotational constants in MHz :  1305.520367   896.323854   599.829375

                             ****ORCA TERMINATED NORMALLY****
TOTAL RUN TIME: 0 days 0 hours 0 minutes 17 seconds 261 msec
