                         Program Version 5.0.0 -  RELEASE  -
|  1> !LC-BLYP RIJCOSX def2-TZVP def2/J TightSCF
|  2> *xyz -1 1
|  3> C         -0.05517        1.61942       -3.78858
|  4> C          1.22302        2.46987       -3.75691
|  5> H          1.11470        3.25807       -4.53300
|  6> H          1.23773        3.01124       -2.79216
|  7> O          2.35381        1.71203       -3.93448
|  8> H         -0.10198        1.08015       -4.71156
|  9> H         -0.91014        2.25726       -3.70441
| 10> H         -0.04403        0.92826       -2.97183
| 11> *
| 12>
| 13> %MaxCore 64000
| 14>
| 15> %pal nprocs 4
| 16> end
| 17>
| 18> %scf
| 19>   MaxIter 150
| 20> end
| 21>
| 22>
| 23>                          ****END OF INPUT****

CARTESIAN COORDINATES (ANGSTROEM)
---------------------------------
  C     -0.055170    1.619420   -3.788580
  C      1.223020    2.469870   -3.756910
  H      1.114700    3.258070   -4.533000
  H      1.237730    3.011240   -2.792160
  O      2.353810    1.712030   -3.934480
  H     -0.101980    1.080150   -4.711560
  H     -0.910140    2.257260   -3.704410
  H     -0.044030    0.928260   -2.971830

 Total Charge           Charge          ....   -1
 Multiplicity           Mult            ....    1
 Number of Electrons    NEL             ....   26
 Basis Dimension        Dim             ....  123

ORBITAL ENERGIES
----------------

  NO   OCC          E(Eh)            E(eV)
   0   2.0000     -18.577036      -505.5069
   1   2.0000      -9.871852      -268.6267
   2   2.0000      -9.851440      -268.0713
   3   2.0000      -0.758239       -20.6327
   4   2.0000      -0.625214       -17.0129
   5   2.0000      -0.470815       -12.8115
   6   2.0000      -0.350410        -9.5351
   7   2.0000      -0.324472        -8.8293
   8   2.0000      -0.267222        -7.2715
   9   2.0000      -0.248426        -6.7600
  10   2.0000      -0.195054        -5.3077
  11   2.0000      -0.048792        -1.3277
  12   2.0000      -0.046799        -1.2735
  13   0.0000       0.280937         7.6447
  14   0.0000       0.318774         8.6743
  15   0.0000       0.343650         9.3512
  16   0.0000       0.347819         9.4646
  17   0.0000       0.381973        10.3940

MULLIKEN ATOMIC CHARGES
-----------------------
   0 C :   -0.218480
   1 C :   -0.014679
   2 H :   -0.053327
   3 H :   -0.051224
   4 O :   -0.740372
   5 H :    0.043710
   6 H :   -0.009268
   7 H :    0.043640
Sum of atomic charges:   -1.0000000

LOEWDIN ATOMIC CHARGES
----------------------
   0 C :   -0.378085
   1 C :   -0.569471
   2 H :    0.057344
   3 H :    0.058778
   4 O :   -0.431114
   5 H :    0.092083
   6 H :    0.078770
   7 H :    0.091696

  Mayer bond orders larger than 0.100000
B(  0-C ,  1-C ) :   0.8734 B(  0-C ,  4-O ) :  -0.2212 B(  0-C ,  5-H ) :   0.9713
B(  0-C ,  6-H ) :   0.9352 B(  0-C ,  7-H ) :   0.9746 B(  1-C ,  2-H ) :   0.9329
B(  1-C ,  3-H ) :   0.9328 B(  1-C ,  4-O ) :   1.6713

FINAL SINGLE POINT ENERGY      -154.100287876101

DIPOLE MOMENT
-------------
                                X             Y             Z
Electronic contribution:      2.85500      -0.59994      -0.26386
Nuclear contribution   :     -4.28298       0.81046       0.39340
                        -----------------------------------------
Total Dipole Moment    :     -1.42798       0.21053       0.12954
                        -----------------------------------------
Magnitude (a.u.)       :      1.44922
Magnitude (Debye)      :      3.68362

Rotational constants in cm-1:     1.266793     0.328147     0.288309
Rotational constants in MHz : 37977.512300  9837.594308  8643.275638

                             ****ORCA TERMINATED NORMALLY****
TOTAL RUN TIME: 0 days 0 hours 0 minutes 13 seconds 844 msec
