                         Program Version 5.0.0 -  RELEASE  -
|  1> !LC-BLYP RIJCOSX def2-TZVP def2/J TightSCF
|  2> *xyz 1 1
|  3> C          1.63556       -1.67040       -5.29211
|  4> C          0.33848       -1.50091       -4.50540
|  5> N          2.48451       -0.50741       -5.14039
|  6> H          1.39834       -1.82924       -6.35259
|  7> H          2.15586       -2.56540       -4.93209
|  8> C          3.45115       -0.14953       -5.95259
|  9> N          3.92267        1.08956       -5.85071
| 10> N          3.96616       -1.00618       -6.86788
| 11> H          3.52139       -1.90647       -6.99527
| 12> H          4.44482       -0.62347       -7.67035
| 13> H          2.25200        0.24080       -4.49879
| 14> H          3.46428        1.64078       -5.13639
| 15> H          4.83447        1.31375       -6.22465
| 16> H         -0.17658       -0.62881       -4.85045
| 17> H          0.56384       -1.39374       -3.46490
| 18> H         -0.28102       -2.36136       -4.64938
| 19> *
| 20>
| 21> %MaxCore 64000
| 22>
| 23> %pal nprocs 4
| 24> end
| 25>
| 26> %scf
| 27>   MaxIter 150
| 28> end
| 29>
| 30>
| 31>                          ****END OF INPUT****

CARTESIAN COORDINATES (ANGSTROEM)
---------------------------------
  C      1.635560   -1.670400   -5.292110
  C      0.338480   -1.500910   -4.505400
  N      2.484510   -0.507410   -5.140390
  H      1.398340   -1.829240   -6.352590
  H      2.155860   -2.565400   -4.932090
  C      3.451150   -0.149530   -5.952590
  N      3.922670    1.089560   -5.850710
  N      3.966160   -1.006180   -6.867880
  H      3.521390   -1.906470   -6.995270
  H      4.444820   -0.623470   -7.670350
  H      2.252000    0.240800   -4.498790
  H      3.464280    1.640780   -5.136390
  H      4.834470    1.313750   -6.224650
  H     -0.176580   -0.628810   -4.850450
  H      0.563840   -1.393740   -3.464900
  H     -0.281020   -2.361360   -4.649380

 Total Charge           Charge          ....    1
 Multiplicity           Mult            ....    1
 Number of Electrons    NEL             ....   48
 Basis Dimension        Dim             ....  246

ORBITAL ENERGIES
----------------

  NO   OCC          E(Eh)            E(eV)
   0   2.0000     -14.397565      -391.7777
   1   2.0000     -14.392165      -391.6307
   2   2.0000     -14.390360      -391.5816
   3   2.0000     -10.404470      -283.1200
   4   2.0000     -10.278171      -279.6833
   5   2.0000     -10.206556      -277.7345
   6   2.0000      -1.321311       -35.9547
   7   2.0000      -1.208531       -32.8858
   8   2.0000      -1.194608       -32.5069
   9   2.0000      -1.045272       -28.4433
  10   2.0000      -0.937391       -25.5077
  11   2.0000      -0.922701       -25.1080
  12   2.0000      -0.882781       -24.0217
  13   2.0000      -0.850148       -23.1337
  14   2.0000      -0.791253       -21.5311
  15   2.0000      -0.786998       -21.4153
  16   2.0000      -0.771190       -20.9852
  17   2.0000      -0.744724       -20.2650
  18   2.0000      -0.710248       -19.3268
  19   2.0000      -0.648422       -17.6445
  20   2.0000      -0.631235       -17.1768
  21   2.0000      -0.620836       -16.8938
  22   2.0000      -0.578171       -15.7328
  23   2.0000      -0.550447       -14.9784
  24   0.0000      -0.089064        -2.4236
  25   0.0000      -0.086333        -2.3493
  26   0.0000      -0.057126        -1.5545
  27   0.0000      -0.040720        -1.1080
  28   0.0000      -0.017615        -0.4793

MULLIKEN ATOMIC CHARGES
-----------------------
   0 C :   -0.202671
   1 C :   -0.464063
   2 N :   -0.178129
   3 H :    0.165617
   4 H :    0.193631
   5 C :    0.358574
   6 N :   -0.359813
   7 N :   -0.394512
   8 H :    0.288959
   9 H :    0.283912
  10 H :    0.238968
  11 H :    0.263395
  12 H :    0.291256
  13 H :    0.164312
  14 H :    0.171029
  15 H :    0.179534
Sum of atomic charges:    1.0000000

LOEWDIN ATOMIC CHARGES
----------------------
   0 C :   -0.301278
   1 C :   -0.292138
   2 N :    0.177628
   3 H :    0.146310
   4 H :    0.150192
   5 C :   -0.410945
   6 N :    0.063033
   7 N :    0.052147
   8 H :    0.195972
   9 H :    0.197896
  10 H :    0.212787
  11 H :    0.198949
  12 H :    0.202114
  13 H :    0.130937
  14 H :    0.132849
  15 H :    0.143545

  Mayer bond orders larger than 0.100000
B(  0-C ,  1-C ) :   0.9552 B(  0-C ,  2-N ) :   0.8397 B(  0-C ,  3-H ) :   0.9655
B(  0-C ,  4-H ) :   0.9454 B(  1-C , 13-H ) :   0.9685 B(  1-C , 14-H ) :   0.9670
B(  1-C , 15-H ) :   0.9627 B(  2-N ,  5-C ) :   1.4037 B(  2-N , 10-H ) :   0.9090
B(  5-C ,  6-N ) :   1.3217 B(  5-C ,  7-N ) :   1.3062 B(  6-N , 11-H ) :   0.9067
B(  6-N , 12-H ) :   0.8957 B(  7-N ,  8-H ) :   0.9006 B(  7-N ,  9-H ) :   0.8992

FINAL SINGLE POINT ENERGY      -283.776877973674

DIPOLE MOMENT
-------------
                                X             Y             Z
Electronic contribution:      4.71441       2.49154      -1.70973
Nuclear contribution   :     -3.96322      -1.85512       1.24891
                        -----------------------------------------
Total Dipole Moment    :      0.75119       0.63643      -0.46082
                        -----------------------------------------
Magnitude (a.u.)       :      1.08705
Magnitude (Debye)      :      2.76306

Rotational constants in cm-1:     0.261404     0.067000     0.054949
Rotational constants in MHz :  7836.702504  2008.609425  1647.329138

                             ****ORCA TERMINATED NORMALLY****
TOTAL RUN TIME: 0 days 0 hours 0 minutes 39 seconds 787 msec
