                         Program Version 5.0.0 -  RELEASE  -
|  1> !LC-BLYP RIJCOSX def2-TZVP def2/J TightSCF
|  2> *xyz 0 1
|  3> C         -0.05517        1.61942       -3.78858
|  4> C          1.22302        2.46987       -3.75691
|  5> H          1.11470        3.25807       -4.53300
|  6> H          1.23773        3.01124       -2.79216
|  7> F          2.35381        1.71203       -3.93448
|  8> H         -0.10198        1.08015       -4.71156
|  9> H         -0.91014        2.25726       -3.70441
| 10> H         -0.04403        0.92826       -2.97183
| 11> *
| 12>
| 13> %MaxCore 64000
| 14>
| 15> %pal nprocs 4
| 16> end
| 17>
| 18> %scf
| 19>   MaxIter 150
| 20> end
| 21>
| 22>
| 23>                          ****END OF INPUT****

CARTESIAN COORDINATES (ANGSTROEM)
---------------------------------
  C     -0.055170    1.619420   -3.788580
  C      1.223020    2.469870   -3.756910
  H      1.114700    3.258070   -4.533000
  H      1.237730    3.011240   -2.792160
  F      2.353810    1.712030   -3.934480
  H     -0.101980    1.080150   -4.711560
  H     -0.910140    2.257260   -3.704410
  H     -0.044030    0.928260   -2.971830

 Total Charge           Charge          ....    0
 Multiplicity           Mult            ....    1
 Number of Electrons    NEL             ....   26
 Basis Dimension        Dim             ....  123

ORBITAL ENERGIES
----------------

  NO   OCC          E(Eh)            E(eV)
   0   2.0000     -24.436771      -664.9584
   1   2.0000     -10.146716      -276.1062
   2   2.0000     -10.062701      -273.8200
   3   2.0000      -1.275093       -34.6970
   4   2.0000      -0.874395       -23.7935
   5   2.0000      -0.738735       -20.1020
   6   2.0000      -0.611316       -16.6348
   7   2.0000      -0.602374       -16.3914
   8   2.0000      -0.559791       -15.2327
   9   2.0000      -0.505192       -13.7470
  10   2.0000      -0.501226       -13.6391
  11   2.0000      -0.434147       -11.8137
  12   2.0000      -0.427978       -11.6459
  13   0.0000       0.105509         2.8710
  14   0.0000       0.144807         3.9404
  15   0.0000       0.164866         4.4862
  16   0.0000       0.168304         4.5798
  17   0.0000       0.181464         4.9379

MULLIKEN ATOMIC CHARGES
-----------------------
   0 C :   -0.380561
   1 C :   -0.009261
   2 H :    0.106085
   3 H :    0.106028
   4 F :   -0.218114
   5 H :    0.135943
   6 H :    0.124955
   7 H :    0.134927
Sum of atomic charges:   -0.0000000

LOEWDIN ATOMIC CHARGES
----------------------
   0 C :   -0.324585
   1 C :   -0.386733
   2 H :    0.121276
   3 H :    0.120487
   4 F :    0.101176
   5 H :    0.121827
   6 H :    0.125575
   7 H :    0.120978

  Mayer bond orders larger than 0.100000
B(  0-C ,  1-C ) :   0.9565 B(  0-C ,  5-H ) :   0.9693 B(  0-C ,  6-H ) :   0.9570
B(  0-C ,  7-H ) :   0.9706 B(  1-C ,  2-H ) :   0.9714 B(  1-C ,  3-H ) :   0.9714
B(  1-C ,  4-F ) :   1.0249

FINAL SINGLE POINT ENERGY      -178.740232209976

DIPOLE MOMENT
-------------
                                X             Y             Z
Electronic contribution:      5.02387      -0.73351      -0.43165
Nuclear contribution   :     -5.66833       1.07099       0.52006
                        -----------------------------------------
Total Dipole Moment    :     -0.64446       0.33748       0.08841
                        -----------------------------------------
Magnitude (a.u.)       :      0.73283
Magnitude (Debye)      :      1.86269

Rotational constants in cm-1:     1.245689     0.305293     0.269541
Rotational constants in MHz : 37344.801915  9152.442838  8080.640229

                             ****ORCA TERMINATED NORMALLY****
TOTAL RUN TIME: 0 days 0 hours 0 minutes 12 seconds 370 msec
