                         Program Version 5.0.0 -  RELEASE  -
|  1> !LC-BLYP RIJCOSX def2-TZVP def2/J TightSCF
|  2> *xyz 0 1
|  3> C          1.63556       -1.67040       -5.29211
|  4> C          0.33848       -1.50091       -4.50540
|  5> C          2.48451       -0.50741       -5.14039
|  6> H          1.39834       -1.82924       -6.35259
|  7> H          2.15586       -2.56540       -4.93209
|  8> C          3.45115       -0.14953       -5.95259
|  9> N          3.92267        1.08956       -5.85071
| 10> N          3.96616       -1.00618       -6.86788
| 11> H          3.52139       -1.90647       -6.99527
| 12> H          4.44482       -0.62347       -7.67035
| 13> H          2.25200        0.24080       -4.49879
| 14> H          3.46428        1.64078       -5.13639
| 15> H          4.83447        1.31375       -6.22465
| 16> H         -0.17658       -0.62881       -4.85045
| 17> H          0.56384       -1.39374       -3.46490
| 18> H         -0.28102       -2.36136       -4.64938
| 19> *
| 20>
| 21> %MaxCore 64000
| 22>
| 23> %pal nprocs 4
| 24> end
| 25>
| 26> %scf
| 27>   MaxIter 150
| 28> end
| 29>
| 30>
| 31>                          ****END OF INPUT****

CARTESIAN COORDINATES (ANGSTROEM)
---------------------------------
  C      1.635560   -1.670400   -5.292110
  C      0.338480   -1.500910   -4.505400
  C      2.484510   -0.507410   -5.140390
  H      1.398340   -1.829240   -6.352590
  H      2.155860   -2.565400   -4.932090
  C      3.451150   -0.149530   -5.952590
  N      3.922670    1.089560   -5.850710
  N      3.966160   -1.006180   -6.867880
  H      3.521390   -1.906470   -6.995270
  H      4.444820   -0.623470   -7.670350
  H      2.252000    0.240800   -4.498790
  H      3.464280    1.640780   -5.136390
  H      4.834470    1.313750   -6.224650
  H     -0.176580   -0.628810   -4.850450
  H      0.563840   -1.393740   -3.464900
  H     -0.281020   -2.361360   -4.649380

 Total Charge           Charge          ....    0
 Multiplicity           Mult            ....    1
 Number of Electrons    NEL             ....   48
 Basis Dimension        Dim             ....  246

ORBITAL ENERGIES
----------------

  NO   OCC          E(Eh)            E(eV)
   0   2.0000     -14.167662      -385.5217
   1   2.0000     -14.162222      -385.3737
   2   2.0000     -10.107715      -275.0449
   3   2.0000     -10.044068      -273.3130
   4   2.0000     -10.034513      -273.0530
   5   2.0000      -9.988733      -271.8072
   6   2.0000      -1.057933       -28.7878
   7   2.0000      -0.969738       -26.3879
   8   2.0000      -0.884366       -24.0648
   9   2.0000      -0.804102       -21.8807
  10   2.0000      -0.717400       -19.5214
  11   2.0000      -0.685214       -18.6456
  12   2.0000      -0.637186       -17.3387
  13   2.0000      -0.616255       -16.7691
  14   2.0000      -0.565043       -15.3756
  15   2.0000      -0.547680       -14.9031
  16   2.0000      -0.530111       -14.4251
  17   2.0000      -0.499889       -13.6027
  18   2.0000      -0.480418       -13.0728
  19   2.0000      -0.439519       -11.9599
  20   2.0000      -0.428474       -11.6594
  21   2.0000      -0.427362       -11.6291
  22   2.0000      -0.363040        -9.8788
  23   2.0000      -0.254922        -6.9368
  24   0.0000       0.087957         2.3934
  25   0.0000       0.116076         3.1586
  26   0.0000       0.126739         3.4488
  27   0.0000       0.143973         3.9177
  28   0.0000       0.149028         4.0553

MULLIKEN ATOMIC CHARGES
-----------------------
   0 C :   -0.275674
   1 C :   -0.421308
   2 C :   -0.275275
   3 H :    0.092831
   4 H :    0.118061
   5 C :    0.305214
   6 N :   -0.438179
   7 N :   -0.459247
   8 H :    0.239818
   9 H :    0.215709
  10 H :    0.074312
  11 H :    0.229216
  12 H :    0.217080
  13 H :    0.126368
  14 H :    0.128391
  15 H :    0.122683
Sum of atomic charges:    0.0000000

LOEWDIN ATOMIC CHARGES
----------------------
   0 C :   -0.315161
   1 C :   -0.312724
   2 C :   -0.292468
   3 H :    0.132724
   4 H :    0.135055
   5 C :   -0.460316
   6 N :   -0.021597
   7 N :   -0.027694
   8 H :    0.174390
   9 H :    0.160949
  10 H :    0.127386
  11 H :    0.181309
  12 H :    0.162500
  13 H :    0.119298
  14 H :    0.120376
  15 H :    0.115973

  Mayer bond orders larger than 0.100000
B(  0-C ,  1-C ) :   0.9536 B(  0-C ,  2-C ) :   0.9193 B(  0-C ,  3-H ) :   0.9784
B(  0-C ,  4-H ) :   0.9792 B(  1-C , 13-H ) :   0.9799 B(  1-C , 14-H ) :   0.9827
B(  1-C , 15-H ) :   0.9890 B(  2-C ,  5-C ) :   1.6207 B(  2-C , 10-H ) :   1.0061
B(  5-C ,  6-N ) :   1.1550 B(  5-C ,  7-N ) :   1.1416 B(  6-N , 11-H ) :   0.9285
B(  6-N , 12-H ) :   0.9288 B(  7-N ,  8-H ) :   0.9299 B(  7-N ,  9-H ) :   0.9292

FINAL SINGLE POINT ENERGY      -267.298973046348

DIPOLE MOMENT
-------------
                                X             Y             Z
Electronic contribution:      4.56091       2.17466      -1.94517
Nuclear contribution   :     -3.99655      -1.83277       1.34879
                        -----------------------------------------
Total Dipole Moment    :      0.56437       0.34189      -0.59638
                        -----------------------------------------
Magnitude (a.u.)       :      0.88942
Magnitude (Debye)      :      2.26073

Rotational constants in cm-1:     0.262971     0.067064     0.055026
Rotational constants in MHz :  7883.664566  2010.513309  1649.636654

                             ****ORCA TERMINATED NORMALLY****
TOTAL RUN TIME: 0 days 0 hours 0 minutes 40 seconds 690 msec
