                         Program Version 5.0.0 -  RELEASE  -
|  1> !LC-BLYP RIJCOSX def2-TZVP def2/J TightSCF
|  2> *xyz 0 1
|  3> C          1.63556       -1.67040       -5.29211
|  4> C          0.33848       -1.50091       -4.50540
|  5> N          2.48451       -0.50741       -5.14039
|  6> H          1.39834       -1.82924       -6.35259
|  7> H          2.15586       -2.56540       -4.93209
|  8> C          3.45115       -0.14953       -5.95259
|  9> C          3.92267        1.08956       -5.85071
| 10> N          3.96616       -1.00618       -6.86788
| 11> H          3.52139       -1.90647       -6.99527
| 12> H          4.44482       -0.62347       -7.67035
| 13> H          2.25200        0.24080       -4.49879
| 14> H          3.46428        1.64078       -5.13639
| 15> H          4.83447        1.31375       -6.22465
| 16> H         -0.17658       -0.62881       -4.85045
| 17> H          0.56384       -1.39374       -3.46490
| 18> H         -0.28102       -2.36136       -4.64938
| 19> *
| 20>
| 21> %MaxCore 64000
| 22>
| 23> %pal nprocs 4
| 24> end
| 25>
| 26> %scf
| 27>   MaxIter 150
| 28> end
| 29>
| 30>
| 31>                          ****END OF INPUT****

CARTESIAN COORDINATES (ANGSTROEM)
---------------------------------
  C      1.635560   -1.670400   -5.292110
  C      0.338480   -1.500910   -4.505400
  N      2.484510   -0.507410   -5.140390
  H      1.398340   -1.829240   -6.352590
  H      2.155860   -2.565400   -4.932090
  C      3.451150   -0.149530   -5.952590
  C      3.922670    1.089560   -5.850710
  N      3.966160   -1.006180   -6.867880
  H      3.521390   -1.906470   -6.995270
  H      4.444820   -0.623470   -7.670350
  H      2.252000    0.240800   -4.498790
  H      3.464280    1.640780   -5.136390
  H      4.834470    1.313750   -6.224650
  H     -0.176580   -0.628810   -4.850450
  H      0.563840   -1.393740   -3.464900
  H     -0.281020   -2.361360   -4.649380

 Total Charge           Charge          ....    0
 Multiplicity           Mult            ....    1
 Number of Electrons    NEL             ....   48
 Basis Dimension        Dim             ....  246

ORBITAL ENERGIES
----------------

  NO   OCC          E(Eh)            E(eV)
   0   2.0000     -14.169285      -385.5659
   1   2.0000     -14.166837      -385.4992
   2   2.0000     -10.113397      -275.1995
   3   2.0000     -10.111119      -275.1375
   4   2.0000     -10.068013      -273.9645
   5   2.0000      -9.975353      -271.4431
   6   2.0000      -1.071612       -29.1601
   7   2.0000      -0.984472       -26.7888
   8   2.0000      -0.887929       -24.1618
   9   2.0000      -0.810208       -22.0469
  10   2.0000      -0.736223       -20.0336
  11   2.0000      -0.702421       -19.1138
  12   2.0000      -0.640339       -17.4245
  13   2.0000      -0.600423       -16.3383
  14   2.0000      -0.589399       -16.0384
  15   2.0000      -0.564177       -15.3520
  16   2.0000      -0.522280       -14.2120
  17   2.0000      -0.501308       -13.6413
  18   2.0000      -0.479923       -13.0594
  19   2.0000      -0.476536       -12.9672
  20   2.0000      -0.474067       -12.9000
  21   2.0000      -0.450590       -12.2612
  22   2.0000      -0.356443        -9.6993
  23   2.0000      -0.254713        -6.9311
  24   0.0000       0.088129         2.3981
  25   0.0000       0.109609         2.9826
  26   0.0000       0.121595         3.3088
  27   0.0000       0.145421         3.9571
  28   0.0000       0.152182         4.1411

MULLIKEN ATOMIC CHARGES
-----------------------
   0 C :   -0.147983
   1 C :   -0.450204
   2 N :   -0.232976
   3 H :    0.118053
   4 H :    0.133552
   5 C :    0.344169
   6 C :   -0.570596
   7 N :   -0.464064
   8 H :    0.223389
   9 H :    0.243114
  10 H :    0.213084
  11 H :    0.058751
  12 H :    0.107126
  13 H :    0.143808
  14 H :    0.143604
  15 H :    0.137172
Sum of atomic charges:   -0.0000000

LOEWDIN ATOMIC CHARGES
----------------------
   0 C :   -0.325930
   1 C :   -0.315012
   2 N :    0.120406
   3 H :    0.129678
   4 H :    0.128934
   5 C :   -0.462199
   6 C :   -0.359277
   7 N :   -0.023810
   8 H :    0.161331
   9 H :    0.175996
  10 H :    0.200423
  11 H :    0.098846
  12 H :    0.099148
  13 H :    0.123097
  14 H :    0.122667
  15 H :    0.125701

  Mayer bond orders larger than 0.100000
B(  0-C ,  1-C ) :   0.9549 B(  0-C ,  2-N ) :   0.9232 B(  0-C ,  3-H ) :   0.9670
B(  0-C ,  4-H ) :   0.9548 B(  1-C , 13-H ) :   0.9743 B(  1-C , 14-H ) :   0.9769
B(  1-C , 15-H ) :   0.9778 B(  2-N ,  5-C ) :   1.2083 B(  2-N , 10-H ) :   0.9299
B(  5-C ,  6-C ) :   1.5856 B(  5-C ,  7-N ) :   1.1145 B(  6-C , 11-H ) :   1.0193
B(  6-C , 12-H ) :   1.0014 B(  7-N ,  8-H ) :   0.9367 B(  7-N ,  9-H ) :   0.9275

FINAL SINGLE POINT ENERGY      -267.288343198323

DIPOLE MOMENT
-------------
                                X             Y             Z
Electronic contribution:      2.95085       0.52168      -1.30020
Nuclear contribution   :     -3.69145      -1.49398       1.19810
                        -----------------------------------------
Total Dipole Moment    :     -0.74060      -0.97230      -0.10211
                        -----------------------------------------
Magnitude (a.u.)       :      1.22649
Magnitude (Debye)      :      3.11749

Rotational constants in cm-1:     0.270790     0.068966     0.056679
Rotational constants in MHz :  8118.084803  2067.559423  1699.196934

                             ****ORCA TERMINATED NORMALLY****
TOTAL RUN TIME: 0 days 0 hours 0 minutes 40 seconds 896 msec
