                         Program Version 5.0.0 -  RELEASE  -
|  1> !LC-BLYP RIJCOSX def2-TZVP def2/J TightSCF
|  2> *xyz 0 1
|  3> C          1.63556       -1.67040       -5.29211
|  4> C          0.33848       -1.50091       -4.50540
|  5> N          2.48451       -0.50741       -5.14039
|  6> H          1.39834       -1.82924       -6.35259
|  7> H          2.15586       -2.56540       -4.93209
|  8> C          3.45115       -0.14953       -5.95259
|  9> N          3.92267        1.08956       -5.85071
| 10> C          3.96616       -1.00618       -6.86788
| 11> H          3.52139       -1.90647       -6.99527
| 12> H          4.44482       -0.62347       -7.67035
| 13> H          2.25200        0.24080       -4.49879
| 14> H          3.46428        1.64078       -5.13639
| 15> H          4.83447        1.31375       -6.22465
| 16> H         -0.17658       -0.62881       -4.85045
| 17> H          0.56384       -1.39374       -3.46490
| 18> H         -0.28102       -2.36136       -4.64938
| 19> *
| 20>
| 21> %MaxCore 64000
| 22>
| 23> %pal nprocs 4
| 24> end
| 25>
| 26> %scf
| 27>   MaxIter 150
| 28> end
| 29>
| 30>
| 31>                          ****END OF INPUT****

CARTESIAN COORDINATES (ANGSTROEM)
---------------------------------
  C      1.635560   -1.670400   -5.292110
  C      0.338480   -1.500910   -4.505400
  N      2.484510   -0.507410   -5.140390
  H      1.398340   -1.829240   -6.352590
  H      2.155860   -2.565400   -4.932090
  C      3.451150   -0.149530   -5.952590
  N      3.922670    1.089560   -5.850710
  C      3.966160   -1.006180   -6.867880
  H      3.521390   -1.906470   -6.995270
  H      4.444820   -0.623470   -7.670350
  H      2.252000    0.240800   -4.498790
  H      3.464280    1.640780   -5.136390
  H      4.834470    1.313750   -6.224650
  H     -0.176580   -0.628810   -4.850450
  H      0.563840   -1.393740   -3.464900
  H     -0.281020   -2.361360   -4.649380

 Total Charge           Charge          ....    0
 Multiplicity           Mult            ....    1
 Number of Electrons    NEL             ....   48
 Basis Dimension        Dim             ....  246

ORBITAL ENERGIES
----------------

  NO   OCC          E(Eh)            E(eV)
   0   2.0000     -14.175486      -385.7346
   1   2.0000     -14.168934      -385.5563
   2   2.0000     -10.114875      -275.2397
   3   2.0000     -10.103667      -274.9348
   4   2.0000     -10.064026      -273.8561
   5   2.0000      -9.976483      -271.4739
   6   2.0000      -1.079755       -29.3816
   7   2.0000      -0.989823       -26.9345
   8   2.0000      -0.873441       -23.7675
   9   2.0000      -0.810504       -22.0549
  10   2.0000      -0.753523       -20.5044
  11   2.0000      -0.673755       -18.3338
  12   2.0000      -0.640668       -17.4335
  13   2.0000      -0.627968       -17.0879
  14   2.0000      -0.583452       -15.8765
  15   2.0000      -0.569524       -15.4975
  16   2.0000      -0.507041       -13.7973
  17   2.0000      -0.496400       -13.5077
  18   2.0000      -0.493747       -13.4355
  19   2.0000      -0.470581       -12.8052
  20   2.0000      -0.461090       -12.5469
  21   2.0000      -0.450314       -12.2537
  22   2.0000      -0.349450        -9.5090
  23   2.0000      -0.258952        -7.0464
  24   0.0000       0.083035         2.2595
  25   0.0000       0.106140         2.8882
  26   0.0000       0.126920         3.4537
  27   0.0000       0.148645         4.0448
  28   0.0000       0.158375         4.3096

MULLIKEN ATOMIC CHARGES
-----------------------
   0 C :   -0.124521
   1 C :   -0.440851
   2 N :   -0.240796
   3 H :    0.137276
   4 H :    0.136433
   5 C :    0.315065
   6 N :   -0.428837
   7 C :   -0.573563
   8 H :    0.088648
   9 H :    0.097027
  10 H :    0.174363
  11 H :    0.196386
  12 H :    0.248921
  13 H :    0.137336
  14 H :    0.137854
  15 H :    0.139261
Sum of atomic charges:   -0.0000000

LOEWDIN ATOMIC CHARGES
----------------------
   0 C :   -0.307816
   1 C :   -0.318118
   2 N :    0.121740
   3 H :    0.138899
   4 H :    0.133968
   5 C :   -0.474041
   6 N :   -0.013589
   7 C :   -0.368106
   8 H :    0.098254
   9 H :    0.097068
  10 H :    0.181179
  11 H :    0.162703
  12 H :    0.180599
  13 H :    0.120438
  14 H :    0.120287
  15 H :    0.126536

  Mayer bond orders larger than 0.100000
B(  0-C ,  1-C ) :   0.9360 B(  0-C ,  2-N ) :   0.9138 B(  0-C ,  3-H ) :   0.9725
B(  0-C ,  4-H ) :   0.9633 B(  1-C , 13-H ) :   0.9752 B(  1-C , 14-H ) :   0.9767
B(  1-C , 15-H ) :   0.9798 B(  2-N ,  5-C ) :   1.1828 B(  2-N , 10-H ) :   0.9392
B(  5-C ,  6-N ) :   1.1335 B(  5-C ,  7-C ) :   1.5872 B(  6-N , 11-H ) :   0.9378
B(  6-N , 12-H ) :   0.9241 B(  7-C ,  8-H ) :   1.0170 B(  7-C ,  9-H ) :   1.0017

FINAL SINGLE POINT ENERGY      -267.288657426202

DIPOLE MOMENT
-------------
                                X             Y             Z
Electronic contribution:      3.01141       2.67308      -0.16745
Nuclear contribution   :     -3.68222      -1.93858       0.98231
                        -----------------------------------------
Total Dipole Moment    :     -0.67081       0.73450       0.81486
                        -----------------------------------------
Magnitude (a.u.)       :      1.28587
Magnitude (Debye)      :      3.26843

Rotational constants in cm-1:     0.275407     0.068040     0.056255
Rotational constants in MHz :  8256.498401  2039.796466  1686.484500

                             ****ORCA TERMINATED NORMALLY****
TOTAL RUN TIME: 0 days 0 hours 0 minutes 39 seconds 836 msec
