                         Program Version 5.0.0 -  RELEASE  -
|  1> !LC-BLYP RIJCOSX def2-TZVP def2/J TightSCF xyzfile
|  2>
|  3> *xyzfile 0 1 D2.xyz
|  4>
|  5> %MaxCore 64000
|  6>
|  7> %pal nprocs 18
|  8> end
|  9>
| 10> %scf
| 11>   MaxIter 150
| 12> end
| 13>
| 14>
| 15>                          ****END OF INPUT****

CARTESIAN COORDINATES (ANGSTROEM)
---------------------------------
  C      1.635557   -1.670396   -5.292109
  C      0.338484   -1.500907   -4.505398
  N      2.484511   -0.507410   -5.140392
  C     -0.684873   -0.528026   -5.099889
  C     -0.290406    0.951335   -5.153423
  H      0.607991    1.070692   -5.764412
  C     -0.055168    1.619420   -3.788577
  H     -1.080912    1.483775   -5.689436
  H      0.045006    0.862302   -3.003015
  H     -0.922936    2.230329   -3.517028
  C      1.223022    2.469865   -3.756911
  H      1.114701    3.258074   -4.532999
  H      1.237732    3.011242   -2.792157
  F      2.353815    1.712032   -3.934477
  H      1.398337   -1.829239   -6.352591
  H      2.155864   -2.565398   -4.932091
  C      3.451149   -0.149530   -5.952589
  C      3.922667    1.089559   -5.850711
  N      3.966162   -1.006183   -6.867880
  H      3.521391   -1.906467   -6.995270
  H      4.444824   -0.623472   -7.670348
  H      2.251995    0.240804   -4.498792
  H      3.464277    1.640782   -5.136392
  H      4.834470    1.313745   -6.224653
  H     -0.937999   -0.869056   -6.110838
  H     -1.604638   -0.622496   -4.513132
  H      0.594887   -1.211578   -3.482312
  H     -0.126530   -2.487656   -4.434176

 Total Charge           Charge          ....    0
 Multiplicity           Mult            ....    1
 Number of Electrons    NEL             ....   88
 Basis Dimension        Dim             ....  443

ORBITAL ENERGIES
----------------

  NO   OCC          E(Eh)            E(eV)
   0   2.0000     -24.468127      -665.8116
   1   2.0000     -14.151787      -385.0897
   2   2.0000     -14.141553      -384.8112
   3   2.0000     -10.158182      -276.4182
   4   2.0000     -10.097088      -274.7557
   5   2.0000     -10.094689      -274.6905
   6   2.0000     -10.083303      -274.3806
   7   2.0000     -10.072063      -274.0748
   8   2.0000     -10.071629      -274.0630
   9   2.0000     -10.069540      -274.0061
  10   2.0000      -9.949513      -270.7400
  11   2.0000      -1.314696       -35.7747
  12   2.0000      -1.053665       -28.6717
  13   2.0000      -0.970397       -26.4058
  14   2.0000      -0.929151       -25.2835
  15   2.0000      -0.886349       -24.1188
  16   2.0000      -0.846846       -23.0438
  17   2.0000      -0.792560       -21.5666
  18   2.0000      -0.759436       -20.6653
  19   2.0000      -0.730649       -19.8820
  20   2.0000      -0.691993       -18.8301
  21   2.0000      -0.675152       -18.3718
  22   2.0000      -0.650567       -17.7028
  23   2.0000      -0.623109       -16.9557
  24   2.0000      -0.614364       -16.7177
  25   2.0000      -0.607845       -16.5403
  26   2.0000      -0.589823       -16.0499
  27   2.0000      -0.579897       -15.7798
  28   2.0000      -0.554333       -15.0842
  29   2.0000      -0.543256       -14.7827
  30   2.0000      -0.526120       -14.3165
  31   2.0000      -0.512486       -13.9455
  32   2.0000      -0.500732       -13.6256
  33   2.0000      -0.482171       -13.1205
  34   2.0000      -0.470049       -12.7907
  35   2.0000      -0.463368       -12.6089
  36   2.0000      -0.453466       -12.3394
  37   2.0000      -0.445731       -12.1290
  38   2.0000      -0.430125       -11.7043
  39   2.0000      -0.420485       -11.4420
  40   2.0000      -0.418432       -11.3861
  41   2.0000      -0.415790       -11.3142
  42   2.0000      -0.337464        -9.1829
  43   2.0000      -0.236212        -6.4277
  44   0.0000       0.090741         2.4692
  45   0.0000       0.101745         2.7686
  46   0.0000       0.113329         3.0838
  47   0.0000       0.117332         3.1928
  48   0.0000       0.134281         3.6540

MULLIKEN ATOMIC CHARGES
-----------------------
   0 C :   -0.149809
   1 C :   -0.340400
   2 N :   -0.240686
   3 C :   -0.229556
   4 C :   -0.344943
   5 H :    0.195133
   6 C :   -0.263118
   7 H :    0.130818
   8 H :    0.139547
   9 H :    0.143061
  10 C :   -0.037869
  11 H :    0.137395
  12 H :    0.130825
  13 F :   -0.204370
  14 H :    0.115410
  15 H :    0.133119
  16 C :    0.332201
  17 C :   -0.621628
  18 N :   -0.471692
  19 H :    0.217697
  20 H :    0.238204
  21 H :    0.233869
  22 H :    0.110381
  23 H :    0.099091
  24 H :    0.133073
  25 H :    0.129818
  26 H :    0.148153
  27 H :    0.136279
Sum of atomic charges:   -0.0000000

LOEWDIN ATOMIC CHARGES
----------------------
   0 C :   -0.305992
   1 C :   -0.280835
   2 N :    0.119928
   3 C :   -0.278467
   4 C :   -0.281649
   5 H :    0.152315
   6 C :   -0.282707
   7 H :    0.140835
   8 H :    0.143756
   9 H :    0.148328
  10 C :   -0.356502
  11 H :    0.134865
  12 H :    0.130655
  13 F :    0.162611
  14 H :    0.130758
  15 H :    0.130332
  16 C :   -0.469376
  17 C :   -0.375999
  18 N :   -0.028862
  19 H :    0.158401
  20 H :    0.172926
  21 H :    0.172479
  22 H :    0.095446
  23 H :    0.094741
  24 H :    0.143476
  25 H :    0.142710
  26 H :    0.139643
  27 H :    0.146183

  Mayer bond orders larger than 0.100000
B(  0-C ,  1-C ) :   0.9494 B(  0-C ,  2-N ) :   0.9231 B(  0-C , 14-H ) :   0.9629
B(  0-C , 15-H ) :   0.9639 B(  1-C ,  3-C ) :   0.9269 B(  1-C , 26-H ) :   0.9851
B(  1-C , 27-H ) :   0.9882 B(  2-N , 16-C ) :   1.2231 B(  2-N , 21-H ) :   0.8958
B(  3-C ,  4-C ) :   0.9148 B(  3-C , 24-H ) :   0.9808 B(  3-C , 25-H ) :   0.9838
B(  4-C ,  5-H ) :   0.9761 B(  4-C ,  6-C ) :   0.8599 B(  4-C ,  7-H ) :   0.9795
B(  6-C ,  8-H ) :   0.9771 B(  6-C ,  9-H ) :   0.9599 B(  6-C , 10-C ) :   0.9503
B( 10-C , 11-H ) :   0.9777 B( 10-C , 12-H ) :   0.9731 B( 10-C , 13-F ) :   0.9247
B( 16-C , 17-C ) :   1.5887 B( 16-C , 18-N ) :   1.0990 B( 17-C , 22-H ) :   1.0124
B( 17-C , 23-H ) :   0.9977 B( 18-N , 19-H ) :   0.9392 B( 18-N , 20-H ) :   0.9286

FINAL SINGLE POINT ENERGY      -523.248058962893

DIPOLE MOMENT
-------------
                                X             Y             Z
Electronic contribution:      6.32413       2.41582       1.68905
Nuclear contribution   :     -7.85451      -2.70006      -1.48294
                        -----------------------------------------
Total Dipole Moment    :     -1.53038      -0.28425       0.20611
                        -----------------------------------------
Magnitude (a.u.)       :      1.57014
Magnitude (Debye)      :      3.99098

Rotational constants in cm-1:     0.044065     0.029250     0.019826
Rotational constants in MHz :  1321.026981   876.903192   594.367265

                             ****ORCA TERMINATED NORMALLY****
TOTAL RUN TIME: 0 days 0 hours 0 minutes 45 seconds 83 msec
