                         Program Version 5.0.0 -  RELEASE  -
|  1> !LC-BLYP RIJCOSX def2-TZVP def2/J TightSCF xyzfile
|  2>
|  3> *xyzfile 0 1 D3.xyz
|  4>
|  5> %MaxCore 64000
|  6>
|  7> %pal nprocs 18
|  8> end
|  9>
| 10> %scf
| 11>   MaxIter 150
| 12> end
| 13>
| 14>
| 15>                          ****END OF INPUT****

CARTESIAN COORDINATES (ANGSTROEM)
---------------------------------
  C      1.635557   -1.670396   -5.292109
  C      0.338484   -1.500907   -4.505398
  N      2.484511   -0.507410   -5.140392
  C     -0.684873   -0.528026   -5.099889
  C     -0.290406    0.951335   -5.153423
  H      0.607991    1.070692   -5.764412
  C     -0.055168    1.619420   -3.788577
  H     -1.080912    1.483775   -5.689436
  H      0.045006    0.862302   -3.003015
  H     -0.922936    2.230329   -3.517028
  C      1.223022    2.469865   -3.756911
  H      1.114701    3.258074   -4.532999
  H      1.237732    3.011242   -2.792157
  F      2.353815    1.712032   -3.934477
  H      1.398337   -1.829239   -6.352591
  H      2.155864   -2.565398   -4.932091
  C      3.451149   -0.149530   -5.952589
  N      3.922667    1.089559   -5.850711
  C      3.966162   -1.006183   -6.867880
  H      3.521391   -1.906467   -6.995270
  H      4.444824   -0.623472   -7.670348
  H      2.251995    0.240804   -4.498792
  H      3.464277    1.640782   -5.136392
  H      4.834470    1.313745   -6.224653
  H     -0.937999   -0.869056   -6.110838
  H     -1.604638   -0.622496   -4.513132
  H      0.594887   -1.211578   -3.482312
  H     -0.126530   -2.487656   -4.434176

 Total Charge           Charge          ....    0
 Multiplicity           Mult            ....    1
 Number of Electrons    NEL             ....   88
 Basis Dimension        Dim             ....  443

ORBITAL ENERGIES
----------------

  NO   OCC          E(Eh)            E(eV)
   0   2.0000     -24.497264      -666.6044
   1   2.0000     -14.145580      -384.9208
   2   2.0000     -14.140635      -384.7862
   3   2.0000     -10.175897      -276.9002
   4   2.0000     -10.095738      -274.7190
   5   2.0000     -10.093403      -274.6555
   6   2.0000     -10.089511      -274.5495
   7   2.0000     -10.075792      -274.1762
   8   2.0000     -10.072613      -274.0897
   9   2.0000     -10.069507      -274.0052
  10   2.0000      -9.959795      -271.0198
  11   2.0000      -1.342620       -36.5346
  12   2.0000      -1.058512       -28.8036
  13   2.0000      -0.971706       -26.4415
  14   2.0000      -0.933996       -25.4153
  15   2.0000      -0.890105       -24.2210
  16   2.0000      -0.839101       -22.8331
  17   2.0000      -0.801486       -21.8096
  18   2.0000      -0.768609       -20.9149
  19   2.0000      -0.743917       -20.2430
  20   2.0000      -0.688024       -18.7221
  21   2.0000      -0.677671       -18.4404
  22   2.0000      -0.664647       -18.0860
  23   2.0000      -0.638652       -17.3786
  24   2.0000      -0.634652       -17.2698
  25   2.0000      -0.601801       -16.3758
  26   2.0000      -0.594090       -16.1660
  27   2.0000      -0.580859       -15.8060
  28   2.0000      -0.568514       -15.4701
  29   2.0000      -0.537611       -14.6291
  30   2.0000      -0.531884       -14.4733
  31   2.0000      -0.521014       -14.1775
  32   2.0000      -0.504177       -13.7194
  33   2.0000      -0.478833       -13.0297
  34   2.0000      -0.476908       -12.9773
  35   2.0000      -0.462965       -12.5979
  36   2.0000      -0.461437       -12.5563
  37   2.0000      -0.452849       -12.3226
  38   2.0000      -0.440780       -11.9942
  39   2.0000      -0.430225       -11.7070
  40   2.0000      -0.420947       -11.4546
  41   2.0000      -0.418739       -11.3945
  42   2.0000      -0.326588        -8.8869
  43   2.0000      -0.241376        -6.5682
  44   0.0000       0.086114         2.3433
  45   0.0000       0.102596         2.7918
  46   0.0000       0.110093         2.9958
  47   0.0000       0.118471         3.2238
  48   0.0000       0.129213         3.5161

MULLIKEN ATOMIC CHARGES
-----------------------
   0 C :   -0.118858
   1 C :   -0.335754
   2 N :   -0.258923
   3 C :   -0.232545
   4 C :   -0.334614
   5 H :    0.175085
   6 C :   -0.260346
   7 H :    0.133103
   8 H :    0.147486
   9 H :    0.148852
  10 C :   -0.048425
  11 H :    0.143451
  12 H :    0.138928
  13 F :   -0.227024
  14 H :    0.132327
  15 H :    0.135421
  16 C :    0.296767
  17 N :   -0.459424
  18 C :   -0.570404
  19 H :    0.081848
  20 H :    0.089684
  21 H :    0.213519
  22 H :    0.226566
  23 H :    0.234155
  24 H :    0.138781
  25 H :    0.129307
  26 H :    0.142016
  27 H :    0.139023
Sum of atomic charges:   -0.0000000

LOEWDIN ATOMIC CHARGES
----------------------
   0 C :   -0.287519
   1 C :   -0.282474
   2 N :    0.121725
   3 C :   -0.277519
   4 C :   -0.282301
   5 H :    0.148140
   6 C :   -0.281198
   7 H :    0.141509
   8 H :    0.145933
   9 H :    0.150464
  10 C :   -0.355325
  11 H :    0.135667
  12 H :    0.133531
  13 F :    0.152056
  14 H :    0.139797
  15 H :    0.135468
  16 C :   -0.478323
  17 N :   -0.024440
  18 C :   -0.380408
  19 H :    0.095659
  20 H :    0.094287
  21 H :    0.161267
  22 H :    0.147715
  23 H :    0.173786
  24 H :    0.145583
  25 H :    0.142430
  26 H :    0.137194
  27 H :    0.147296

  Mayer bond orders larger than 0.100000
B(  0-C ,  1-C ) :   0.9332 B(  0-C ,  2-N ) :   0.9052 B(  0-C , 14-H ) :   0.9695
B(  0-C , 15-H ) :   0.9742 B(  1-C ,  3-C ) :   0.9231 B(  1-C , 26-H ) :   0.9856
B(  1-C , 27-H ) :   0.9896 B(  2-N , 16-C ) :   1.1927 B(  2-N , 21-H ) :   0.9041
B(  3-C ,  4-C ) :   0.9184 B(  3-C , 24-H ) :   0.9790 B(  3-C , 25-H ) :   0.9840
B(  4-C ,  5-H ) :   0.9777 B(  4-C ,  6-C ) :   0.8543 B(  4-C ,  7-H ) :   0.9781
B(  6-C ,  8-H ) :   0.9766 B(  6-C ,  9-H ) :   0.9583 B(  6-C , 10-C ) :   0.9486
B( 10-C , 11-H ) :   0.9766 B( 10-C , 12-H ) :   0.9748 B( 10-C , 13-F ) :   0.8962
B( 16-C , 17-N ) :   1.1449 B( 16-C , 18-C ) :   1.6043 B( 17-N , 22-H ) :   0.9024
B( 17-N , 23-H ) :   0.9305 B( 18-C , 19-H ) :   1.0180 B( 18-C , 20-H ) :   1.0049

FINAL SINGLE POINT ENERGY      -523.259758980265

DIPOLE MOMENT
-------------
                                X             Y             Z
Electronic contribution:      6.24148       4.48012       2.82459
Nuclear contribution   :     -7.84660      -3.08098      -1.66782
                        -----------------------------------------
Total Dipole Moment    :     -1.60512       1.39914       1.15677
                        -----------------------------------------
Magnitude (a.u.)       :      2.42325
Magnitude (Debye)      :      6.15940

Rotational constants in cm-1:     0.043547     0.029898     0.020008
Rotational constants in MHz :  1305.520367   896.323854   599.829375

                             ****ORCA TERMINATED NORMALLY****
TOTAL RUN TIME: 0 days 0 hours 0 minutes 54 seconds 581 msec
