                         Program Version 5.0.0 -  RELEASE  -
|  1> !B3LYP D3BJ RIJCOSX def2-SVP def2/J TightSCF
|  2> *xyz -1 1
|  3> C          0.96805        1.63064       -3.71575
|  4> C         -0.50835        1.72268       -4.12430
|  5> S         -1.32861        0.14674       -4.43578
|  6> H         -0.59151        2.29496       -5.04722
|  7> H         -1.11411        2.23561       -3.37436
|  8> O         -2.57135        0.47573       -5.06834
|  9> O         -1.51496       -0.40051       -3.06342
| 10> O         -0.37793       -0.62756       -5.20114
| 11> H          1.51840        1.12197       -4.47946
| 12> H          1.05062        1.08971       -2.79625
| 13> H          1.36450        2.61606       -3.58668
| 14> *
| 15> %MaxCore 64000
| 16>
| 17> %pal nprocs 4
| 18> end
| 19>
| 20> %scf
| 21>   MaxIter 150
| 22> end
| 23>
| 24>
| 25>                          ****END OF INPUT****

CARTESIAN COORDINATES (ANGSTROEM)
---------------------------------
  C      0.968050    1.630640   -3.715750
  C     -0.508350    1.722680   -4.124300
  S     -1.328610    0.146740   -4.435780
  H     -0.591510    2.294960   -5.047220
  H     -1.114110    2.235610   -3.374360
  O     -2.571350    0.475730   -5.068340
  O     -1.514960   -0.400510   -3.063420
  O     -0.377930   -0.627560   -5.201140
  H      1.518400    1.121970   -4.479460
  H      1.050620    1.089710   -2.796250
  H      1.364500    2.616060   -3.586680

 Total Charge           Charge          ....   -1
 Multiplicity           Mult            ....    1
 Number of Electrons    NEL             ....   58
 Basis Dimension        Dim             ....  113

ORBITAL ENERGIES
----------------

  NO   OCC          E(Eh)            E(eV)
   0   2.0000     -88.838784     -2417.4262
   1   2.0000     -18.884040      -513.8608
   2   2.0000     -18.880929      -513.7762
   3   2.0000     -18.862146      -513.2651
   4   2.0000     -10.030783      -272.9515
   5   2.0000     -10.023556      -272.7548
   6   2.0000      -7.899450      -214.9550
   7   2.0000      -5.867888      -159.6733
   8   2.0000      -5.867602      -159.6656
   9   2.0000      -5.867483      -159.6623
  10   2.0000      -0.900919       -24.5152
  11   2.0000      -0.764785       -20.8109
  12   2.0000      -0.731492       -19.9049
  13   2.0000      -0.608891       -16.5688
  14   2.0000      -0.486076       -13.2268
  15   2.0000      -0.355682        -9.6786
  16   2.0000      -0.301736        -8.2106
  17   2.0000      -0.292742        -7.9659
  18   2.0000      -0.256048        -6.9674
  19   2.0000      -0.237126        -6.4525
  20   2.0000      -0.233712        -6.3596
  21   2.0000      -0.211716        -5.7611
  22   2.0000      -0.198581        -5.4037
  23   2.0000      -0.119153        -3.2423
  24   2.0000      -0.118793        -3.2325
  25   2.0000      -0.088620        -2.4115
  26   2.0000      -0.079699        -2.1687
  27   2.0000      -0.063716        -1.7338
  28   2.0000      -0.032081        -0.8730
  29   0.0000       0.205487         5.5916
  30   0.0000       0.256032         6.9670
  31   0.0000       0.263854         7.1798
  32   0.0000       0.270027         7.3478
  33   0.0000       0.298255         8.1159

MULLIKEN ATOMIC CHARGES
-----------------------
   0 C :    0.061354
   1 C :   -0.067794
   2 S :    0.872953
   3 H :   -0.028680
   4 H :   -0.016192
   5 O :   -0.560718
   6 O :   -0.625794
   7 O :   -0.574378
   8 H :   -0.004967
   9 H :   -0.007849
  10 H :   -0.047934
Sum of atomic charges:   -1.0000000

LOEWDIN ATOMIC CHARGES
----------------------
   0 C :   -0.065149
   1 C :   -0.183529
   2 S :    1.100072
   3 H :   -0.004047
   4 H :    0.002839
   5 O :   -0.598324
   6 O :   -0.662830
   7 O :   -0.610557
   8 H :    0.012288
   9 H :    0.012099
  10 H :   -0.002863

  Mayer bond orders larger than 0.100000
B(  0-C ,  1-C ) :   1.0673 B(  0-C ,  8-H ) :   0.9641 B(  0-C ,  9-H ) :   0.9652
B(  0-C , 10-H ) :   0.9565 B(  1-C ,  2-S ) :   0.8882 B(  1-C ,  3-H ) :   0.9349
B(  1-C ,  4-H ) :   0.9403 B(  2-S ,  5-O ) :   1.6465 B(  2-S ,  6-O ) :   1.5730
B(  2-S ,  7-O ) :   1.6217

Dispersion correction           -0.016692550
FINAL SINGLE POINT ENERGY      -702.525697668577

DIPOLE MOMENT
-------------
                                X             Y             Z
Electronic contribution:     -5.71072      -5.45614      -1.97691
Nuclear contribution   :      6.64523       6.80157       2.07300
                        -----------------------------------------
Total Dipole Moment    :      0.93451       1.34543       0.09609
                        -----------------------------------------
Magnitude (a.u.)       :      1.64095
Magnitude (Debye)      :      4.17097

Rotational constants in cm-1:     0.163070     0.082807     0.081541
Rotational constants in MHz :  4888.719902  2482.497026  2444.541148

                             ****ORCA TERMINATED NORMALLY****
TOTAL RUN TIME: 0 days 0 hours 0 minutes 13 seconds 13 msec
