                         Program Version 5.0.0 -  RELEASE  -
|  1> !B3LYP D3BJ RIJCOSX def2-SVP def2/J TightSCF
|  2> *xyz 1 1
|  3> C          1.36401        0.46874       -2.81376
|  4> N          0.42884        0.32140       -1.65531
|  5> C          0.96805        1.63064       -3.71575
|  6> H          0.74858       -0.40054       -1.00134
|  7> H         -0.46105        0.02333       -2.07773
|  8> H          0.31026        1.20137       -1.13495
|  9> H          1.29485       -0.46874       -3.36468
| 10> H          2.37622        0.59740       -2.43149
| 11> H          1.65923        1.70213       -4.52942
| 12> H          0.98421        2.54058       -3.15304
| 13> H         -0.01744        1.46536       -4.09838
| 14> *
| 15> %MaxCore 64000
| 16>
| 17> %pal nprocs 4
| 18> end
| 19>
| 20> %scf
| 21>   MaxIter 150
| 22> end
| 23>
| 24>
| 25>                          ****END OF INPUT****

CARTESIAN COORDINATES (ANGSTROEM)
---------------------------------
  C      1.364010    0.468740   -2.813760
  N      0.428840    0.321400   -1.655310
  C      0.968050    1.630640   -3.715750
  H      0.748580   -0.400540   -1.001340
  H     -0.461050    0.023330   -2.077730
  H      0.310260    1.201370   -1.134950
  H      1.294850   -0.468740   -3.364680
  H      2.376220    0.597400   -2.431490
  H      1.659230    1.702130   -4.529420
  H      0.984210    2.540580   -3.153040
  H     -0.017440    1.465360   -4.098380

 Total Charge           Charge          ....    1
 Multiplicity           Mult            ....    1
 Number of Electrons    NEL             ....   26
 Basis Dimension        Dim             ....   82

ORBITAL ENERGIES
----------------

  NO   OCC          E(Eh)            E(eV)
   0   2.0000     -14.667823      -399.1317
   1   2.0000     -10.438125      -284.0358
   2   2.0000     -10.360790      -281.9314
   3   2.0000      -1.208201       -32.8768
   4   2.0000      -0.958660       -26.0865
   5   2.0000      -0.839011       -22.8307
   6   2.0000      -0.806477       -21.9453
   7   2.0000      -0.789728       -21.4896
   8   2.0000      -0.694643       -18.9022
   9   2.0000      -0.644123       -17.5275
  10   2.0000      -0.584366       -15.9014
  11   2.0000      -0.567905       -15.4535
  12   2.0000      -0.553189       -15.0530
  13   0.0000      -0.186313        -5.0698
  14   0.0000      -0.125480        -3.4145
  15   0.0000      -0.121321        -3.3013
  16   0.0000      -0.090755        -2.4696
  17   0.0000      -0.052339        -1.4242

MULLIKEN ATOMIC CHARGES
-----------------------
   0 C :   -0.026482
   1 N :    0.019990
   2 C :   -0.000050
   3 H :    0.213382
   4 H :    0.210587
   5 H :    0.210101
   6 H :    0.089427
   7 H :    0.096016
   8 H :    0.088073
   9 H :    0.051505
  10 H :    0.047451
Sum of atomic charges:    1.0000000

LOEWDIN ATOMIC CHARGES
----------------------
   0 C :    0.058781
   1 N :    0.297743
   2 C :   -0.032371
   3 H :    0.145818
   4 H :    0.145569
   5 H :    0.143098
   6 H :    0.051571
   7 H :    0.052305
   8 H :    0.063044
   9 H :    0.037742
  10 H :    0.036701

  Mayer bond orders larger than 0.100000
B(  0-C ,  1-N ) :   0.9268 B(  0-C ,  2-C ) :   1.1084 B(  0-C ,  6-H ) :   0.9522
B(  0-C ,  7-H ) :   0.9523 B(  1-N ,  3-H ) :   0.9331 B(  1-N ,  4-H ) :   0.9400
B(  1-N ,  5-H ) :   0.9335 B(  2-C ,  8-H ) :   0.9557 B(  2-C ,  9-H ) :   0.9682
B(  2-C , 10-H ) :   0.9683

Dispersion correction           -0.010052209
FINAL SINGLE POINT ENERGY      -135.349502438340

DIPOLE MOMENT
-------------
                                X             Y             Z
Electronic contribution:     -0.37281      -0.96444       1.61655
Nuclear contribution   :     -0.20470       0.31427      -0.31587
                        -----------------------------------------
Total Dipole Moment    :     -0.57751      -0.65017       1.30069
                        -----------------------------------------
Magnitude (a.u.)       :      1.56462
Magnitude (Debye)      :      3.97694

Rotational constants in cm-1:     1.011480     0.279280     0.248378
Rotational constants in MHz : 30323.408050  8372.602834  7446.185305

                             ****ORCA TERMINATED NORMALLY****
TOTAL RUN TIME: 0 days 0 hours 0 minutes 8 seconds 716 msec
