                         Program Version 5.0.0 -  RELEASE  -
|  1> !B3LYP D3BJ RIJCOSX def2-SVP def2/J TightSCF
|  2> *xyz 0 1
|  3> C          0.96805        1.63064       -3.71575
|  4> C         -0.50835        1.72268       -4.12430
|  5> S         -1.32861        0.14674       -4.43578
|  6> H         -0.59151        2.29496       -5.04722
|  7> H         -1.11411        2.23561       -3.37436
|  8> F         -2.57135        0.47573       -5.06834
|  9> O         -1.51496       -0.40051       -3.06342
| 10> O         -0.37793       -0.62756       -5.20114
| 11> H          1.51840        1.12197       -4.47946
| 12> H          1.05062        1.08971       -2.79625
| 13> H          1.36450        2.61606       -3.58668
| 14> *
| 15> %MaxCore 64000
| 16>
| 17> %pal nprocs 4
| 18> end
| 19>
| 20> %scf
| 21>   MaxIter 150
| 22> end
| 23>
| 24>
| 25>                          ****END OF INPUT****

CARTESIAN COORDINATES (ANGSTROEM)
---------------------------------
  C      0.968050    1.630640   -3.715750
  C     -0.508350    1.722680   -4.124300
  S     -1.328610    0.146740   -4.435780
  H     -0.591510    2.294960   -5.047220
  H     -1.114110    2.235610   -3.374360
  F     -2.571350    0.475730   -5.068340
  O     -1.514960   -0.400510   -3.063420
  O     -0.377930   -0.627560   -5.201140
  H      1.518400    1.121970   -4.479460
  H      1.050620    1.089710   -2.796250
  H      1.364500    2.616060   -3.586680

 Total Charge           Charge          ....    0
 Multiplicity           Mult            ....    1
 Number of Electrons    NEL             ....   58
 Basis Dimension        Dim             ....  113

ORBITAL ENERGIES
----------------

  NO   OCC          E(Eh)            E(eV)
   0   2.0000     -89.113185     -2424.8930
   1   2.0000     -24.803143      -674.9278
   2   2.0000     -19.132979      -520.6348
   3   2.0000     -19.115465      -520.1582
   4   2.0000     -10.236464      -278.5484
   5   2.0000     -10.200274      -277.5636
   6   2.0000      -8.176291      -222.4882
   7   2.0000      -6.148718      -167.3151
   8   2.0000      -6.142151      -167.1364
   9   2.0000      -6.140921      -167.1030
  10   2.0000      -1.375640       -37.4331
  11   2.0000      -1.092532       -29.7293
  12   2.0000      -0.985031       -26.8041
  13   2.0000      -0.808364       -21.9967
  14   2.0000      -0.729983       -19.8638
  15   2.0000      -0.669766       -18.2253
  16   2.0000      -0.585253       -15.9255
  17   2.0000      -0.584797       -15.9131
  18   2.0000      -0.544687       -14.8217
  19   2.0000      -0.487392       -13.2626
  20   2.0000      -0.473037       -12.8720
  21   2.0000      -0.429259       -11.6807
  22   2.0000      -0.425577       -11.5805
  23   2.0000      -0.403938       -10.9917
  24   2.0000      -0.384558       -10.4644
  25   2.0000      -0.371145       -10.0994
  26   2.0000      -0.321018        -8.7354
  27   2.0000      -0.304048        -8.2736
  28   2.0000      -0.289190        -7.8692
  29   0.0000       0.037014         1.0072
  30   0.0000       0.048904         1.3308
  31   0.0000       0.076237         2.0745
  32   0.0000       0.089942         2.4475
  33   0.0000       0.098480         2.6798

MULLIKEN ATOMIC CHARGES
-----------------------
   0 C :    0.046625
   1 C :   -0.107421
   2 S :    0.945222
   3 H :    0.038857
   4 H :    0.054670
   5 F :   -0.161358
   6 O :   -0.485087
   7 O :   -0.436768
   8 H :    0.038939
   9 H :    0.039688
  10 H :    0.026632
Sum of atomic charges:    0.0000000

LOEWDIN ATOMIC CHARGES
----------------------
   0 C :   -0.037878
   1 C :   -0.147694
   2 S :    1.155219
   3 H :    0.023587
   4 H :    0.032299
   5 F :   -0.108918
   6 O :   -0.531783
   7 O :   -0.482203
   8 H :    0.031547
   9 H :    0.032749
  10 H :    0.033073

  Mayer bond orders larger than 0.100000
B(  0-C ,  1-C ) :   1.0820 B(  0-C ,  8-H ) :   0.9681 B(  0-C ,  9-H ) :   0.9715
B(  0-C , 10-H ) :   0.9608 B(  1-C ,  2-S ) :   0.9198 B(  1-C ,  3-H ) :   0.9292
B(  1-C ,  4-H ) :   0.9321 B(  2-S ,  5-F ) :   1.0315 B(  2-S ,  6-O ) :   1.7262
B(  2-S ,  7-O ) :   1.7719

Dispersion correction           -0.015951969
FINAL SINGLE POINT ENERGY      -727.023976031962

DIPOLE MOMENT
-------------
                                X             Y             Z
Electronic contribution:     -8.37880      -5.20511      -3.26073
Nuclear contribution   :      8.31000       6.74109       2.87442
                        -----------------------------------------
Total Dipole Moment    :     -0.06880       1.53598      -0.38631
                        -----------------------------------------
Magnitude (a.u.)       :      1.58530
Magnitude (Debye)      :      4.02952

Rotational constants in cm-1:     0.158705     0.080192     0.078179
Rotational constants in MHz :  4757.865601  2404.095079  2343.752507

                             ****ORCA TERMINATED NORMALLY****
TOTAL RUN TIME: 0 days 0 hours 0 minutes 13 seconds 515 msec
