                         Program Version 5.0.0 -  RELEASE  -
|  1> !B3LYP D3BJ RIJCOSX def2-SVP def2/J TightSCF
|  2> *xyz 0 1
|  3> C          1.36401        0.46874       -2.81376
|  4> C          0.42884        0.32140       -1.65531
|  5> C          0.96805        1.63064       -3.71575
|  6> H          0.74858       -0.40054       -1.00134
|  7> H         -0.46105        0.02333       -2.07773
|  8> H          0.31026        1.20137       -1.13495
|  9> H          1.29485       -0.46874       -3.36468
| 10> H          2.37622        0.59740       -2.43149
| 11> H          1.65923        1.70213       -4.52942
| 12> H          0.98421        2.54058       -3.15304
| 13> H         -0.01744        1.46536       -4.09838
| 14> *
| 15> %MaxCore 64000
| 16>
| 17> %pal nprocs 4
| 18> end
| 19>
| 20> %scf
| 21>   MaxIter 150
| 22> end
| 23>
| 24>
| 25>                          ****END OF INPUT****

CARTESIAN COORDINATES (ANGSTROEM)
---------------------------------
  C      1.364010    0.468740   -2.813760
  C      0.428840    0.321400   -1.655310
  C      0.968050    1.630640   -3.715750
  H      0.748580   -0.400540   -1.001340
  H     -0.461050    0.023330   -2.077730
  H      0.310260    1.201370   -1.134950
  H      1.294850   -0.468740   -3.364680
  H      2.376220    0.597400   -2.431490
  H      1.659230    1.702130   -4.529420
  H      0.984210    2.540580   -3.153040
  H     -0.017440    1.465360   -4.098380

 Total Charge           Charge          ....    0
 Multiplicity           Mult            ....    1
 Number of Electrons    NEL             ....   26
 Basis Dimension        Dim             ....   82

ORBITAL ENERGIES
----------------

  NO   OCC          E(Eh)            E(eV)
   0   2.0000     -10.167933      -276.6835
   1   2.0000     -10.161696      -276.5138
   2   2.0000     -10.145897      -276.0839
   3   2.0000      -0.780862       -21.2483
   4   2.0000      -0.680188       -18.5089
   5   2.0000      -0.575422       -15.6580
   6   2.0000      -0.467038       -12.7088
   7   2.0000      -0.441118       -12.0034
   8   2.0000      -0.399729       -10.8772
   9   2.0000      -0.387904       -10.5554
  10   2.0000      -0.335239        -9.1223
  11   2.0000      -0.330599        -8.9961
  12   2.0000      -0.326866        -8.8945
  13   0.0000       0.063844         1.7373
  14   0.0000       0.113003         3.0750
  15   0.0000       0.114037         3.1031
  16   0.0000       0.118875         3.2348
  17   0.0000       0.146601         3.9892

MULLIKEN ATOMIC CHARGES
-----------------------
   0 C :   -0.051454
   1 C :    0.094122
   2 C :    0.034885
   3 H :   -0.019724
   4 H :   -0.021478
   5 H :   -0.019727
   6 H :   -0.006387
   7 H :   -0.004925
   8 H :    0.000416
   9 H :   -0.001812
  10 H :   -0.003917
Sum of atomic charges:    0.0000000

LOEWDIN ATOMIC CHARGES
----------------------
   0 C :   -0.031696
   1 C :   -0.035479
   2 C :   -0.045005
   3 H :    0.011429
   4 H :    0.012117
   5 H :    0.008870
   6 H :    0.016153
   7 H :    0.013094
   8 H :    0.017990
   9 H :    0.016343
  10 H :    0.016184

  Mayer bond orders larger than 0.100000
B(  0-C ,  1-C ) :   1.1106 B(  0-C ,  2-C ) :   1.1105 B(  0-C ,  6-H ) :   0.9529
B(  0-C ,  7-H ) :   0.9534 B(  1-C ,  3-H ) :   0.9596 B(  1-C ,  4-H ) :   0.9691
B(  1-C ,  5-H ) :   0.9689 B(  2-C ,  8-H ) :   0.9670 B(  2-C ,  9-H ) :   0.9722
B(  2-C , 10-H ) :   0.9725

Dispersion correction           -0.010129921
FINAL SINGLE POINT ENERGY      -118.954921574177

DIPOLE MOMENT
-------------
                                X             Y             Z
Electronic contribution:      0.35640      -0.17515      -0.01850
Nuclear contribution   :     -0.35842       0.15752       0.02695
                        -----------------------------------------
Total Dipole Moment    :     -0.00202      -0.01763       0.00845
                        -----------------------------------------
Magnitude (a.u.)       :      0.01965
Magnitude (Debye)      :      0.04996

Rotational constants in cm-1:     1.019891     0.293671     0.260247
Rotational constants in MHz : 30575.551403  8804.039097  7802.009261

                             ****ORCA TERMINATED NORMALLY****
TOTAL RUN TIME: 0 days 0 hours 0 minutes 9 seconds 232 msec
