                         Program Version 5.0.0 -  RELEASE  -
|  1> !B3LYP D3BJ RIJCOSX def2-SVP def2/J TightSCF
|  2> *xyz 0 1
|  3> C          0.96805        1.63064       -3.71575
|  4> C         -0.50835        1.72268       -4.12430
|  5> S         -1.32861        0.14674       -4.43578
|  6> H         -0.59151        2.29496       -5.04722
|  7> H         -1.11411        2.23561       -3.37436
|  8> O         -2.57135        0.47573       -5.06834
|  9> F         -1.51496       -0.40051       -3.06342
| 10> O         -0.37793       -0.62756       -5.20114
| 11> H          1.51840        1.12197       -4.47946
| 12> H          1.05062        1.08971       -2.79625
| 13> H          1.36450        2.61606       -3.58668
| 14> *
| 15> %MaxCore 64000
| 16>
| 17> %pal nprocs 4
| 18> end
| 19>
| 20> %scf
| 21>   MaxIter 150
| 22> end
| 23>
| 24>
| 25>                          ****END OF INPUT****

CARTESIAN COORDINATES (ANGSTROEM)
---------------------------------
  C      0.968050    1.630640   -3.715750
  C     -0.508350    1.722680   -4.124300
  S     -1.328610    0.146740   -4.435780
  H     -0.591510    2.294960   -5.047220
  H     -1.114110    2.235610   -3.374360
  O     -2.571350    0.475730   -5.068340
  F     -1.514960   -0.400510   -3.063420
  O     -0.377930   -0.627560   -5.201140
  H      1.518400    1.121970   -4.479460
  H      1.050620    1.089710   -2.796250
  H      1.364500    2.616060   -3.586680

 Total Charge           Charge          ....    0
 Multiplicity           Mult            ....    1
 Number of Electrons    NEL             ....   58
 Basis Dimension        Dim             ....  113

ORBITAL ENERGIES
----------------

  NO   OCC          E(Eh)            E(eV)
   0   2.0000     -89.111581     -2424.8494
   1   2.0000     -24.773954      -674.1336
   2   2.0000     -19.136865      -520.7406
   3   2.0000     -19.133876      -520.6592
   4   2.0000     -10.235514      -278.5225
   5   2.0000     -10.202082      -277.6128
   6   2.0000      -8.174484      -222.4390
   7   2.0000      -6.146652      -167.2589
   8   2.0000      -6.140732      -167.0978
   9   2.0000      -6.139348      -167.0602
  10   2.0000      -1.326914       -36.1072
  11   2.0000      -1.108703       -30.1693
  12   2.0000      -1.013704       -27.5843
  13   2.0000      -0.810326       -22.0501
  14   2.0000      -0.710387       -19.3306
  15   2.0000      -0.661395       -17.9975
  16   2.0000      -0.570157       -15.5148
  17   2.0000      -0.550774       -14.9873
  18   2.0000      -0.535866       -14.5816
  19   2.0000      -0.487299       -13.2601
  20   2.0000      -0.471220       -12.8226
  21   2.0000      -0.447136       -12.1672
  22   2.0000      -0.428224       -11.6526
  23   2.0000      -0.401764       -10.9326
  24   2.0000      -0.397038       -10.8039
  25   2.0000      -0.375902       -10.2288
  26   2.0000      -0.331363        -9.0169
  27   2.0000      -0.321934        -8.7603
  28   2.0000      -0.310720        -8.4551
  29   0.0000       0.032204         0.8763
  30   0.0000       0.058921         1.6033
  31   0.0000       0.079434         2.1615
  32   0.0000       0.090989         2.4759
  33   0.0000       0.097595         2.6557

MULLIKEN ATOMIC CHARGES
-----------------------
   0 C :    0.036304
   1 C :   -0.119507
   2 S :    0.958045
   3 H :    0.072758
   4 H :    0.050505
   5 O :   -0.425561
   6 F :   -0.220040
   7 O :   -0.441499
   8 H :    0.042759
   9 H :    0.020192
  10 H :    0.026044
Sum of atomic charges:   -0.0000000

LOEWDIN ATOMIC CHARGES
----------------------
   0 C :   -0.050662
   1 C :   -0.149459
   2 S :    1.164255
   3 H :    0.044685
   4 H :    0.029572
   5 O :   -0.472920
   6 F :   -0.167759
   7 O :   -0.485332
   8 H :    0.031390
   9 H :    0.024004
  10 H :    0.032227

  Mayer bond orders larger than 0.100000
B(  0-C ,  1-C ) :   1.0609 B(  0-C ,  8-H ) :   0.9683 B(  0-C ,  9-H ) :   0.9733
B(  0-C , 10-H ) :   0.9597 B(  1-C ,  2-S ) :   0.9169 B(  1-C ,  3-H ) :   0.9387
B(  1-C ,  4-H ) :   0.9344 B(  2-S ,  5-O ) :   1.7994 B(  2-S ,  6-F ) :   0.9637
B(  2-S ,  7-O ) :   1.7783

Dispersion correction           -0.015883597
FINAL SINGLE POINT ENERGY      -727.050095134145

DIPOLE MOMENT
-------------
                                X             Y             Z
Electronic contribution:     -6.59999      -6.69083       0.14531
Nuclear contribution   :      7.20921       7.65416       0.78523
                        -----------------------------------------
Total Dipole Moment    :      0.60922       0.96333       0.93055
                        -----------------------------------------
Magnitude (a.u.)       :      1.47142
Magnitude (Debye)      :      3.74005

Rotational constants in cm-1:     0.153780     0.081282     0.079816
Rotational constants in MHz :  4610.199589  2436.778679  2392.820729

                             ****ORCA TERMINATED NORMALLY****
TOTAL RUN TIME: 0 days 0 hours 0 minutes 13 seconds 259 msec
