                         Program Version 5.0.0 -  RELEASE  -
|  1> !B3LYP D3BJ RIJCOSX def2-SVP def2/J TightSCF
|  2> *xyz 0 1
|  3> C          0.96805        1.63064       -3.71575
|  4> C         -0.50835        1.72268       -4.12430
|  5> S         -1.32861        0.14674       -4.43578
|  6> H         -0.59151        2.29496       -5.04722
|  7> H         -1.11411        2.23561       -3.37436
|  8> O         -2.57135        0.47573       -5.06834
|  9> O         -1.51496       -0.40051       -3.06342
| 10> F         -0.37793       -0.62756       -5.20114
| 11> H          1.51840        1.12197       -4.47946
| 12> H          1.05062        1.08971       -2.79625
| 13> H          1.36450        2.61606       -3.58668
| 14> *
| 15> %MaxCore 64000
| 16>
| 17> %pal nprocs 4
| 18> end
| 19>
| 20> %scf
| 21>   MaxIter 150
| 22> end
| 23>
| 24>
| 25>                          ****END OF INPUT****

CARTESIAN COORDINATES (ANGSTROEM)
---------------------------------
  C      0.968050    1.630640   -3.715750
  C     -0.508350    1.722680   -4.124300
  S     -1.328610    0.146740   -4.435780
  H     -0.591510    2.294960   -5.047220
  H     -1.114110    2.235610   -3.374360
  O     -2.571350    0.475730   -5.068340
  O     -1.514960   -0.400510   -3.063420
  F     -0.377930   -0.627560   -5.201140
  H      1.518400    1.121970   -4.479460
  H      1.050620    1.089710   -2.796250
  H      1.364500    2.616060   -3.586680

 Total Charge           Charge          ....    0
 Multiplicity           Mult            ....    1
 Number of Electrons    NEL             ....   58
 Basis Dimension        Dim             ....  113

ORBITAL ENERGIES
----------------

  NO   OCC          E(Eh)            E(eV)
   0   2.0000     -89.112507     -2424.8746
   1   2.0000     -24.797408      -674.7718
   2   2.0000     -19.136754      -520.7375
   3   2.0000     -19.115868      -520.1692
   4   2.0000     -10.236175      -278.5405
   5   2.0000     -10.205723      -277.7118
   6   2.0000      -8.175618      -222.4699
   7   2.0000      -6.148106      -167.2985
   8   2.0000      -6.141508      -167.1189
   9   2.0000      -6.140239      -167.0844
  10   2.0000      -1.364880       -37.1403
  11   2.0000      -1.098705       -29.8973
  12   2.0000      -0.988170       -26.8895
  13   2.0000      -0.812497       -22.1092
  14   2.0000      -0.723116       -19.6770
  15   2.0000      -0.671880       -18.2828
  16   2.0000      -0.590941       -16.0803
  17   2.0000      -0.577261       -15.7081
  18   2.0000      -0.535471       -14.5709
  19   2.0000      -0.488737       -13.2992
  20   2.0000      -0.470112       -12.7924
  21   2.0000      -0.443727       -12.0744
  22   2.0000      -0.428436       -11.6583
  23   2.0000      -0.407408       -11.0861
  24   2.0000      -0.392117       -10.6700
  25   2.0000      -0.372417       -10.1340
  26   2.0000      -0.324711        -8.8358
  27   2.0000      -0.304732        -8.2922
  28   2.0000      -0.292245        -7.9524
  29   0.0000       0.026782         0.7288
  30   0.0000       0.060550         1.6477
  31   0.0000       0.074558         2.0288
  32   0.0000       0.093893         2.5549
  33   0.0000       0.098461         2.6793

MULLIKEN ATOMIC CHARGES
-----------------------
   0 C :    0.028162
   1 C :   -0.110543
   2 S :    0.946685
   3 H :    0.048418
   4 H :    0.080683
   5 O :   -0.419462
   6 O :   -0.485175
   7 F :   -0.176332
   8 H :    0.018346
   9 H :    0.038449
  10 H :    0.030767
Sum of atomic charges:   -0.0000000

LOEWDIN ATOMIC CHARGES
----------------------
   0 C :   -0.053616
   1 C :   -0.144536
   2 S :    1.157499
   3 H :    0.027948
   4 H :    0.049066
   5 O :   -0.468294
   6 O :   -0.531973
   7 F :   -0.121897
   8 H :    0.021775
   9 H :    0.029851
  10 H :    0.034176

  Mayer bond orders larger than 0.100000
B(  0-C ,  1-C ) :   1.0583 B(  0-C ,  8-H ) :   0.9724 B(  0-C ,  9-H ) :   0.9704
B(  0-C , 10-H ) :   0.9607 B(  1-C ,  2-S ) :   0.9224 B(  1-C ,  3-H ) :   0.9342
B(  1-C ,  4-H ) :   0.9377 B(  2-S ,  5-O ) :   1.7947 B(  2-S ,  6-O ) :   1.7269
B(  2-S ,  7-F ) :   1.0109

Dispersion correction           -0.015852589
FINAL SINGLE POINT ENERGY      -727.029057231903

DIPOLE MOMENT
-------------
                                X             Y             Z
Electronic contribution:     -4.67422      -7.05519      -3.46777
Nuclear contribution   :      6.02439       7.89075       3.01280
                        -----------------------------------------
Total Dipole Moment    :      1.35017       0.83556      -0.45496
                        -----------------------------------------
Magnitude (a.u.)       :      1.65170
Magnitude (Debye)      :      4.19829

Rotational constants in cm-1:     0.153652     0.082400     0.079295
Rotational constants in MHz :  4606.361242  2470.285703  2377.214112

                             ****ORCA TERMINATED NORMALLY****
TOTAL RUN TIME: 0 days 0 hours 0 minutes 13 seconds 415 msec
