                         Program Version 5.0.0 -  RELEASE  -
|  1> !B3LYP D3BJ RIJCOSX def2-TZVP def2/J TightSCF xyzfile
|  2>
|  3> *xyzfile 0 1 D2.xyz
|  4>
|  5> %MaxCore 64000
|  6>
|  7> %pal nprocs 18
|  8> end
|  9>
| 10> %scf
| 11>   MaxIter 150
| 12> end
| 13>
| 14>
| 15>                          ****END OF INPUT****

CARTESIAN COORDINATES (ANGSTROEM)
---------------------------------
  C      1.364014    0.468742   -2.813764
  C      0.428844    0.321402   -1.655312
  C      0.968045    1.630639   -3.715749
  C     -0.508347    1.722679   -4.124300
  S     -1.328608    0.146737   -4.435781
  H     -0.591511    2.294958   -5.047219
  H     -1.114114    2.235610   -3.374362
  H      0.748578   -0.400542   -1.001345
  H     -0.461053    0.023332   -2.077731
  H      0.310258    1.201375   -1.134948
  O     -2.571347    0.475733   -5.068341
  F     -1.514963   -0.400512   -3.063420
  H      1.294847   -0.468742   -3.364684
  H      2.376216    0.597400   -2.431495
  H      1.578688    1.520652   -4.612733
  H      1.266653    2.575988   -3.250448
  O     -0.377928   -0.627558   -5.201141

 Total Charge           Charge          ....    0
 Multiplicity           Mult            ....    1
 Number of Electrons    NEL             ....   74
 Basis Dimension        Dim             ....  308

ORBITAL ENERGIES
----------------

  NO   OCC          E(Eh)            E(eV)
   0   2.0000     -89.098711     -2424.4992
   1   2.0000     -24.785102      -674.4369
   2   2.0000     -19.143447      -520.9197
   3   2.0000     -19.140482      -520.8390
   4   2.0000     -10.225782      -278.2577
   5   2.0000     -10.189960      -277.2829
   6   2.0000     -10.166816      -276.6531
   7   2.0000     -10.125799      -275.5370
   8   2.0000      -8.142884      -221.5791
   9   2.0000      -6.109896      -166.2587
  10   2.0000      -6.103262      -166.0782
  11   2.0000      -6.102790      -166.0654
  12   2.0000      -1.360621       -37.0244
  13   2.0000      -1.121855       -30.5272
  14   2.0000      -1.031267       -28.0622
  15   2.0000      -0.836103       -22.7515
  16   2.0000      -0.778705       -21.1897
  17   2.0000      -0.714790       -19.4504
  18   2.0000      -0.693494       -18.8709
  19   2.0000      -0.599253       -16.3065
  20   2.0000      -0.587917       -15.9980
  21   2.0000      -0.570538       -15.5251
  22   2.0000      -0.548793       -14.9334
  23   2.0000      -0.497627       -13.5411
  24   2.0000      -0.481252       -13.0955
  25   2.0000      -0.475050       -12.9268
  26   2.0000      -0.460351       -12.5268
  27   2.0000      -0.431240       -11.7346
  28   2.0000      -0.413645       -11.2559
  29   2.0000      -0.403831       -10.9888
  30   2.0000      -0.394903       -10.7458
  31   2.0000      -0.357313        -9.7230
  32   2.0000      -0.351077        -9.5533
  33   2.0000      -0.341184        -9.2841
  34   2.0000      -0.334801        -9.1104
  35   2.0000      -0.328184        -8.9303
  36   2.0000      -0.318892        -8.6775
  37   0.0000       0.014862         0.4044
  38   0.0000       0.031089         0.8460
  39   0.0000       0.046860         1.2751
  40   0.0000       0.056153         1.5280
  41   0.0000       0.072478         1.9722

MULLIKEN ATOMIC CHARGES
-----------------------
   0 C :   -0.208263
   1 C :   -0.356031
   2 C :   -0.152279
   3 C :   -0.281748
   4 S :    0.873702
   5 H :    0.158543
   6 H :    0.139137
   7 H :    0.109910
   8 H :    0.127118
   9 H :    0.092700
  10 O :   -0.408299
  11 F :   -0.115075
  12 H :    0.128536
  13 H :    0.092150
  14 H :    0.109194
  15 H :    0.105224
  16 O :   -0.414518
Sum of atomic charges:   -0.0000000

LOEWDIN ATOMIC CHARGES
----------------------
   0 C :   -0.301351
   1 C :   -0.311699
   2 C :   -0.277277
   3 C :   -0.358026
   4 S :    0.553978
   5 H :    0.148322
   6 H :    0.137638
   7 H :    0.106775
   8 H :    0.085431
   9 H :    0.103823
  10 O :   -0.252950
  11 F :    0.068885
  12 H :    0.138714
  13 H :    0.133095
  14 H :    0.143539
  15 H :    0.141147
  16 O :   -0.260042

  Mayer bond orders larger than 0.100000
B(  0-C ,  1-C ) :   0.9392 B(  0-C ,  2-C ) :   0.9599 B(  0-C , 12-H ) :   0.9773
B(  0-C , 13-H ) :   0.9688 B(  1-C ,  7-H ) :   0.9822 B(  1-C ,  8-H ) :   0.9789
B(  1-C ,  9-H ) :   0.9791 B(  2-C ,  3-C ) :   0.9433 B(  2-C , 14-H ) :   0.9685
B(  2-C , 15-H ) :   0.9534 B(  3-C ,  4-S ) :   0.9155 B(  3-C ,  5-H ) :   0.9480
B(  3-C ,  6-H ) :   0.9439 B(  4-S , 10-O ) :   1.9606 B(  4-S , 11-F ) :   1.0488
B(  4-S , 16-O ) :   1.8959

Dispersion correction           -0.029784252
FINAL SINGLE POINT ENERGY      -806.217762394435

DIPOLE MOMENT
-------------
                                X             Y             Z
Electronic contribution:    -10.52339      -5.58103      -6.17160
Nuclear contribution   :     11.08796       6.45140       7.05645
                        -----------------------------------------
Total Dipole Moment    :      0.56458       0.87037       0.88485
                        -----------------------------------------
Magnitude (a.u.)       :      1.36354
Magnitude (Debye)      :      3.46585

Rotational constants in cm-1:     0.100113     0.046890     0.041843
Rotational constants in MHz :  3001.313402  1405.711946  1254.411771

                             ****ORCA TERMINATED NORMALLY****
TOTAL RUN TIME: 0 days 0 hours 0 minutes 23 seconds 958 msec
