                         Program Version 5.0.0 -  RELEASE  -
|  1> !LC-PBE RIJCOSX def2-SVP def2/J TightSCF
|  2> *xyz -1 1
|  3> C          0.70466        1.44313       -4.50363
|  4> C          1.72854        1.42432       -5.63944
|  5> H          2.64672        1.95379       -5.38105
|  6> H          1.29992        1.93061       -6.50361
|  7> S          2.25263       -0.18811       -6.27184
|  8> O          3.56261       -0.44446       -5.63155
|  9> O          2.34494       -0.03374       -7.69650
| 10> O          1.26606       -1.15918       -5.80536
| 11> H         -0.17385        0.91270       -4.80656
| 12> H          0.44778        2.45562       -4.27173
| 13> H          1.12367        0.97423       -3.63791
| 14> *
| 15>
| 16> %MaxCore 64000
| 17>
| 18> %pal nprocs 4
| 19> end
| 20>
| 21> %scf
| 22>   MaxIter 150
| 23> end
| 24>
| 25>
| 26>                          ****END OF INPUT****

CARTESIAN COORDINATES (ANGSTROEM)
---------------------------------
  C      0.704660    1.443130   -4.503630
  C      1.728540    1.424320   -5.639440
  H      2.646720    1.953790   -5.381050
  H      1.299920    1.930610   -6.503610
  S      2.252630   -0.188110   -6.271840
  O      3.562610   -0.444460   -5.631550
  O      2.344940   -0.033740   -7.696500
  O      1.266060   -1.159180   -5.805360
  H     -0.173850    0.912700   -4.806560
  H      0.447780    2.455620   -4.271730
  H      1.123670    0.974230   -3.637910

 Total Charge           Charge          ....   -1
 Multiplicity           Mult            ....    1
 Number of Electrons    NEL             ....   58
 Basis Dimension        Dim             ....  113

ORBITAL ENERGIES
----------------

  NO   OCC          E(Eh)            E(eV)
   0   2.0000     -88.274462     -2402.0702
   1   2.0000     -18.740713      -509.9607
   2   2.0000     -18.733692      -509.7697
   3   2.0000     -18.721374      -509.4345
   4   2.0000      -9.981667      -271.6150
   5   2.0000      -9.976885      -271.4848
   6   2.0000      -7.904354      -215.0884
   7   2.0000      -5.926376      -161.2649
   8   2.0000      -5.925953      -161.2534
   9   2.0000      -5.925762      -161.2482
  10   2.0000      -1.080896       -29.4127
  11   2.0000      -0.924421       -25.1548
  12   2.0000      -0.899017       -24.4635
  13   2.0000      -0.799105       -21.7448
  14   2.0000      -0.662093       -18.0165
  15   2.0000      -0.516012       -14.0414
  16   2.0000      -0.458882       -12.4868
  17   2.0000      -0.446874       -12.1600
  18   2.0000      -0.408587       -11.1182
  19   2.0000      -0.386229       -10.5098
  20   2.0000      -0.381979       -10.3942
  21   2.0000      -0.353833        -9.6283
  22   2.0000      -0.343404        -9.3445
  23   2.0000      -0.262638        -7.1468
  24   2.0000      -0.260674        -7.0933
  25   2.0000      -0.223714        -6.0876
  26   2.0000      -0.214365        -5.8332
  27   2.0000      -0.204620        -5.5680
  28   2.0000      -0.167152        -4.5484
  29   0.0000       0.289494         7.8775
  30   0.0000       0.348142         9.4734
  31   0.0000       0.350506         9.5378
  32   0.0000       0.358291         9.7496
  33   0.0000       0.378172        10.2906

MULLIKEN ATOMIC CHARGES
-----------------------
   0 C :   -0.105978
   1 C :   -0.226027
   2 H :    0.062903
   3 H :    0.054404
   4 S :    0.827926
   5 O :   -0.611000
   6 O :   -0.558312
   7 O :   -0.577651
   8 H :    0.059996
   9 H :    0.016421
  10 H :    0.057319
Sum of atomic charges:   -1.0000000

LOEWDIN ATOMIC CHARGES
----------------------
   0 C :   -0.104831
   1 C :   -0.217923
   2 H :    0.025815
   3 H :    0.021348
   4 S :    1.086076
   5 O :   -0.657691
   6 O :   -0.603538
   7 O :   -0.627411
   8 H :    0.031397
   9 H :    0.015494
  10 H :    0.031263

  Mayer bond orders larger than 0.100000
B(  0-C ,  1-C ) :   1.0529 B(  0-C ,  8-H ) :   0.9704 B(  0-C ,  9-H ) :   0.9714
B(  0-C , 10-H ) :   0.9739 B(  1-C ,  2-H ) :   0.9529 B(  1-C ,  3-H ) :   0.9547
B(  1-C ,  4-S ) :   0.8885 B(  4-S ,  5-O ) :   1.6181 B(  4-S ,  6-O ) :   1.6703
B(  4-S ,  7-O ) :   1.6530

FINAL SINGLE POINT ENERGY      -701.513619495798

DIPOLE MOMENT
-------------
                                X             Y             Z
Electronic contribution:      3.64643      -5.61825      -4.31250
Nuclear contribution   :     -4.50297       7.24642       5.01775
                        -----------------------------------------
Total Dipole Moment    :     -0.85654       1.62816       0.70526
                        -----------------------------------------
Magnitude (a.u.)       :      1.97027
Magnitude (Debye)      :      5.00803

Rotational constants in cm-1:     0.162459     0.081286     0.079601
Rotational constants in MHz :  4870.394399  2436.893583  2386.374948

                             ****ORCA TERMINATED NORMALLY****
TOTAL RUN TIME: 0 days 0 hours 0 minutes 14 seconds 104 msec
