                         Program Version 5.0.0 -  RELEASE  -
|  1> !LC-PBE RIJCOSX def2-SVP def2/J TightSCF
|  2> *xyz 1 1
|  3> C          2.91632       -1.24259       -1.54313
|  4> C          3.46659       -1.59097       -2.88908
|  5> N          4.65227       -1.14316       -3.25969
|  6> N          2.75226       -2.29204       -3.72803
|  7> H          1.77836       -2.48960       -3.51274
|  8> H          2.94861       -2.20854       -4.71681
|  9> H          5.14672       -0.51251       -2.63385
| 10> H          4.78303       -1.00720       -4.25350
| 11> C          2.80408        0.29070       -1.35924
| 12> H          1.94047       -1.71653       -1.44116
| 13> H          3.55857       -1.66343       -0.76637
| 14> H          2.17393        0.69633       -2.12297
| 15> H          3.77707        0.73043       -1.42880
| 16> H          2.38369        0.50492       -0.39889
| 17> *
| 18>
| 19> %MaxCore 64000
| 20>
| 21> %pal nprocs 4
| 22> end
| 23>
| 24> %scf
| 25>   MaxIter 150
| 26> end
| 27>
| 28>
| 29>                          ****END OF INPUT****

CARTESIAN COORDINATES (ANGSTROEM)
---------------------------------
  C      2.916320   -1.242590   -1.543130
  C      3.466590   -1.590970   -2.889080
  N      4.652270   -1.143160   -3.259690
  N      2.752260   -2.292040   -3.728030
  H      1.778360   -2.489600   -3.512740
  H      2.948610   -2.208540   -4.716810
  H      5.146720   -0.512510   -2.633850
  H      4.783030   -1.007200   -4.253500
  C      2.804080    0.290700   -1.359240
  H      1.940470   -1.716530   -1.441160
  H      3.558570   -1.663430   -0.766370
  H      2.173930    0.696330   -2.122970
  H      3.777070    0.730430   -1.428800
  H      2.383690    0.504920   -0.398890

 Total Charge           Charge          ....    1
 Multiplicity           Mult            ....    1
 Number of Electrons    NEL             ....   40
 Basis Dimension        Dim             ....  115

ORBITAL ENERGIES
----------------

  NO   OCC          E(Eh)            E(eV)
   0   2.0000     -14.478578      -393.9821
   1   2.0000     -14.473076      -393.8324
   2   2.0000     -10.460191      -284.6363
   3   2.0000     -10.329271      -281.0738
   4   2.0000     -10.289037      -279.9789
   5   2.0000      -1.383877       -37.6572
   6   2.0000      -1.273453       -34.6524
   7   2.0000      -1.144712       -31.1492
   8   2.0000      -1.023190       -27.8424
   9   2.0000      -0.974104       -26.5067
  10   2.0000      -0.920754       -25.0550
  11   2.0000      -0.902576       -24.5603
  12   2.0000      -0.840630       -22.8747
  13   2.0000      -0.817100       -22.2344
  14   2.0000      -0.769131       -20.9291
  15   2.0000      -0.744354       -20.2549
  16   2.0000      -0.688184       -18.7264
  17   2.0000      -0.676314       -18.4034
  18   2.0000      -0.661435       -17.9986
  19   2.0000      -0.629484       -17.1291
  20   0.0000      -0.121774        -3.3136
  21   0.0000      -0.049202        -1.3389
  22   0.0000      -0.006596        -0.1795
  23   0.0000      -0.003707        -0.1009
  24   0.0000       0.032131         0.8743

MULLIKEN ATOMIC CHARGES
-----------------------
   0 C :   -0.123896
   1 C :   -0.029670
   2 N :   -0.058074
   3 N :   -0.047727
   4 H :    0.214655
   5 H :    0.199823
   6 H :    0.210290
   7 H :    0.202994
   8 C :   -0.143658
   9 H :    0.107575
  10 H :    0.154878
  11 H :    0.098302
  12 H :    0.083404
  13 H :    0.131106
Sum of atomic charges:    1.0000000

LOEWDIN ATOMIC CHARGES
----------------------
   0 C :   -0.062289
   1 C :    0.160099
   2 N :    0.072803
   3 N :    0.087162
   4 H :    0.130559
   5 H :    0.120809
   6 H :    0.126044
   7 H :    0.119949
   8 C :   -0.058286
   9 H :    0.064068
  10 H :    0.083101
  11 H :    0.049370
  12 H :    0.039679
  13 H :    0.066932

  Mayer bond orders larger than 0.100000
B(  0-C ,  1-C ) :   1.0098 B(  0-C ,  8-C ) :   1.0422 B(  0-C ,  9-H ) :   0.9356
B(  0-C , 10-H ) :   0.9229 B(  1-C ,  2-N ) :   1.4877 B(  1-C ,  3-N ) :   1.5284
B(  2-N ,  6-H ) :   0.9213 B(  2-N ,  7-H ) :   0.9269 B(  3-N ,  4-H ) :   0.9157
B(  3-N ,  5-H ) :   0.9279 B(  8-C , 11-H ) :   0.9713 B(  8-C , 12-H ) :   0.9737
B(  8-C , 13-H ) :   0.9622

FINAL SINGLE POINT ENERGY      -228.113973757785

DIPOLE MOMENT
-------------
                                X             Y             Z
Electronic contribution:      1.30458      -2.84068      -2.83010
Nuclear contribution   :     -1.30215       2.77761       1.84194
                        -----------------------------------------
Total Dipole Moment    :      0.00244      -0.06307      -0.98817
                        -----------------------------------------
Magnitude (a.u.)       :      0.99018
Magnitude (Debye)      :      2.51684

Rotational constants in cm-1:     0.267442     0.127541     0.099068
Rotational constants in MHz :  8017.703171  3823.592522  2969.992494

                             ****ORCA TERMINATED NORMALLY****
TOTAL RUN TIME: 0 days 0 hours 0 minutes 15 seconds 515 msec
