                         Program Version 5.0.0 -  RELEASE  -
|  1> !LC-PBE RIJCOSX def2-TZVP def2/J TightSCF xyzfile
|  2>
|  3> *xyzfile 0 1 B.xyz
|  4>
|  5> %MaxCore 64000
|  6>
|  7> %pal nprocs 18
|  8> end
|  9>
| 10> %scf
| 11>   MaxIter 150
| 12> end
| 13>
| 14>
| 15>                          ****END OF INPUT****

CARTESIAN COORDINATES (ANGSTROEM)
---------------------------------
  C      2.916324   -1.242589   -1.543125
  C      0.704661    1.443129   -4.503630
  C      1.728539    1.424320   -5.639443
  H      2.646718    1.953794   -5.381054
  H      1.299916    1.930613   -6.503614
  S      2.252625   -0.188115   -6.271840
  C      3.466585   -1.590971   -2.889082
  N      4.652275   -1.143164   -3.259692
  N      2.752264   -2.292043   -3.728029
  H      1.778364   -2.489604   -3.512738
  H      2.948612   -2.208544   -4.716813
  H      5.146723   -0.512508   -2.633852
  H      4.783030   -1.007203   -4.253498
  O      3.562607   -0.444464   -5.631552
  O      2.344944   -0.033742   -7.696501
  C      2.804084    0.290698   -1.359243
  C      1.052550    0.695659   -3.214915
  H     -0.232483    1.032925   -4.884449
  H      0.511700    2.495794   -4.267966
  C      2.388380    1.093669   -2.597108
  H      3.763425    0.674718   -0.999889
  H      2.094788    0.461222   -0.545756
  O      1.266058   -1.159177   -5.805365
  H      3.167316    1.013242   -3.359430
  H      2.357690    2.149375   -2.310997
  H      1.039284   -0.368429   -3.449329
  H      0.250787    0.865605   -2.488283
  H      1.940472   -1.716529   -1.441161
  H      3.558569   -1.663433   -0.766371

 Total Charge           Charge          ....    0
 Multiplicity           Mult            ....    1
 Number of Electrons    NEL             ....  112
 Basis Dimension        Dim             ....  505

ORBITAL ENERGIES
----------------

  NO   OCC          E(Eh)            E(eV)
   0   2.0000     -88.424795     -2406.1610
   1   2.0000     -18.917390      -514.7684
   2   2.0000     -18.909237      -514.5465
   3   2.0000     -18.899346      -514.2773
   4   2.0000     -14.287072      -388.7710
   5   2.0000     -14.287046      -388.7703
   6   2.0000     -10.285202      -279.8746
   7   2.0000     -10.182705      -277.0855
   8   2.0000     -10.161171      -276.4995
   9   2.0000     -10.131488      -275.6918
  10   2.0000     -10.118377      -275.3350
  11   2.0000     -10.114679      -275.2344
  12   2.0000     -10.113506      -275.2025
  13   2.0000      -8.035697      -218.6624
  14   2.0000      -6.052292      -164.6912
  15   2.0000      -6.051885      -164.6802
  16   2.0000      -6.050202      -164.6344
  17   2.0000      -1.256267       -34.1848
  18   2.0000      -1.221307       -33.2335
  19   2.0000      -1.113127       -30.2897
  20   2.0000      -1.104057       -30.0429
  21   2.0000      -1.100596       -29.9488
  22   2.0000      -1.030564       -28.0431
  23   2.0000      -0.981432       -26.7061
  24   2.0000      -0.929148       -25.2834
  25   2.0000      -0.870403       -23.6849
  26   2.0000      -0.833081       -22.6693
  27   2.0000      -0.799440       -21.7539
  28   2.0000      -0.756853       -20.5950
  29   2.0000      -0.747696       -20.3459
  30   2.0000      -0.735640       -20.0178
  31   2.0000      -0.689170       -18.7533
  32   2.0000      -0.669149       -18.2085
  33   2.0000      -0.665574       -18.1112
  34   2.0000      -0.644758       -17.5448
  35   2.0000      -0.618692       -16.8355
  36   2.0000      -0.613025       -16.6813
  37   2.0000      -0.593607       -16.1529
  38   2.0000      -0.578169       -15.7328
  39   2.0000      -0.574543       -15.6341
  40   2.0000      -0.570014       -15.5109
  41   2.0000      -0.555675       -15.1207
  42   2.0000      -0.546525       -14.8717
  43   2.0000      -0.520255       -14.1569
  44   2.0000      -0.511939       -13.9306
  45   2.0000      -0.506554       -13.7840
  46   2.0000      -0.478330       -13.0160
  47   2.0000      -0.469612       -12.7788
  48   2.0000      -0.455132       -12.3848
  49   2.0000      -0.454961       -12.3801
  50   2.0000      -0.445148       -12.1131
  51   2.0000      -0.441114       -12.0033
  52   2.0000      -0.403613       -10.9829
  53   2.0000      -0.396461       -10.7882
  54   2.0000      -0.382643       -10.4122
  55   2.0000      -0.358118        -9.7449
  56   0.0000       0.033519         0.9121
  57   0.0000       0.071873         1.9558
  58   0.0000       0.100167         2.7257
  59   0.0000       0.117808         3.2057
  60   0.0000       0.130560         3.5527

MULLIKEN ATOMIC CHARGES
-----------------------
   0 C :   -0.355300
   1 C :   -0.274733
   2 C :   -0.404449
   3 H :    0.177134
   4 H :    0.196559
   5 S :    0.809242
   6 C :    0.198952
   7 N :   -0.340062
   8 N :   -0.304306
   9 H :    0.295445
  10 H :    0.307410
  11 H :    0.283867
  12 H :    0.326402
  13 O :   -0.643099
  14 O :   -0.464033
  15 C :   -0.363670
  16 C :   -0.273009
  17 H :    0.176813
  18 H :    0.149240
  19 C :   -0.318086
  20 H :    0.185319
  21 H :    0.172409
  22 O :   -0.555843
  23 H :    0.182294
  24 H :    0.166435
  25 H :    0.121378
  26 H :    0.153553
  27 H :    0.189754
  28 H :    0.204386
Sum of atomic charges:   -0.0000000

LOEWDIN ATOMIC CHARGES
----------------------
   0 C :   -0.224107
   1 C :   -0.304182
   2 C :   -0.397424
   3 H :    0.137295
   4 H :    0.148020
   5 S :    0.421772
   6 C :   -0.322203
   7 N :    0.080705
   8 N :    0.116422
   9 H :    0.200378
  10 H :    0.194196
  11 H :    0.196133
  12 H :    0.192967
  13 O :   -0.422485
  14 O :   -0.315417
  15 C :   -0.270636
  16 C :   -0.290017
  17 H :    0.154937
  18 H :    0.147074
  19 C :   -0.286602
  20 H :    0.146116
  21 H :    0.154480
  22 O :   -0.371673
  23 H :    0.149828
  24 H :    0.150902
  25 H :    0.140169
  26 H :    0.144839
  27 H :    0.161441
  28 H :    0.167070

  Mayer bond orders larger than 0.100000
B(  0-C ,  6-C ) :   0.9525 B(  0-C , 15-C ) :   0.8783 B(  0-C , 27-H ) :   0.9764
B(  0-C , 28-H ) :   0.9633 B(  1-C ,  2-C ) :   0.9244 B(  1-C , 16-C ) :   0.9660
B(  1-C , 17-H ) :   0.9732 B(  1-C , 18-H ) :   0.9717 B(  2-C ,  3-H ) :   0.9591
B(  2-C ,  4-H ) :   0.9578 B(  2-C ,  5-S ) :   0.9181 B(  5-S , 13-O ) :   1.5309
B(  5-S , 14-O ) :   1.9656 B(  5-S , 22-O ) :   1.7066 B(  6-C ,  7-N ) :   1.3990
B(  6-C ,  8-N ) :   1.5081 B(  7-N , 11-H ) :   0.9031 B(  7-N , 12-H ) :   0.8476
B(  8-N ,  9-H ) :   0.8921 B(  8-N , 10-H ) :   0.8464 B( 15-C , 19-C ) :   0.9049
B( 15-C , 20-H ) :   0.9974 B( 15-C , 21-H ) :   0.9688 B( 16-C , 19-C ) :   0.8814
B( 16-C , 25-H ) :   0.9639 B( 16-C , 26-H ) :   0.9733 B( 19-C , 23-H ) :   0.9727
B( 19-C , 24-H ) :   0.9693

FINAL SINGLE POINT ENERGY     -1007.812252042634

DIPOLE MOMENT
-------------
                                X             Y             Z
Electronic contribution:      2.75150      -6.25082     -13.23617
Nuclear contribution   :     -1.90023       6.18953      17.82209
                        -----------------------------------------
Total Dipole Moment    :      0.85127      -0.06130       4.58592
                        -----------------------------------------
Magnitude (a.u.)       :      4.66466
Magnitude (Debye)      :     11.85662

Rotational constants in cm-1:     0.036337     0.018755     0.015005
Rotational constants in MHz :  1089.341704   562.266628   449.834770

                             ****ORCA TERMINATED NORMALLY****
TOTAL RUN TIME: 0 days 0 hours 1 minutes 2 seconds 488 msec
