                         Program Version 5.0.0 -  RELEASE  -
|  1> !LC-PBE RIJCOSX def2-SVP def2/J TightSCF
|  2> *xyz 0 1
|  3> C          0.70466        1.44313       -4.50363
|  4> C          1.72854        1.42432       -5.63944
|  5> H          2.64672        1.95379       -5.38105
|  6> H          1.29992        1.93061       -6.50361
|  7> S          2.25263       -0.18811       -6.27184
|  8> F          3.56261       -0.44446       -5.63155
|  9> O          2.34494       -0.03374       -7.69650
| 10> O          1.26606       -1.15918       -5.80536
| 11> H         -0.17385        0.91270       -4.80656
| 12> H          0.44778        2.45562       -4.27173
| 13> H          1.12367        0.97423       -3.63791
| 14> *
| 15>
| 16> %MaxCore 64000
| 17>
| 18> %pal nprocs 4
| 19> end
| 20>
| 21> %scf
| 22>   MaxIter 150
| 23> end
| 24>
| 25>
| 26>                          ****END OF INPUT****

CARTESIAN COORDINATES (ANGSTROEM)
---------------------------------
  C      0.704660    1.443130   -4.503630
  C      1.728540    1.424320   -5.639440
  H      2.646720    1.953790   -5.381050
  H      1.299920    1.930610   -6.503610
  S      2.252630   -0.188110   -6.271840
  F      3.562610   -0.444460   -5.631550
  O      2.344940   -0.033740   -7.696500
  O      1.266060   -1.159180   -5.805360
  H     -0.173850    0.912700   -4.806560
  H      0.447780    2.455620   -4.271730
  H      1.123670    0.974230   -3.637910

 Total Charge           Charge          ....    0
 Multiplicity           Mult            ....    1
 Number of Electrons    NEL             ....   58
 Basis Dimension        Dim             ....  113

ORBITAL ENERGIES
----------------

  NO   OCC          E(Eh)            E(eV)
   0   2.0000     -88.549336     -2409.5499
   1   2.0000     -24.594925      -669.2619
   2   2.0000     -18.993648      -516.8434
   3   2.0000     -18.986120      -516.6386
   4   2.0000     -10.188625      -277.2466
   5   2.0000     -10.147072      -276.1159
   6   2.0000      -8.181391      -222.6270
   7   2.0000      -6.207701      -168.9201
   8   2.0000      -6.200582      -168.7264
   9   2.0000      -6.199736      -168.7034
  10   2.0000      -1.501516       -40.8583
  11   2.0000      -1.278634       -34.7934
  12   2.0000      -1.172598       -31.9080
  13   2.0000      -0.996568       -27.1180
  14   2.0000      -0.882458       -24.0129
  15   2.0000      -0.827324       -22.5126
  16   2.0000      -0.731374       -19.9017
  17   2.0000      -0.713461       -19.4143
  18   2.0000      -0.693893       -18.8818
  19   2.0000      -0.638263       -17.3680
  20   2.0000      -0.624355       -16.9896
  21   2.0000      -0.592343       -16.1185
  22   2.0000      -0.568106       -15.4589
  23   2.0000      -0.539389       -14.6775
  24   2.0000      -0.535405       -14.5691
  25   2.0000      -0.515735       -14.0339
  26   2.0000      -0.464455       -12.6384
  27   2.0000      -0.455169       -12.3858
  28   2.0000      -0.443400       -12.0655
  29   0.0000       0.130132         3.5411
  30   0.0000       0.139971         3.8088
  31   0.0000       0.172567         4.6958
  32   0.0000       0.183622         4.9966
  33   0.0000       0.197596         5.3769

MULLIKEN ATOMIC CHARGES
-----------------------
   0 C :   -0.115568
   1 C :   -0.272688
   2 H :    0.117724
   3 H :    0.141233
   4 S :    0.924312
   5 F :   -0.193147
   6 O :   -0.424205
   7 O :   -0.447154
   8 H :    0.101577
   9 H :    0.084231
  10 H :    0.083684
Sum of atomic charges:   -0.0000000

LOEWDIN ATOMIC CHARGES
----------------------
   0 C :   -0.087118
   1 C :   -0.183116
   2 H :    0.047696
   3 H :    0.062245
   4 S :    1.150485
   5 F :   -0.147835
   6 O :   -0.478211
   7 O :   -0.503813
   8 H :    0.048944
   9 H :    0.047929
  10 H :    0.042794

  Mayer bond orders larger than 0.100000
B(  0-C ,  1-C ) :   1.0447 B(  0-C ,  8-H ) :   0.9682 B(  0-C ,  9-H ) :   0.9652
B(  0-C , 10-H ) :   0.9745 B(  1-C ,  2-H ) :   0.9377 B(  1-C ,  3-H ) :   0.9394
B(  1-C ,  4-S ) :   0.9101 B(  4-S ,  5-F ) :   1.0132 B(  4-S ,  6-O ) :   1.8209
B(  4-S ,  7-O ) :   1.8024

FINAL SINGLE POINT ENERGY      -726.002680953312

DIPOLE MOMENT
-------------
                                X             Y             Z
Electronic contribution:      6.34128      -6.45375      -3.69339
Nuclear contribution   :     -6.09914       7.80989       4.64238
                        -----------------------------------------
Total Dipole Moment    :      0.24215       1.35614       0.94899
                        -----------------------------------------
Magnitude (a.u.)       :      1.67283
Magnitude (Debye)      :      4.25198

Rotational constants in cm-1:     0.154372     0.078826     0.078033
Rotational constants in MHz :  4627.943144  2363.154585  2339.382767

                             ****ORCA TERMINATED NORMALLY****
TOTAL RUN TIME: 0 days 0 hours 0 minutes 13 seconds 720 msec
