                         Program Version 5.0.0 -  RELEASE  -
|  1> !LC-PBE RIJCOSX def2-SVP def2/J TightSCF
|  2> *xyz 0 1
|  3> C          2.91632       -1.24259       -1.54313
|  4> C          3.46659       -1.59097       -2.88908
|  5> C          4.65227       -1.14316       -3.25969
|  6> N          2.75226       -2.29204       -3.72803
|  7> H          1.77836       -2.48960       -3.51274
|  8> H          2.94861       -2.20854       -4.71681
|  9> H          5.14672       -0.51251       -2.63385
| 10> H          4.78303       -1.00720       -4.25350
| 11> C          2.80408        0.29070       -1.35924
| 12> H          1.94047       -1.71653       -1.44116
| 13> H          3.55857       -1.66343       -0.76637
| 14> H          2.17393        0.69633       -2.12297
| 15> H          3.77707        0.73043       -1.42880
| 16> H          2.38369        0.50492       -0.39889
| 17> *
| 18>
| 19> %MaxCore 64000
| 20>
| 21> %pal nprocs 4
| 22> end
| 23>
| 24> %scf
| 25>   MaxIter 150
| 26> end
| 27>
| 28>
| 29>                          ****END OF INPUT****

CARTESIAN COORDINATES (ANGSTROEM)
---------------------------------
  C      2.916320   -1.242590   -1.543130
  C      3.466590   -1.590970   -2.889080
  C      4.652270   -1.143160   -3.259690
  N      2.752260   -2.292040   -3.728030
  H      1.778360   -2.489600   -3.512740
  H      2.948610   -2.208540   -4.716810
  H      5.146720   -0.512510   -2.633850
  H      4.783030   -1.007200   -4.253500
  C      2.804080    0.290700   -1.359240
  H      1.940470   -1.716530   -1.441160
  H      3.558570   -1.663430   -0.766370
  H      2.173930    0.696330   -2.122970
  H      3.777070    0.730430   -1.428800
  H      2.383690    0.504920   -0.398890

 Total Charge           Charge          ....    0
 Multiplicity           Mult            ....    1
 Number of Electrons    NEL             ....   40
 Basis Dimension        Dim             ....  115

ORBITAL ENERGIES
----------------

  NO   OCC          E(Eh)            E(eV)
   0   2.0000     -14.223982      -387.0542
   1   2.0000     -10.147696      -276.1329
   2   2.0000     -10.127828      -275.5922
   3   2.0000     -10.112675      -275.1799
   4   2.0000     -10.049642      -273.4647
   5   2.0000      -1.099383       -29.9157
   6   2.0000      -0.950431       -25.8625
   7   2.0000      -0.871780       -23.7223
   8   2.0000      -0.802015       -21.8240
   9   2.0000      -0.710398       -19.3309
  10   2.0000      -0.665143       -18.0995
  11   2.0000      -0.623131       -16.9563
  12   2.0000      -0.592944       -16.1348
  13   2.0000      -0.546706       -14.8766
  14   2.0000      -0.525417       -14.2973
  15   2.0000      -0.509324       -13.8594
  16   2.0000      -0.487289       -13.2598
  17   2.0000      -0.471622       -12.8335
  18   2.0000      -0.456955       -12.4344
  19   2.0000      -0.302978        -8.2444
  20   0.0000       0.139087         3.7847
  21   0.0000       0.145148         3.9497
  22   0.0000       0.188010         5.1160
  23   0.0000       0.193905         5.2764
  24   0.0000       0.216196         5.8830

MULLIKEN ATOMIC CHARGES
-----------------------
   0 C :   -0.073232
   1 C :   -0.129509
   2 C :   -0.141425
   3 N :   -0.135914
   4 H :    0.134444
   5 H :    0.143179
   6 H :    0.005387
   7 H :    0.001023
   8 C :   -0.121091
   9 H :    0.038933
  10 H :    0.088113
  11 H :    0.060991
  12 H :    0.069710
  13 H :    0.059389
Sum of atomic charges:    0.0000000

LOEWDIN ATOMIC CHARGES
----------------------
   0 C :   -0.058238
   1 C :    0.006888
   2 C :   -0.211870
   3 N :   -0.017840
   4 H :    0.076899
   5 H :    0.085364
   6 H :    0.006403
   7 H :    0.004392
   8 C :   -0.075041
   9 H :    0.028762
  10 H :    0.052043
  11 H :    0.034180
  12 H :    0.035946
  13 H :    0.032112

  Mayer bond orders larger than 0.100000
B(  0-C ,  1-C ) :   0.9876 B(  0-C ,  8-C ) :   1.0735 B(  0-C ,  9-H ) :   0.9548
B(  0-C , 10-H ) :   0.9473 B(  1-C ,  2-C ) :   1.8625 B(  1-C ,  3-N ) :   1.2605
B(  2-C ,  6-H ) :   0.9661 B(  2-C ,  7-H ) :   0.9686 B(  3-N ,  4-H ) :   0.9523
B(  3-N ,  5-H ) :   0.9520 B(  8-C , 11-H ) :   0.9759 B(  8-C , 12-H ) :   0.9768
B(  8-C , 13-H ) :   0.9744

FINAL SINGLE POINT ENERGY      -211.669566914166

DIPOLE MOMENT
-------------
                                X             Y             Z
Electronic contribution:      0.02660      -2.74296      -1.82523
Nuclear contribution   :     -0.99366       2.78648       1.68526
                        -----------------------------------------
Total Dipole Moment    :     -0.96705       0.04352      -0.13997
                        -----------------------------------------
Magnitude (a.u.)       :      0.97810
Magnitude (Debye)      :      2.48613

Rotational constants in cm-1:     0.282898     0.128664     0.101801
Rotational constants in MHz :  8481.061354  3857.240210  3051.924245

                             ****ORCA TERMINATED NORMALLY****
TOTAL RUN TIME: 0 days 0 hours 0 minutes 16 seconds 715 msec
