                         Program Version 5.0.0 -  RELEASE  -
|  1> !LC-PBE RIJCOSX def2-SVP def2/J TightSCF
|  2> *xyz 0 1
|  3> C          0.70466        1.44313       -4.50363
|  4> C          1.72854        1.42432       -5.63944
|  5> H          2.64672        1.95379       -5.38105
|  6> H          1.29992        1.93061       -6.50361
|  7> S          2.25263       -0.18811       -6.27184
|  8> O          3.56261       -0.44446       -5.63155
|  9> F          2.34494       -0.03374       -7.69650
| 10> O          1.26606       -1.15918       -5.80536
| 11> H         -0.17385        0.91270       -4.80656
| 12> H          0.44778        2.45562       -4.27173
| 13> H          1.12367        0.97423       -3.63791
| 14> *
| 15>
| 16> %MaxCore 64000
| 17>
| 18> %pal nprocs 4
| 19> end
| 20>
| 21> %scf
| 22>   MaxIter 150
| 23> end
| 24>
| 25>
| 26>                          ****END OF INPUT****

CARTESIAN COORDINATES (ANGSTROEM)
---------------------------------
  C      0.704660    1.443130   -4.503630
  C      1.728540    1.424320   -5.639440
  H      2.646720    1.953790   -5.381050
  H      1.299920    1.930610   -6.503610
  S      2.252630   -0.188110   -6.271840
  O      3.562610   -0.444460   -5.631550
  F      2.344940   -0.033740   -7.696500
  O      1.266060   -1.159180   -5.805360
  H     -0.173850    0.912700   -4.806560
  H      0.447780    2.455620   -4.271730
  H      1.123670    0.974230   -3.637910

 Total Charge           Charge          ....    0
 Multiplicity           Mult            ....    1
 Number of Electrons    NEL             ....   58
 Basis Dimension        Dim             ....  113

ORBITAL ENERGIES
----------------

  NO   OCC          E(Eh)            E(eV)
   0   2.0000     -88.550384     -2409.5785
   1   2.0000     -24.619480      -669.9301
   2   2.0000     -18.985663      -516.6262
   3   2.0000     -18.975220      -516.3420
   4   2.0000     -10.189701      -277.2759
   5   2.0000     -10.147368      -276.1239
   6   2.0000      -8.182731      -222.6634
   7   2.0000      -6.209221      -168.9615
   8   2.0000      -6.201690      -168.7566
   9   2.0000      -6.200784      -168.7319
  10   2.0000      -1.540391       -41.9162
  11   2.0000      -1.264912       -34.4200
  12   2.0000      -1.150803       -31.3149
  13   2.0000      -0.997052       -27.1312
  14   2.0000      -0.896088       -24.3838
  15   2.0000      -0.837640       -22.7933
  16   2.0000      -0.745183       -20.2775
  17   2.0000      -0.742208       -20.1965
  18   2.0000      -0.699069       -19.0226
  19   2.0000      -0.640299       -17.4234
  20   2.0000      -0.623928       -16.9780
  21   2.0000      -0.578893       -15.7525
  22   2.0000      -0.564642       -15.3647
  23   2.0000      -0.542883       -14.7726
  24   2.0000      -0.522986       -14.2312
  25   2.0000      -0.515162       -14.0183
  26   2.0000      -0.455388       -12.3917
  27   2.0000      -0.443535       -12.0692
  28   2.0000      -0.425973       -11.5913
  29   0.0000       0.131061         3.5664
  30   0.0000       0.136253         3.7076
  31   0.0000       0.171561         4.6684
  32   0.0000       0.184959         5.0330
  33   0.0000       0.192545         5.2394

MULLIKEN ATOMIC CHARGES
-----------------------
   0 C :   -0.111800
   1 C :   -0.265000
   2 H :    0.136066
   3 H :    0.106853
   4 S :    0.914261
   5 O :   -0.470173
   6 F :   -0.146811
   7 O :   -0.441586
   8 H :    0.093418
   9 H :    0.085144
  10 H :    0.099627
Sum of atomic charges:   -0.0000000

LOEWDIN ATOMIC CHARGES
----------------------
   0 C :   -0.080965
   1 C :   -0.181391
   2 H :    0.057735
   3 H :    0.042591
   4 S :    1.144192
   5 O :   -0.526648
   6 F :   -0.100151
   7 O :   -0.499829
   8 H :    0.046651
   9 H :    0.048457
  10 H :    0.049357

  Mayer bond orders larger than 0.100000
B(  0-C ,  1-C ) :   1.0545 B(  0-C ,  8-H ) :   0.9680 B(  0-C ,  9-H ) :   0.9657
B(  0-C , 10-H ) :   0.9723 B(  1-C ,  2-H ) :   0.9349 B(  1-C ,  3-H ) :   0.9393
B(  1-C ,  4-S ) :   0.9112 B(  4-S ,  5-O ) :   1.7646 B(  4-S ,  6-F ) :   1.0647
B(  4-S ,  7-O ) :   1.7971

FINAL SINGLE POINT ENERGY      -725.980625849656

DIPOLE MOMENT
-------------
                                X             Y             Z
Electronic contribution:      4.20012      -5.74342      -7.27759
Nuclear contribution   :     -4.83029       7.38191       6.79413
                        -----------------------------------------
Total Dipole Moment    :     -0.63016       1.63848      -0.48346
                        -----------------------------------------
Magnitude (a.u.)       :      1.82084
Magnitude (Debye)      :      4.62821

Rotational constants in cm-1:     0.156575     0.079070     0.076729
Rotational constants in MHz :  4694.010604  2370.444114  2300.280155

                             ****ORCA TERMINATED NORMALLY****
TOTAL RUN TIME: 0 days 0 hours 0 minutes 14 seconds 9 msec
