                         Program Version 5.0.0 -  RELEASE  -
|  1> !LC-PBE RIJCOSX def2-SVP def2/J TightSCF
|  2> *xyz 0 1
|  3> C          2.91632       -1.24259       -1.54313
|  4> C          3.46659       -1.59097       -2.88908
|  5> N          4.65227       -1.14316       -3.25969
|  6> C          2.75226       -2.29204       -3.72803
|  7> H          1.77836       -2.48960       -3.51274
|  8> H          2.94861       -2.20854       -4.71681
|  9> H          5.14672       -0.51251       -2.63385
| 10> H          4.78303       -1.00720       -4.25350
| 11> C          2.80408        0.29070       -1.35924
| 12> H          1.94047       -1.71653       -1.44116
| 13> H          3.55857       -1.66343       -0.76637
| 14> H          2.17393        0.69633       -2.12297
| 15> H          3.77707        0.73043       -1.42880
| 16> H          2.38369        0.50492       -0.39889
| 17> *
| 18>
| 19> %MaxCore 64000
| 20>
| 21> %pal nprocs 4
| 22> end
| 23>
| 24> %scf
| 25>   MaxIter 150
| 26> end
| 27>
| 28>
| 29>                          ****END OF INPUT****

CARTESIAN COORDINATES (ANGSTROEM)
---------------------------------
  C      2.916320   -1.242590   -1.543130
  C      3.466590   -1.590970   -2.889080
  N      4.652270   -1.143160   -3.259690
  C      2.752260   -2.292040   -3.728030
  H      1.778360   -2.489600   -3.512740
  H      2.948610   -2.208540   -4.716810
  H      5.146720   -0.512510   -2.633850
  H      4.783030   -1.007200   -4.253500
  C      2.804080    0.290700   -1.359240
  H      1.940470   -1.716530   -1.441160
  H      3.558570   -1.663430   -0.766370
  H      2.173930    0.696330   -2.122970
  H      3.777070    0.730430   -1.428800
  H      2.383690    0.504920   -0.398890

 Total Charge           Charge          ....    0
 Multiplicity           Mult            ....    1
 Number of Electrons    NEL             ....   40
 Basis Dimension        Dim             ....  115

ORBITAL ENERGIES
----------------

  NO   OCC          E(Eh)            E(eV)
   0   2.0000     -14.220511      -386.9598
   1   2.0000     -10.145900      -276.0840
   2   2.0000     -10.126361      -275.5523
   3   2.0000     -10.118474      -275.3377
   4   2.0000     -10.054334      -273.5923
   5   2.0000      -1.094891       -29.7935
   6   2.0000      -0.947503       -25.7829
   7   2.0000      -0.884824       -24.0773
   8   2.0000      -0.793666       -21.5967
   9   2.0000      -0.710866       -19.3436
  10   2.0000      -0.669612       -18.2211
  11   2.0000      -0.620673       -16.8894
  12   2.0000      -0.577347       -15.7104
  13   2.0000      -0.575207       -15.6522
  14   2.0000      -0.520220       -14.1559
  15   2.0000      -0.516383       -14.0515
  16   2.0000      -0.486416       -13.2361
  17   2.0000      -0.473598       -12.8873
  18   2.0000      -0.450894       -12.2695
  19   2.0000      -0.310694        -8.4544
  20   0.0000       0.138997         3.7823
  21   0.0000       0.144658         3.9363
  22   0.0000       0.190430         5.1819
  23   0.0000       0.199660         5.4330
  24   0.0000       0.211589         5.7576

MULLIKEN ATOMIC CHARGES
-----------------------
   0 C :   -0.069369
   1 C :   -0.118863
   2 N :   -0.143572
   3 C :   -0.136818
   4 H :    0.008392
   5 H :   -0.002945
   6 H :    0.133300
   7 H :    0.148327
   8 C :   -0.131688
   9 H :    0.062277
  10 H :    0.070007
  11 H :    0.067978
  12 H :    0.044876
  13 H :    0.068099
Sum of atomic charges:    0.0000000

LOEWDIN ATOMIC CHARGES
----------------------
   0 C :   -0.056122
   1 C :    0.004253
   2 N :   -0.030342
   3 C :   -0.195854
   4 H :    0.010054
   5 H :    0.004599
   6 H :    0.075357
   7 H :    0.085925
   8 C :   -0.082778
   9 H :    0.046190
  10 H :    0.039324
  11 H :    0.037664
  12 H :    0.024738
  13 H :    0.036992

  Mayer bond orders larger than 0.100000
B(  0-C ,  1-C ) :   1.0163 B(  0-C ,  8-C ) :   1.0591 B(  0-C ,  9-H ) :   0.9481
B(  0-C , 10-H ) :   0.9476 B(  1-C ,  2-N ) :   1.2330 B(  1-C ,  3-C ) :   1.8995
B(  2-N ,  6-H ) :   0.9585 B(  2-N ,  7-H ) :   0.9513 B(  3-C ,  4-H ) :   0.9542
B(  3-C ,  5-H ) :   0.9673 B(  8-C , 11-H ) :   0.9738 B(  8-C , 12-H ) :   0.9771
B(  8-C , 13-H ) :   0.9753

FINAL SINGLE POINT ENERGY      -211.673751048840

DIPOLE MOMENT
-------------
                                X             Y             Z
Electronic contribution:      1.76880      -1.67913      -1.39776
Nuclear contribution   :     -1.43372       2.52039       1.57679
                        -----------------------------------------
Total Dipole Moment    :      0.33509       0.84126       0.17903
                        -----------------------------------------
Magnitude (a.u.)       :      0.92306
Magnitude (Debye)      :      2.34624

Rotational constants in cm-1:     0.274962     0.131786     0.102554
Rotational constants in MHz :  8243.150005  3950.846092  3074.493018

                             ****ORCA TERMINATED NORMALLY****
TOTAL RUN TIME: 0 days 0 hours 0 minutes 14 seconds 452 msec
