                         Program Version 5.0.0 -  RELEASE  -
|  1> !LC-PBE RIJCOSX def2-SVP def2/J TightSCF
|  2> *xyz 0 1
|  3> C          0.70466        1.44313       -4.50363
|  4> C          1.72854        1.42432       -5.63944
|  5> H          2.64672        1.95379       -5.38105
|  6> H          1.29992        1.93061       -6.50361
|  7> S          2.25263       -0.18811       -6.27184
|  8> O          3.56261       -0.44446       -5.63155
|  9> O          2.34494       -0.03374       -7.69650
| 10> F          1.26606       -1.15918       -5.80536
| 11> H         -0.17385        0.91270       -4.80656
| 12> H          0.44778        2.45562       -4.27173
| 13> H          1.12367        0.97423       -3.63791
| 14> *
| 15>
| 16> %MaxCore 64000
| 17>
| 18> %pal nprocs 4
| 19> end
| 20>
| 21> %scf
| 22>   MaxIter 150
| 23> end
| 24>
| 25>
| 26>                          ****END OF INPUT****

CARTESIAN COORDINATES (ANGSTROEM)
---------------------------------
  C      0.704660    1.443130   -4.503630
  C      1.728540    1.424320   -5.639440
  H      2.646720    1.953790   -5.381050
  H      1.299920    1.930610   -6.503610
  S      2.252630   -0.188110   -6.271840
  O      3.562610   -0.444460   -5.631550
  O      2.344940   -0.033740   -7.696500
  F      1.266060   -1.159180   -5.805360
  H     -0.173850    0.912700   -4.806560
  H      0.447780    2.455620   -4.271730
  H      1.123670    0.974230   -3.637910

 Total Charge           Charge          ....    0
 Multiplicity           Mult            ....    1
 Number of Electrons    NEL             ....   58
 Basis Dimension        Dim             ....  113

ORBITAL ENERGIES
----------------

  NO   OCC          E(Eh)            E(eV)
   0   2.0000     -88.548939     -2409.5391
   1   2.0000     -24.606923      -669.5884
   2   2.0000     -18.993154      -516.8300
   3   2.0000     -18.974567      -516.3242
   4   2.0000     -10.188336      -277.2387
   5   2.0000     -10.155530      -276.3460
   6   2.0000      -8.181189      -222.6215
   7   2.0000      -6.207717      -168.9206
   8   2.0000      -6.200237      -168.7170
   9   2.0000      -6.199309      -168.6918
  10   2.0000      -1.518657       -41.3247
  11   2.0000      -1.274248       -34.6740
  12   2.0000      -1.159304       -31.5463
  13   2.0000      -1.000931       -27.2367
  14   2.0000      -0.884500       -24.0685
  15   2.0000      -0.838718       -22.8227
  16   2.0000      -0.747213       -20.3327
  17   2.0000      -0.726892       -19.7797
  18   2.0000      -0.684978       -18.6392
  19   2.0000      -0.644448       -17.5363
  20   2.0000      -0.617430       -16.8011
  21   2.0000      -0.592798       -16.1309
  22   2.0000      -0.575614       -15.6633
  23   2.0000      -0.550303       -14.9745
  24   2.0000      -0.529521       -14.4090
  25   2.0000      -0.519052       -14.1241
  26   2.0000      -0.460479       -12.5303
  27   2.0000      -0.445216       -12.1149
  28   2.0000      -0.432448       -11.7675
  29   0.0000       0.114859         3.1255
  30   0.0000       0.155255         4.2247
  31   0.0000       0.177903         4.8410
  32   0.0000       0.182432         4.9642
  33   0.0000       0.194370         5.2891

MULLIKEN ATOMIC CHARGES
-----------------------
   0 C :   -0.144058
   1 C :   -0.256319
   2 H :    0.148036
   3 H :    0.129067
   4 S :    0.918479
   5 O :   -0.473824
   6 O :   -0.420679
   7 F :   -0.170240
   8 H :    0.082540
   9 H :    0.093055
  10 H :    0.093943
Sum of atomic charges:   -0.0000000

LOEWDIN ATOMIC CHARGES
----------------------
   0 C :   -0.095336
   1 C :   -0.176240
   2 H :    0.065700
   3 H :    0.053720
   4 S :    1.147916
   5 O :   -0.530570
   6 O :   -0.475826
   7 F :   -0.124586
   8 H :    0.039568
   9 H :    0.051437
  10 H :    0.044217

  Mayer bond orders larger than 0.100000
B(  0-C ,  1-C ) :   1.0381 B(  0-C ,  8-H ) :   0.9746 B(  0-C ,  9-H ) :   0.9657
B(  0-C , 10-H ) :   0.9728 B(  1-C ,  2-H ) :   0.9352 B(  1-C ,  3-H ) :   0.9405
B(  1-C ,  4-S ) :   0.9233 B(  4-S ,  5-O ) :   1.7673 B(  4-S ,  6-O ) :   1.8181
B(  4-S ,  7-F ) :   1.0389

FINAL SINGLE POINT ENERGY      -725.991406230101

DIPOLE MOMENT
-------------
                                X             Y             Z
Electronic contribution:      2.32803      -7.65973      -3.98296
Nuclear contribution   :     -3.70606       8.55465       4.82350
                        -----------------------------------------
Total Dipole Moment    :     -1.37803       0.89492       0.84054
                        -----------------------------------------
Magnitude (a.u.)       :      1.84563
Magnitude (Debye)      :      4.69122

Rotational constants in cm-1:     0.153201     0.080978     0.077494
Rotational constants in MHz :  4592.852844  2427.650814  2323.207507

                             ****ORCA TERMINATED NORMALLY****
TOTAL RUN TIME: 0 days 0 hours 0 minutes 15 seconds 559 msec
