                         Program Version 5.0.0 -  RELEASE  -
|  1> !LC-PBE RIJCOSX def2-TZVP def2/J TightSCF xyzfile
|  2>
|  3> *xyzfile 0 1 D1.xyz
|  4>
|  5> %MaxCore 64000
|  6>
|  7> %pal nprocs 18
|  8> end
|  9>
| 10> %scf
| 11>   MaxIter 150
| 12> end
| 13>
| 14>
| 15>                          ****END OF INPUT****

CARTESIAN COORDINATES (ANGSTROEM)
---------------------------------
  C      2.916324   -1.242589   -1.543125
  C      0.704661    1.443129   -4.503630
  C      1.728539    1.424320   -5.639443
  H      2.646718    1.953794   -5.381054
  H      1.299916    1.930613   -6.503614
  S      2.252625   -0.188115   -6.271840
  C      3.466585   -1.590971   -2.889082
  C      4.652275   -1.143164   -3.259692
  N      2.752264   -2.292043   -3.728029
  H      1.778364   -2.489604   -3.512738
  H      2.948612   -2.208544   -4.716813
  H      5.146723   -0.512508   -2.633852
  H      4.783030   -1.007203   -4.253498
  F      3.562607   -0.444464   -5.631552
  O      2.344944   -0.033742   -7.696501
  C      2.804084    0.290698   -1.359243
  C      1.052550    0.695659   -3.214915
  H     -0.232483    1.032925   -4.884449
  H      0.511700    2.495794   -4.267966
  C      2.388380    1.093669   -2.597108
  H      3.763425    0.674718   -0.999889
  H      2.094788    0.461222   -0.545756
  O      1.266058   -1.159177   -5.805365
  H      3.167316    1.013242   -3.359430
  H      2.357690    2.149375   -2.310997
  H      1.039284   -0.368429   -3.449329
  H      0.250787    0.865605   -2.488283
  H      1.940472   -1.716529   -1.441161
  H      3.558569   -1.663433   -0.766371

 Total Charge           Charge          ....    0
 Multiplicity           Mult            ....    1
 Number of Electrons    NEL             ....  112
 Basis Dimension        Dim             ....  505

ORBITAL ENERGIES
----------------

  NO   OCC          E(Eh)            E(eV)
   0   2.0000     -88.541409     -2409.3342
   1   2.0000     -24.605557      -669.5513
   2   2.0000     -19.002639      -517.0881
   3   2.0000     -18.998985      -516.9887
   4   2.0000     -14.207414      -386.6034
   5   2.0000     -10.183326      -277.1024
   6   2.0000     -10.146500      -276.1003
   7   2.0000     -10.140038      -275.9245
   8   2.0000     -10.123271      -275.4682
   9   2.0000     -10.121726      -275.4262
  10   2.0000     -10.119729      -275.3718
  11   2.0000     -10.118836      -275.3475
  12   2.0000     -10.037745      -273.1409
  13   2.0000      -8.152773      -221.8482
  14   2.0000      -6.173368      -167.9859
  15   2.0000      -6.166222      -167.7914
  16   2.0000      -6.165389      -167.7688
  17   2.0000      -1.528226       -41.5851
  18   2.0000      -1.294375       -35.2217
  19   2.0000      -1.195493       -32.5310
  20   2.0000      -1.110765       -30.2255
  21   2.0000      -1.025013       -27.8920
  22   2.0000      -0.984741       -26.7962
  23   2.0000      -0.938708       -25.5435
  24   2.0000      -0.902714       -24.5641
  25   2.0000      -0.865872       -23.5616
  26   2.0000      -0.857989       -23.3471
  27   2.0000      -0.799358       -21.7516
  28   2.0000      -0.758644       -20.6438
  29   2.0000      -0.739561       -20.1245
  30   2.0000      -0.729262       -19.8442
  31   2.0000      -0.717024       -19.5112
  32   2.0000      -0.700568       -19.0634
  33   2.0000      -0.665153       -18.0997
  34   2.0000      -0.650613       -17.7041
  35   2.0000      -0.642263       -17.4769
  36   2.0000      -0.627197       -17.0669
  37   2.0000      -0.622214       -16.9313
  38   2.0000      -0.606308       -16.4985
  39   2.0000      -0.588558       -16.0155
  40   2.0000      -0.575880       -15.6705
  41   2.0000      -0.565015       -15.3748
  42   2.0000      -0.545223       -14.8363
  43   2.0000      -0.530128       -14.4255
  44   2.0000      -0.523062       -14.2333
  45   2.0000      -0.518564       -14.1109
  46   2.0000      -0.510077       -13.8799
  47   2.0000      -0.494905       -13.4671
  48   2.0000      -0.487463       -13.2645
  49   2.0000      -0.477457       -12.9923
  50   2.0000      -0.470822       -12.8117
  51   2.0000      -0.463315       -12.6074
  52   2.0000      -0.452572       -12.3151
  53   2.0000      -0.449359       -12.2277
  54   2.0000      -0.445233       -12.1154
  55   2.0000      -0.306097        -8.3293
  56   0.0000       0.098457         2.6791
  57   0.0000       0.109957         2.9921
  58   0.0000       0.116875         3.1803
  59   0.0000       0.119707         3.2574
  60   0.0000       0.127684         3.4745

MULLIKEN ATOMIC CHARGES
-----------------------
   0 C :   -0.326690
   1 C :   -0.271404
   2 C :   -0.411771
   3 H :    0.214865
   4 H :    0.226562
   5 S :    0.805242
   6 C :    0.066000
   7 C :   -0.436706
   8 N :   -0.388300
   9 H :    0.253501
  10 H :    0.231138
  11 H :    0.122355
  12 H :    0.112655
  13 F :   -0.102130
  14 O :   -0.382255
  15 C :   -0.342916
  16 C :   -0.317055
  17 H :    0.187869
  18 H :    0.167496
  19 C :   -0.275248
  20 H :    0.174166
  21 H :    0.150879
  22 O :   -0.427660
  23 H :    0.161741
  24 H :    0.156499
  25 H :    0.149314
  26 H :    0.161859
  27 H :    0.159160
  28 H :    0.180836
Sum of atomic charges:   -0.0000000

LOEWDIN ATOMIC CHARGES
----------------------
   0 C :   -0.227644
   1 C :   -0.297725
   2 C :   -0.377051
   3 H :    0.149019
   4 H :    0.160589
   5 S :    0.530742
   6 C :   -0.394302
   7 C :   -0.307038
   8 N :    0.014601
   9 H :    0.172200
  10 H :    0.163874
  11 H :    0.110635
  12 H :    0.097667
  13 F :    0.079830
  14 O :   -0.249939
  15 C :   -0.268542
  16 C :   -0.287949
  17 H :    0.156457
  18 H :    0.155802
  19 C :   -0.286960
  20 H :    0.148104
  21 H :    0.144932
  22 O :   -0.276747
  23 H :    0.144332
  24 H :    0.145705
  25 H :    0.144203
  26 H :    0.149076
  27 H :    0.145211
  28 H :    0.160918

  Mayer bond orders larger than 0.100000
B(  0-C ,  6-C ) :   0.8792 B(  0-C , 15-C ) :   0.9115 B(  0-C , 27-H ) :   0.9957
B(  0-C , 28-H ) :   0.9797 B(  1-C ,  2-C ) :   0.9183 B(  1-C , 16-C ) :   0.9494
B(  1-C , 17-H ) :   0.9747 B(  1-C , 18-H ) :   0.9604 B(  2-C ,  3-H ) :   0.9393
B(  2-C ,  4-H ) :   0.9427 B(  2-C ,  5-S ) :   0.9172 B(  5-S , 13-F ) :   1.1177
B(  5-S , 14-O ) :   2.0153 B(  5-S , 22-O ) :   1.8606 B(  6-C ,  7-C ) :   1.6986
B(  6-C ,  8-N ) :   1.1896 B(  7-C , 11-H ) :   1.0078 B(  7-C , 12-H ) :   1.0090
B(  8-N ,  9-H ) :   0.9214 B(  8-N , 10-H ) :   0.9259 B( 15-C , 19-C ) :   0.9442
B( 15-C , 20-H ) :   0.9885 B( 15-C , 21-H ) :   0.9800 B( 16-C , 19-C ) :   0.8772
B( 16-C , 25-H ) :   0.9776 B( 16-C , 26-H ) :   0.9731 B( 19-C , 23-H ) :   0.9734
B( 19-C , 24-H ) :   0.9720

FINAL SINGLE POINT ENERGY     -1015.681694212259

DIPOLE MOMENT
-------------
                                X             Y             Z
Electronic contribution:      2.13998      -4.87914     -18.52879
Nuclear contribution   :     -2.89481       6.29550      19.36835
                        -----------------------------------------
Total Dipole Moment    :     -0.75483       1.41636       0.83957
                        -----------------------------------------
Magnitude (a.u.)       :      1.81127
Magnitude (Debye)      :      4.60389

Rotational constants in cm-1:     0.036515     0.018832     0.015081
Rotational constants in MHz :  1094.679513   564.567051   452.109105

                             ****ORCA TERMINATED NORMALLY****
TOTAL RUN TIME: 0 days 0 hours 1 minutes 6 seconds 632 msec
