                         Program Version 5.0.0 -  RELEASE  -
|  1> !LC-PBE RIJCOSX def2-TZVP def2/J TightSCF xyzfile
|  2>
|  3> *xyzfile 0 1 D5.xyz
|  4>
|  5> %MaxCore 64000
|  6>
|  7> %pal nprocs 18
|  8> end
|  9>
| 10> %scf
| 11>   MaxIter 150
| 12> end
| 13>
| 14>
| 15>                          ****END OF INPUT****

CARTESIAN COORDINATES (ANGSTROEM)
---------------------------------
  C      2.916324   -1.242589   -1.543125
  C      0.704661    1.443129   -4.503630
  C      1.728539    1.424320   -5.639443
  H      2.646718    1.953794   -5.381054
  H      1.299916    1.930613   -6.503614
  S      2.252625   -0.188115   -6.271840
  C      3.466585   -1.590971   -2.889082
  C      4.652275   -1.143164   -3.259692
  N      2.752264   -2.292043   -3.728029
  H      1.778364   -2.489604   -3.512738
  H      2.948612   -2.208544   -4.716813
  H      5.146723   -0.512508   -2.633852
  H      4.783030   -1.007203   -4.253498
  O      3.562607   -0.444464   -5.631552
  O      2.344944   -0.033742   -7.696501
  C      2.804084    0.290698   -1.359243
  C      1.052550    0.695659   -3.214915
  H     -0.232483    1.032925   -4.884449
  H      0.511700    2.495794   -4.267966
  C      2.388380    1.093669   -2.597108
  H      3.763425    0.674718   -0.999889
  H      2.094788    0.461222   -0.545756
  F      1.266058   -1.159177   -5.805365
  H      3.167316    1.013242   -3.359430
  H      2.357690    2.149375   -2.310997
  H      1.039284   -0.368429   -3.449329
  H      0.250787    0.865605   -2.488283
  H      1.940472   -1.716529   -1.441161
  H      3.558569   -1.663433   -0.766371

 Total Charge           Charge          ....    0
 Multiplicity           Mult            ....    1
 Number of Electrons    NEL             ....  112
 Basis Dimension        Dim             ....  505

ORBITAL ENERGIES
----------------

  NO   OCC          E(Eh)            E(eV)
   0   2.0000     -88.543469     -2409.3903
   1   2.0000     -24.619333      -669.9261
   2   2.0000     -19.004023      -517.1258
   3   2.0000     -18.990513      -516.7581
   4   2.0000     -14.201106      -386.4317
   5   2.0000     -10.184346      -277.1301
   6   2.0000     -10.153311      -276.2856
   7   2.0000     -10.129656      -275.6420
   8   2.0000     -10.125746      -275.5356
   9   2.0000     -10.116682      -275.2889
  10   2.0000     -10.114677      -275.2343
  11   2.0000     -10.113127      -275.1922
  12   2.0000     -10.021106      -272.6882
  13   2.0000      -8.154958      -221.9077
  14   2.0000      -6.175563      -168.0456
  15   2.0000      -6.168078      -167.8419
  16   2.0000      -6.167768      -167.8335
  17   2.0000      -1.545637       -42.0589
  18   2.0000      -1.291461       -35.1424
  19   2.0000      -1.186968       -32.2990
  20   2.0000      -1.102283       -29.9946
  21   2.0000      -1.029297       -28.0086
  22   2.0000      -0.981747       -26.7147
  23   2.0000      -0.937658       -25.5150
  24   2.0000      -0.893991       -24.3267
  25   2.0000      -0.872927       -23.7535
  26   2.0000      -0.849432       -23.1142
  27   2.0000      -0.804684       -21.8966
  28   2.0000      -0.764656       -20.8073
  29   2.0000      -0.752698       -20.4820
  30   2.0000      -0.736246       -20.0343
  31   2.0000      -0.710761       -19.3408
  32   2.0000      -0.695802       -18.9337
  33   2.0000      -0.659918       -17.9573
  34   2.0000      -0.648490       -17.6463
  35   2.0000      -0.645586       -17.5673
  36   2.0000      -0.625413       -17.0183
  37   2.0000      -0.618743       -16.8369
  38   2.0000      -0.601364       -16.3639
  39   2.0000      -0.594524       -16.1778
  40   2.0000      -0.574736       -15.6394
  41   2.0000      -0.557195       -15.1621
  42   2.0000      -0.548168       -14.9164
  43   2.0000      -0.526262       -14.3203
  44   2.0000      -0.524373       -14.2689
  45   2.0000      -0.512533       -13.9467
  46   2.0000      -0.504734       -13.7345
  47   2.0000      -0.490128       -13.3370
  48   2.0000      -0.483372       -13.1532
  49   2.0000      -0.473966       -12.8973
  50   2.0000      -0.463711       -12.6182
  51   2.0000      -0.458602       -12.4792
  52   2.0000      -0.449016       -12.2183
  53   2.0000      -0.441568       -12.0157
  54   2.0000      -0.435592       -11.8530
  55   2.0000      -0.294172        -8.0048
  56   0.0000       0.087038         2.3684
  57   0.0000       0.111240         3.0270
  58   0.0000       0.115546         3.1442
  59   0.0000       0.127001         3.4559
  60   0.0000       0.135757         3.6941

MULLIKEN ATOMIC CHARGES
-----------------------
   0 C :   -0.325169
   1 C :   -0.317614
   2 C :   -0.385135
   3 H :    0.228102
   4 H :    0.220764
   5 S :    0.804271
   6 C :    0.072182
   7 C :   -0.417065
   8 N :   -0.431566
   9 H :    0.237771
  10 H :    0.240783
  11 H :    0.112800
  12 H :    0.158990
  13 O :   -0.440622
  14 O :   -0.376451
  15 C :   -0.349786
  16 C :   -0.297116
  17 H :    0.184505
  18 H :    0.171526
  19 C :   -0.273553
  20 H :    0.174801
  21 H :    0.146148
  22 F :   -0.091943
  23 H :    0.191029
  24 H :    0.155320
  25 H :    0.110423
  26 H :    0.165312
  27 H :    0.151792
  28 H :    0.179500
Sum of atomic charges:   -0.0000000

LOEWDIN ATOMIC CHARGES
----------------------
   0 C :   -0.231605
   1 C :   -0.306139
   2 C :   -0.370455
   3 H :    0.160539
   4 H :    0.155502
   5 S :    0.528919
   6 C :   -0.397937
   7 C :   -0.286670
   8 N :   -0.003041
   9 H :    0.161624
  10 H :    0.162995
  11 H :    0.108528
  12 H :    0.108208
  13 O :   -0.281551
  14 O :   -0.246903
  15 C :   -0.269664
  16 C :   -0.288733
  17 H :    0.150197
  18 H :    0.157571
  19 C :   -0.284883
  20 H :    0.148723
  21 H :    0.142754
  22 F :    0.095614
  23 H :    0.153367
  24 H :    0.145163
  25 H :    0.136044
  26 H :    0.149765
  27 H :    0.141887
  28 H :    0.160182

  Mayer bond orders larger than 0.100000
B(  0-C ,  6-C ) :   0.8813 B(  0-C , 15-C ) :   0.9134 B(  0-C , 27-H ) :   0.9990
B(  0-C , 28-H ) :   0.9813 B(  1-C ,  2-C ) :   0.9271 B(  1-C , 16-C ) :   0.9292
B(  1-C , 17-H ) :   0.9854 B(  1-C , 18-H ) :   0.9606 B(  2-C ,  3-H ) :   0.9333
B(  2-C ,  4-H ) :   0.9453 B(  2-C ,  5-S ) :   0.9240 B(  5-S , 13-O ) :   1.8112
B(  5-S , 14-O ) :   2.0189 B(  5-S , 22-F ) :   1.1387 B(  6-C ,  7-C ) :   1.7336
B(  6-C ,  8-N ) :   1.1412 B(  7-C , 11-H ) :   1.0031 B(  7-C , 12-H ) :   0.9953
B(  8-N ,  9-H ) :   0.9300 B(  8-N , 10-H ) :   0.9134 B( 15-C , 19-C ) :   0.9449
B( 15-C , 20-H ) :   0.9868 B( 15-C , 21-H ) :   0.9818 B( 16-C , 19-C ) :   0.8557
B( 16-C , 25-H ) :   0.9926 B( 16-C , 26-H ) :   0.9724 B( 19-C , 23-H ) :   0.9670
B( 19-C , 24-H ) :   0.9705

FINAL SINGLE POINT ENERGY     -1015.669789831683

DIPOLE MOMENT
-------------
                                X             Y             Z
Electronic contribution:     -1.80092      -6.01537     -18.97864
Nuclear contribution   :     -0.26930       7.11259      19.56706
                        -----------------------------------------
Total Dipole Moment    :     -2.07022       1.09722       0.58842
                        -----------------------------------------
Magnitude (a.u.)       :      2.41577
Magnitude (Debye)      :      6.14039

Rotational constants in cm-1:     0.036519     0.018683     0.015073
Rotational constants in MHz :  1094.801738   560.111127   451.890222

                             ****ORCA TERMINATED NORMALLY****
TOTAL RUN TIME: 0 days 0 hours 1 minutes 4 seconds 867 msec
