                         Program Version 5.0.0 -  RELEASE  -
|  1> !LC-PBE RIJCOSX def2-TZVP def2/J TightSCF xyzfile
|  2>
|  3> *xyzfile 0 1 D6.xyz
|  4>
|  5> %MaxCore 64000
|  6>
|  7> %pal nprocs 18
|  8> end
|  9>
| 10> %scf
| 11>   MaxIter 150
| 12> end
| 13>
| 14>
| 15>                          ****END OF INPUT****

CARTESIAN COORDINATES (ANGSTROEM)
---------------------------------
  C      2.916324   -1.242589   -1.543125
  C      0.704661    1.443129   -4.503630
  C      1.728539    1.424320   -5.639443
  H      2.646718    1.953794   -5.381054
  H      1.299916    1.930613   -6.503614
  S      2.252625   -0.188115   -6.271840
  C      3.466585   -1.590971   -2.889082
  N      4.652275   -1.143164   -3.259692
  C      2.752264   -2.292043   -3.728029
  H      1.778364   -2.489604   -3.512738
  H      2.948612   -2.208544   -4.716813
  H      5.146723   -0.512508   -2.633852
  H      4.783030   -1.007203   -4.253498
  O      3.562607   -0.444464   -5.631552
  O      2.344944   -0.033742   -7.696501
  C      2.804084    0.290698   -1.359243
  C      1.052550    0.695659   -3.214915
  H     -0.232483    1.032925   -4.884449
  H      0.511700    2.495794   -4.267966
  C      2.388380    1.093669   -2.597108
  H      3.763425    0.674718   -0.999889
  H      2.094788    0.461222   -0.545756
  F      1.266058   -1.159177   -5.805365
  H      3.167316    1.013242   -3.359430
  H      2.357690    2.149375   -2.310997
  H      1.039284   -0.368429   -3.449329
  H      0.250787    0.865605   -2.488283
  H      1.940472   -1.716529   -1.441161
  H      3.558569   -1.663433   -0.766371

 Total Charge           Charge          ....    0
 Multiplicity           Mult            ....    1
 Number of Electrons    NEL             ....  112
 Basis Dimension        Dim             ....  505

ORBITAL ENERGIES
----------------

  NO   OCC          E(Eh)            E(eV)
   0   2.0000     -88.540390     -2409.3065
   1   2.0000     -24.608365      -669.6277
   2   2.0000     -19.000197      -517.0217
   3   2.0000     -18.986809      -516.6573
   4   2.0000     -14.190626      -386.1466
   5   2.0000     -10.181447      -277.0513
   6   2.0000     -10.149515      -276.1823
   7   2.0000     -10.128335      -275.6060
   8   2.0000     -10.123425      -275.4724
   9   2.0000     -10.121085      -275.4087
  10   2.0000     -10.118319      -275.3335
  11   2.0000     -10.112583      -275.1774
  12   2.0000     -10.032259      -272.9916
  13   2.0000      -8.151400      -221.8109
  14   2.0000      -6.171854      -167.9447
  15   2.0000      -6.164763      -167.7517
  16   2.0000      -6.164296      -167.7390
  17   2.0000      -1.534629       -41.7594
  18   2.0000      -1.287075       -35.0231
  19   2.0000      -1.183106       -32.1939
  20   2.0000      -1.093468       -29.7548
  21   2.0000      -1.025932       -27.9170
  22   2.0000      -0.979823       -26.6623
  23   2.0000      -0.931978       -25.3604
  24   2.0000      -0.901660       -24.5354
  25   2.0000      -0.872300       -23.7365
  26   2.0000      -0.846667       -23.0390
  27   2.0000      -0.796239       -21.6668
  28   2.0000      -0.759300       -20.6616
  29   2.0000      -0.741991       -20.1906
  30   2.0000      -0.731648       -19.9092
  31   2.0000      -0.713645       -19.4193
  32   2.0000      -0.691127       -18.8065
  33   2.0000      -0.656677       -17.8691
  34   2.0000      -0.645117       -17.5545
  35   2.0000      -0.642695       -17.4886
  36   2.0000      -0.623854       -16.9759
  37   2.0000      -0.611768       -16.6471
  38   2.0000      -0.602591       -16.3973
  39   2.0000      -0.587285       -15.9808
  40   2.0000      -0.579459       -15.7679
  41   2.0000      -0.554329       -15.0841
  42   2.0000      -0.546657       -14.8753
  43   2.0000      -0.533554       -14.5187
  44   2.0000      -0.522623       -14.2213
  45   2.0000      -0.517169       -14.0729
  46   2.0000      -0.499331       -13.5875
  47   2.0000      -0.493925       -13.4404
  48   2.0000      -0.485057       -13.1991
  49   2.0000      -0.467788       -12.7291
  50   2.0000      -0.461752       -12.5649
  51   2.0000      -0.453296       -12.3348
  52   2.0000      -0.450210       -12.2508
  53   2.0000      -0.439912       -11.9706
  54   2.0000      -0.435130       -11.8405
  55   2.0000      -0.303916        -8.2700
  56   0.0000       0.091067         2.4781
  57   0.0000       0.110034         2.9942
  58   0.0000       0.118922         3.2360
  59   0.0000       0.130912         3.5623
  60   0.0000       0.137611         3.7446

MULLIKEN ATOMIC CHARGES
-----------------------
   0 C :   -0.313542
   1 C :   -0.317657
   2 C :   -0.384496
   3 H :    0.220669
   4 H :    0.220616
   5 S :    0.831819
   6 C :    0.136131
   7 N :   -0.422188
   8 C :   -0.528463
   9 H :    0.134129
  10 H :    0.122408
  11 H :    0.243113
  12 H :    0.275773
  13 O :   -0.467192
  14 O :   -0.380189
  15 C :   -0.357636
  16 C :   -0.307340
  17 H :    0.185276
  18 H :    0.168334
  19 C :   -0.288984
  20 H :    0.170153
  21 H :    0.152127
  22 F :   -0.077955
  23 H :    0.169601
  24 H :    0.155607
  25 H :    0.158006
  26 H :    0.160556
  27 H :    0.172152
  28 H :    0.169173
Sum of atomic charges:   -0.0000000

LOEWDIN ATOMIC CHARGES
----------------------
   0 C :   -0.230156
   1 C :   -0.306369
   2 C :   -0.371392
   3 H :    0.157919
   4 H :    0.155217
   5 S :    0.542617
   6 C :   -0.390638
   7 N :   -0.003556
   8 C :   -0.305167
   9 H :    0.103820
  10 H :    0.097014
  11 H :    0.170594
  12 H :    0.174578
  13 O :   -0.299333
  14 O :   -0.248458
  15 C :   -0.277212
  16 C :   -0.287421
  17 H :    0.151148
  18 H :    0.156156
  19 C :   -0.286025
  20 H :    0.142992
  21 H :    0.145854
  22 F :    0.112373
  23 H :    0.146455
  24 H :    0.145152
  25 H :    0.147978
  26 H :    0.148729
  27 H :    0.155740
  28 H :    0.151394

  Mayer bond orders larger than 0.100000
B(  0-C ,  6-C ) :   0.9029 B(  0-C , 15-C ) :   0.8908 B(  0-C , 27-H ) :   0.9895
B(  0-C , 28-H ) :   0.9869 B(  1-C ,  2-C ) :   0.9260 B(  1-C , 16-C ) :   0.9258
B(  1-C , 17-H ) :   0.9846 B(  1-C , 18-H ) :   0.9612 B(  2-C ,  3-H ) :   0.9358
B(  2-C ,  4-H ) :   0.9465 B(  2-C ,  5-S ) :   0.9262 B(  5-S , 13-O ) :   1.7924
B(  5-S , 14-O ) :   2.0175 B(  5-S , 22-F ) :   1.1621 B(  6-C ,  7-N ) :   1.1454
B(  6-C ,  8-C ) :   1.6886 B(  7-N , 11-H ) :   0.9313 B(  7-N , 12-H ) :   0.9021
B(  8-C ,  9-H ) :   1.0287 B(  8-C , 10-H ) :   1.0194 B( 15-C , 19-C ) :   0.9218
B( 15-C , 20-H ) :   0.9986 B( 15-C , 21-H ) :   0.9757 B( 16-C , 19-C ) :   0.8498
B( 16-C , 25-H ) :   0.9913 B( 16-C , 26-H ) :   0.9719 B( 19-C , 23-H ) :   0.9748
B( 19-C , 24-H ) :   0.9740

FINAL SINGLE POINT ENERGY     -1015.680364823187

DIPOLE MOMENT
-------------
                                X             Y             Z
Electronic contribution:     -0.49824      -5.28301     -18.62013
Nuclear contribution   :     -0.51418       6.96452      19.50670
                        -----------------------------------------
Total Dipole Moment    :     -1.01242       1.68151       0.88657
                        -----------------------------------------
Magnitude (a.u.)       :      2.15371
Magnitude (Debye)      :      5.47431

Rotational constants in cm-1:     0.036455     0.018603     0.015008
Rotational constants in MHz :  1092.895336   557.693628   449.926016

                             ****ORCA TERMINATED NORMALLY****
TOTAL RUN TIME: 0 days 0 hours 1 minutes 0 seconds 934 msec
