                         Program Version 5.0.0 -  RELEASE  -
|  1> !B3LYP D3BJ RIJCOSX def2-TZVP def2/J TightSCF
|  2> *xyz -1 1
|  3> C          2.49556        1.81615       -2.13636
|  4> C          1.87218        0.42790       -2.07750
|  5> H          2.61427       -0.36583       -2.19889
|  6> H          1.38995        0.27309       -1.11236
|  7> S          0.57902        0.14047       -3.29794
|  8> O          0.22886       -1.24687       -3.12787
|  9> O         -0.43927        1.11897       -3.01455
| 10> O          1.24788        0.40347       -4.59565
| 11> H          2.96535        1.95613       -3.08747
| 12> H          3.22581        1.91242       -1.36024
| 13> H          1.73350        2.55528       -2.00274
| 14> *
| 15>
| 16> %MaxCore 64000
| 17>
| 18> %pal nprocs 4
| 19> end
| 20>
| 21> %scf
| 22>   MaxIter 150
| 23> end
| 24>
| 25>
| 26>                          ****END OF INPUT****

CARTESIAN COORDINATES (ANGSTROEM)
---------------------------------
  C      2.495560    1.816150   -2.136360
  C      1.872180    0.427900   -2.077500
  H      2.614270   -0.365830   -2.198890
  H      1.389950    0.273090   -1.112360
  S      0.579020    0.140470   -3.297940
  O      0.228860   -1.246870   -3.127870
  O     -0.439270    1.118970   -3.014550
  O      1.247880    0.403470   -4.595650
  H      2.965350    1.956130   -3.087470
  H      3.225810    1.912420   -1.360240
  H      1.733500    2.555280   -2.002740

 Total Charge           Charge          ....   -1
 Multiplicity           Mult            ....    1
 Number of Electrons    NEL             ....   58
 Basis Dimension        Dim             ....  222

ORBITAL ENERGIES
----------------

  NO   OCC          E(Eh)            E(eV)
   0   2.0000     -88.829805     -2417.1819
   1   2.0000     -18.897495      -514.2270
   2   2.0000     -18.897406      -514.2246
   3   2.0000     -18.882337      -513.8145
   4   2.0000     -10.021769      -272.7062
   5   2.0000     -10.016642      -272.5667
   6   2.0000      -7.873062      -214.2369
   7   2.0000      -5.836625      -158.8226
   8   2.0000      -5.835561      -158.7937
   9   2.0000      -5.835316      -158.7870
  10   2.0000      -0.918041       -24.9812
  11   2.0000      -0.791288       -21.5321
  12   2.0000      -0.764678       -20.8079
  13   2.0000      -0.625152       -17.0112
  14   2.0000      -0.498303       -13.5595
  15   2.0000      -0.373722       -10.1695
  16   2.0000      -0.311142        -8.4666
  17   2.0000      -0.307547        -8.3688
  18   2.0000      -0.267659        -7.2834
  19   2.0000      -0.254876        -6.9355
  20   2.0000      -0.247703        -6.7403
  21   2.0000      -0.224814        -6.1175
  22   2.0000      -0.207536        -5.6473
  23   2.0000      -0.145907        -3.9703
  24   2.0000      -0.145329        -3.9546
  25   2.0000      -0.112176        -3.0525
  26   2.0000      -0.103011        -2.8031
  27   2.0000      -0.092929        -2.5287
  28   2.0000      -0.058628        -1.5953
  29   0.0000       0.175347         4.7714
  30   0.0000       0.216973         5.9041
  31   0.0000       0.233549         6.3552
  32   0.0000       0.238501         6.4900
  33   0.0000       0.267661         7.2834

MULLIKEN ATOMIC CHARGES
-----------------------
   0 C :   -0.303641
   1 C :   -0.200184
   2 H :    0.063779
   3 H :    0.053356
   4 S :    0.842425
   5 O :   -0.551811
   6 O :   -0.553872
   7 O :   -0.604366
   8 H :    0.100966
   9 H :    0.053146
  10 H :    0.100203
Sum of atomic charges:   -1.0000000

LOEWDIN ATOMIC CHARGES
----------------------
   0 C :   -0.340100
   1 C :   -0.428800
   2 H :    0.113426
   3 H :    0.112193
   4 S :    0.411921
   5 O :   -0.378097
   6 O :   -0.377471
   7 O :   -0.432722
   8 H :    0.111844
   9 H :    0.095887
  10 H :    0.111918

  Mayer bond orders larger than 0.100000
B(  0-C ,  1-C ) :   0.9484 B(  0-C ,  8-H ) :   0.9737 B(  0-C ,  9-H ) :   0.9627
B(  0-C , 10-H ) :   0.9766 B(  1-C ,  2-H ) :   0.9594 B(  1-C ,  3-H ) :   0.9570
B(  1-C ,  4-S ) :   0.8704 B(  4-S ,  5-O ) :   1.8218 B(  4-S ,  6-O ) :   1.7813
B(  4-S ,  7-O ) :   1.7253

Dispersion correction           -0.016774163
FINAL SINGLE POINT ENERGY      -703.118602423390

DIPOLE MOMENT
-------------
                                X             Y             Z
Electronic contribution:     -5.73877      -3.62022      -4.13519
Nuclear contribution   :      6.89220       4.11756       5.35566
                        -----------------------------------------
Total Dipole Moment    :      1.15343       0.49734       1.22047
                        -----------------------------------------
Magnitude (a.u.)       :      1.75137
Magnitude (Debye)      :      4.45163

Rotational constants in cm-1:     0.162183     0.084017     0.082390
Rotational constants in MHz :  4862.117324  2518.774315  2469.980309

                             ****ORCA TERMINATED NORMALLY****
TOTAL RUN TIME: 0 days 0 hours 0 minutes 18 seconds 214 msec
