                         Program Version 5.0.0 -  RELEASE  -
|  1> !B3LYP D3BJ RIJCOSX def2-TZVP def2/J TightSCF
|  2> *xyz 1 1
|  3> C          3.38093        2.08304       -3.35013
|  4> N          4.53592        1.18245       -3.42852
|  5> C          2.49556        1.81615       -2.13636
|  6> C          4.67196        0.12227       -4.22060
|  7> N          5.86602       -0.50785       -4.22428
|  8> N          3.69888       -0.31284       -4.98699
|  9> H          2.73141       -0.05009       -4.84900
| 10> H          3.89005       -1.05517       -5.64373
| 11> H          5.25193        1.30346       -2.72101
| 12> H          6.69516       -0.06232       -3.85160
| 13> H          5.97538       -1.39688       -4.69141
| 14> H          2.80646        1.98651       -4.26848
| 15> H          3.77871        3.09828       -3.30738
| 16> H          2.11090        0.81901       -2.18783
| 17> H          1.68276        2.51198       -2.12786
| 18> H          3.07216        1.93031       -1.24227
| 19> *
| 20>
| 21> %MaxCore 64000
| 22>
| 23> %pal nprocs 4
| 24> end
| 25>
| 26> %scf
| 27>   MaxIter 150
| 28> end
| 29>
| 30>
| 31>                          ****END OF INPUT****

CARTESIAN COORDINATES (ANGSTROEM)
---------------------------------
  C      3.380930    2.083040   -3.350130
  N      4.535920    1.182450   -3.428520
  C      2.495560    1.816150   -2.136360
  C      4.671960    0.122270   -4.220600
  N      5.866020   -0.507850   -4.224280
  N      3.698880   -0.312840   -4.986990
  H      2.731410   -0.050090   -4.849000
  H      3.890050   -1.055170   -5.643730
  H      5.251930    1.303460   -2.721010
  H      6.695160   -0.062320   -3.851600
  H      5.975380   -1.396880   -4.691410
  H      2.806460    1.986510   -4.268480
  H      3.778710    3.098280   -3.307380
  H      2.110900    0.819010   -2.187830
  H      1.682760    2.511980   -2.127860
  H      3.072160    1.930310   -1.242270

 Total Charge           Charge          ....    1
 Multiplicity           Mult            ....    1
 Number of Electrons    NEL             ....   48
 Basis Dimension        Dim             ....  246

ORBITAL ENERGIES
----------------

  NO   OCC          E(Eh)            E(eV)
   0   2.0000     -14.539729      -395.6461
   1   2.0000     -14.535064      -395.5192
   2   2.0000     -14.531692      -395.4274
   3   2.0000     -10.502191      -285.7792
   4   2.0000     -10.373571      -282.2792
   5   2.0000     -10.301731      -280.3244
   6   2.0000      -1.211318       -32.9616
   7   2.0000      -1.103107       -30.0171
   8   2.0000      -1.088201       -29.6115
   9   2.0000      -0.928508       -25.2660
  10   2.0000      -0.840982       -22.8843
  11   2.0000      -0.801232       -21.8026
  12   2.0000      -0.784593       -21.3499
  13   2.0000      -0.741264       -20.1708
  14   2.0000      -0.695693       -18.9308
  15   2.0000      -0.691987       -18.8299
  16   2.0000      -0.640825       -17.4377
  17   2.0000      -0.628669       -17.1069
  18   2.0000      -0.602826       -16.4037
  19   2.0000      -0.556729       -15.1494
  20   2.0000      -0.530179       -14.4269
  21   2.0000      -0.514410       -13.9978
  22   2.0000      -0.477297       -12.9879
  23   2.0000      -0.446475       -12.1492
  24   0.0000      -0.164565        -4.4780
  25   0.0000      -0.152391        -4.1468
  26   0.0000      -0.119705        -3.2573
  27   0.0000      -0.109828        -2.9886
  28   0.0000      -0.092392        -2.5141

MULLIKEN ATOMIC CHARGES
-----------------------
   0 C :   -0.156206
   1 N :   -0.259949
   2 C :   -0.280214
   3 C :    0.484027
   4 N :   -0.428710
   5 N :   -0.397493
   6 H :    0.287021
   7 H :    0.272831
   8 H :    0.247808
   9 H :    0.280521
  10 H :    0.274198
  11 H :    0.126537
  12 H :    0.159147
  13 H :    0.109862
  14 H :    0.152171
  15 H :    0.128448
Sum of atomic charges:    1.0000000

LOEWDIN ATOMIC CHARGES
----------------------
   0 C :   -0.272608
   1 N :    0.169958
   2 C :   -0.278728
   3 C :   -0.404853
   4 N :    0.049374
   5 N :    0.084260
   6 H :    0.198111
   7 H :    0.198764
   8 H :    0.208249
   9 H :    0.194344
  10 H :    0.191338
  11 H :    0.136259
  12 H :    0.147965
  13 H :    0.118432
  14 H :    0.134676
  15 H :    0.124458

  Mayer bond orders larger than 0.100000
B(  0-C ,  1-N ) :   0.8661 B(  0-C ,  2-C ) :   0.9668 B(  0-C , 11-H ) :   0.9705
B(  0-C , 12-H ) :   0.9591 B(  1-N ,  3-C ) :   1.3763 B(  1-N ,  8-H ) :   0.9064
B(  2-C , 13-H ) :   0.9597 B(  2-C , 14-H ) :   0.9690 B(  2-C , 15-H ) :   0.9708
B(  3-C ,  4-N ) :   1.2830 B(  3-C ,  5-N ) :   1.3406 B(  4-N ,  9-H ) :   0.8999
B(  4-N , 10-H ) :   0.9022 B(  5-N ,  6-H ) :   0.8934 B(  5-N ,  7-H ) :   0.9006

Dispersion correction           -0.019882208
FINAL SINGLE POINT ENERGY      -284.354920775267

DIPOLE MOMENT
-------------
                                X             Y             Z
Electronic contribution:      3.57547      -2.66156      -2.82630
Nuclear contribution   :     -2.93277       1.85779       2.25966
                        -----------------------------------------
Total Dipole Moment    :      0.64270      -0.80376      -0.56664
                        -----------------------------------------
Magnitude (a.u.)       :      1.17481
Magnitude (Debye)      :      2.98613

Rotational constants in cm-1:     0.245511     0.068839     0.059711
Rotational constants in MHz :  7360.233487  2063.743353  1790.088408

                             ****ORCA TERMINATED NORMALLY****
TOTAL RUN TIME: 0 days 0 hours 0 minutes 26 seconds 728 msec
