                         Program Version 5.0.0 -  RELEASE  -
|  1> !B3LYP D3BJ RIJCOSX def2-TZVP def2/J TightSCF
|  2> *xyz 0 1
|  3> C          2.49556        1.81615       -2.13636
|  4> C          1.87218        0.42790       -2.07750
|  5> H          2.61427       -0.36583       -2.19889
|  6> H          1.38995        0.27309       -1.11236
|  7> S          0.57902        0.14047       -3.29794
|  8> F          0.22886       -1.24687       -3.12787
|  9> O         -0.43927        1.11897       -3.01455
| 10> O          1.24788        0.40347       -4.59565
| 11> H          2.96535        1.95613       -3.08747
| 12> H          3.22581        1.91242       -1.36024
| 13> H          1.73350        2.55528       -2.00274
| 14> *
| 15>
| 16> %MaxCore 64000
| 17>
| 18> %pal nprocs 4
| 19> end
| 20>
| 21> %scf
| 22>   MaxIter 150
| 23> end
| 24>
| 25>
| 26>                          ****END OF INPUT****

CARTESIAN COORDINATES (ANGSTROEM)
---------------------------------
  C      2.495560    1.816150   -2.136360
  C      1.872180    0.427900   -2.077500
  H      2.614270   -0.365830   -2.198890
  H      1.389950    0.273090   -1.112360
  S      0.579020    0.140470   -3.297940
  F      0.228860   -1.246870   -3.127870
  O     -0.439270    1.118970   -3.014550
  O      1.247880    0.403470   -4.595650
  H      2.965350    1.956130   -3.087470
  H      3.225810    1.912420   -1.360240
  H      1.733500    2.555280   -2.002740

 Total Charge           Charge          ....    0
 Multiplicity           Mult            ....    1
 Number of Electrons    NEL             ....   58
 Basis Dimension        Dim             ....  222

ORBITAL ENERGIES
----------------

  NO   OCC          E(Eh)            E(eV)
   0   2.0000     -89.096828     -2424.4480
   1   2.0000     -24.803202      -674.9294
   2   2.0000     -19.137462      -520.7568
   3   2.0000     -19.122468      -520.3488
   4   2.0000     -10.227136      -278.2945
   5   2.0000     -10.183199      -277.0989
   6   2.0000      -8.140698      -221.5196
   7   2.0000      -6.107419      -166.1913
   8   2.0000      -6.101012      -166.0170
   9   2.0000      -6.100904      -166.0140
  10   2.0000      -1.386038       -37.7160
  11   2.0000      -1.105026       -30.0693
  12   2.0000      -1.003946       -27.3188
  13   2.0000      -0.818749       -22.2793
  14   2.0000      -0.737527       -20.0691
  15   2.0000      -0.673659       -18.3312
  16   2.0000      -0.588665       -16.0184
  17   2.0000      -0.587143       -15.9770
  18   2.0000      -0.554474       -15.0880
  19   2.0000      -0.492415       -13.3993
  20   2.0000      -0.481455       -13.1011
  21   2.0000      -0.442859       -12.0508
  22   2.0000      -0.428942       -11.6721
  23   2.0000      -0.408523       -11.1165
  24   2.0000      -0.387552       -10.5458
  25   2.0000      -0.384703       -10.4683
  26   2.0000      -0.334802        -9.1104
  27   2.0000      -0.320891        -8.7319
  28   2.0000      -0.305024        -8.3001
  29   0.0000       0.018576         0.5055
  30   0.0000       0.033902         0.9225
  31   0.0000       0.061009         1.6602
  32   0.0000       0.069078         1.8797
  33   0.0000       0.072915         1.9841

MULLIKEN ATOMIC CHARGES
-----------------------
   0 C :   -0.330055
   1 C :   -0.212133
   2 H :    0.126001
   3 H :    0.120832
   4 S :    0.871859
   5 F :   -0.103187
   6 O :   -0.409231
   7 O :   -0.457641
   8 H :    0.138260
   9 H :    0.119251
  10 H :    0.136044
Sum of atomic charges:    0.0000000

LOEWDIN ATOMIC CHARGES
----------------------
   0 C :   -0.298676
   1 C :   -0.394987
   2 H :    0.133131
   3 H :    0.133096
   4 S :    0.532825
   5 F :    0.097258
   6 O :   -0.262006
   7 O :   -0.314868
   8 H :    0.125722
   9 H :    0.123001
  10 H :    0.125504

  Mayer bond orders larger than 0.100000
B(  0-C ,  1-C ) :   0.9674 B(  0-C ,  8-H ) :   0.9695 B(  0-C ,  9-H ) :   0.9591
B(  0-C , 10-H ) :   0.9702 B(  1-C ,  2-H ) :   0.9377 B(  1-C ,  3-H ) :   0.9374
B(  1-C ,  4-S ) :   0.9130 B(  4-S ,  5-F ) :   1.1332 B(  4-S ,  6-O ) :   1.9234
B(  4-S ,  7-O ) :   1.8697

Dispersion correction           -0.016029955
FINAL SINGLE POINT ENERGY      -727.637950052766

DIPOLE MOMENT
-------------
                                X             Y             Z
Electronic contribution:     -6.83722      -6.41731      -4.10865
Nuclear contribution   :      7.60530       5.82028       5.38743
                        -----------------------------------------
Total Dipole Moment    :      0.76808      -0.59703       1.27879
                        -----------------------------------------
Magnitude (a.u.)       :      1.60676
Magnitude (Debye)      :      4.08406

Rotational constants in cm-1:     0.157861     0.081452     0.078859
Rotational constants in MHz :  4732.562506  2441.865430  2364.129821

                             ****ORCA TERMINATED NORMALLY****
TOTAL RUN TIME: 0 days 0 hours 0 minutes 21 seconds 929 msec
