                         Program Version 5.0.0 -  RELEASE  -
|  1> !B3LYP D3BJ RIJCOSX def2-TZVP def2/J TightSCF
|  2> *xyz 0 1
|  3> C          3.38093        2.08304       -3.35013
|  4> C          4.53592        1.18245       -3.42852
|  5> C          2.49556        1.81615       -2.13636
|  6> C          4.67196        0.12227       -4.22060
|  7> N          5.86602       -0.50785       -4.22428
|  8> N          3.69888       -0.31284       -4.98699
|  9> H          2.73141       -0.05009       -4.84900
| 10> H          3.89005       -1.05517       -5.64373
| 11> H          5.25193        1.30346       -2.72101
| 12> H          6.69516       -0.06232       -3.85160
| 13> H          5.97538       -1.39688       -4.69141
| 14> H          2.80646        1.98651       -4.26848
| 15> H          3.77871        3.09828       -3.30738
| 16> H          2.11090        0.81901       -2.18783
| 17> H          1.68276        2.51198       -2.12786
| 18> H          3.07216        1.93031       -1.24227
| 19> *
| 20>
| 21> %MaxCore 64000
| 22>
| 23> %pal nprocs 4
| 24> end
| 25>
| 26> %scf
| 27>   MaxIter 150
| 28> end
| 29>
| 30>
| 31>                          ****END OF INPUT****

CARTESIAN COORDINATES (ANGSTROEM)
---------------------------------
  C      3.380930    2.083040   -3.350130
  C      4.535920    1.182450   -3.428520
  C      2.495560    1.816150   -2.136360
  C      4.671960    0.122270   -4.220600
  N      5.866020   -0.507850   -4.224280
  N      3.698880   -0.312840   -4.986990
  H      2.731410   -0.050090   -4.849000
  H      3.890050   -1.055170   -5.643730
  H      5.251930    1.303460   -2.721010
  H      6.695160   -0.062320   -3.851600
  H      5.975380   -1.396880   -4.691410
  H      2.806460    1.986510   -4.268480
  H      3.778710    3.098280   -3.307380
  H      2.110900    0.819010   -2.187830
  H      1.682760    2.511980   -2.127860
  H      3.072160    1.930310   -1.242270

 Total Charge           Charge          ....    0
 Multiplicity           Mult            ....    1
 Number of Electrons    NEL             ....   48
 Basis Dimension        Dim             ....  246

ORBITAL ENERGIES
----------------

  NO   OCC          E(Eh)            E(eV)
   0   2.0000     -14.315141      -389.5348
   1   2.0000     -14.307292      -389.3212
   2   2.0000     -10.208688      -277.7925
   3   2.0000     -10.138074      -275.8710
   4   2.0000     -10.129174      -275.6288
   5   2.0000     -10.085845      -274.4498
   6   2.0000      -0.958142       -26.0724
   7   2.0000      -0.867244       -23.5989
   8   2.0000      -0.766617       -20.8607
   9   2.0000      -0.690939       -18.8014
  10   2.0000      -0.614041       -16.7089
  11   2.0000      -0.574848       -15.6424
  12   2.0000      -0.541519       -14.7355
  13   2.0000      -0.503988       -13.7142
  14   2.0000      -0.478435       -13.0189
  15   2.0000      -0.438809       -11.9406
  16   2.0000      -0.412191       -11.2163
  17   2.0000      -0.389361       -10.5950
  18   2.0000      -0.375291       -10.2122
  19   2.0000      -0.347023        -9.4430
  20   2.0000      -0.324545        -8.8313
  21   2.0000      -0.318280        -8.6608
  22   2.0000      -0.262081        -7.1316
  23   2.0000      -0.154451        -4.2028
  24   0.0000       0.018541         0.5045
  25   0.0000       0.046525         1.2660
  26   0.0000       0.065278         1.7763
  27   0.0000       0.077415         2.1066
  28   0.0000       0.089510         2.4357

MULLIKEN ATOMIC CHARGES
-----------------------
   0 C :   -0.179105
   1 C :   -0.317388
   2 C :   -0.261045
   3 C :    0.376475
   4 N :   -0.483177
   5 N :   -0.470341
   6 H :    0.238083
   7 H :    0.204984
   8 H :    0.073177
   9 H :    0.233413
  10 H :    0.199805
  11 H :    0.051954
  12 H :    0.077680
  13 H :    0.080113
  14 H :    0.086868
  15 H :    0.088505
Sum of atomic charges:   -0.0000000

LOEWDIN ATOMIC CHARGES
----------------------
   0 C :   -0.301348
   1 C :   -0.273797
   2 C :   -0.301384
   3 C :   -0.460206
   4 N :   -0.027429
   5 N :    0.003170
   6 H :    0.174993
   7 H :    0.161634
   8 H :    0.116978
   9 H :    0.172530
  10 H :    0.152749
  11 H :    0.124370
  12 H :    0.133524
  13 H :    0.107719
  14 H :    0.105263
  15 H :    0.111233

  Mayer bond orders larger than 0.100000
B(  0-C ,  1-C ) :   1.0398 B(  0-C ,  2-C ) :   0.9458 B(  0-C , 11-H ) :   0.9749
B(  0-C , 12-H ) :   0.9795 B(  1-C ,  3-C ) :   1.6565 B(  1-C ,  8-H ) :   0.9896
B(  2-C , 13-H ) :   0.9785 B(  2-C , 14-H ) :   0.9745 B(  2-C , 15-H ) :   0.9813
B(  3-C ,  4-N ) :   1.0989 B(  3-C ,  5-N ) :   1.1274 B(  4-N ,  9-H ) :   0.9222
B(  4-N , 10-H ) :   0.9299 B(  5-N ,  6-H ) :   0.9213 B(  5-N ,  7-H ) :   0.9286

Dispersion correction           -0.020813658
FINAL SINGLE POINT ENERGY      -267.868801314721

DIPOLE MOMENT
-------------
                                X             Y             Z
Electronic contribution:      3.02767      -2.86463      -2.94726
Nuclear contribution   :     -2.84307       1.95814       2.32378
                        -----------------------------------------
Total Dipole Moment    :      0.18460      -0.90649      -0.62348
                        -----------------------------------------
Magnitude (a.u.)       :      1.11559
Magnitude (Debye)      :      2.83559

Rotational constants in cm-1:     0.248902     0.068887     0.059904
Rotational constants in MHz :  7461.898926  2065.183281  1795.882140

                             ****ORCA TERMINATED NORMALLY****
TOTAL RUN TIME: 0 days 0 hours 0 minutes 25 seconds 217 msec
