                         Program Version 5.0.0 -  RELEASE  -
|  1> !B3LYP D3BJ RIJCOSX def2-TZVP def2/J TightSCF
|  2> *xyz 0 1
|  3> C          2.49556        1.81615       -2.13636
|  4> C          1.87218        0.42790       -2.07750
|  5> H          2.61427       -0.36583       -2.19889
|  6> H          1.38995        0.27309       -1.11236
|  7> S          0.57902        0.14047       -3.29794
|  8> O          0.22886       -1.24687       -3.12787
|  9> F         -0.43927        1.11897       -3.01455
| 10> O          1.24788        0.40347       -4.59565
| 11> H          2.96535        1.95613       -3.08747
| 12> H          3.22581        1.91242       -1.36024
| 13> H          1.73350        2.55528       -2.00274
| 14> *
| 15>
| 16> %MaxCore 64000
| 17>
| 18> %pal nprocs 4
| 19> end
| 20>
| 21> %scf
| 22>   MaxIter 150
| 23> end
| 24>
| 25>
| 26>                          ****END OF INPUT****

CARTESIAN COORDINATES (ANGSTROEM)
---------------------------------
  C      2.495560    1.816150   -2.136360
  C      1.872180    0.427900   -2.077500
  H      2.614270   -0.365830   -2.198890
  H      1.389950    0.273090   -1.112360
  S      0.579020    0.140470   -3.297940
  O      0.228860   -1.246870   -3.127870
  F     -0.439270    1.118970   -3.014550
  O      1.247880    0.403470   -4.595650
  H      2.965350    1.956130   -3.087470
  H      3.225810    1.912420   -1.360240
  H      1.733500    2.555280   -2.002740

 Total Charge           Charge          ....    0
 Multiplicity           Mult            ....    1
 Number of Electrons    NEL             ....   58
 Basis Dimension        Dim             ....  222

ORBITAL ENERGIES
----------------

  NO   OCC          E(Eh)            E(eV)
   0   2.0000     -89.097075     -2424.4547
   1   2.0000     -24.803388      -674.9345
   2   2.0000     -19.137908      -520.7690
   3   2.0000     -19.123270      -520.3706
   4   2.0000     -10.227105      -278.2937
   5   2.0000     -10.186141      -277.1790
   6   2.0000      -8.140912      -221.5255
   7   2.0000      -6.107781      -166.2012
   8   2.0000      -6.101222      -166.0227
   9   2.0000      -6.100993      -166.0165
  10   2.0000      -1.386637       -37.7323
  11   2.0000      -1.104572       -30.0569
  12   2.0000      -1.005017       -27.3479
  13   2.0000      -0.821691       -22.3593
  14   2.0000      -0.734348       -19.9826
  15   2.0000      -0.677481       -18.4352
  16   2.0000      -0.597293       -16.2532
  17   2.0000      -0.587610       -15.9897
  18   2.0000      -0.548094       -14.9144
  19   2.0000      -0.492431       -13.3997
  20   2.0000      -0.478753       -13.0275
  21   2.0000      -0.451742       -12.2925
  22   2.0000      -0.432814       -11.7775
  23   2.0000      -0.408243       -11.1089
  24   2.0000      -0.397764       -10.8237
  25   2.0000      -0.378616       -10.3027
  26   2.0000      -0.334125        -9.0920
  27   2.0000      -0.321046        -8.7361
  28   2.0000      -0.307057        -8.3554
  29   0.0000       0.010023         0.2727
  30   0.0000       0.041636         1.1330
  31   0.0000       0.055473         1.5095
  32   0.0000       0.067087         1.8255
  33   0.0000       0.078191         2.1277

MULLIKEN ATOMIC CHARGES
-----------------------
   0 C :   -0.326157
   1 C :   -0.224427
   2 H :    0.150182
   3 H :    0.122954
   4 S :    0.873199
   5 O :   -0.405757
   6 F :   -0.105844
   7 O :   -0.458475
   8 H :    0.143137
   9 H :    0.120100
  10 H :    0.111088
Sum of atomic charges:    0.0000000

LOEWDIN ATOMIC CHARGES
----------------------
   0 C :   -0.312137
   1 C :   -0.389565
   2 H :    0.147241
   3 H :    0.133198
   4 S :    0.534021
   5 O :   -0.261641
   6 F :    0.098478
   7 O :   -0.314176
   8 H :    0.125111
   9 H :    0.122465
  10 H :    0.117004

  Mayer bond orders larger than 0.100000
B(  0-C ,  1-C ) :   0.9511 B(  0-C ,  8-H ) :   0.9676 B(  0-C ,  9-H ) :   0.9619
B(  0-C , 10-H ) :   0.9720 B(  1-C ,  2-H ) :   0.9447 B(  1-C ,  3-H ) :   0.9450
B(  1-C ,  4-S ) :   0.9067 B(  4-S ,  5-O ) :   1.9468 B(  4-S ,  6-F ) :   1.1228
B(  4-S ,  7-O ) :   1.8651

Dispersion correction           -0.015948362
FINAL SINGLE POINT ENERGY      -727.637890811543

DIPOLE MOMENT
-------------
                                X             Y             Z
Electronic contribution:     -7.95689      -2.42091      -3.91140
Nuclear contribution   :      8.30151       3.35500       5.26935
                        -----------------------------------------
Total Dipole Moment    :      0.34462       0.93409       1.35796
                        -----------------------------------------
Magnitude (a.u.)       :      1.68384
Magnitude (Debye)      :      4.27999

Rotational constants in cm-1:     0.152913     0.083043     0.080351
Rotational constants in MHz :  4584.227971  2489.580280  2408.872860

                             ****ORCA TERMINATED NORMALLY****
TOTAL RUN TIME: 0 days 0 hours 0 minutes 21 seconds 790 msec
