                         Program Version 5.0.0 -  RELEASE  -
|  1> !B3LYP D3BJ RIJCOSX def2-TZVP def2/J TightSCF
|  2> *xyz 0 1
|  3> C          3.38093        2.08304       -3.35013
|  4> N          4.53592        1.18245       -3.42852
|  5> C          2.49556        1.81615       -2.13636
|  6> C          4.67196        0.12227       -4.22060
|  7> C          5.86602       -0.50785       -4.22428
|  8> N          3.69888       -0.31284       -4.98699
|  9> H          2.73141       -0.05009       -4.84900
| 10> H          3.89005       -1.05517       -5.64373
| 11> H          5.25193        1.30346       -2.72101
| 12> H          6.69516       -0.06232       -3.85160
| 13> H          5.97538       -1.39688       -4.69141
| 14> H          2.80646        1.98651       -4.26848
| 15> H          3.77871        3.09828       -3.30738
| 16> H          2.11090        0.81901       -2.18783
| 17> H          1.68276        2.51198       -2.12786
| 18> H          3.07216        1.93031       -1.24227
| 19> *
| 20>
| 21> %MaxCore 64000
| 22>
| 23> %pal nprocs 4
| 24> end
| 25>
| 26> %scf
| 27>   MaxIter 150
| 28> end
| 29>
| 30>
| 31>                          ****END OF INPUT****

CARTESIAN COORDINATES (ANGSTROEM)
---------------------------------
  C      3.380930    2.083040   -3.350130
  N      4.535920    1.182450   -3.428520
  C      2.495560    1.816150   -2.136360
  C      4.671960    0.122270   -4.220600
  C      5.866020   -0.507850   -4.224280
  N      3.698880   -0.312840   -4.986990
  H      2.731410   -0.050090   -4.849000
  H      3.890050   -1.055170   -5.643730
  H      5.251930    1.303460   -2.721010
  H      6.695160   -0.062320   -3.851600
  H      5.975380   -1.396880   -4.691410
  H      2.806460    1.986510   -4.268480
  H      3.778710    3.098280   -3.307380
  H      2.110900    0.819010   -2.187830
  H      1.682760    2.511980   -2.127860
  H      3.072160    1.930310   -1.242270

 Total Charge           Charge          ....    0
 Multiplicity           Mult            ....    1
 Number of Electrons    NEL             ....   48
 Basis Dimension        Dim             ....  246

ORBITAL ENERGIES
----------------

  NO   OCC          E(Eh)            E(eV)
   0   2.0000     -14.315436      -389.5428
   1   2.0000     -14.312552      -389.4643
   2   2.0000     -10.213335      -277.9190
   3   2.0000     -10.207410      -277.7577
   4   2.0000     -10.159708      -276.4597
   5   2.0000     -10.074169      -274.1321
   6   2.0000      -0.965859       -26.2824
   7   2.0000      -0.886078       -24.1114
   8   2.0000      -0.769547       -20.9404
   9   2.0000      -0.694886       -18.9088
  10   2.0000      -0.626102       -17.0371
  11   2.0000      -0.601122       -16.3574
  12   2.0000      -0.542420       -14.7600
  13   2.0000      -0.496572       -13.5124
  14   2.0000      -0.479824       -13.0567
  15   2.0000      -0.444878       -12.1057
  16   2.0000      -0.427236       -11.6257
  17   2.0000      -0.401084       -10.9140
  18   2.0000      -0.386979       -10.5302
  19   2.0000      -0.368364       -10.0237
  20   2.0000      -0.362942        -9.8762
  21   2.0000      -0.351049        -9.5525
  22   2.0000      -0.252249        -6.8640
  23   2.0000      -0.155047        -4.2190
  24   0.0000       0.018304         0.4981
  25   0.0000       0.049298         1.3415
  26   0.0000       0.058800         1.6000
  27   0.0000       0.078337         2.1317
  28   0.0000       0.085689         2.3317

MULLIKEN ATOMIC CHARGES
-----------------------
   0 C :   -0.125049
   1 N :   -0.308099
   2 C :   -0.261346
   3 C :    0.433220
   4 C :   -0.574761
   5 N :   -0.472323
   6 H :    0.212137
   7 H :    0.233149
   8 H :    0.210437
   9 H :    0.086754
  10 H :    0.075206
  11 H :    0.096155
  12 H :    0.103464
  13 H :    0.097785
  14 H :    0.097296
  15 H :    0.095976
Sum of atomic charges:   -0.0000000

LOEWDIN ATOMIC CHARGES
----------------------
   0 C :   -0.304133
   1 N :    0.121838
   2 C :   -0.303220
   3 C :   -0.464255
   4 C :   -0.359444
   5 N :    0.007346
   6 H :    0.158892
   7 H :    0.178877
   8 H :    0.191999
   9 H :    0.091563
  10 H :    0.089561
  11 H :    0.125802
  12 H :    0.126583
  13 H :    0.112108
  14 H :    0.113713
  15 H :    0.112769

  Mayer bond orders larger than 0.100000
B(  0-C ,  1-N ) :   0.9319 B(  0-C ,  2-C ) :   0.9485 B(  0-C , 11-H ) :   0.9770
B(  0-C , 12-H ) :   0.9757 B(  1-N ,  3-C ) :   1.1900 B(  1-N ,  8-H ) :   0.9270
B(  2-C , 13-H ) :   0.9731 B(  2-C , 14-H ) :   0.9707 B(  2-C , 15-H ) :   0.9755
B(  3-C ,  4-C ) :   1.5336 B(  3-C ,  5-N ) :   1.1477 B(  4-C ,  9-H ) :   1.0068
B(  4-C , 10-H ) :   1.0085 B(  5-N ,  6-H ) :   0.9224 B(  5-N ,  7-H ) :   0.9228

Dispersion correction           -0.020550625
FINAL SINGLE POINT ENERGY      -267.859904008995

DIPOLE MOMENT
-------------
                                X             Y             Z
Electronic contribution:      1.49156      -1.10758      -2.05780
Nuclear contribution   :     -2.56090       1.59955       2.15496
                        -----------------------------------------
Total Dipole Moment    :     -1.06935       0.49197       0.09717
                        -----------------------------------------
Magnitude (a.u.)       :      1.18109
Magnitude (Debye)      :      3.00209

Rotational constants in cm-1:     0.249834     0.071381     0.061833
Rotational constants in MHz :  7489.842787  2139.945635  1853.706310

                             ****ORCA TERMINATED NORMALLY****
TOTAL RUN TIME: 0 days 0 hours 0 minutes 29 seconds 911 msec
