                         Program Version 5.0.0 -  RELEASE  -
|  1> !B3LYP D3BJ RIJCOSX def2-TZVP def2/J TightSCF
|  2> *xyz 0 1
|  3> C          2.49556        1.81615       -2.13636
|  4> C          1.87218        0.42790       -2.07750
|  5> H          2.61427       -0.36583       -2.19889
|  6> H          1.38995        0.27309       -1.11236
|  7> S          0.57902        0.14047       -3.29794
|  8> O          0.22886       -1.24687       -3.12787
|  9> O         -0.43927        1.11897       -3.01455
| 10> F          1.24788        0.40347       -4.59565
| 11> H          2.96535        1.95613       -3.08747
| 12> H          3.22581        1.91242       -1.36024
| 13> H          1.73350        2.55528       -2.00274
| 14> *
| 15>
| 16> %MaxCore 64000
| 17>
| 18> %pal nprocs 4
| 19> end
| 20>
| 21> %scf
| 22>   MaxIter 150
| 23> end
| 24>
| 25>
| 26>                          ****END OF INPUT****

CARTESIAN COORDINATES (ANGSTROEM)
---------------------------------
  C      2.495560    1.816150   -2.136360
  C      1.872180    0.427900   -2.077500
  H      2.614270   -0.365830   -2.198890
  H      1.389950    0.273090   -1.112360
  S      0.579020    0.140470   -3.297940
  O      0.228860   -1.246870   -3.127870
  O     -0.439270    1.118970   -3.014550
  F      1.247880    0.403470   -4.595650
  H      2.965350    1.956130   -3.087470
  H      3.225810    1.912420   -1.360240
  H      1.733500    2.555280   -2.002740

 Total Charge           Charge          ....    0
 Multiplicity           Mult            ....    1
 Number of Electrons    NEL             ....   58
 Basis Dimension        Dim             ....  222

ORBITAL ENERGIES
----------------

  NO   OCC          E(Eh)            E(eV)
   0   2.0000     -89.094774     -2424.3921
   1   2.0000     -24.780933      -674.3235
   2   2.0000     -19.137764      -520.7650
   3   2.0000     -19.137450      -520.7565
   4   2.0000     -10.226131      -278.2672
   5   2.0000     -10.186731      -277.1950
   6   2.0000      -8.138656      -221.4641
   7   2.0000      -6.105552      -166.1405
   8   2.0000      -6.099097      -165.9649
   9   2.0000      -6.098728      -165.9548
  10   2.0000      -1.350405       -36.7464
  11   2.0000      -1.115580       -30.3565
  12   2.0000      -1.026256       -27.9258
  13   2.0000      -0.821039       -22.3416
  14   2.0000      -0.720045       -19.5934
  15   2.0000      -0.670658       -18.2495
  16   2.0000      -0.579149       -15.7594
  17   2.0000      -0.562546       -15.3077
  18   2.0000      -0.545704       -14.8494
  19   2.0000      -0.493711       -13.4346
  20   2.0000      -0.476232       -12.9589
  21   2.0000      -0.455939       -12.4067
  22   2.0000      -0.436753       -11.8847
  23   2.0000      -0.409151       -11.1336
  24   2.0000      -0.403059       -10.9678
  25   2.0000      -0.381524       -10.3818
  26   2.0000      -0.342240        -9.3128
  27   2.0000      -0.331987        -9.0338
  28   2.0000      -0.322470        -8.7749
  29   0.0000       0.011399         0.3102
  30   0.0000       0.047119         1.2822
  31   0.0000       0.058500         1.5919
  32   0.0000       0.068984         1.8772
  33   0.0000       0.077798         2.1170

MULLIKEN ATOMIC CHARGES
-----------------------
   0 C :   -0.331884
   1 C :   -0.225880
   2 H :    0.133542
   3 H :    0.141685
   4 S :    0.879279
   5 O :   -0.414092
   6 O :   -0.419334
   7 F :   -0.140154
   8 H :    0.116146
   9 H :    0.120879
  10 H :    0.139812
Sum of atomic charges:   -0.0000000

LOEWDIN ATOMIC CHARGES
----------------------
   0 C :   -0.312911
   1 C :   -0.389051
   2 H :    0.135433
   3 H :    0.146174
   4 S :    0.540582
   5 O :   -0.265536
   6 O :   -0.265543
   7 F :    0.046235
   8 H :    0.117515
   9 H :    0.122813
  10 H :    0.124290

  Mayer bond orders larger than 0.100000
B(  0-C ,  1-C ) :   0.9508 B(  0-C ,  8-H ) :   0.9719 B(  0-C ,  9-H ) :   0.9626
B(  0-C , 10-H ) :   0.9685 B(  1-C ,  2-H ) :   0.9450 B(  1-C ,  3-H ) :   0.9453
B(  1-C ,  4-S ) :   0.9072 B(  4-S ,  5-O ) :   1.9452 B(  4-S ,  6-O ) :   1.9172
B(  4-S ,  7-F ) :   1.0819

Dispersion correction           -0.015943738
FINAL SINGLE POINT ENERGY      -727.656335163708

DIPOLE MOMENT
-------------
                                X             Y             Z
Electronic contribution:     -5.09626      -3.62156      -6.59168
Nuclear contribution   :      6.54345       4.10057       6.91691
                        -----------------------------------------
Total Dipole Moment    :      1.44719       0.47901       0.32523
                        -----------------------------------------
Magnitude (a.u.)       :      1.55871
Magnitude (Debye)      :      3.96193

Rotational constants in cm-1:     0.152835     0.082826     0.080611
Rotational constants in MHz :  4581.878371  2483.049050  2416.647141

                             ****ORCA TERMINATED NORMALLY****
TOTAL RUN TIME: 0 days 0 hours 0 minutes 19 seconds 616 msec
