                         Program Version 5.0.0 -  RELEASE  -
|  1> !B3LYP D3BJ RIJCOSX def2-TZVP def2/J TightSCF
|  2> *xyz 0 1
|  3> C          3.38093        2.08304       -3.35013
|  4> N          4.53592        1.18245       -3.42852
|  5> C          2.49556        1.81615       -2.13636
|  6> C          4.67196        0.12227       -4.22060
|  7> N          5.86602       -0.50785       -4.22428
|  8> C          3.69888       -0.31284       -4.98699
|  9> H          2.73141       -0.05009       -4.84900
| 10> H          3.89005       -1.05517       -5.64373
| 11> H          5.25193        1.30346       -2.72101
| 12> H          6.69516       -0.06232       -3.85160
| 13> H          5.97538       -1.39688       -4.69141
| 14> H          2.80646        1.98651       -4.26848
| 15> H          3.77871        3.09828       -3.30738
| 16> H          2.11090        0.81901       -2.18783
| 17> H          1.68276        2.51198       -2.12786
| 18> H          3.07216        1.93031       -1.24227
| 19> *
| 20>
| 21> %MaxCore 64000
| 22>
| 23> %pal nprocs 4
| 24> end
| 25>
| 26> %scf
| 27>   MaxIter 150
| 28> end
| 29>
| 30>
| 31>                          ****END OF INPUT****

CARTESIAN COORDINATES (ANGSTROEM)
---------------------------------
  C      3.380930    2.083040   -3.350130
  N      4.535920    1.182450   -3.428520
  C      2.495560    1.816150   -2.136360
  C      4.671960    0.122270   -4.220600
  N      5.866020   -0.507850   -4.224280
  C      3.698880   -0.312840   -4.986990
  H      2.731410   -0.050090   -4.849000
  H      3.890050   -1.055170   -5.643730
  H      5.251930    1.303460   -2.721010
  H      6.695160   -0.062320   -3.851600
  H      5.975380   -1.396880   -4.691410
  H      2.806460    1.986510   -4.268480
  H      3.778710    3.098280   -3.307380
  H      2.110900    0.819010   -2.187830
  H      1.682760    2.511980   -2.127860
  H      3.072160    1.930310   -1.242270

 Total Charge           Charge          ....    0
 Multiplicity           Mult            ....    1
 Number of Electrons    NEL             ....   48
 Basis Dimension        Dim             ....  246

ORBITAL ENERGIES
----------------

  NO   OCC          E(Eh)            E(eV)
   0   2.0000     -14.312372      -389.4594
   1   2.0000     -14.308206      -389.3461
   2   2.0000     -10.210173      -277.8329
   3   2.0000     -10.199020      -277.5294
   4   2.0000     -10.152029      -276.2507
   5   2.0000     -10.077304      -274.2174
   6   2.0000      -0.958998       -26.0957
   7   2.0000      -0.876389       -23.8477
   8   2.0000      -0.754788       -20.5388
   9   2.0000      -0.709015       -19.2933
  10   2.0000      -0.637049       -17.3350
  11   2.0000      -0.563120       -15.3233
  12   2.0000      -0.541459       -14.7338
  13   2.0000      -0.512733       -13.9522
  14   2.0000      -0.456511       -12.4223
  15   2.0000      -0.447091       -12.1660
  16   2.0000      -0.417685       -11.3658
  17   2.0000      -0.401505       -10.9255
  18   2.0000      -0.378446       -10.2980
  19   2.0000      -0.374682       -10.1956
  20   2.0000      -0.353096        -9.6082
  21   2.0000      -0.347119        -9.4456
  22   2.0000      -0.244496        -6.6531
  23   2.0000      -0.166720        -4.5367
  24   0.0000       0.024034         0.6540
  25   0.0000       0.047199         1.2844
  26   0.0000       0.065896         1.7931
  27   0.0000       0.080612         2.1936
  28   0.0000       0.090168         2.4536

MULLIKEN ATOMIC CHARGES
-----------------------
   0 C :   -0.075863
   1 N :   -0.328615
   2 C :   -0.292452
   3 C :    0.443878
   4 N :   -0.499827
   5 C :   -0.546136
   6 H :    0.092606
   7 H :    0.070683
   8 H :    0.178323
   9 H :    0.205340
  10 H :    0.231738
  11 H :    0.119911
  12 H :    0.095318
  13 H :    0.119487
  14 H :    0.098360
  15 H :    0.087249
Sum of atomic charges:    0.0000000

LOEWDIN ATOMIC CHARGES
----------------------
   0 C :   -0.287354
   1 N :    0.115397
   2 C :   -0.301684
   3 C :   -0.459956
   4 N :   -0.025286
   5 C :   -0.335803
   6 H :    0.096656
   7 H :    0.096463
   8 H :    0.173432
   9 H :    0.154614
  10 H :    0.170924
  11 H :    0.136149
  12 H :    0.124578
  13 H :    0.117858
  14 H :    0.114433
  15 H :    0.109580

  Mayer bond orders larger than 0.100000
B(  0-C ,  1-N ) :   0.9048 B(  0-C ,  2-C ) :   0.9528 B(  0-C , 11-H ) :   0.9673
B(  0-C , 12-H ) :   0.9769 B(  1-N ,  3-C ) :   1.1590 B(  1-N ,  8-H ) :   0.9319
B(  2-C , 13-H ) :   0.9778 B(  2-C , 14-H ) :   0.9722 B(  2-C , 15-H ) :   0.9752
B(  3-C ,  4-N ) :   1.0882 B(  3-C ,  5-C ) :   1.6074 B(  4-N ,  9-H ) :   0.9270
B(  4-N , 10-H ) :   0.9257 B(  5-C ,  6-H ) :   0.9995 B(  5-C ,  7-H ) :   1.0081

Dispersion correction           -0.020679111
FINAL SINGLE POINT ENERGY      -267.864576943415

DIPOLE MOMENT
-------------
                                X             Y             Z
Electronic contribution:      3.72504      -1.32472      -1.33265
Nuclear contribution   :     -3.02065       1.64092       1.99316
                        -----------------------------------------
Total Dipole Moment    :      0.70439       0.31620       0.66051
                        -----------------------------------------
Magnitude (a.u.)       :      1.01608
Magnitude (Debye)      :      2.58268

Rotational constants in cm-1:     0.259304     0.069422     0.060943
Rotational constants in MHz :  7773.747720  2081.225169  1827.013389

                             ****ORCA TERMINATED NORMALLY****
TOTAL RUN TIME: 0 days 0 hours 0 minutes 26 seconds 701 msec
