                         Program Version 5.0.0 -  RELEASE  -
|  1> !B3LYP D3BJ RIJCOSX def2-TZVP def2/J TightSCF xyzfile
|  2>
|  3> *xyzfile 0 1 D1.xyz
|  4>
|  5> %MaxCore 64000
|  6>
|  7> %pal nprocs 18
|  8> end
|  9>
| 10> %scf
| 11>   MaxIter 150
| 12> end
| 13>
| 14>
| 15>                          ****END OF INPUT****

CARTESIAN COORDINATES (ANGSTROEM)
---------------------------------
  C      3.380928    2.083045   -3.350127
  C      4.535924    1.182447   -3.428518
  C      2.495557    1.816150   -2.136364
  C      1.872181    0.427903   -2.077497
  H      2.614270   -0.365825   -2.198894
  H      1.389953    0.273087   -1.112360
  S      0.579024    0.140472   -3.297943
  C      4.671956    0.122273   -4.220598
  N      5.866023   -0.507849   -4.224284
  N      3.698881   -0.312844   -4.986988
  H      2.731405   -0.050091   -4.849000
  H      3.890046   -1.055172   -5.643730
  H      5.251933    1.303459   -2.721014
  H      6.695165   -0.062322   -3.851596
  H      5.975383   -1.396884   -4.691414
  F      0.228860   -1.246868   -3.127871
  O     -0.439269    1.118966   -3.014550
  O      1.247881    0.403474   -4.595647
  H      1.697003    2.561969   -2.141109
  H      3.080787    1.987436   -1.225838
  H      2.806463    1.986511   -4.268484
  H      3.778714    3.098282   -3.307383

 Total Charge           Charge          ....    0
 Multiplicity           Mult            ....    1
 Number of Electrons    NEL             ....   96
 Basis Dimension        Dim             ....  413

ORBITAL ENERGIES
----------------

  NO   OCC          E(Eh)            E(eV)
   0   2.0000     -89.106250     -2424.7043
   1   2.0000     -24.809975      -675.1137
   2   2.0000     -19.144806      -520.9566
   3   2.0000     -19.140040      -520.8270
   4   2.0000     -14.304646      -389.2492
   5   2.0000     -14.288417      -388.8076
   6   2.0000     -10.218517      -278.0600
   7   2.0000     -10.205722      -277.7118
   8   2.0000     -10.175401      -276.8867
   9   2.0000     -10.141731      -275.9705
  10   2.0000     -10.085139      -274.4306
  11   2.0000      -8.150410      -221.7839
  12   2.0000      -6.117100      -166.4548
  13   2.0000      -6.111026      -166.2895
  14   2.0000      -6.110257      -166.2686
  15   2.0000      -1.393067       -37.9073
  16   2.0000      -1.117318       -30.4038
  17   2.0000      -1.023602       -27.8536
  18   2.0000      -0.948891       -25.8206
  19   2.0000      -0.857983       -23.3469
  20   2.0000      -0.821674       -22.3589
  21   2.0000      -0.762688       -20.7538
  22   2.0000      -0.725407       -19.7393
  23   2.0000      -0.679503       -18.4902
  24   2.0000      -0.625546       -17.0220
  25   2.0000      -0.598369       -16.2825
  26   2.0000      -0.588070       -16.0022
  27   2.0000      -0.579395       -15.7661
  28   2.0000      -0.550921       -14.9913
  29   2.0000      -0.532673       -14.4948
  30   2.0000      -0.513199       -13.9649
  31   2.0000      -0.489404       -13.3173
  32   2.0000      -0.481710       -13.1080
  33   2.0000      -0.467202       -12.7132
  34   2.0000      -0.449743       -12.2381
  35   2.0000      -0.436321       -11.8729
  36   2.0000      -0.406632       -11.0650
  37   2.0000      -0.401410       -10.9229
  38   2.0000      -0.390602       -10.6288
  39   2.0000      -0.378392       -10.2966
  40   2.0000      -0.355404        -9.6710
  41   2.0000      -0.351216        -9.5571
  42   2.0000      -0.337130        -9.1738
  43   2.0000      -0.333736        -9.0814
  44   2.0000      -0.317996        -8.6531
  45   2.0000      -0.311125        -8.4661
  46   2.0000      -0.252220        -6.8633
  47   2.0000      -0.154919        -4.2156
  48   0.0000       0.013646         0.3713
  49   0.0000       0.029054         0.7906
  50   0.0000       0.040055         1.0899
  51   0.0000       0.059502         1.6191
  52   0.0000       0.065940         1.7943

MULLIKEN ATOMIC CHARGES
-----------------------
   0 C :   -0.214266
   1 C :   -0.375961
   2 C :   -0.118743
   3 C :   -0.289839
   4 H :    0.162449
   5 H :    0.134435
   6 S :    0.888495
   7 C :    0.355993
   8 N :   -0.484490
   9 N :   -0.475383
  10 H :    0.266536
  11 H :    0.191549
  12 H :    0.069959
  13 H :    0.230282
  14 H :    0.200074
  15 F :   -0.100926
  16 O :   -0.398007
  17 O :   -0.464742
  18 H :    0.110580
  19 H :    0.092387
  20 H :    0.135301
  21 H :    0.084317
Sum of atomic charges:   -0.0000000

LOEWDIN ATOMIC CHARGES
----------------------
   0 C :   -0.278543
   1 C :   -0.288343
   2 C :   -0.268950
   3 C :   -0.366234
   4 H :    0.143109
   5 H :    0.136875
   6 S :    0.556519
   7 C :   -0.467086
   8 N :   -0.027744
   9 N :    0.003809
  10 H :    0.132496
  11 H :    0.156683
  12 H :    0.114771
  13 H :    0.170248
  14 H :    0.152763
  15 F :    0.100487
  16 O :   -0.250443
  17 O :   -0.284802
  18 H :    0.139970
  19 H :    0.143168
  20 H :    0.142584
  21 H :    0.138664

  Mayer bond orders larger than 0.100000
B(  0-C ,  1-C ) :   1.0013 B(  0-C ,  2-C ) :   0.9526 B(  0-C , 20-H ) :   0.9806
B(  0-C , 21-H ) :   0.9776 B(  1-C ,  7-C ) :   1.6217 B(  1-C , 12-H ) :   0.9908
B(  2-C ,  3-C ) :   0.9642 B(  2-C , 18-H ) :   0.9556 B(  2-C , 19-H ) :   0.9503
B(  3-C ,  4-H ) :   0.9283 B(  3-C ,  5-H ) :   0.9404 B(  3-C ,  6-S ) :   0.9333
B(  6-S , 15-F ) :   1.1356 B(  6-S , 16-O ) :   1.9496 B(  6-S , 17-O ) :   1.7232
B(  7-C ,  8-N ) :   1.1057 B(  7-C ,  9-N ) :   1.1813 B(  8-N , 13-H ) :   0.9230
B(  8-N , 14-H ) :   0.9294 B(  9-N , 10-H ) :   0.8339 B(  9-N , 11-H ) :   0.9335
B( 10-H , 17-O ) :   0.1318

Dispersion correction           -0.042368212
FINAL SINGLE POINT ENERGY      -955.011615273170

DIPOLE MOMENT
-------------
                                X             Y             Z
Electronic contribution:    -15.28680      -6.77909      -1.20549
Nuclear contribution   :     15.92508       5.34175       1.81950
                        -----------------------------------------
Total Dipole Moment    :      0.63828      -1.43734       0.61401
                        -----------------------------------------
Magnitude (a.u.)       :      1.68830
Magnitude (Debye)      :      4.29132

Rotational constants in cm-1:     0.058561     0.020662     0.017762
Rotational constants in MHz :  1755.621534   619.433801   532.501507

                             ****ORCA TERMINATED NORMALLY****
TOTAL RUN TIME: 0 days 0 hours 0 minutes 32 seconds 503 msec
