                         Program Version 5.0.0 -  RELEASE  -
|  1> !B3LYP D3BJ RIJCOSX def2-TZVP def2/J TightSCF xyzfile
|  2>
|  3> *xyzfile 0 1 D2.xyz
|  4>
|  5> %MaxCore 64000
|  6>
|  7> %pal nprocs 18
|  8> end
|  9>
| 10> %scf
| 11>   MaxIter 150
| 12> end
| 13>
| 14>
| 15>                          ****END OF INPUT****

CARTESIAN COORDINATES (ANGSTROEM)
---------------------------------
  C      3.380928    2.083045   -3.350127
  N      4.535924    1.182447   -3.428518
  C      2.495557    1.816150   -2.136364
  C      1.872181    0.427903   -2.077497
  H      2.614270   -0.365825   -2.198894
  H      1.389953    0.273087   -1.112360
  S      0.579024    0.140472   -3.297943
  C      4.671956    0.122273   -4.220598
  C      5.866023   -0.507849   -4.224284
  N      3.698881   -0.312844   -4.986988
  H      2.731405   -0.050091   -4.849000
  H      3.890046   -1.055172   -5.643730
  H      5.251933    1.303459   -2.721014
  H      6.695165   -0.062322   -3.851596
  H      5.975383   -1.396884   -4.691414
  F      0.228860   -1.246868   -3.127871
  O     -0.439269    1.118966   -3.014550
  O      1.247881    0.403474   -4.595647
  H      1.697003    2.561969   -2.141109
  H      3.080787    1.987436   -1.225838
  H      2.806463    1.986511   -4.268484
  H      3.778714    3.098282   -3.307383

 Total Charge           Charge          ....    0
 Multiplicity           Mult            ....    1
 Number of Electrons    NEL             ....   96
 Basis Dimension        Dim             ....  413

ORBITAL ENERGIES
----------------

  NO   OCC          E(Eh)            E(eV)
   0   2.0000     -89.120717     -2425.0980
   1   2.0000     -24.821941      -675.4394
   2   2.0000     -19.158440      -521.3277
   3   2.0000     -19.152642      -521.1699
   4   2.0000     -14.313702      -389.4956
   5   2.0000     -14.286057      -388.7434
   6   2.0000     -10.238265      -278.5974
   7   2.0000     -10.210503      -277.8419
   8   2.0000     -10.205590      -277.7082
   9   2.0000     -10.204315      -277.6735
  10   2.0000     -10.067610      -273.9536
  11   2.0000      -8.164698      -222.1727
  12   2.0000      -6.131329      -166.8420
  13   2.0000      -6.125314      -166.6783
  14   2.0000      -6.124689      -166.6612
  15   2.0000      -1.404815       -38.2270
  16   2.0000      -1.130791       -30.7704
  17   2.0000      -1.036700       -28.2100
  18   2.0000      -0.959461       -26.1083
  19   2.0000      -0.878926       -23.9168
  20   2.0000      -0.834413       -22.7055
  21   2.0000      -0.770900       -20.9773
  22   2.0000      -0.726706       -19.7747
  23   2.0000      -0.686029       -18.6678
  24   2.0000      -0.636571       -17.3220
  25   2.0000      -0.609081       -16.5739
  26   2.0000      -0.597615       -16.2619
  27   2.0000      -0.595032       -16.1916
  28   2.0000      -0.580959       -15.8087
  29   2.0000      -0.543191       -14.7810
  30   2.0000      -0.507143       -13.8001
  31   2.0000      -0.491796       -13.3825
  32   2.0000      -0.487092       -13.2544
  33   2.0000      -0.480047       -13.0627
  34   2.0000      -0.464461       -12.6386
  35   2.0000      -0.446007       -12.1365
  36   2.0000      -0.415777       -11.3139
  37   2.0000      -0.408441       -11.1142
  38   2.0000      -0.406769       -11.0687
  39   2.0000      -0.387110       -10.5338
  40   2.0000      -0.382865       -10.4183
  41   2.0000      -0.368453       -10.0261
  42   2.0000      -0.356736        -9.7073
  43   2.0000      -0.345532        -9.4024
  44   2.0000      -0.340450        -9.2641
  45   2.0000      -0.326252        -8.8778
  46   2.0000      -0.245886        -6.6909
  47   2.0000      -0.149396        -4.0653
  48   0.0000       0.001631         0.0444
  49   0.0000       0.015149         0.4122
  50   0.0000       0.044786         1.2187
  51   0.0000       0.048837         1.3289
  52   0.0000       0.053759         1.4628

MULLIKEN ATOMIC CHARGES
-----------------------
   0 C :   -0.179443
   1 N :   -0.323327
   2 C :   -0.151658
   3 C :   -0.279637
   4 H :    0.168166
   5 H :    0.142742
   6 S :    0.895072
   7 C :    0.403429
   8 C :   -0.588530
   9 N :   -0.483140
  10 H :    0.252836
  11 H :    0.218553
  12 H :    0.206344
  13 H :    0.082760
  14 H :    0.073593
  15 F :   -0.095287
  16 O :   -0.396928
  17 O :   -0.460711
  18 H :    0.119275
  19 H :    0.108335
  20 H :    0.173552
  21 H :    0.114006
Sum of atomic charges:    0.0000000

LOEWDIN ATOMIC CHARGES
----------------------
   0 C :   -0.280342
   1 N :    0.119691
   2 C :   -0.276474
   3 C :   -0.365457
   4 H :    0.146448
   5 H :    0.140143
   6 S :    0.557809
   7 C :   -0.477830
   8 C :   -0.371752
   9 N :    0.003577
  10 H :    0.123740
  11 H :    0.173496
  12 H :    0.189683
  13 H :    0.088931
  14 H :    0.088814
  15 F :    0.106236
  16 O :   -0.248634
  17 O :   -0.283211
  18 H :    0.147015
  19 H :    0.144367
  20 H :    0.141609
  21 H :    0.132141

  Mayer bond orders larger than 0.100000
B(  0-C ,  1-N ) :   0.9062 B(  0-C ,  2-C ) :   0.9553 B(  0-C , 20-H ) :   0.9703
B(  0-C , 21-H ) :   0.9777 B(  1-N ,  7-C ) :   1.1652 B(  1-N , 12-H ) :   0.9278
B(  2-C ,  3-C ) :   0.9632 B(  2-C , 18-H ) :   0.9535 B(  2-C , 19-H ) :   0.9516
B(  3-C ,  4-H ) :   0.9283 B(  3-C ,  5-H ) :   0.9394 B(  3-C ,  6-S ) :   0.9284
B(  6-S , 15-F ) :   1.1459 B(  6-S , 16-O ) :   1.9457 B(  6-S , 17-O ) :   1.7267
B(  7-C ,  8-C ) :   1.5298 B(  7-C ,  9-N ) :   1.1922 B(  8-C , 13-H ) :   1.0062
B(  8-C , 14-H ) :   1.0091 B(  9-N , 10-H ) :   0.8434 B(  9-N , 11-H ) :   0.9310
B( 10-H , 17-O ) :   0.1180

Dispersion correction           -0.041919371
FINAL SINGLE POINT ENERGY      -954.997742786653

DIPOLE MOMENT
-------------
                                X             Y             Z
Electronic contribution:    -16.79944      -5.25756      -0.39280
Nuclear contribution   :     16.05479       5.17692       1.74190
                        -----------------------------------------
Total Dipole Moment    :     -0.74466      -0.08064       1.34910
                        -----------------------------------------
Magnitude (a.u.)       :      1.54308
Magnitude (Debye)      :      3.92219

Rotational constants in cm-1:     0.058652     0.021107     0.018077
Rotational constants in MHz :  1758.344290   632.763813   541.920558

                             ****ORCA TERMINATED NORMALLY****
TOTAL RUN TIME: 0 days 0 hours 0 minutes 37 seconds 764 msec
