                         Program Version 5.0.0 -  RELEASE  -
|  1> !B3LYP D3BJ RIJCOSX def2-TZVP def2/J TightSCF xyzfile
|  2>
|  3> *xyzfile 0 1 D5.xyz
|  4>
|  5> %MaxCore 64000
|  6>
|  7> %pal nprocs 18
|  8> end
|  9>
| 10> %scf
| 11>   MaxIter 150
| 12> end
| 13>
| 14>
| 15>                          ****END OF INPUT****

CARTESIAN COORDINATES (ANGSTROEM)
---------------------------------
  C      3.380928    2.083045   -3.350127
  N      4.535924    1.182447   -3.428518
  C      2.495557    1.816150   -2.136364
  C      1.872181    0.427903   -2.077497
  H      2.614270   -0.365825   -2.198894
  H      1.389953    0.273087   -1.112360
  S      0.579024    0.140472   -3.297943
  C      4.671956    0.122273   -4.220598
  C      5.866023   -0.507849   -4.224284
  N      3.698881   -0.312844   -4.986988
  H      2.731405   -0.050091   -4.849000
  H      3.890046   -1.055172   -5.643730
  H      5.251933    1.303459   -2.721014
  H      6.695165   -0.062322   -3.851596
  H      5.975383   -1.396884   -4.691414
  O      0.228860   -1.246868   -3.127871
  F     -0.439269    1.118966   -3.014550
  O      1.247881    0.403474   -4.595647
  H      1.697003    2.561969   -2.141109
  H      3.080787    1.987436   -1.225838
  H      2.806463    1.986511   -4.268484
  H      3.778714    3.098282   -3.307383

 Total Charge           Charge          ....    0
 Multiplicity           Mult            ....    1
 Number of Electrons    NEL             ....   96
 Basis Dimension        Dim             ....  413

ORBITAL ENERGIES
----------------

  NO   OCC          E(Eh)            E(eV)
   0   2.0000     -89.120313     -2425.0870
   1   2.0000     -24.822662      -675.4590
   2   2.0000     -19.157619      -521.3053
   3   2.0000     -19.152322      -521.1612
   4   2.0000     -14.314648      -389.5214
   5   2.0000     -14.284937      -388.7129
   6   2.0000     -10.237964      -278.5892
   7   2.0000     -10.212680      -277.9012
   8   2.0000     -10.206593      -277.7355
   9   2.0000     -10.204780      -277.6862
  10   2.0000     -10.066679      -273.9283
  11   2.0000      -8.164233      -222.1601
  12   2.0000      -6.130976      -166.8324
  13   2.0000      -6.124845      -166.6655
  14   2.0000      -6.124127      -166.6460
  15   2.0000      -1.405820       -38.2543
  16   2.0000      -1.129492       -30.7350
  17   2.0000      -1.036237       -28.1974
  18   2.0000      -0.959363       -26.1056
  19   2.0000      -0.878790       -23.9131
  20   2.0000      -0.836541       -22.7634
  21   2.0000      -0.768769       -20.9193
  22   2.0000      -0.728237       -19.8163
  23   2.0000      -0.686925       -18.6922
  24   2.0000      -0.635558       -17.2944
  25   2.0000      -0.611452       -16.6385
  26   2.0000      -0.609370       -16.5818
  27   2.0000      -0.593803       -16.1582
  28   2.0000      -0.573297       -15.6002
  29   2.0000      -0.538962       -14.6659
  30   2.0000      -0.506932       -13.7943
  31   2.0000      -0.496598       -13.5131
  32   2.0000      -0.486797       -13.2464
  33   2.0000      -0.479388       -13.0448
  34   2.0000      -0.460962       -12.5434
  35   2.0000      -0.450735       -12.2651
  36   2.0000      -0.418623       -11.3913
  37   2.0000      -0.412978       -11.2377
  38   2.0000      -0.406326       -11.0567
  39   2.0000      -0.391422       -10.6511
  40   2.0000      -0.380521       -10.3545
  41   2.0000      -0.365726        -9.9519
  42   2.0000      -0.352350        -9.5879
  43   2.0000      -0.342007        -9.3065
  44   2.0000      -0.339193        -9.2299
  45   2.0000      -0.332346        -9.0436
  46   2.0000      -0.245447        -6.6789
  47   2.0000      -0.148477        -4.0403
  48   0.0000      -0.003092        -0.0841
  49   0.0000       0.018242         0.4964
  50   0.0000       0.035888         0.9766
  51   0.0000       0.048403         1.3171
  52   0.0000       0.053898         1.4666

MULLIKEN ATOMIC CHARGES
-----------------------
   0 C :   -0.163395
   1 N :   -0.324041
   2 C :   -0.158975
   3 C :   -0.285845
   4 H :    0.187256
   5 H :    0.143848
   6 S :    0.890792
   7 C :    0.398147
   8 C :   -0.586384
   9 N :   -0.476660
  10 H :    0.262297
  11 H :    0.220750
  12 H :    0.206810
  13 H :    0.081944
  14 H :    0.075938
  15 O :   -0.389728
  16 F :   -0.098165
  17 O :   -0.467342
  18 H :    0.095112
  19 H :    0.108904
  20 H :    0.165629
  21 H :    0.113109
Sum of atomic charges:    0.0000000

LOEWDIN ATOMIC CHARGES
----------------------
   0 C :   -0.284154
   1 N :    0.119732
   2 C :   -0.288809
   3 C :   -0.359846
   4 H :    0.158876
   5 H :    0.140145
   6 S :    0.556260
   7 C :   -0.476970
   8 C :   -0.369335
   9 N :    0.009945
  10 H :    0.128458
  11 H :    0.175233
  12 H :    0.189901
  13 H :    0.088789
  14 H :    0.089606
  15 O :   -0.246056
  16 F :    0.106189
  17 O :   -0.288237
  18 H :    0.136597
  19 H :    0.142914
  20 H :    0.139510
  21 H :    0.131255

  Mayer bond orders larger than 0.100000
B(  0-C ,  1-N ) :   0.9122 B(  0-C ,  2-C ) :   0.9397 B(  0-C , 20-H ) :   0.9703
B(  0-C , 21-H ) :   0.9779 B(  1-N ,  7-C ) :   1.1609 B(  1-N , 12-H ) :   0.9277
B(  2-C ,  3-C ) :   0.9467 B(  2-C , 18-H ) :   0.9621 B(  2-C , 19-H ) :   0.9522
B(  3-C ,  4-H ) :   0.9319 B(  3-C ,  5-H ) :   0.9485 B(  3-C ,  6-S ) :   0.9256
B(  6-S , 15-O ) :   1.9615 B(  6-S , 16-F ) :   1.1392 B(  6-S , 17-O ) :   1.7270
B(  7-C ,  8-C ) :   1.5301 B(  7-C ,  9-N ) :   1.1994 B(  8-C , 13-H ) :   1.0054
B(  8-C , 14-H ) :   1.0089 B(  9-N , 10-H ) :   0.8500 B(  9-N , 11-H ) :   0.9305

Dispersion correction           -0.041863904
FINAL SINGLE POINT ENERGY      -954.996728355049

DIPOLE MOMENT
-------------
                                X             Y             Z
Electronic contribution:    -17.90953      -1.21791      -0.20874
Nuclear contribution   :     16.78714       2.58368       1.61768
                        -----------------------------------------
Total Dipole Moment    :     -1.12239       1.36578       1.40894
                        -----------------------------------------
Magnitude (a.u.)       :      2.26058
Magnitude (Debye)      :      5.74594

Rotational constants in cm-1:     0.059928     0.020911     0.017993
Rotational constants in MHz :  1796.610847   626.896941   539.414615

                             ****ORCA TERMINATED NORMALLY****
TOTAL RUN TIME: 0 days 0 hours 0 minutes 41 seconds 46 msec
