                         Program Version 5.0.0 -  RELEASE  -
|  1> !TPSS D3BJ RIJCOSX def2-SVP def2/J TightSCF
|  2> *xyz -1 1
|  3> C          0.61188        1.65763       -4.50029
|  4> C          1.69499        1.54179       -5.57045
|  5> H          2.69733        1.73466       -5.18400
|  6> H          1.50666        2.27224       -6.35808
|  7> S          1.78029       -0.03313       -6.42874
|  8> O          2.56929        0.21366       -7.60736
|  9> O          0.41688       -0.46297       -6.61859
| 10> O          2.50513       -0.93326       -5.48257
| 11> H         -0.34424        1.45871       -4.93752
| 12> H          0.61845        2.64655       -4.09174
| 13> H          0.80247        0.94882       -3.72173
| 14> *
| 15> %MaxCore 64000
| 16>
| 17> %pal nprocs 4
| 18> end
| 19>
| 20> %scf
| 21>   MaxIter 150
| 22> end
| 23>
| 24>
| 25>                          ****END OF INPUT****

CARTESIAN COORDINATES (ANGSTROEM)
---------------------------------
  C      0.611880    1.657630   -4.500290
  C      1.694990    1.541790   -5.570450
  H      2.697330    1.734660   -5.184000
  H      1.506660    2.272240   -6.358080
  S      1.780290   -0.033130   -6.428740
  O      2.569290    0.213660   -7.607360
  O      0.416880   -0.462970   -6.618590
  O      2.505130   -0.933260   -5.482570
  H     -0.344240    1.458710   -4.937520
  H      0.618450    2.646550   -4.091740
  H      0.802470    0.948820   -3.721730

 Total Charge           Charge          ....   -1
 Multiplicity           Mult            ....    1
 Number of Electrons    NEL             ....   58
 Basis Dimension        Dim             ....  113

ORBITAL ENERGIES
----------------

  NO   OCC          E(Eh)            E(eV)
   0   2.0000     -88.322799     -2403.3855
   1   2.0000     -18.643050      -507.3032
   2   2.0000     -18.641549      -507.2623
   3   2.0000     -18.620419      -506.6874
   4   2.0000      -9.850551      -268.0471
   5   2.0000      -9.841405      -267.7982
   6   2.0000      -7.689912      -209.2531
   7   2.0000      -5.675487      -154.4378
   8   2.0000      -5.675111      -154.4276
   9   2.0000      -5.674730      -154.4173
  10   2.0000      -0.822469       -22.3805
  11   2.0000      -0.693410       -18.8686
  12   2.0000      -0.657727       -17.8977
  13   2.0000      -0.556632       -15.1467
  14   2.0000      -0.438100       -11.9213
  15   2.0000      -0.308517        -8.3952
  16   2.0000      -0.263604        -7.1730
  17   2.0000      -0.246491        -6.7074
  18   2.0000      -0.212948        -5.7946
  19   2.0000      -0.192527        -5.2389
  20   2.0000      -0.189808        -5.1649
  21   2.0000      -0.168218        -4.5775
  22   2.0000      -0.158630        -4.3165
  23   2.0000      -0.071287        -1.9398
  24   2.0000      -0.070920        -1.9298
  25   2.0000      -0.042869        -1.1665
  26   2.0000      -0.039484        -1.0744
  27   2.0000      -0.017313        -0.4711
  28   2.0000       0.015083         0.4104
  29   0.0000       0.193694         5.2707
  30   0.0000       0.244875         6.6634
  31   0.0000       0.247712         6.7406
  32   0.0000       0.255465         6.9516
  33   0.0000       0.280402         7.6301

MULLIKEN ATOMIC CHARGES
-----------------------
   0 C :    0.041707
   1 C :   -0.093005
   2 H :   -0.000194
   3 H :   -0.012287
   4 S :    0.802026
   5 O :   -0.548144
   6 O :   -0.547814
   7 O :   -0.608046
   8 H :    0.003301
   9 H :   -0.037538
  10 H :   -0.000005
Sum of atomic charges:   -1.0000000

LOEWDIN ATOMIC CHARGES
----------------------
   0 C :   -0.062461
   1 C :   -0.185694
   2 H :    0.004199
   3 H :   -0.002573
   4 S :    1.055073
   5 O :   -0.587854
   6 O :   -0.587922
   7 O :   -0.650835
   8 H :    0.011091
   9 H :   -0.003657
  10 H :    0.010633

  Mayer bond orders larger than 0.100000
B(  0-C ,  1-C ) :   1.0624 B(  0-C ,  8-H ) :   0.9631 B(  0-C ,  9-H ) :   0.9556
B(  0-C , 10-H ) :   0.9651 B(  1-C ,  2-H ) :   0.9392 B(  1-C ,  3-H ) :   0.9338
B(  1-C ,  4-S ) :   0.8640 B(  4-S ,  5-O ) :   1.6370 B(  4-S ,  6-O ) :   1.6269
B(  4-S ,  7-O ) :   1.5766

Dispersion correction           -0.012084866
FINAL SINGLE POINT ENERGY      -702.790775376203

DIPOLE MOMENT
-------------
                                X             Y             Z
Electronic contribution:      2.28247      -5.84391      -5.13714
Nuclear contribution   :     -2.69163       7.29476       5.86550
                        -----------------------------------------
Total Dipole Moment    :     -0.40916       1.45084       0.72836
                        -----------------------------------------
Magnitude (a.u.)       :      1.67417
Magnitude (Debye)      :      4.25541

Rotational constants in cm-1:     0.163060     0.082831     0.081111
Rotational constants in MHz :  4888.419330  2483.225008  2431.646841

                             ****ORCA TERMINATED NORMALLY****
TOTAL RUN TIME: 0 days 0 hours 0 minutes 4 seconds 780 msec
