                         Program Version 5.0.0 -  RELEASE  -
|  1> !TPSS D3BJ RIJCOSX def2-SVP def2/J TightSCF
|  2> *xyz 1 1
|  3> C          1.96337       -1.74915       -1.89689
|  4> N          2.73849       -2.01517       -3.09711
|  5> C          4.04974       -2.15472       -3.15204
|  6> N          4.65821       -1.98629       -4.31866
|  7> N          4.76423       -2.45444       -2.05049
|  8> H          4.28736       -2.77626       -1.21750
|  9> H          5.75082       -2.65835       -2.12599
| 10> H          2.34518       -1.69027       -3.97145
| 11> H          4.10900       -1.59268       -5.07176
| 12> H          5.64910       -2.15646       -4.42724
| 13> C          2.08852       -0.30091       -1.41520
| 14> H          2.23127       -2.45162       -1.10264
| 15> H          0.93025       -1.97780       -2.15544
| 16> H          1.82118        0.36368       -2.21003
| 17> H          3.09792       -0.11068       -1.11551
| 18> H          1.43391       -0.14382       -0.58352
| 19> *
| 20> %MaxCore 64000
| 21>
| 22> %pal nprocs 4
| 23> end
| 24>
| 25> %scf
| 26>   MaxIter 150
| 27> end
| 28>
| 29>
| 30>                          ****END OF INPUT****

CARTESIAN COORDINATES (ANGSTROEM)
---------------------------------
  C      1.963370   -1.749150   -1.896890
  N      2.738490   -2.015170   -3.097110
  C      4.049740   -2.154720   -3.152040
  N      4.658210   -1.986290   -4.318660
  N      4.764230   -2.454440   -2.050490
  H      4.287360   -2.776260   -1.217500
  H      5.750820   -2.658350   -2.125990
  H      2.345180   -1.690270   -3.971450
  H      4.109000   -1.592680   -5.071760
  H      5.649100   -2.156460   -4.427240
  C      2.088520   -0.300910   -1.415200
  H      2.231270   -2.451620   -1.102640
  H      0.930250   -1.977800   -2.155440
  H      1.821180    0.363680   -2.210030
  H      3.097920   -0.110680   -1.115510
  H      1.433910   -0.143820   -0.583520

 Total Charge           Charge          ....    1
 Multiplicity           Mult            ....    1
 Number of Electrons    NEL             ....   48
 Basis Dimension        Dim             ....  134

ORBITAL ENERGIES
----------------

  NO   OCC          E(Eh)            E(eV)
   0   2.0000     -14.339360      -390.1938
   1   2.0000     -14.336481      -390.1155
   2   2.0000     -14.334744      -390.0682
   3   2.0000     -10.320264      -280.8287
   4   2.0000     -10.206731      -277.7393
   5   2.0000     -10.138525      -275.8833
   6   2.0000      -1.138749       -30.9869
   7   2.0000      -1.033405       -28.1204
   8   2.0000      -1.021318       -27.7915
   9   2.0000      -0.867085       -23.5946
  10   2.0000      -0.784931       -21.3591
  11   2.0000      -0.750853       -20.4318
  12   2.0000      -0.733303       -19.9542
  13   2.0000      -0.696092       -18.9416
  14   2.0000      -0.648829       -17.6555
  15   2.0000      -0.642535       -17.4843
  16   2.0000      -0.610990       -16.6259
  17   2.0000      -0.581369       -15.8198
  18   2.0000      -0.558932       -15.2093
  19   2.0000      -0.521174       -14.1819
  20   2.0000      -0.493056       -13.4167
  21   2.0000      -0.475727       -12.9452
  22   2.0000      -0.434281       -11.8174
  23   2.0000      -0.410735       -11.1767
  24   0.0000      -0.184399        -5.0178
  25   0.0000      -0.153952        -4.1892
  26   0.0000      -0.120871        -3.2891
  27   0.0000      -0.109643        -2.9835
  28   0.0000      -0.089117        -2.4250

MULLIKEN ATOMIC CHARGES
-----------------------
   0 C :    0.011478
   1 N :   -0.114313
   2 C :    0.054815
   3 N :   -0.021787
   4 N :   -0.051841
   5 H :    0.169177
   6 H :    0.168213
   7 H :    0.157060
   8 H :    0.169057
   9 H :    0.174302
  10 C :    0.012621
  11 H :    0.057861
  12 H :    0.071333
  13 H :    0.040508
  14 H :    0.033838
  15 H :    0.067677
Sum of atomic charges:    1.0000000

LOEWDIN ATOMIC CHARGES
----------------------
   0 C :    0.045198
   1 N :    0.039354
   2 C :    0.124885
   3 N :    0.060637
   4 N :    0.049043
   5 H :    0.106248
   6 H :    0.108858
   7 H :    0.101660
   8 H :    0.108313
   9 H :    0.111848
  10 C :   -0.036154
  11 H :    0.032067
  12 H :    0.047152
  13 H :    0.029845
  14 H :    0.024868
  15 H :    0.046178

  Mayer bond orders larger than 0.100000
B(  0-C ,  1-N ) :   0.9456 B(  0-C , 10-C ) :   1.0899 B(  0-C , 11-H ) :   0.9489
B(  0-C , 12-H ) :   0.9447 B(  1-N ,  2-C ) :   1.3679 B(  1-N ,  7-H ) :   0.9081
B(  2-C ,  3-N ) :   1.3924 B(  2-C ,  4-N ) :   1.3759 B(  3-N ,  8-H ) :   0.9241
B(  3-N ,  9-H ) :   0.9257 B(  4-N ,  5-H ) :   0.9233 B(  4-N ,  6-H ) :   0.9276
B( 10-C , 13-H ) :   0.9682 B( 10-C , 14-H ) :   0.9661 B( 10-C , 15-H ) :   0.9614

Dispersion correction           -0.015271191
FINAL SINGLE POINT ENERGY      -284.246384442760

DIPOLE MOMENT
-------------
                                X             Y             Z
Electronic contribution:      3.07802      -2.73208      -3.13318
Nuclear contribution   :     -2.17768       2.37118       2.44574
                        -----------------------------------------
Total Dipole Moment    :      0.90034      -0.36091      -0.68745
                        -----------------------------------------
Magnitude (a.u.)       :      1.18889
Magnitude (Debye)      :      3.02191

Rotational constants in cm-1:     0.215650     0.075183     0.066454
Rotational constants in MHz :  6465.033740  2253.919004  1992.232519

                             ****ORCA TERMINATED NORMALLY****
TOTAL RUN TIME: 0 days 0 hours 0 minutes 6 seconds 460 msec
