                         Program Version 5.0.0 -  RELEASE  -
|  1> !TPSS D3BJ RIJCOSX def2-SVP def2/J TightSCF
|  2> *xyz 0 1
|  3> C          0.61188        1.65763       -4.50029
|  4> C          1.69499        1.54179       -5.57045
|  5> H          2.69733        1.73466       -5.18400
|  6> H          1.50666        2.27224       -6.35808
|  7> S          1.78029       -0.03313       -6.42874
|  8> F          2.56929        0.21366       -7.60736
|  9> O          0.41688       -0.46297       -6.61859
| 10> O          2.50513       -0.93326       -5.48257
| 11> H         -0.34424        1.45871       -4.93752
| 12> H          0.61845        2.64655       -4.09174
| 13> H          0.80247        0.94882       -3.72173
| 14> *
| 15> %MaxCore 64000
| 16>
| 17> %pal nprocs 4
| 18> end
| 19>
| 20> %scf
| 21>   MaxIter 150
| 22> end
| 23>
| 24>
| 25>                          ****END OF INPUT****

CARTESIAN COORDINATES (ANGSTROEM)
---------------------------------
  C      0.611880    1.657630   -4.500290
  C      1.694990    1.541790   -5.570450
  H      2.697330    1.734660   -5.184000
  H      1.506660    2.272240   -6.358080
  S      1.780290   -0.033130   -6.428740
  F      2.569290    0.213660   -7.607360
  O      0.416880   -0.462970   -6.618590
  O      2.505130   -0.933260   -5.482570
  H     -0.344240    1.458710   -4.937520
  H      0.618450    2.646550   -4.091740
  H      0.802470    0.948820   -3.721730

 Total Charge           Charge          ....    0
 Multiplicity           Mult            ....    1
 Number of Electrons    NEL             ....   58
 Basis Dimension        Dim             ....  113

ORBITAL ENERGIES
----------------

  NO   OCC          E(Eh)            E(eV)
   0   2.0000     -88.594215     -2410.7712
   1   2.0000     -24.524681      -667.3505
   2   2.0000     -18.893775      -514.1257
   3   2.0000     -18.873136      -513.5641
   4   2.0000     -10.054178      -273.5881
   5   2.0000     -10.020635      -272.6753
   6   2.0000      -7.964064      -216.7132
   7   2.0000      -5.953828      -162.0119
   8   2.0000      -5.947092      -161.8286
   9   2.0000      -5.945438      -161.7836
  10   2.0000      -1.284196       -34.9448
  11   2.0000      -1.018618       -27.7180
  12   2.0000      -0.912976       -24.8433
  13   2.0000      -0.755722       -20.5643
  14   2.0000      -0.669229       -18.2107
  15   2.0000      -0.614910       -16.7325
  16   2.0000      -0.526121       -14.3165
  17   2.0000      -0.518644       -14.1130
  18   2.0000      -0.493107       -13.4181
  19   2.0000      -0.448312       -12.1992
  20   2.0000      -0.425664       -11.5829
  21   2.0000      -0.387058       -10.5324
  22   2.0000      -0.380576       -10.3560
  23   2.0000      -0.367071        -9.9885
  24   2.0000      -0.349399        -9.5076
  25   2.0000      -0.326268        -8.8782
  26   2.0000      -0.280437        -7.6311
  27   2.0000      -0.260266        -7.0822
  28   2.0000      -0.242752        -6.6056
  29   0.0000       0.009012         0.2452
  30   0.0000       0.031730         0.8634
  31   0.0000       0.056679         1.5423
  32   0.0000       0.064927         1.7667
  33   0.0000       0.083560         2.2738

MULLIKEN ATOMIC CHARGES
-----------------------
   0 C :    0.028377
   1 C :   -0.126512
   2 H :    0.069247
   3 H :    0.050646
   4 S :    0.877664
   5 F :   -0.150942
   6 O :   -0.411729
   7 O :   -0.467828
   8 H :    0.046385
   9 H :    0.036735
  10 H :    0.047956
Sum of atomic charges:    0.0000000

LOEWDIN ATOMIC CHARGES
----------------------
   0 C :   -0.034124
   1 C :   -0.148628
   2 H :    0.033976
   3 H :    0.023880
   4 S :    1.109677
   5 F :   -0.104536
   6 O :   -0.458107
   7 O :   -0.517531
   8 H :    0.030476
   9 H :    0.033002
  10 H :    0.031915

  Mayer bond orders larger than 0.100000
B(  0-C ,  1-C ) :   1.0781 B(  0-C ,  8-H ) :   0.9663 B(  0-C ,  9-H ) :   0.9594
B(  0-C , 10-H ) :   0.9711 B(  1-C ,  2-H ) :   0.9292 B(  1-C ,  3-H ) :   0.9254
B(  1-C ,  4-S ) :   0.8990 B(  4-S ,  5-F ) :   1.0311 B(  4-S ,  6-O ) :   1.7768
B(  4-S ,  7-O ) :   1.7311

Dispersion correction           -0.011558247
FINAL SINGLE POINT ENERGY      -727.297729512620

DIPOLE MOMENT
-------------
                                X             Y             Z
Electronic contribution:      3.87048      -5.75836      -7.58311
Nuclear contribution   :     -3.66946       7.33549       7.42434
                        -----------------------------------------
Total Dipole Moment    :      0.20102       1.57713      -0.15877
                        -----------------------------------------
Magnitude (a.u.)       :      1.59780
Magnitude (Debye)      :      4.06128

Rotational constants in cm-1:     0.158379     0.080294     0.077843
Rotational constants in MHz :  4748.076444  2407.152850  2333.668303

                             ****ORCA TERMINATED NORMALLY****
TOTAL RUN TIME: 0 days 0 hours 0 minutes 5 seconds 247 msec
