                         Program Version 5.0.0 -  RELEASE  -
|  1> !TPSS D3BJ RIJCOSX def2-SVP def2/J TightSCF
|  2> *xyz 0 1
|  3> C          1.96337       -1.74915       -1.89689
|  4> C          2.73849       -2.01517       -3.09711
|  5> C          4.04974       -2.15472       -3.15204
|  6> N          4.65821       -1.98629       -4.31866
|  7> N          4.76423       -2.45444       -2.05049
|  8> H          4.28736       -2.77626       -1.21750
|  9> H          5.75082       -2.65835       -2.12599
| 10> H          2.34518       -1.69027       -3.97145
| 11> H          4.10900       -1.59268       -5.07176
| 12> H          5.64910       -2.15646       -4.42724
| 13> C          2.08852       -0.30091       -1.41520
| 14> H          2.23127       -2.45162       -1.10264
| 15> H          0.93025       -1.97780       -2.15544
| 16> H          1.82118        0.36368       -2.21003
| 17> H          3.09792       -0.11068       -1.11551
| 18> H          1.43391       -0.14382       -0.58352
| 19> *
| 20> %MaxCore 64000
| 21>
| 22> %pal nprocs 4
| 23> end
| 24>
| 25> %scf
| 26>   MaxIter 150
| 27> end
| 28>
| 29>
| 30>                          ****END OF INPUT****

CARTESIAN COORDINATES (ANGSTROEM)
---------------------------------
  C      1.963370   -1.749150   -1.896890
  C      2.738490   -2.015170   -3.097110
  C      4.049740   -2.154720   -3.152040
  N      4.658210   -1.986290   -4.318660
  N      4.764230   -2.454440   -2.050490
  H      4.287360   -2.776260   -1.217500
  H      5.750820   -2.658350   -2.125990
  H      2.345180   -1.690270   -3.971450
  H      4.109000   -1.592680   -5.071760
  H      5.649100   -2.156460   -4.427240
  C      2.088520   -0.300910   -1.415200
  H      2.231270   -2.451620   -1.102640
  H      0.930250   -1.977800   -2.155440
  H      1.821180    0.363680   -2.210030
  H      3.097920   -0.110680   -1.115510
  H      1.433910   -0.143820   -0.583520

 Total Charge           Charge          ....    0
 Multiplicity           Mult            ....    1
 Number of Electrons    NEL             ....   48
 Basis Dimension        Dim             ....  134

ORBITAL ENERGIES
----------------

  NO   OCC          E(Eh)            E(eV)
   0   2.0000     -14.109862      -383.9489
   1   2.0000     -14.107655      -383.8888
   2   2.0000     -10.026783      -272.8426
   3   2.0000      -9.968296      -271.2511
   4   2.0000      -9.961534      -271.0671
   5   2.0000      -9.906927      -269.5812
   6   2.0000      -0.876000       -23.8372
   7   2.0000      -0.793203       -21.5841
   8   2.0000      -0.698975       -19.0201
   9   2.0000      -0.624258       -16.9869
  10   2.0000      -0.554415       -15.0864
  11   2.0000      -0.521051       -14.1785
  12   2.0000      -0.487789       -13.2734
  13   2.0000      -0.455721       -12.4008
  14   2.0000      -0.422846       -11.5062
  15   2.0000      -0.389086       -10.5876
  16   2.0000      -0.368448       -10.0260
  17   2.0000      -0.335103        -9.1186
  18   2.0000      -0.330587        -8.9957
  19   2.0000      -0.307547        -8.3688
  20   2.0000      -0.282193        -7.6789
  21   2.0000      -0.275561        -7.4984
  22   2.0000      -0.213232        -5.8023
  23   2.0000      -0.115947        -3.1551
  24   0.0000       0.031117         0.8467
  25   0.0000       0.063035         1.7153
  26   0.0000       0.070062         1.9065
  27   0.0000       0.086361         2.3500
  28   0.0000       0.096101         2.6150

MULLIKEN ATOMIC CHARGES
-----------------------
   0 C :    0.034706
   1 C :   -0.159997
   2 C :   -0.063506
   3 N :   -0.059549
   4 N :   -0.091577
   5 H :    0.119017
   6 H :    0.099365
   7 H :   -0.101143
   8 H :    0.121693
   9 H :    0.098772
  10 C :    0.057968
  11 H :   -0.025673
  12 H :   -0.011556
  13 H :   -0.005934
  14 H :   -0.002300
  15 H :   -0.010285
Sum of atomic charges:   -0.0000000

LOEWDIN ATOMIC CHARGES
----------------------
   0 C :   -0.034794
   1 C :   -0.222982
   2 C :    0.015432
   3 N :   -0.012144
   4 N :   -0.021989
   5 H :    0.077368
   6 H :    0.062381
   7 H :   -0.014800
   8 H :    0.081736
   9 H :    0.062710
  10 C :   -0.044524
  11 H :    0.003370
  12 H :    0.018885
  13 H :    0.012500
  14 H :    0.010618
  15 H :    0.006234

  Mayer bond orders larger than 0.100000
B(  0-C ,  1-C ) :   1.1004 B(  0-C , 10-C ) :   1.0798 B(  0-C , 11-H ) :   0.9302
B(  0-C , 12-H ) :   0.9188 B(  1-C ,  2-C ) :   1.6657 B(  1-C ,  7-H ) :   0.9220
B(  2-C ,  3-N ) :   1.2440 B(  2-C ,  4-N ) :   1.2433 B(  3-N ,  8-H ) :   0.9338
B(  3-N ,  9-H ) :   0.9475 B(  4-N ,  5-H ) :   0.9402 B(  4-N ,  6-H ) :   0.9486
B( 10-C , 13-H ) :   0.9661 B( 10-C , 14-H ) :   0.9705 B( 10-C , 15-H ) :   0.9589

Dispersion correction           -0.015887275
FINAL SINGLE POINT ENERGY      -267.763668664224

DIPOLE MOMENT
-------------
                                X             Y             Z
Electronic contribution:      3.48996      -2.48554      -2.57410
Nuclear contribution   :     -2.31778       2.31977       2.35294
                        -----------------------------------------
Total Dipole Moment    :      1.17218      -0.16577      -0.22116
                        -----------------------------------------
Magnitude (a.u.)       :      1.20433
Magnitude (Debye)      :      3.06115

Rotational constants in cm-1:     0.219415     0.075373     0.066689
Rotational constants in MHz :  6577.897266  2259.621393  1999.290981

                             ****ORCA TERMINATED NORMALLY****
TOTAL RUN TIME: 0 days 0 hours 0 minutes 6 seconds 642 msec
