                         Program Version 5.0.0 -  RELEASE  -
|  1> !TPSS D3BJ RIJCOSX def2-SVP def2/J TightSCF
|  2> *xyz 0 1
|  3> C          0.61188        1.65763       -4.50029
|  4> C          1.69499        1.54179       -5.57045
|  5> H          2.69733        1.73466       -5.18400
|  6> H          1.50666        2.27224       -6.35808
|  7> S          1.78029       -0.03313       -6.42874
|  8> O          2.56929        0.21366       -7.60736
|  9> F          0.41688       -0.46297       -6.61859
| 10> O          2.50513       -0.93326       -5.48257
| 11> H         -0.34424        1.45871       -4.93752
| 12> H          0.61845        2.64655       -4.09174
| 13> H          0.80247        0.94882       -3.72173
| 14> *
| 15> %MaxCore 64000
| 16>
| 17> %pal nprocs 4
| 18> end
| 19>
| 20> %scf
| 21>   MaxIter 150
| 22> end
| 23>
| 24>
| 25>                          ****END OF INPUT****

CARTESIAN COORDINATES (ANGSTROEM)
---------------------------------
  C      0.611880    1.657630   -4.500290
  C      1.694990    1.541790   -5.570450
  H      2.697330    1.734660   -5.184000
  H      1.506660    2.272240   -6.358080
  S      1.780290   -0.033130   -6.428740
  O      2.569290    0.213660   -7.607360
  F      0.416880   -0.462970   -6.618590
  O      2.505130   -0.933260   -5.482570
  H     -0.344240    1.458710   -4.937520
  H      0.618450    2.646550   -4.091740
  H      0.802470    0.948820   -3.721730

 Total Charge           Charge          ....    0
 Multiplicity           Mult            ....    1
 Number of Electrons    NEL             ....   58
 Basis Dimension        Dim             ....  113

ORBITAL ENERGIES
----------------

  NO   OCC          E(Eh)            E(eV)
   0   2.0000     -88.593886     -2410.7622
   1   2.0000     -24.524737      -667.3520
   2   2.0000     -18.893157      -514.1089
   3   2.0000     -18.873488      -513.5737
   4   2.0000     -10.053931      -273.5814
   5   2.0000     -10.025664      -272.8122
   6   2.0000      -7.963785      -216.7056
   7   2.0000      -5.953672      -162.0077
   8   2.0000      -5.946740      -161.8190
   9   2.0000      -5.945119      -161.7749
  10   2.0000      -1.282903       -34.9096
  11   2.0000      -1.019616       -27.7452
  12   2.0000      -0.912860       -24.8402
  13   2.0000      -0.759535       -20.6680
  14   2.0000      -0.665250       -18.1024
  15   2.0000      -0.620584       -16.8870
  16   2.0000      -0.536220       -14.5913
  17   2.0000      -0.517319       -14.0770
  18   2.0000      -0.484142       -13.1742
  19   2.0000      -0.449316       -12.2265
  20   2.0000      -0.423122       -11.5137
  21   2.0000      -0.400242       -10.8911
  22   2.0000      -0.381377       -10.3778
  23   2.0000      -0.370677       -10.0866
  24   2.0000      -0.353849        -9.6287
  25   2.0000      -0.325908        -8.8684
  26   2.0000      -0.280141        -7.6230
  27   2.0000      -0.260067        -7.0768
  28   2.0000      -0.242981        -6.6119
  29   0.0000       0.002576         0.0701
  30   0.0000       0.039156         1.0655
  31   0.0000       0.052282         1.4227
  32   0.0000       0.069383         1.8880
  33   0.0000       0.083141         2.2624

MULLIKEN ATOMIC CHARGES
-----------------------
   0 C :    0.009131
   1 C :   -0.127912
   2 H :    0.093606
   3 H :    0.062072
   4 S :    0.877076
   5 O :   -0.406396
   6 F :   -0.153923
   7 O :   -0.466955
   8 H :    0.027517
   9 H :    0.040294
  10 H :    0.045489
Sum of atomic charges:    0.0000000

LOEWDIN ATOMIC CHARGES
----------------------
   0 C :   -0.050000
   1 C :   -0.144443
   2 H :    0.050028
   3 H :    0.029224
   4 S :    1.110290
   5 O :   -0.454840
   6 F :   -0.106478
   7 O :   -0.517014
   8 H :    0.021104
   9 H :    0.033669
  10 H :    0.028460

  Mayer bond orders larger than 0.100000
B(  0-C ,  1-C ) :   1.0545 B(  0-C ,  8-H ) :   0.9714 B(  0-C ,  9-H ) :   0.9597
B(  0-C , 10-H ) :   0.9698 B(  1-C ,  2-H ) :   0.9338 B(  1-C ,  3-H ) :   0.9305
B(  1-C ,  4-S ) :   0.9034 B(  4-S ,  5-O ) :   1.7846 B(  4-S ,  6-F ) :   1.0243
B(  4-S ,  7-O ) :   1.7306

Dispersion correction           -0.011486416
FINAL SINGLE POINT ENERGY      -727.297533094409

DIPOLE MOMENT
-------------
                                X             Y             Z
Electronic contribution:      0.29835      -6.87937      -5.91884
Nuclear contribution   :     -1.42658       8.04056       6.39401
                        -----------------------------------------
Total Dipole Moment    :     -1.12823       1.16119       0.47518
                        -----------------------------------------
Magnitude (a.u.)       :      1.68732
Magnitude (Debye)      :      4.28883

Rotational constants in cm-1:     0.153659     0.082363     0.078978
Rotational constants in MHz :  4606.587369  2469.179541  2367.702074

                             ****ORCA TERMINATED NORMALLY****
TOTAL RUN TIME: 0 days 0 hours 0 minutes 5 seconds 315 msec
