                         Program Version 5.0.0 -  RELEASE  -
|  1> !TPSS D3BJ RIJCOSX def2-SVP def2/J TightSCF
|  2> *xyz 0 1
|  3> C          1.96337       -1.74915       -1.89689
|  4> N          2.73849       -2.01517       -3.09711
|  5> C          4.04974       -2.15472       -3.15204
|  6> C          4.65821       -1.98629       -4.31866
|  7> N          4.76423       -2.45444       -2.05049
|  8> H          4.28736       -2.77626       -1.21750
|  9> H          5.75082       -2.65835       -2.12599
| 10> H          2.34518       -1.69027       -3.97145
| 11> H          4.10900       -1.59268       -5.07176
| 12> H          5.64910       -2.15646       -4.42724
| 13> C          2.08852       -0.30091       -1.41520
| 14> H          2.23127       -2.45162       -1.10264
| 15> H          0.93025       -1.97780       -2.15544
| 16> H          1.82118        0.36368       -2.21003
| 17> H          3.09792       -0.11068       -1.11551
| 18> H          1.43391       -0.14382       -0.58352
| 19> *
| 20> %MaxCore 64000
| 21>
| 22> %pal nprocs 4
| 23> end
| 24>
| 25> %scf
| 26>   MaxIter 150
| 27> end
| 28>
| 29>
| 30>                          ****END OF INPUT****

CARTESIAN COORDINATES (ANGSTROEM)
---------------------------------
  C      1.963370   -1.749150   -1.896890
  N      2.738490   -2.015170   -3.097110
  C      4.049740   -2.154720   -3.152040
  C      4.658210   -1.986290   -4.318660
  N      4.764230   -2.454440   -2.050490
  H      4.287360   -2.776260   -1.217500
  H      5.750820   -2.658350   -2.125990
  H      2.345180   -1.690270   -3.971450
  H      4.109000   -1.592680   -5.071760
  H      5.649100   -2.156460   -4.427240
  C      2.088520   -0.300910   -1.415200
  H      2.231270   -2.451620   -1.102640
  H      0.930250   -1.977800   -2.155440
  H      1.821180    0.363680   -2.210030
  H      3.097920   -0.110680   -1.115510
  H      1.433910   -0.143820   -0.583520

 Total Charge           Charge          ....    0
 Multiplicity           Mult            ....    1
 Number of Electrons    NEL             ....   48
 Basis Dimension        Dim             ....  134

ORBITAL ENERGIES
----------------

  NO   OCC          E(Eh)            E(eV)
   0   2.0000     -14.108451      -383.9105
   1   2.0000     -14.105842      -383.8395
   2   2.0000     -10.036952      -273.1194
   3   2.0000     -10.027626      -272.8656
   4   2.0000      -9.989473      -271.8274
   5   2.0000      -9.906005      -269.5561
   6   2.0000      -0.885509       -24.0959
   7   2.0000      -0.805641       -21.9226
   8   2.0000      -0.702402       -19.1133
   9   2.0000      -0.633259       -17.2318
  10   2.0000      -0.569696       -15.5022
  11   2.0000      -0.541027       -14.7221
  12   2.0000      -0.481463       -13.1013
  13   2.0000      -0.445482       -12.1222
  14   2.0000      -0.431161       -11.7325
  15   2.0000      -0.392429       -10.6785
  16   2.0000      -0.383636       -10.4393
  17   2.0000      -0.354850        -9.6560
  18   2.0000      -0.336600        -9.1594
  19   2.0000      -0.329673        -8.9708
  20   2.0000      -0.319510        -8.6943
  21   2.0000      -0.310218        -8.4415
  22   2.0000      -0.204502        -5.5648
  23   2.0000      -0.121344        -3.3019
  24   0.0000       0.031421         0.8550
  25   0.0000       0.058004         1.5784
  26   0.0000       0.071159         1.9363
  27   0.0000       0.080286         2.1847
  28   0.0000       0.095931         2.6104

MULLIKEN ATOMIC CHARGES
-----------------------
   0 C :    0.044604
   1 N :   -0.131485
   2 C :   -0.048979
   3 C :   -0.069041
   4 N :   -0.099380
   5 H :    0.099994
   6 H :    0.120021
   7 H :    0.117142
   8 H :   -0.061868
   9 H :   -0.061414
  10 C :    0.030526
  11 H :    0.010908
  12 H :    0.011897
  13 H :    0.011270
  14 H :    0.019382
  15 H :    0.006421
Sum of atomic charges:    0.0000000

LOEWDIN ATOMIC CHARGES
----------------------
   0 C :    0.032346
   1 N :   -0.019530
   2 C :    0.019610
   3 C :   -0.242528
   4 N :   -0.021529
   5 H :    0.060093
   6 H :    0.081053
   7 H :    0.081413
   8 H :   -0.012624
   9 H :   -0.012058
  10 C :   -0.053637
  11 H :    0.012637
  12 H :    0.020095
  13 H :    0.017992
  14 H :    0.019587
  15 H :    0.017080

  Mayer bond orders larger than 0.100000
B(  0-C ,  1-N ) :   1.0312 B(  0-C , 10-C ) :   1.0761 B(  0-C , 11-H ) :   0.9485
B(  0-C , 12-H ) :   0.9511 B(  1-N ,  2-C ) :   1.2127 B(  1-N ,  7-H ) :   0.9200
B(  2-C ,  3-C ) :   1.7266 B(  2-C ,  4-N ) :   1.2154 B(  3-C ,  8-H ) :   0.9258
B(  3-C ,  9-H ) :   0.9398 B(  4-N ,  5-H ) :   0.9472 B(  4-N ,  6-H ) :   0.9434
B( 10-C , 13-H ) :   0.9679 B( 10-C , 14-H ) :   0.9656 B( 10-C , 15-H ) :   0.9586

Dispersion correction           -0.015752595
FINAL SINGLE POINT ENERGY      -267.762970728161

DIPOLE MOMENT
-------------
                                X             Y             Z
Electronic contribution:      1.44787      -2.38897      -1.19080
Nuclear contribution   :     -1.91052       2.32590       2.09379
                        -----------------------------------------
Total Dipole Moment    :     -0.46265      -0.06307       0.90299
                        -----------------------------------------
Magnitude (a.u.)       :      1.01657
Magnitude (Debye)      :      2.58392

Rotational constants in cm-1:     0.219448     0.077923     0.068804
Rotational constants in MHz :  6578.886179  2336.083179  2062.700476

                             ****ORCA TERMINATED NORMALLY****
TOTAL RUN TIME: 0 days 0 hours 0 minutes 6 seconds 279 msec
