                         Program Version 5.0.0 -  RELEASE  -
|  1> !TPSS D3BJ RIJCOSX def2-SVP def2/J TightSCF
|  2> *xyz 0 1
|  3> C          0.61188        1.65763       -4.50029
|  4> C          1.69499        1.54179       -5.57045
|  5> H          2.69733        1.73466       -5.18400
|  6> H          1.50666        2.27224       -6.35808
|  7> S          1.78029       -0.03313       -6.42874
|  8> O          2.56929        0.21366       -7.60736
|  9> O          0.41688       -0.46297       -6.61859
| 10> F          2.50513       -0.93326       -5.48257
| 11> H         -0.34424        1.45871       -4.93752
| 12> H          0.61845        2.64655       -4.09174
| 13> H          0.80247        0.94882       -3.72173
| 14> *
| 15> %MaxCore 64000
| 16>
| 17> %pal nprocs 4
| 18> end
| 19>
| 20> %scf
| 21>   MaxIter 150
| 22> end
| 23>
| 24>
| 25>                          ****END OF INPUT****

CARTESIAN COORDINATES (ANGSTROEM)
---------------------------------
  C      0.611880    1.657630   -4.500290
  C      1.694990    1.541790   -5.570450
  H      2.697330    1.734660   -5.184000
  H      1.506660    2.272240   -6.358080
  S      1.780290   -0.033130   -6.428740
  O      2.569290    0.213660   -7.607360
  O      0.416880   -0.462970   -6.618590
  F      2.505130   -0.933260   -5.482570
  H     -0.344240    1.458710   -4.937520
  H      0.618450    2.646550   -4.091740
  H      0.802470    0.948820   -3.721730

 Total Charge           Charge          ....    0
 Multiplicity           Mult            ....    1
 Number of Electrons    NEL             ....   58
 Basis Dimension        Dim             ....  113

ORBITAL ENERGIES
----------------

  NO   OCC          E(Eh)            E(eV)
   0   2.0000     -88.592709     -2410.7302
   1   2.0000     -24.497044      -666.5985
   2   2.0000     -18.894979      -514.1585
   3   2.0000     -18.893473      -514.1175
   4   2.0000     -10.052968      -273.5552
   5   2.0000     -10.020936      -272.6835
   6   2.0000      -7.962453      -216.6694
   7   2.0000      -5.951847      -161.9580
   8   2.0000      -5.945876      -161.7955
   9   2.0000      -5.944098      -161.7471
  10   2.0000      -1.238719       -33.7073
  11   2.0000      -1.031705       -28.0741
  12   2.0000      -0.942447       -25.6453
  13   2.0000      -0.756389       -20.5824
  14   2.0000      -0.653415       -17.7803
  15   2.0000      -0.605884       -16.4869
  16   2.0000      -0.515776       -14.0350
  17   2.0000      -0.487476       -13.2649
  18   2.0000      -0.482531       -13.1303
  19   2.0000      -0.445164       -12.1135
  20   2.0000      -0.423594       -11.5266
  21   2.0000      -0.400086       -10.8869
  22   2.0000      -0.382184       -10.3997
  23   2.0000      -0.362992        -9.8775
  24   2.0000      -0.358138        -9.7454
  25   2.0000      -0.331782        -9.0282
  26   2.0000      -0.286094        -7.7850
  27   2.0000      -0.282176        -7.6784
  28   2.0000      -0.265851        -7.2342
  29   0.0000       0.009537         0.2595
  30   0.0000       0.039025         1.0619
  31   0.0000       0.057413         1.5623
  32   0.0000       0.068853         1.8736
  33   0.0000       0.084022         2.2863

MULLIKEN ATOMIC CHARGES
-----------------------
   0 C :    0.018402
   1 C :   -0.139146
   2 H :    0.063553
   3 H :    0.085596
   4 S :    0.893696
   5 O :   -0.414946
   6 O :   -0.417702
   7 F :   -0.205020
   8 H :    0.050348
   9 H :    0.034819
  10 H :    0.030400
Sum of atomic charges:   -0.0000000

LOEWDIN ATOMIC CHARGES
----------------------
   0 C :   -0.046589
   1 C :   -0.150249
   2 H :    0.030539
   3 H :    0.045493
   4 S :    1.119025
   5 O :   -0.461237
   6 O :   -0.461744
   7 F :   -0.161105
   8 H :    0.030416
   9 H :    0.031545
  10 H :    0.023904

  Mayer bond orders larger than 0.100000
B(  0-C ,  1-C ) :   1.0580 B(  0-C ,  8-H ) :   0.9669 B(  0-C ,  9-H ) :   0.9582
B(  0-C , 10-H ) :   0.9728 B(  1-C ,  2-H ) :   0.9311 B(  1-C ,  3-H ) :   0.9340
B(  1-C ,  4-S ) :   0.8970 B(  4-S ,  5-O ) :   1.7916 B(  4-S ,  6-O ) :   1.7843
B(  4-S ,  7-F ) :   0.9705

Dispersion correction           -0.011516480
FINAL SINGLE POINT ENERGY      -727.322679909869

DIPOLE MOMENT
-------------
                                X             Y             Z
Electronic contribution:      3.78352      -7.68894      -4.02405
Nuclear contribution   :     -3.60260       8.53062       5.21025
                        -----------------------------------------
Total Dipole Moment    :      0.18092       0.84168       1.18620
                        -----------------------------------------
Magnitude (a.u.)       :      1.46568
Magnitude (Debye)      :      3.72547

Rotational constants in cm-1:     0.154011     0.080858     0.079602
Rotational constants in MHz :  4617.134198  2424.070332  2386.404775

                             ****ORCA TERMINATED NORMALLY****
TOTAL RUN TIME: 0 days 0 hours 0 minutes 5 seconds 85 msec
