                         Program Version 5.0.0 -  RELEASE  -
|  1> !TPSS D3BJ RIJCOSX def2-SVP def2/J TightSCF
|  2> *xyz 0 1
|  3> C          1.96337       -1.74915       -1.89689
|  4> N          2.73849       -2.01517       -3.09711
|  5> C          4.04974       -2.15472       -3.15204
|  6> N          4.65821       -1.98629       -4.31866
|  7> C          4.76423       -2.45444       -2.05049
|  8> H          4.28736       -2.77626       -1.21750
|  9> H          5.75082       -2.65835       -2.12599
| 10> H          2.34518       -1.69027       -3.97145
| 11> H          4.10900       -1.59268       -5.07176
| 12> H          5.64910       -2.15646       -4.42724
| 13> C          2.08852       -0.30091       -1.41520
| 14> H          2.23127       -2.45162       -1.10264
| 15> H          0.93025       -1.97780       -2.15544
| 16> H          1.82118        0.36368       -2.21003
| 17> H          3.09792       -0.11068       -1.11551
| 18> H          1.43391       -0.14382       -0.58352
| 19> *
| 20> %MaxCore 64000
| 21>
| 22> %pal nprocs 4
| 23> end
| 24>
| 25> %scf
| 26>   MaxIter 150
| 27> end
| 28>
| 29>
| 30>                          ****END OF INPUT****

CARTESIAN COORDINATES (ANGSTROEM)
---------------------------------
  C      1.963370   -1.749150   -1.896890
  N      2.738490   -2.015170   -3.097110
  C      4.049740   -2.154720   -3.152040
  N      4.658210   -1.986290   -4.318660
  C      4.764230   -2.454440   -2.050490
  H      4.287360   -2.776260   -1.217500
  H      5.750820   -2.658350   -2.125990
  H      2.345180   -1.690270   -3.971450
  H      4.109000   -1.592680   -5.071760
  H      5.649100   -2.156460   -4.427240
  C      2.088520   -0.300910   -1.415200
  H      2.231270   -2.451620   -1.102640
  H      0.930250   -1.977800   -2.155440
  H      1.821180    0.363680   -2.210030
  H      3.097920   -0.110680   -1.115510
  H      1.433910   -0.143820   -0.583520

 Total Charge           Charge          ....    0
 Multiplicity           Mult            ....    1
 Number of Electrons    NEL             ....   48
 Basis Dimension        Dim             ....  134

ORBITAL ENERGIES
----------------

  NO   OCC          E(Eh)            E(eV)
   0   2.0000     -14.110591      -383.9687
   1   2.0000     -14.109504      -383.9391
   2   2.0000     -10.029857      -272.9263
   3   2.0000     -10.029224      -272.9091
   4   2.0000      -9.982268      -271.6313
   5   2.0000      -9.904485      -269.5147
   6   2.0000      -0.890870       -24.2418
   7   2.0000      -0.809358       -22.0238
   8   2.0000      -0.686625       -18.6840
   9   2.0000      -0.635723       -17.2989
  10   2.0000      -0.582559       -15.8522
  11   2.0000      -0.505718       -13.7613
  12   2.0000      -0.491878       -13.3847
  13   2.0000      -0.472143       -12.8477
  14   2.0000      -0.419124       -11.4049
  15   2.0000      -0.393695       -10.7130
  16   2.0000      -0.368207       -10.0194
  17   2.0000      -0.349600        -9.5131
  18   2.0000      -0.335532        -9.1303
  19   2.0000      -0.321834        -8.7575
  20   2.0000      -0.314549        -8.5593
  21   2.0000      -0.306862        -8.3501
  22   2.0000      -0.202981        -5.5234
  23   2.0000      -0.120982        -3.2921
  24   0.0000       0.028743         0.7821
  25   0.0000       0.061983         1.6866
  26   0.0000       0.073882         2.0104
  27   0.0000       0.080418         2.1883
  28   0.0000       0.102704         2.7947

MULLIKEN ATOMIC CHARGES
-----------------------
   0 C :    0.073105
   1 N :   -0.150163
   2 C :   -0.042028
   3 N :   -0.076556
   4 C :   -0.098892
   5 H :   -0.049049
   6 H :   -0.065570
   7 H :    0.091292
   8 H :    0.095610
   9 H :    0.125555
  10 C :    0.023555
  11 H :    0.033641
  12 H :    0.005219
  13 H :   -0.002955
  14 H :    0.029526
  15 H :    0.007712
Sum of atomic charges:    0.0000000

LOEWDIN ATOMIC CHARGES
----------------------
   0 C :    0.046911
   1 N :   -0.018718
   2 C :    0.017177
   3 N :   -0.010157
   4 C :   -0.257614
   5 H :   -0.011546
   6 H :   -0.013772
   7 H :    0.059111
   8 H :    0.059671
   9 H :    0.083730
  10 C :   -0.051424
  11 H :    0.025693
  12 H :    0.016623
  13 H :    0.011655
  14 H :    0.024332
  15 H :    0.018329

  Mayer bond orders larger than 0.100000
B(  0-C ,  1-N ) :   1.0169 B(  0-C , 10-C ) :   1.0974 B(  0-C , 11-H ) :   0.9424
B(  0-C , 12-H ) :   0.9526 B(  1-N ,  2-C ) :   1.1881 B(  1-N ,  7-H ) :   0.9318
B(  2-C ,  3-N ) :   1.2356 B(  2-C ,  4-C ) :   1.7206 B(  3-N ,  8-H ) :   0.9478
B(  3-N ,  9-H ) :   0.9409 B(  4-C ,  5-H ) :   0.9334 B(  4-C ,  6-H ) :   0.9362
B( 10-C , 13-H ) :   0.9666 B( 10-C , 14-H ) :   0.9637 B( 10-C , 15-H ) :   0.9609

Dispersion correction           -0.015840476
FINAL SINGLE POINT ENERGY      -267.761375830359

DIPOLE MOMENT
-------------
                                X             Y             Z
Electronic contribution:      1.35803      -1.82890      -3.54845
Nuclear contribution   :     -1.88803       2.22658       2.57497
                        -----------------------------------------
Total Dipole Moment    :     -0.53000       0.39769      -0.97348
                        -----------------------------------------
Magnitude (a.u.)       :      1.17759
Magnitude (Debye)      :      2.99320

Rotational constants in cm-1:     0.226509     0.075782     0.067928
Rotational constants in MHz :  6790.555051  2271.890226  2036.439218

                             ****ORCA TERMINATED NORMALLY****
TOTAL RUN TIME: 0 days 0 hours 0 minutes 6 seconds 318 msec
