                         Program Version 5.0.0 -  RELEASE  -
|  1> !TPSS D3BJ RIJCOSX def2-TZVP def2/J TightSCF xyzfile
|  2>
|  3> *xyzfile 0 1 D1.xyz
|  4>
|  5> %MaxCore 64000
|  6>
|  7> %pal nprocs 18
|  8> end
|  9>
| 10> %scf
| 11>   MaxIter 150
| 12> end
| 13>
| 14>
| 15>                          ****END OF INPUT****

CARTESIAN COORDINATES (ANGSTROEM)
---------------------------------
  C      1.963365   -1.749150   -1.896887
  C      2.738490   -2.015170   -3.097113
  C      0.611877    1.657634   -4.500288
  C      1.694991    1.541794   -5.570447
  H      2.697326    1.734659   -5.183996
  H      1.506656    2.272239   -6.358076
  S      1.780287   -0.033128   -6.428739
  C      4.049736   -2.154717   -3.152044
  N      4.658206   -1.986293   -4.318655
  N      4.764231   -2.454435   -2.050491
  H      4.287363   -2.776259   -1.217496
  H      5.750825   -2.658351   -2.125988
  H      2.345176   -1.690274   -3.971447
  H      4.109004   -1.592677   -5.071760
  H      5.649095   -2.156462   -4.427237
  F      2.569287    0.213657   -7.607360
  O      0.416880   -0.462969   -6.618595
  C      2.088520   -0.300912   -1.415204
  H      2.231272   -2.451616   -1.102643
  H      0.930249   -1.977801   -2.155438
  C      0.680356    0.655418   -3.348038
  H     -0.356865    1.549231   -4.991128
  H      0.650228    2.675438   -4.096000
  C      1.968993    0.733582   -2.535654
  H      3.051356   -0.168602   -0.911868
  H      1.316501   -0.136231   -0.657252
  O      2.505129   -0.933263   -5.482570
  H      2.824195    0.624726   -3.208464
  H      2.058919    1.730331   -2.093112
  H      0.542252   -0.344731   -3.766662
  H     -0.174219    0.829692   -2.685182

 Total Charge           Charge          ....    0
 Multiplicity           Mult            ....    1
 Number of Electrons    NEL             ....  120
 Basis Dimension        Dim             ....  542

ORBITAL ENERGIES
----------------

  NO   OCC          E(Eh)            E(eV)
   0   2.0000     -88.590391     -2410.6671
   1   2.0000     -24.532587      -667.5656
   2   2.0000     -18.902564      -514.3649
   3   2.0000     -18.890684      -514.0416
   4   2.0000     -14.083391      -383.2286
   5   2.0000     -14.068743      -382.8300
   6   2.0000     -10.043501      -273.2975
   7   2.0000     -10.007257      -272.3113
   8   2.0000      -9.996899      -272.0294
   9   2.0000      -9.976603      -271.4772
  10   2.0000      -9.965395      -271.1722
  11   2.0000      -9.954850      -270.8852
  12   2.0000      -9.944079      -270.5922
  13   2.0000      -9.870080      -268.5785
  14   2.0000      -7.940375      -216.0686
  15   2.0000      -5.923646      -161.1906
  16   2.0000      -5.916952      -161.0085
  17   2.0000      -5.916319      -160.9912
  18   2.0000      -1.308416       -35.6038
  19   2.0000      -1.038392       -28.2561
  20   2.0000      -0.946074       -25.7440
  21   2.0000      -0.871582       -23.7169
  22   2.0000      -0.789429       -21.4814
  23   2.0000      -0.774190       -21.0668
  24   2.0000      -0.730241       -19.8709
  25   2.0000      -0.694491       -18.8980
  26   2.0000      -0.665571       -18.1111
  27   2.0000      -0.633989       -17.2517
  28   2.0000      -0.598271       -16.2798
  29   2.0000      -0.565186       -15.3795
  30   2.0000      -0.543241       -14.7823
  31   2.0000      -0.533098       -14.5063
  32   2.0000      -0.527088       -14.3428
  33   2.0000      -0.502293       -13.6681
  34   2.0000      -0.498117       -13.5544
  35   2.0000      -0.477026       -12.9805
  36   2.0000      -0.450954       -12.2711
  37   2.0000      -0.445979       -12.1357
  38   2.0000      -0.438984       -11.9454
  39   2.0000      -0.418916       -11.3993
  40   2.0000      -0.415895       -11.3171
  41   2.0000      -0.399149       -10.8614
  42   2.0000      -0.389710       -10.6046
  43   2.0000      -0.382229       -10.4010
  44   2.0000      -0.370613       -10.0849
  45   2.0000      -0.353117        -9.6088
  46   2.0000      -0.342388        -9.3169
  47   2.0000      -0.335982        -9.1425
  48   2.0000      -0.326293        -8.8789
  49   2.0000      -0.316763        -8.6196
  50   2.0000      -0.304967        -8.2986
  51   2.0000      -0.297170        -8.0864
  52   2.0000      -0.288589        -7.8529
  53   2.0000      -0.283197        -7.7062
  54   2.0000      -0.275877        -7.5070
  55   2.0000      -0.273324        -7.4375
  56   2.0000      -0.261770        -7.1231
  57   2.0000      -0.247710        -6.7405
  58   2.0000      -0.202442        -5.5087
  59   2.0000      -0.106150        -2.8885
  60   0.0000      -0.010508        -0.2859
  61   0.0000       0.008471         0.2305
  62   0.0000       0.023587         0.6418
  63   0.0000       0.033452         0.9103
  64   0.0000       0.039845         1.0842

MULLIKEN ATOMIC CHARGES
-----------------------
   0 C :   -0.268517
   1 C :   -0.321654
   2 C :   -0.109197
   3 C :   -0.269626
   4 H :    0.150367
   5 H :    0.135510
   6 S :    0.762336
   7 C :    0.272106
   8 N :   -0.468741
   9 N :   -0.492388
  10 H :    0.239444
  11 H :    0.210696
  12 H :    0.174531
  13 H :    0.243102
  14 H :    0.202576
  15 F :   -0.073587
  16 O :   -0.361450
  17 C :   -0.043009
  18 H :    0.061486
  19 H :    0.093224
  20 C :   -0.265679
  21 H :    0.118137
  22 H :    0.098140
  23 C :   -0.187656
  24 H :    0.069503
  25 H :    0.052671
  26 O :   -0.439625
  27 H :    0.117068
  28 H :    0.069188
  29 H :    0.146399
  30 H :    0.084648
Sum of atomic charges:    0.0000000

LOEWDIN ATOMIC CHARGES
----------------------
   0 C :   -0.290916
   1 C :   -0.284596
   2 C :   -0.270613
   3 C :   -0.370343
   4 H :    0.139550
   5 H :    0.135332
   6 S :    0.510120
   7 C :   -0.468540
   8 N :   -0.013478
   9 N :   -0.021046
  10 H :    0.170744
  11 H :    0.154554
  12 H :    0.118432
  13 H :    0.159458
  14 H :    0.151414
  15 F :    0.111534
  16 O :   -0.226828
  17 C :   -0.255757
  18 H :    0.123423
  19 H :    0.137430
  20 C :   -0.260568
  21 H :    0.143498
  22 H :    0.144507
  23 C :   -0.265905
  24 H :    0.130995
  25 H :    0.123305
  26 O :   -0.270862
  27 H :    0.136968
  28 H :    0.127849
  29 H :    0.143678
  30 H :    0.136664

  Mayer bond orders larger than 0.100000
B(  0-C ,  1-C ) :   1.0695 B(  0-C , 17-C ) :   0.9849 B(  0-C , 18-H ) :   0.9501
B(  0-C , 19-H ) :   0.9672 B(  1-C ,  7-C ) :   1.6766 B(  1-C , 12-H ) :   0.9817
B(  2-C ,  3-C ) :   1.0119 B(  2-C , 20-C ) :   1.0242 B(  2-C , 21-H ) :   0.9415
B(  2-C , 22-H ) :   0.9256 B(  3-C ,  4-H ) :   0.9297 B(  3-C ,  5-H ) :   0.9232
B(  3-C ,  6-S ) :   0.9193 B(  6-S , 15-F ) :   1.1628 B(  6-S , 16-O ) :   1.9521
B(  6-S , 26-O ) :   1.7587 B(  7-C ,  8-N ) :   1.1990 B(  7-C ,  9-N ) :   1.1445
B(  8-N , 13-H ) :   0.8703 B(  8-N , 14-H ) :   0.9237 B(  9-N , 10-H ) :   0.9117
B(  9-N , 11-H ) :   0.9218 B( 17-C , 23-C ) :   1.0407 B( 17-C , 24-H ) :   0.9356
B( 17-C , 25-H ) :   0.9401 B( 20-C , 23-C ) :   1.0151 B( 20-C , 29-H ) :   0.9552
B( 20-C , 30-H ) :   0.9421 B( 23-C , 27-H ) :   0.9510 B( 23-C , 28-H ) :   0.9392

Dispersion correction           -0.047426807
FINAL SINGLE POINT ENERGY     -1073.421540651964

DIPOLE MOMENT
-------------
                                X             Y             Z
Electronic contribution:      0.83979      -1.12638     -23.56644
Nuclear contribution   :      0.18720       2.58739      22.98820
                        -----------------------------------------
Total Dipole Moment    :      1.02699       1.46101      -0.57824
                        -----------------------------------------
Magnitude (a.u.)       :      1.87713
Magnitude (Debye)      :      4.77128

Rotational constants in cm-1:     0.028798     0.014448     0.010940
Rotational constants in MHz :   863.355869   433.126694   327.985023

                             ****ORCA TERMINATED NORMALLY****
TOTAL RUN TIME: 0 days 0 hours 0 minutes 24 seconds 554 msec
