                         Program Version 5.0.0 -  RELEASE  -
|  1> !TPSS D3BJ RIJCOSX def2-TZVP def2/J TightSCF xyzfile
|  2>
|  3> *xyzfile 0 1 D2.xyz
|  4>
|  5> %MaxCore 64000
|  6>
|  7> %pal nprocs 18
|  8> end
|  9>
| 10> %scf
| 11>   MaxIter 150
| 12> end
| 13>
| 14>
| 15>                          ****END OF INPUT****

CARTESIAN COORDINATES (ANGSTROEM)
---------------------------------
  C      1.963365   -1.749150   -1.896887
  N      2.738490   -2.015170   -3.097113
  C      0.611877    1.657634   -4.500288
  C      1.694991    1.541794   -5.570447
  H      2.697326    1.734659   -5.183996
  H      1.506656    2.272239   -6.358076
  S      1.780287   -0.033128   -6.428739
  C      4.049736   -2.154717   -3.152044
  C      4.658206   -1.986293   -4.318655
  N      4.764231   -2.454435   -2.050491
  H      4.287363   -2.776259   -1.217496
  H      5.750825   -2.658351   -2.125988
  H      2.345176   -1.690274   -3.971447
  H      4.109004   -1.592677   -5.071760
  H      5.649095   -2.156462   -4.427237
  F      2.569287    0.213657   -7.607360
  O      0.416880   -0.462969   -6.618595
  C      2.088520   -0.300912   -1.415204
  H      2.231272   -2.451616   -1.102643
  H      0.930249   -1.977801   -2.155438
  C      0.680356    0.655418   -3.348038
  H     -0.356865    1.549231   -4.991128
  H      0.650228    2.675438   -4.096000
  C      1.968993    0.733582   -2.535654
  H      3.051356   -0.168602   -0.911868
  H      1.316501   -0.136231   -0.657252
  O      2.505129   -0.933263   -5.482570
  H      2.824195    0.624726   -3.208464
  H      2.058919    1.730331   -2.093112
  H      0.542252   -0.344731   -3.766662
  H     -0.174219    0.829692   -2.685182

 Total Charge           Charge          ....    0
 Multiplicity           Mult            ....    1
 Number of Electrons    NEL             ....  120
 Basis Dimension        Dim             ....  542

ORBITAL ENERGIES
----------------

  NO   OCC          E(Eh)            E(eV)
   0   2.0000     -88.593943     -2410.7637
   1   2.0000     -24.535028      -667.6321
   2   2.0000     -18.904894      -514.4283
   3   2.0000     -18.891029      -514.0510
   4   2.0000     -14.080835      -383.1590
   5   2.0000     -14.067346      -382.7919
   6   2.0000     -10.047434      -273.4046
   7   2.0000     -10.015676      -272.5404
   8   2.0000     -10.007263      -272.3115
   9   2.0000      -9.996657      -272.0229
  10   2.0000      -9.991110      -271.8719
  11   2.0000      -9.981499      -271.6104
  12   2.0000      -9.976495      -271.4742
  13   2.0000      -9.865540      -268.4550
  14   2.0000      -7.943699      -216.1590
  15   2.0000      -5.926722      -161.2743
  16   2.0000      -5.920442      -161.1034
  17   2.0000      -5.919739      -161.0843
  18   2.0000      -1.310243       -35.6535
  19   2.0000      -1.040747       -28.3202
  20   2.0000      -0.947634       -25.7864
  21   2.0000      -0.878897       -23.9160
  22   2.0000      -0.803082       -21.8530
  23   2.0000      -0.781300       -21.2602
  24   2.0000      -0.734318       -19.9818
  25   2.0000      -0.700969       -19.0743
  26   2.0000      -0.664547       -18.0832
  27   2.0000      -0.640925       -17.4404
  28   2.0000      -0.606180       -16.4950
  29   2.0000      -0.574317       -15.6280
  30   2.0000      -0.547285       -14.8924
  31   2.0000      -0.539731       -14.6868
  32   2.0000      -0.529672       -14.4131
  33   2.0000      -0.515734       -14.0338
  34   2.0000      -0.507377       -13.8064
  35   2.0000      -0.469314       -12.7707
  36   2.0000      -0.454570       -12.3695
  37   2.0000      -0.453816       -12.3490
  38   2.0000      -0.432628       -11.7724
  39   2.0000      -0.426177       -11.5969
  40   2.0000      -0.419772       -11.4226
  41   2.0000      -0.413105       -11.2412
  42   2.0000      -0.396547       -10.7906
  43   2.0000      -0.389406       -10.5963
  44   2.0000      -0.374407       -10.1881
  45   2.0000      -0.356989        -9.7142
  46   2.0000      -0.346555        -9.4302
  47   2.0000      -0.343056        -9.3350
  48   2.0000      -0.333029        -9.0622
  49   2.0000      -0.320600        -8.7240
  50   2.0000      -0.316257        -8.6058
  51   2.0000      -0.312459        -8.5024
  52   2.0000      -0.304070        -8.2742
  53   2.0000      -0.294865        -8.0237
  54   2.0000      -0.290214        -7.8971
  55   2.0000      -0.284964        -7.7543
  56   2.0000      -0.282529        -7.6880
  57   2.0000      -0.260608        -7.0915
  58   2.0000      -0.192401        -5.2355
  59   2.0000      -0.109135        -2.9697
  60   0.0000      -0.014474        -0.3939
  61   0.0000       0.004433         0.1206
  62   0.0000       0.023976         0.6524
  63   0.0000       0.029157         0.7934
  64   0.0000       0.037374         1.0170

MULLIKEN ATOMIC CHARGES
-----------------------
   0 C :   -0.229480
   1 N :   -0.248055
   2 C :   -0.108978
   3 C :   -0.276404
   4 H :    0.158847
   5 H :    0.137411
   6 S :    0.777079
   7 C :    0.316827
   8 C :   -0.540421
   9 N :   -0.508005
  10 H :    0.217287
  11 H :    0.235306
  12 H :    0.240917
  13 H :    0.134787
  14 H :    0.073259
  15 F :   -0.068256
  16 O :   -0.368535
  17 C :   -0.027761
  18 H :    0.096881
  19 H :    0.122415
  20 C :   -0.265348
  21 H :    0.121172
  22 H :    0.102343
  23 C :   -0.260239
  24 H :    0.086003
  25 H :    0.064499
  26 O :   -0.434213
  27 H :    0.141032
  28 H :    0.082232
  29 H :    0.137052
  30 H :    0.090346
Sum of atomic charges:    0.0000000

LOEWDIN ATOMIC CHARGES
----------------------
   0 C :   -0.298247
   1 N :    0.130505
   2 C :   -0.269106
   3 C :   -0.369303
   4 H :    0.141724
   5 H :    0.136197
   6 S :    0.515850
   7 C :   -0.474990
   8 C :   -0.351281
   9 N :   -0.020100
  10 H :    0.155007
  11 H :    0.170467
  12 H :    0.175479
  13 H :    0.092830
  14 H :    0.086947
  15 F :    0.119185
  16 O :   -0.231355
  17 C :   -0.265229
  18 H :    0.123186
  19 H :    0.130679
  20 C :   -0.264854
  21 H :    0.144561
  22 H :    0.145705
  23 C :   -0.267271
  24 H :    0.134533
  25 H :    0.129198
  26 O :   -0.268977
  27 H :    0.141339
  28 H :    0.132401
  29 H :    0.137636
  30 H :    0.137287

  Mayer bond orders larger than 0.100000
B(  0-C ,  1-N ) :   1.0253 B(  0-C , 17-C ) :   0.9597 B(  0-C , 18-H ) :   0.9617
B(  0-C , 19-H ) :   0.9713 B(  1-N ,  7-C ) :   1.2389 B(  1-N , 12-H ) :   0.8772
B(  2-C ,  3-C ) :   1.0107 B(  2-C , 20-C ) :   1.0271 B(  2-C , 21-H ) :   0.9412
B(  2-C , 22-H ) :   0.9270 B(  3-C ,  4-H ) :   0.9298 B(  3-C ,  5-H ) :   0.9243
B(  3-C ,  6-S ) :   0.9192 B(  6-S , 15-F ) :   1.1764 B(  6-S , 16-O ) :   1.9439
B(  6-S , 26-O ) :   1.7555 B(  7-C ,  8-C ) :   1.6533 B(  7-C ,  9-N ) :   1.1146
B(  8-C , 13-H ) :   0.9651 B(  8-C , 14-H ) :   0.9856 B(  9-N , 10-H ) :   0.9131
B(  9-N , 11-H ) :   0.9195 B( 17-C , 23-C ) :   1.0249 B( 17-C , 24-H ) :   0.9329
B( 17-C , 25-H ) :   0.9374 B( 20-C , 23-C ) :   1.0213 B( 20-C , 29-H ) :   0.9527
B( 20-C , 30-H ) :   0.9426 B( 23-C , 27-H ) :   0.9461 B( 23-C , 28-H ) :   0.9396

Dispersion correction           -0.047177450
FINAL SINGLE POINT ENERGY     -1073.420508458285

DIPOLE MOMENT
-------------
                                X             Y             Z
Electronic contribution:     -0.85704      -0.92314     -22.51196
Nuclear contribution   :      0.43347       2.59110      22.83150
                        -----------------------------------------
Total Dipole Moment    :     -0.42358       1.66795       0.31954
                        -----------------------------------------
Magnitude (a.u.)       :      1.75031
Magnitude (Debye)      :      4.44894

Rotational constants in cm-1:     0.029257     0.014415     0.010996
Rotational constants in MHz :   877.098782   432.159206   329.643335

                             ****ORCA TERMINATED NORMALLY****
TOTAL RUN TIME: 0 days 0 hours 0 minutes 22 seconds 771 msec
