                         Program Version 5.0.0 -  RELEASE  -
|  1> !TPSS D3BJ RIJCOSX def2-TZVP def2/J TightSCF xyzfile
|  2>
|  3> *xyzfile 0 1 D6.xyz
|  4>
|  5> %MaxCore 64000
|  6>
|  7> %pal nprocs 18
|  8> end
|  9>
| 10> %scf
| 11>   MaxIter 150
| 12> end
| 13>
| 14>
| 15>                          ****END OF INPUT****

CARTESIAN COORDINATES (ANGSTROEM)
---------------------------------
  C      1.963365   -1.749150   -1.896887
  N      2.738490   -2.015170   -3.097113
  C      0.611877    1.657634   -4.500288
  C      1.694991    1.541794   -5.570447
  H      2.697326    1.734659   -5.183996
  H      1.506656    2.272239   -6.358076
  S      1.780287   -0.033128   -6.428739
  C      4.049736   -2.154717   -3.152044
  N      4.658206   -1.986293   -4.318655
  C      4.764231   -2.454435   -2.050491
  H      4.287363   -2.776259   -1.217496
  H      5.750825   -2.658351   -2.125988
  H      2.345176   -1.690274   -3.971447
  H      4.109004   -1.592677   -5.071760
  H      5.649095   -2.156462   -4.427237
  O      2.569287    0.213657   -7.607360
  F      0.416880   -0.462969   -6.618595
  C      2.088520   -0.300912   -1.415204
  H      2.231272   -2.451616   -1.102643
  H      0.930249   -1.977801   -2.155438
  C      0.680356    0.655418   -3.348038
  H     -0.356865    1.549231   -4.991128
  H      0.650228    2.675438   -4.096000
  C      1.968993    0.733582   -2.535654
  H      3.051356   -0.168602   -0.911868
  H      1.316501   -0.136231   -0.657252
  O      2.505129   -0.933263   -5.482570
  H      2.824195    0.624726   -3.208464
  H      2.058919    1.730331   -2.093112
  H      0.542252   -0.344731   -3.766662
  H     -0.174219    0.829692   -2.685182

 Total Charge           Charge          ....    0
 Multiplicity           Mult            ....    1
 Number of Electrons    NEL             ....  120
 Basis Dimension        Dim             ....  542

ORBITAL ENERGIES
----------------

  NO   OCC          E(Eh)            E(eV)
   0   2.0000     -88.610365     -2411.2106
   1   2.0000     -24.549134      -668.0159
   2   2.0000     -18.919234      -514.8185
   3   2.0000     -18.912617      -514.6385
   4   2.0000     -14.068652      -382.8275
   5   2.0000     -14.067505      -382.7963
   6   2.0000     -10.058375      -273.7023
   7   2.0000     -10.025691      -272.8129
   8   2.0000     -10.003656      -272.2133
   9   2.0000     -10.001970      -272.1674
  10   2.0000      -9.997630      -272.0493
  11   2.0000      -9.986544      -271.7477
  12   2.0000      -9.974289      -271.4142
  13   2.0000      -9.873664      -268.6761
  14   2.0000      -7.960074      -216.6046
  15   2.0000      -5.943342      -161.7266
  16   2.0000      -5.936996      -161.5539
  17   2.0000      -5.935745      -161.5198
  18   2.0000      -1.323476       -36.0136
  19   2.0000      -1.057998       -28.7896
  20   2.0000      -0.966514       -26.3002
  21   2.0000      -0.880067       -23.9478
  22   2.0000      -0.802099       -21.8262
  23   2.0000      -0.792857       -21.5747
  24   2.0000      -0.739177       -20.1140
  25   2.0000      -0.700257       -19.0550
  26   2.0000      -0.671515       -18.2728
  27   2.0000      -0.635906       -17.3039
  28   2.0000      -0.624786       -17.0013
  29   2.0000      -0.588117       -16.0035
  30   2.0000      -0.559415       -15.2225
  31   2.0000      -0.552133       -15.0243
  32   2.0000      -0.536136       -14.5890
  33   2.0000      -0.524013       -14.2591
  34   2.0000      -0.489390       -13.3170
  35   2.0000      -0.475661       -12.9434
  36   2.0000      -0.464534       -12.6406
  37   2.0000      -0.462364       -12.5816
  38   2.0000      -0.453227       -12.3329
  39   2.0000      -0.437098       -11.8940
  40   2.0000      -0.420496       -11.4423
  41   2.0000      -0.413397       -11.2491
  42   2.0000      -0.399679       -10.8758
  43   2.0000      -0.390613       -10.6291
  44   2.0000      -0.385057       -10.4779
  45   2.0000      -0.365594        -9.9483
  46   2.0000      -0.354777        -9.6540
  47   2.0000      -0.351950        -9.5770
  48   2.0000      -0.335466        -9.1285
  49   2.0000      -0.327791        -8.9197
  50   2.0000      -0.319370        -8.6905
  51   2.0000      -0.316886        -8.6229
  52   2.0000      -0.308944        -8.4068
  53   2.0000      -0.303879        -8.2690
  54   2.0000      -0.295610        -8.0440
  55   2.0000      -0.292976        -7.9723
  56   2.0000      -0.289571        -7.8796
  57   2.0000      -0.280307        -7.6275
  58   2.0000      -0.185766        -5.0549
  59   2.0000      -0.110859        -3.0166
  60   0.0000      -0.032710        -0.8901
  61   0.0000       0.001720         0.0468
  62   0.0000       0.010124         0.2755
  63   0.0000       0.021749         0.5918
  64   0.0000       0.029308         0.7975

MULLIKEN ATOMIC CHARGES
-----------------------
   0 C :   -0.176383
   1 N :   -0.264011
   2 C :   -0.138937
   3 C :   -0.267558
   4 H :    0.173507
   5 H :    0.154838
   6 S :    0.797009
   7 C :    0.304688
   8 N :   -0.477463
   9 C :   -0.547741
  10 H :    0.090230
  11 H :    0.075779
  12 H :    0.222806
  13 H :    0.245768
  14 H :    0.231732
  15 O :   -0.363817
  16 F :   -0.066895
  17 C :   -0.054249
  18 H :    0.115285
  19 H :    0.109377
  20 C :   -0.261390
  21 H :    0.114209
  22 H :    0.106325
  23 C :   -0.244636
  24 H :    0.107635
  25 H :    0.070134
  26 O :   -0.471493
  27 H :    0.122724
  28 H :    0.086358
  29 H :    0.108631
  30 H :    0.097536
Sum of atomic charges:    0.0000000

LOEWDIN ATOMIC CHARGES
----------------------
   0 C :   -0.280568
   1 N :    0.125882
   2 C :   -0.282039
   3 C :   -0.359347
   4 H :    0.151901
   5 H :    0.143043
   6 S :    0.522951
   7 C :   -0.478830
   8 N :   -0.006268
   9 C :   -0.364984
  10 H :    0.091949
  11 H :    0.088184
  12 H :    0.158131
  13 H :    0.151748
  14 H :    0.169762
  15 O :   -0.223446
  16 F :    0.121614
  17 C :   -0.261343
  18 H :    0.134325
  19 H :    0.126016
  20 C :   -0.269078
  21 H :    0.137023
  22 H :    0.146388
  23 C :   -0.266457
  24 H :    0.142196
  25 H :    0.130522
  26 O :   -0.290101
  27 H :    0.138206
  28 H :    0.133831
  29 H :    0.129880
  30 H :    0.138908

  Mayer bond orders larger than 0.100000
B(  0-C ,  1-N ) :   1.0118 B(  0-C , 17-C ) :   0.9915 B(  0-C , 18-H ) :   0.9472
B(  0-C , 19-H ) :   0.9703 B(  1-N ,  7-C ) :   1.2170 B(  1-N , 12-H ) :   0.8836
B(  2-C ,  3-C ) :   0.9979 B(  2-C , 20-C ) :   1.0012 B(  2-C , 21-H ) :   0.9540
B(  2-C , 22-H ) :   0.9255 B(  3-C ,  4-H ) :   0.9301 B(  3-C ,  5-H ) :   0.9301
B(  3-C ,  6-S ) :   0.9184 B(  6-S , 15-O ) :   1.9870 B(  6-S , 16-F ) :   1.1650
B(  6-S , 26-O ) :   1.7095 B(  7-C ,  8-N ) :   1.1731 B(  7-C ,  9-C ) :   1.6433
B(  8-N , 13-H ) :   0.8768 B(  8-N , 14-H ) :   0.9188 B(  9-C , 10-H ) :   0.9819
B(  9-C , 11-H ) :   0.9841 B( 17-C , 23-C ) :   1.0297 B( 17-C , 24-H ) :   0.9283
B( 17-C , 25-H ) :   0.9452 B( 20-C , 23-C ) :   1.0075 B( 20-C , 29-H ) :   0.9658
B( 20-C , 30-H ) :   0.9427 B( 23-C , 27-H ) :   0.9482 B( 23-C , 28-H ) :   0.9384

Dispersion correction           -0.046959302
FINAL SINGLE POINT ENERGY     -1073.431057140589

DIPOLE MOMENT
-------------
                                X             Y             Z
Electronic contribution:     -4.78044      -1.47107     -22.82661
Nuclear contribution   :      2.90585       3.30398      21.99296
                        -----------------------------------------
Total Dipole Moment    :     -1.87459       1.83292      -0.83366
                        -----------------------------------------
Magnitude (a.u.)       :      2.75112
Magnitude (Debye)      :      6.99279

Rotational constants in cm-1:     0.029065     0.014689     0.011200
Rotational constants in MHz :   871.338526   440.374927   335.770911

                             ****ORCA TERMINATED NORMALLY****
TOTAL RUN TIME: 0 days 0 hours 0 minutes 24 seconds 487 msec
