                         Program Version 5.0.0 -  RELEASE  -
|  1> !TPSS D3BJ RIJCOSX def2-TZVP def2/J TightSCF xyzfile
|  2>
|  3> *xyzfile 0 1 D8.xyz
|  4>
|  5> %MaxCore 64000
|  6>
|  7> %pal nprocs 18
|  8> end
|  9>
| 10> %scf
| 11>   MaxIter 150
| 12> end
| 13>
| 14>
| 15>                          ****END OF INPUT****

CARTESIAN COORDINATES (ANGSTROEM)
---------------------------------
  C      1.963365   -1.749150   -1.896887
  N      2.738490   -2.015170   -3.097113
  C      0.611877    1.657634   -4.500288
  C      1.694991    1.541794   -5.570447
  H      2.697326    1.734659   -5.183996
  H      1.506656    2.272239   -6.358076
  S      1.780287   -0.033128   -6.428739
  C      4.049736   -2.154717   -3.152044
  C      4.658206   -1.986293   -4.318655
  N      4.764231   -2.454435   -2.050491
  H      4.287363   -2.776259   -1.217496
  H      5.750825   -2.658351   -2.125988
  H      2.345176   -1.690274   -3.971447
  H      4.109004   -1.592677   -5.071760
  H      5.649095   -2.156462   -4.427237
  O      2.569287    0.213657   -7.607360
  O      0.416880   -0.462969   -6.618595
  C      2.088520   -0.300912   -1.415204
  H      2.231272   -2.451616   -1.102643
  H      0.930249   -1.977801   -2.155438
  C      0.680356    0.655418   -3.348038
  H     -0.356865    1.549231   -4.991128
  H      0.650228    2.675438   -4.096000
  C      1.968993    0.733582   -2.535654
  H      3.051356   -0.168602   -0.911868
  H      1.316501   -0.136231   -0.657252
  F      2.505129   -0.933263   -5.482570
  H      2.824195    0.624726   -3.208464
  H      2.058919    1.730331   -2.093112
  H      0.542252   -0.344731   -3.766662
  H     -0.174219    0.829692   -2.685182

 Total Charge           Charge          ....    0
 Multiplicity           Mult            ....    1
 Number of Electrons    NEL             ....  120
 Basis Dimension        Dim             ....  542

ORBITAL ENERGIES
----------------

  NO   OCC          E(Eh)            E(eV)
   0   2.0000     -88.582746     -2410.4591
   1   2.0000     -24.510077      -666.9531
   2   2.0000     -18.898830      -514.2633
   3   2.0000     -18.896889      -514.2105
   4   2.0000     -14.100096      -383.6831
   5   2.0000     -14.095772      -383.5655
   6   2.0000     -10.041927      -273.2547
   7   2.0000     -10.024932      -272.7923
   8   2.0000     -10.020436      -272.6699
   9   2.0000     -10.013096      -272.4702
  10   2.0000     -10.000969      -272.1402
  11   2.0000      -9.994222      -271.9566
  12   2.0000      -9.990121      -271.8450
  13   2.0000      -9.892730      -269.1949
  14   2.0000      -7.932804      -215.8626
  15   2.0000      -5.916322      -160.9913
  16   2.0000      -5.909172      -160.7967
  17   2.0000      -5.908780      -160.7861
  18   2.0000      -1.273283       -34.6478
  19   2.0000      -1.044769       -28.4296
  20   2.0000      -0.959083       -26.0980
  21   2.0000      -0.902987       -24.5715
  22   2.0000      -0.824525       -22.4365
  23   2.0000      -0.783325       -21.3153
  24   2.0000      -0.742176       -20.1956
  25   2.0000      -0.707101       -19.2412
  26   2.0000      -0.663913       -18.0660
  27   2.0000      -0.653928       -17.7943
  28   2.0000      -0.619709       -16.8631
  29   2.0000      -0.584044       -15.8927
  30   2.0000      -0.546426       -14.8690
  31   2.0000      -0.545126       -14.8336
  32   2.0000      -0.516479       -14.0541
  33   2.0000      -0.513472       -13.9723
  34   2.0000      -0.500445       -13.6178
  35   2.0000      -0.485044       -13.1987
  36   2.0000      -0.458076       -12.4649
  37   2.0000      -0.452769       -12.3205
  38   2.0000      -0.443191       -12.0598
  39   2.0000      -0.439556       -11.9609
  40   2.0000      -0.425121       -11.5681
  41   2.0000      -0.414580       -11.2813
  42   2.0000      -0.402414       -10.9502
  43   2.0000      -0.394405       -10.7323
  44   2.0000      -0.384231       -10.4555
  45   2.0000      -0.363719        -9.8973
  46   2.0000      -0.357879        -9.7384
  47   2.0000      -0.354233        -9.6392
  48   2.0000      -0.346319        -9.4238
  49   2.0000      -0.335273        -9.1232
  50   2.0000      -0.331130        -9.0105
  51   2.0000      -0.324394        -8.8272
  52   2.0000      -0.310370        -8.4456
  53   2.0000      -0.306828        -8.3492
  54   2.0000      -0.298202        -8.1145
  55   2.0000      -0.296446        -8.0667
  56   2.0000      -0.291252        -7.9254
  57   2.0000      -0.281175        -7.6512
  58   2.0000      -0.214414        -5.8345
  59   2.0000      -0.132727        -3.6117
  60   0.0000      -0.007202        -0.1960
  61   0.0000       0.007641         0.2079
  62   0.0000       0.016439         0.4473
  63   0.0000       0.028776         0.7830
  64   0.0000       0.031818         0.8658

MULLIKEN ATOMIC CHARGES
-----------------------
   0 C :   -0.230401
   1 N :   -0.260970
   2 C :   -0.093500
   3 C :   -0.290891
   4 H :    0.155228
   5 H :    0.160655
   6 S :    0.780613
   7 C :    0.340966
   8 C :   -0.561922
   9 N :   -0.501001
  10 H :    0.223175
  11 H :    0.241272
  12 H :    0.221918
  13 H :    0.127315
  14 H :    0.088941
  15 O :   -0.384687
  16 O :   -0.384448
  17 C :   -0.027520
  18 H :    0.105230
  19 H :    0.130926
  20 C :   -0.288998
  21 H :    0.125598
  22 H :    0.096895
  23 C :   -0.265365
  24 H :    0.091231
  25 H :    0.074290
  26 F :   -0.118247
  27 H :    0.129488
  28 H :    0.092487
  29 H :    0.124779
  30 H :    0.096942
Sum of atomic charges:   -0.0000000

LOEWDIN ATOMIC CHARGES
----------------------
   0 C :   -0.294006
   1 N :    0.126223
   2 C :   -0.277255
   3 C :   -0.366031
   4 H :    0.138562
   5 H :    0.150654
   6 S :    0.515300
   7 C :   -0.473037
   8 C :   -0.345585
   9 N :   -0.011836
  10 H :    0.158184
  11 H :    0.173948
  12 H :    0.174186
  13 H :    0.091017
  14 H :    0.092735
  15 O :   -0.234650
  16 O :   -0.239003
  17 C :   -0.264009
  18 H :    0.125999
  19 H :    0.132835
  20 C :   -0.268972
  21 H :    0.144940
  22 H :    0.143009
  23 C :   -0.268027
  24 H :    0.135721
  25 H :    0.132351
  26 F :    0.062956
  27 H :    0.137006
  28 H :    0.136126
  29 H :    0.131334
  30 H :    0.139324

  Mayer bond orders larger than 0.100000
B(  0-C ,  1-N ) :   1.0052 B(  0-C , 17-C ) :   0.9617 B(  0-C , 18-H ) :   0.9614
B(  0-C , 19-H ) :   0.9693 B(  1-N ,  7-C ) :   1.2355 B(  1-N , 12-H ) :   0.9022
B(  2-C ,  3-C ) :   0.9929 B(  2-C , 20-C ) :   1.0152 B(  2-C , 21-H ) :   0.9418
B(  2-C , 22-H ) :   0.9252 B(  3-C ,  4-H ) :   0.9371 B(  3-C ,  5-H ) :   0.9289
B(  3-C ,  6-S ) :   0.9062 B(  6-S , 15-O ) :   1.9657 B(  6-S , 16-O ) :   1.9255
B(  6-S , 26-F ) :   1.0373 B(  7-C ,  8-C ) :   1.6253 B(  7-C ,  9-N ) :   1.1312
B(  8-C , 13-H ) :   0.9802 B(  8-C , 14-H ) :   0.9893 B(  9-N , 10-H ) :   0.9114
B(  9-N , 11-H ) :   0.9170 B( 17-C , 23-C ) :   1.0182 B( 17-C , 24-H ) :   0.9339
B( 17-C , 25-H ) :   0.9391 B( 20-C , 23-C ) :   1.0104 B( 20-C , 29-H ) :   0.9633
B( 20-C , 30-H ) :   0.9418 B( 23-C , 27-H ) :   0.9504 B( 23-C , 28-H ) :   0.9413

Dispersion correction           -0.046604622
FINAL SINGLE POINT ENERGY     -1073.436516973860

DIPOLE MOMENT
-------------
                                X             Y             Z
Electronic contribution:     -0.83559      -3.01559     -18.41837
Nuclear contribution   :      0.50676       3.90127      20.40426
                        -----------------------------------------
Total Dipole Moment    :     -0.32883       0.88569       1.98589
                        -----------------------------------------
Magnitude (a.u.)       :      2.19917
Magnitude (Debye)      :      5.58984

Rotational constants in cm-1:     0.029548     0.014706     0.011197
Rotational constants in MHz :   885.834387   440.871746   335.667619

                             ****ORCA TERMINATED NORMALLY****
TOTAL RUN TIME: 0 days 0 hours 0 minutes 30 seconds 109 msec
