                         Program Version 5.0.0 -  RELEASE  -
|  1> !TPSS D3BJ RIJCOSX def2-TZVP def2/J TightSCF xyzfile
|  2>
|  3> *xyzfile 0 1 D9.xyz
|  4>
|  5> %MaxCore 64000
|  6>
|  7> %pal nprocs 18
|  8> end
|  9>
| 10> %scf
| 11>   MaxIter 150
| 12> end
| 13>
| 14>
| 15>                          ****END OF INPUT****

CARTESIAN COORDINATES (ANGSTROEM)
---------------------------------
  C      1.963365   -1.749150   -1.896887
  N      2.738490   -2.015170   -3.097113
  C      0.611877    1.657634   -4.500288
  C      1.694991    1.541794   -5.570447
  H      2.697326    1.734659   -5.183996
  H      1.506656    2.272239   -6.358076
  S      1.780287   -0.033128   -6.428739
  C      4.049736   -2.154717   -3.152044
  N      4.658206   -1.986293   -4.318655
  C      4.764231   -2.454435   -2.050491
  H      4.287363   -2.776259   -1.217496
  H      5.750825   -2.658351   -2.125988
  H      2.345176   -1.690274   -3.971447
  H      4.109004   -1.592677   -5.071760
  H      5.649095   -2.156462   -4.427237
  O      2.569287    0.213657   -7.607360
  O      0.416880   -0.462969   -6.618595
  C      2.088520   -0.300912   -1.415204
  H      2.231272   -2.451616   -1.102643
  H      0.930249   -1.977801   -2.155438
  C      0.680356    0.655418   -3.348038
  H     -0.356865    1.549231   -4.991128
  H      0.650228    2.675438   -4.096000
  C      1.968993    0.733582   -2.535654
  H      3.051356   -0.168602   -0.911868
  H      1.316501   -0.136231   -0.657252
  F      2.505129   -0.933263   -5.482570
  H      2.824195    0.624726   -3.208464
  H      2.058919    1.730331   -2.093112
  H      0.542252   -0.344731   -3.766662
  H     -0.174219    0.829692   -2.685182

 Total Charge           Charge          ....    0
 Multiplicity           Mult            ....    1
 Number of Electrons    NEL             ....  120
 Basis Dimension        Dim             ....  542

ORBITAL ENERGIES
----------------

  NO   OCC          E(Eh)            E(eV)
   0   2.0000     -88.596579     -2410.8355
   1   2.0000     -24.532150      -667.5538
   2   2.0000     -18.911817      -514.6167
   3   2.0000     -18.911221      -514.6005
   4   2.0000     -14.096950      -383.5975
   5   2.0000     -14.096827      -383.5942
   6   2.0000     -10.052120      -273.5321
   7   2.0000     -10.019750      -272.6513
   8   2.0000     -10.018676      -272.6220
   9   2.0000     -10.018621      -272.6205
  10   2.0000     -10.003482      -272.2086
  11   2.0000      -9.994736      -271.9706
  12   2.0000      -9.984761      -271.6992
  13   2.0000      -9.893767      -269.2231
  14   2.0000      -7.946832      -216.2443
  15   2.0000      -5.930581      -161.3793
  16   2.0000      -5.923014      -161.1734
  17   2.0000      -5.922671      -161.1641
  18   2.0000      -1.294874       -35.2353
  19   2.0000      -1.058894       -28.8140
  20   2.0000      -0.972583       -26.4653
  21   2.0000      -0.906722       -24.6732
  22   2.0000      -0.825961       -22.4755
  23   2.0000      -0.789291       -21.4777
  24   2.0000      -0.742933       -20.2162
  25   2.0000      -0.705006       -19.1842
  26   2.0000      -0.677599       -18.4384
  27   2.0000      -0.643157       -17.5012
  28   2.0000      -0.639923       -17.4132
  29   2.0000      -0.588348       -16.0098
  30   2.0000      -0.554807       -15.0971
  31   2.0000      -0.543786       -14.7972
  32   2.0000      -0.529528       -14.4092
  33   2.0000      -0.517570       -14.0838
  34   2.0000      -0.502648       -13.6777
  35   2.0000      -0.491310       -13.3692
  36   2.0000      -0.474921       -12.9232
  37   2.0000      -0.460573       -12.5328
  38   2.0000      -0.457121       -12.4389
  39   2.0000      -0.437434       -11.9032
  40   2.0000      -0.426080       -11.5942
  41   2.0000      -0.418725       -11.3941
  42   2.0000      -0.405320       -11.0293
  43   2.0000      -0.397008       -10.8031
  44   2.0000      -0.387687       -10.5495
  45   2.0000      -0.367106        -9.9895
  46   2.0000      -0.360926        -9.8213
  47   2.0000      -0.358581        -9.7575
  48   2.0000      -0.343392        -9.3442
  49   2.0000      -0.334010        -9.0889
  50   2.0000      -0.332422        -9.0457
  51   2.0000      -0.326857        -8.8942
  52   2.0000      -0.315235        -8.5780
  53   2.0000      -0.309714        -8.4278
  54   2.0000      -0.305887        -8.3236
  55   2.0000      -0.301254        -8.1976
  56   2.0000      -0.294767        -8.0210
  57   2.0000      -0.292848        -7.9688
  58   2.0000      -0.210485        -5.7276
  59   2.0000      -0.131759        -3.5853
  60   0.0000      -0.023005        -0.6260
  61   0.0000       0.005779         0.1573
  62   0.0000       0.015844         0.4311
  63   0.0000       0.025864         0.7038
  64   0.0000       0.032672         0.8891

MULLIKEN ATOMIC CHARGES
-----------------------
   0 C :   -0.183746
   1 N :   -0.274113
   2 C :   -0.091168
   3 C :   -0.292683
   4 H :    0.155296
   5 H :    0.165455
   6 S :    0.776084
   7 C :    0.308774
   8 N :   -0.482702
   9 C :   -0.528803
  10 H :    0.097323
  11 H :    0.082764
  12 H :    0.204853
  13 H :    0.226167
  14 H :    0.245132
  15 O :   -0.381951
  16 O :   -0.371759
  17 C :   -0.048115
  18 H :    0.121999
  19 H :    0.124254
  20 C :   -0.292995
  21 H :    0.127193
  22 H :    0.100180
  23 C :   -0.260914
  24 H :    0.110557
  25 H :    0.078899
  26 F :   -0.141534
  27 H :    0.106873
  28 H :    0.092763
  29 H :    0.125333
  30 H :    0.100583
Sum of atomic charges:   -0.0000000

LOEWDIN ATOMIC CHARGES
----------------------
   0 C :   -0.275324
   1 N :    0.124069
   2 C :   -0.276637
   3 C :   -0.365278
   4 H :    0.138103
   5 H :    0.152111
   6 S :    0.513500
   7 C :   -0.481677
   8 N :   -0.008166
   9 C :   -0.346302
  10 H :    0.094869
  11 H :    0.090935
  12 H :    0.159810
  13 H :    0.148493
  14 H :    0.175902
  15 O :   -0.234190
  16 O :   -0.230304
  17 C :   -0.260483
  18 H :    0.136762
  19 H :    0.130300
  20 C :   -0.269318
  21 H :    0.145197
  22 H :    0.144349
  23 C :   -0.269156
  24 H :    0.142259
  25 H :    0.133609
  26 F :    0.047095
  27 H :    0.131711
  28 H :    0.136155
  29 H :    0.130888
  30 H :    0.140717

  Mayer bond orders larger than 0.100000
B(  0-C ,  1-N ) :   0.9923 B(  0-C , 17-C ) :   0.9926 B(  0-C , 18-H ) :   0.9465
B(  0-C , 19-H ) :   0.9673 B(  1-N ,  7-C ) :   1.2033 B(  1-N , 12-H ) :   0.9066
B(  2-C ,  3-C ) :   0.9904 B(  2-C , 20-C ) :   1.0108 B(  2-C , 21-H ) :   0.9422
B(  2-C , 22-H ) :   0.9241 B(  3-C ,  4-H ) :   0.9350 B(  3-C ,  5-H ) :   0.9279
B(  3-C ,  6-S ) :   0.9084 B(  6-S , 15-O ) :   1.9685 B(  6-S , 16-O ) :   1.9380
B(  6-S , 26-F ) :   1.0073 B(  7-C ,  8-N ) :   1.1525 B(  7-C ,  9-C ) :   1.6675
B(  8-N , 13-H ) :   0.9011 B(  8-N , 14-H ) :   0.9133 B(  9-C , 10-H ) :   0.9810
B(  9-C , 11-H ) :   0.9822 B( 17-C , 23-C ) :   1.0232 B( 17-C , 24-H ) :   0.9308
B( 17-C , 25-H ) :   0.9455 B( 20-C , 23-C ) :   1.0062 B( 20-C , 29-H ) :   0.9657
B( 20-C , 30-H ) :   0.9429 B( 23-C , 27-H ) :   0.9517 B( 23-C , 28-H ) :   0.9406

Dispersion correction           -0.046536309
FINAL SINGLE POINT ENERGY     -1073.438822965436

DIPOLE MOMENT
-------------
                                X             Y             Z
Electronic contribution:     -1.03628      -2.44027     -20.45658
Nuclear contribution   :      0.52036       3.84122      20.69523
                        -----------------------------------------
Total Dipole Moment    :     -0.51592       1.40095       0.23865
                        -----------------------------------------
Magnitude (a.u.)       :      1.51189
Magnitude (Debye)      :      3.84291

Rotational constants in cm-1:     0.029184     0.014996     0.011314
Rotational constants in MHz :   874.907122   449.569665   339.178205

                             ****ORCA TERMINATED NORMALLY****
TOTAL RUN TIME: 0 days 0 hours 0 minutes 28 seconds 344 msec
