                         Program Version 5.0.0 -  RELEASE  -
|  1> !BLYP D3BJ RIJCOSX def2-SVPD def2/J TightSCF
|  2> *xyz -1 1
|  3> C          3.38093        2.08304       -3.35013
|  4> C          2.49556        1.81615       -2.13636
|  5> C          1.87218        0.42790       -2.07750
|  6> H          2.61427       -0.36583       -2.19889
|  7> H          1.38995        0.27309       -1.11236
|  8> S          0.57902        0.14047       -3.29794
|  9> O          0.22886       -1.24687       -3.12787
| 10> O         -0.43927        1.11897       -3.01455
| 11> O          1.24788        0.40347       -4.59565
| 12> H          1.69700        2.56197       -2.14111
| 13> H          3.08079        1.98744       -1.22584
| 14> H          2.81820        1.91840       -4.24519
| 15> H          4.22171        1.42153       -3.33067
| 16> H          3.72372        3.09635       -3.32565
| 17> *
| 18>
| 19> %MaxCore 64000
| 20>
| 21> %pal nprocs 8
| 22> end
| 23>
| 24> %scf
| 25>   MaxIter 150
| 26> end
| 27>
| 28>
| 29>                          ****END OF INPUT****

CARTESIAN COORDINATES (ANGSTROEM)
---------------------------------
  C      3.380930    2.083040   -3.350130
  C      2.495560    1.816150   -2.136360
  C      1.872180    0.427900   -2.077500
  H      2.614270   -0.365830   -2.198890
  H      1.389950    0.273090   -1.112360
  S      0.579020    0.140470   -3.297940
  O      0.228860   -1.246870   -3.127870
  O     -0.439270    1.118970   -3.014550
  O      1.247880    0.403470   -4.595650
  H      1.697000    2.561970   -2.141110
  H      3.080790    1.987440   -1.225840
  H      2.818200    1.918400   -4.245190
  H      4.221710    1.421530   -3.330670
  H      3.723720    3.096350   -3.325650

 Total Charge           Charge          ....   -1
 Multiplicity           Mult            ....    1
 Number of Electrons    NEL             ....   66
 Basis Dimension        Dim             ....  212

ORBITAL ENERGIES
----------------

  NO   OCC          E(Eh)            E(eV)
   0   2.0000     -88.131222     -2398.1725
   1   2.0000     -18.575269      -505.4588
   2   2.0000     -18.574867      -505.4478
   3   2.0000     -18.561744      -505.0907
   4   2.0000      -9.788043      -266.3462
   5   2.0000      -9.780736      -266.1473
   6   2.0000      -9.769356      -265.8377
   7   2.0000      -7.667788      -208.6511
   8   2.0000      -5.702913      -155.1841
   9   2.0000      -5.702832      -155.1819
  10   2.0000      -5.701992      -155.1591
  11   2.0000      -0.839690       -22.8491
  12   2.0000      -0.707185       -19.2435
  13   2.0000      -0.682783       -18.5795
  14   2.0000      -0.569208       -15.4889
  15   2.0000      -0.485859       -13.2209
  16   2.0000      -0.396483       -10.7888
  17   2.0000      -0.320473        -8.7205
  18   2.0000      -0.275522        -7.4973
  19   2.0000      -0.264057        -7.1854
  20   2.0000      -0.237600        -6.4654
  21   2.0000      -0.227326        -6.1859
  22   2.0000      -0.211397        -5.7524
  23   2.0000      -0.201761        -5.4902
  24   2.0000      -0.171908        -4.6779
  25   2.0000      -0.167685        -4.5629
  26   2.0000      -0.157278        -4.2797
  27   2.0000      -0.104410        -2.8411
  28   2.0000      -0.103839        -2.8256
  29   2.0000      -0.072821        -1.9816
  30   2.0000      -0.067115        -1.8263
  31   2.0000      -0.053739        -1.4623
  32   2.0000      -0.021618        -0.5882
  33   0.0000       0.120947         3.2911
  34   0.0000       0.147641         4.0175
  35   0.0000       0.153507         4.1771
  36   0.0000       0.163650         4.4531
  37   0.0000       0.181857         4.9486

MULLIKEN ATOMIC CHARGES
-----------------------
   0 C :    1.266403
   1 C :    0.029802
   2 C :    0.332242
   3 H :   -0.182362
   4 H :   -0.190330
   5 S :    1.207581
   6 O :   -0.741988
   7 O :   -0.735038
   8 O :   -0.811882
   9 H :   -0.154697
  10 H :   -0.294494
  11 H :   -0.398965
  12 H :   -0.140267
  13 H :   -0.186003
Sum of atomic charges:   -1.0000000

LOEWDIN ATOMIC CHARGES
----------------------
   0 C :    0.126606
   1 C :   -0.083763
   2 C :   -0.090239
   3 H :    0.001294
   4 H :   -0.005177
   5 S :    0.825262
   6 O :   -0.552288
   7 O :   -0.549151
   8 O :   -0.558187
   9 H :    0.012077
  10 H :   -0.000004
  11 H :   -0.058360
  12 H :   -0.029520
  13 H :   -0.038551

  Mayer bond orders larger than 0.100000
B(  0-C ,  1-C ) :   1.2375 B(  0-C ,  9-H ) :   0.1415 B(  0-C , 11-H ) :   0.6380
B(  0-C , 12-H ) :   0.6174 B(  0-C , 13-H ) :   0.5777 B(  1-C ,  2-C ) :   1.2082
B(  1-C ,  3-H ) :   0.1542 B(  1-C ,  4-H ) :   0.1704 B(  1-C ,  9-H ) :   0.8010
B(  1-C , 10-H ) :   0.7630 B(  1-C , 11-H ) :   0.3369 B(  1-C , 12-H ) :   0.2802
B(  1-C , 13-H ) :   0.2894 B(  2-C ,  3-H ) :   0.8801 B(  2-C ,  4-H ) :   0.8330
B(  2-C ,  5-S ) :   0.8710 B(  2-C ,  6-O ) :   0.1007 B(  2-C ,  9-H ) :   0.1617
B(  2-C , 10-H ) :   0.1657 B(  5-S ,  6-O ) :   1.3851 B(  5-S ,  7-O ) :   1.3195
B(  5-S ,  8-O ) :   1.2749 B(  8-O , 11-H ) :   0.1261 B( 11-H , 12-H ) :   0.1368
B( 11-H , 13-H ) :   0.1293

Dispersion correction           -0.027963835
FINAL SINGLE POINT ENERGY      -741.976168510011

DIPOLE MOMENT
-------------
                                X             Y             Z
Electronic contribution:     -8.87234      -5.57350      -2.93263
Nuclear contribution   :     10.42821       6.37804       4.08250
                        -----------------------------------------
Total Dipole Moment    :      1.55588       0.80454       1.14987
                        -----------------------------------------
Magnitude (a.u.)       :      2.09529
Magnitude (Debye)      :      5.32580

Rotational constants in cm-1:     0.136992     0.054831     0.052480
Rotational constants in MHz :  4106.928256  1643.799656  1573.299166

                             ****ORCA TERMINATED NORMALLY****
TOTAL RUN TIME: 0 days 0 hours 0 minutes 5 seconds 738 msec
