                         Program Version 5.0.0 -  RELEASE  -
|  1> !BLYP D3BJ RIJCOSX def2-SVPD def2/J TightSCF
|  2> *xyz 1 1
|  3> C          3.38093        2.08304       -3.35013
|  4> N          4.53592        1.18245       -3.42852
|  5> C          2.49556        1.81615       -2.13636
|  6> C          1.87218        0.42790       -2.07750
|  7> C          4.67196        0.12227       -4.22060
|  8> N          5.86602       -0.50785       -4.22428
|  9> N          3.69888       -0.31284       -4.98699
| 10> H          2.73141       -0.05009       -4.84900
| 11> H          3.89005       -1.05517       -5.64373
| 12> H          5.25193        1.30346       -2.72101
| 13> H          6.69516       -0.06232       -3.85160
| 14> H          5.97538       -1.39688       -4.69141
| 15> H          1.69700        2.56197       -2.14111
| 16> H          3.08079        1.98744       -1.22584
| 17> H          2.80646        1.98651       -4.26848
| 18> H          3.77871        3.09828       -3.30738
| 19> H          1.29954        0.25615       -2.96490
| 20> H          1.23321        0.35984       -1.22194
| 21> H          2.64581       -0.30765       -2.00430
| 22> *
| 23>
| 24> %MaxCore 64000
| 25>
| 26> %pal nprocs 8
| 27> end
| 28>
| 29> %scf
| 30>   MaxIter 150
| 31> end
| 32>
| 33>
| 34>                          ****END OF INPUT****

CARTESIAN COORDINATES (ANGSTROEM)
---------------------------------
  C      3.380930    2.083040   -3.350130
  N      4.535920    1.182450   -3.428520
  C      2.495560    1.816150   -2.136360
  C      1.872180    0.427900   -2.077500
  C      4.671960    0.122270   -4.220600
  N      5.866020   -0.507850   -4.224280
  N      3.698880   -0.312840   -4.986990
  H      2.731410   -0.050090   -4.849000
  H      3.890050   -1.055170   -5.643730
  H      5.251930    1.303460   -2.721010
  H      6.695160   -0.062320   -3.851600
  H      5.975380   -1.396880   -4.691410
  H      1.697000    2.561970   -2.141110
  H      3.080790    1.987440   -1.225840
  H      2.806460    1.986510   -4.268480
  H      3.778710    3.098280   -3.307380
  H      1.299540    0.256150   -2.964900
  H      1.233210    0.359840   -1.221940
  H      2.645810   -0.307650   -2.004300

 Total Charge           Charge          ....    1
 Multiplicity           Mult            ....    1
 Number of Electrons    NEL             ....   56
 Basis Dimension        Dim             ....  236

ORBITAL ENERGIES
----------------

  NO   OCC          E(Eh)            E(eV)
   0   2.0000     -14.245827      -387.6486
   1   2.0000     -14.240956      -387.5161
   2   2.0000     -14.239530      -387.4773
   3   2.0000     -10.244888      -278.7776
   4   2.0000     -10.122409      -275.4448
   5   2.0000     -10.064193      -273.8606
   6   2.0000     -10.044688      -273.3299
   7   2.0000      -1.109757       -30.1980
   8   2.0000      -1.008429       -27.4407
   9   2.0000      -0.994424       -27.0597
  10   2.0000      -0.857001       -23.3202
  11   2.0000      -0.789926       -21.4950
  12   2.0000      -0.756802       -20.5936
  13   2.0000      -0.725128       -19.7317
  14   2.0000      -0.698937       -19.0190
  15   2.0000      -0.666932       -18.1482
  16   2.0000      -0.641006       -17.4427
  17   2.0000      -0.636949       -17.3323
  18   2.0000      -0.587121       -15.9764
  19   2.0000      -0.577859       -15.7244
  20   2.0000      -0.548010       -14.9121
  21   2.0000      -0.528203       -14.3731
  22   2.0000      -0.506988       -13.7958
  23   2.0000      -0.465074       -12.6553
  24   2.0000      -0.446495       -12.1498
  25   2.0000      -0.439714       -11.9652
  26   2.0000      -0.429583       -11.6896
  27   2.0000      -0.401509       -10.9256
  28   0.0000      -0.196037        -5.3344
  29   0.0000      -0.173018        -4.7081
  30   0.0000      -0.142474        -3.8769
  31   0.0000      -0.131764        -3.5855
  32   0.0000      -0.118694        -3.2298

MULLIKEN ATOMIC CHARGES
-----------------------
   0 C :    1.085298
   1 N :   -0.354697
   2 C :   -0.044597
   3 C :    1.225214
   4 C :    1.161015
   5 N :    0.194653
   6 N :    0.285021
   7 H :   -0.186540
   8 H :   -0.189413
   9 H :   -0.284652
  10 H :   -0.150432
  11 H :   -0.093944
  12 H :   -0.184347
  13 H :   -0.192148
  14 H :   -0.197751
  15 H :   -0.417575
  16 H :   -0.178432
  17 H :   -0.331112
  18 H :   -0.145563
Sum of atomic charges:    1.0000000

LOEWDIN ATOMIC CHARGES
----------------------
   0 C :    0.085263
   1 N :    0.066931
   2 C :   -0.041774
   3 C :    0.146472
   4 C :   -0.063428
   5 N :    0.279155
   6 N :    0.301289
   7 H :    0.013949
   8 H :    0.037435
   9 H :    0.056969
  10 H :    0.029894
  11 H :    0.026996
  12 H :    0.033655
  13 H :    0.027244
  14 H :    0.020666
  15 H :    0.035933
  16 H :   -0.024948
  17 H :   -0.005317
  18 H :   -0.026383

  Mayer bond orders larger than 0.100000
B(  0-C ,  1-N ) :   1.0144 B(  0-C ,  2-C ) :   1.0953 B(  0-C ,  9-H ) :  -0.2199
B(  0-C , 12-H ) :   0.1422 B(  0-C , 13-H ) :   0.1622 B(  0-C , 14-H ) :   0.6329
B(  0-C , 15-H ) :   0.7645 B(  1-N ,  4-C ) :   0.9829 B(  1-N ,  5-N ) :   0.2885
B(  1-N ,  6-N ) :   0.3238 B(  1-N ,  9-H ) :   1.2989 B(  1-N , 14-H ) :   0.1940
B(  1-N , 15-H ) :   0.1832 B(  2-C ,  3-C ) :   1.2867 B(  2-C , 12-H ) :   0.8136
B(  2-C , 13-H ) :   0.8083 B(  2-C , 14-H ) :   0.1512 B(  2-C , 16-H ) :   0.2988
B(  2-C , 17-H ) :   0.2846 B(  2-C , 18-H ) :   0.2986 B(  3-C , 12-H ) :   0.1253
B(  3-C , 13-H ) :   0.1025 B(  3-C , 16-H ) :   0.6632 B(  3-C , 17-H ) :   0.6664
B(  3-C , 18-H ) :   0.6663 B(  4-C ,  5-N ) :   0.9052 B(  4-C ,  6-N ) :   1.0286
B(  4-C ,  7-H ) :  -0.2138 B(  4-C ,  8-H ) :  -0.2056 B(  4-C ,  9-H ) :  -0.2779
B(  4-C , 10-H ) :  -0.1861 B(  4-C , 11-H ) :  -0.1095 B(  5-N ,  6-N ) :   0.1947
B(  5-N , 10-H ) :   1.2151 B(  5-N , 11-H ) :   1.1832 B(  6-N ,  7-H ) :   1.1930
B(  6-N ,  8-H ) :   1.3109 B(  6-N , 14-H ) :   0.1168 B(  7-H ,  8-H ) :  -0.2525
B( 10-H , 11-H ) :  -0.1925 B( 14-H , 15-H ) :  -0.1894

Dispersion correction           -0.032183749
FINAL SINGLE POINT ENERGY      -323.376789096956

DIPOLE MOMENT
-------------
                                X             Y             Z
Electronic contribution:      5.28986      -1.44502      -3.76331
Nuclear contribution   :     -4.20917       0.72396       2.93051
                        -----------------------------------------
Total Dipole Moment    :      1.08069      -0.72106      -0.83280
                        -----------------------------------------
Magnitude (a.u.)       :      1.54317
Magnitude (Debye)      :      3.92242

Rotational constants in cm-1:     0.153116     0.051500     0.046494
Rotational constants in MHz :  4590.307026  1543.937577  1393.864628

                             ****ORCA TERMINATED NORMALLY****
TOTAL RUN TIME: 0 days 0 hours 0 minutes 6 seconds 610 msec
