                         Program Version 5.0.0 -  RELEASE  -
|  1> !BLYP D3BJ RIJCOSX def2-SVPD def2/J TightSCF
|  2> *xyz 0 1
|  3> C          3.38093        2.08304       -3.35013
|  4> C          2.49556        1.81615       -2.13636
|  5> C          1.87218        0.42790       -2.07750
|  6> H          2.61427       -0.36583       -2.19889
|  7> H          1.38995        0.27309       -1.11236
|  8> S          0.57902        0.14047       -3.29794
|  9> F          0.22886       -1.24687       -3.12787
| 10> O         -0.43927        1.11897       -3.01455
| 11> O          1.24788        0.40347       -4.59565
| 12> H          1.69700        2.56197       -2.14111
| 13> H          3.08079        1.98744       -1.22584
| 14> H          2.81820        1.91840       -4.24519
| 15> H          4.22171        1.42153       -3.33067
| 16> H          3.72372        3.09635       -3.32565
| 17> *
| 18>
| 19> %MaxCore 64000
| 20>
| 21> %pal nprocs 8
| 22> end
| 23>
| 24> %scf
| 25>   MaxIter 150
| 26> end
| 27>
| 28>
| 29>                          ****END OF INPUT****

CARTESIAN COORDINATES (ANGSTROEM)
---------------------------------
  C      3.380930    2.083040   -3.350130
  C      2.495560    1.816150   -2.136360
  C      1.872180    0.427900   -2.077500
  H      2.614270   -0.365830   -2.198890
  H      1.389950    0.273090   -1.112360
  S      0.579020    0.140470   -3.297940
  F      0.228860   -1.246870   -3.127870
  O     -0.439270    1.118970   -3.014550
  O      1.247880    0.403470   -4.595650
  H      1.697000    2.561970   -2.141110
  H      3.080790    1.987440   -1.225840
  H      2.818200    1.918400   -4.245190
  H      4.221710    1.421530   -3.330670
  H      3.723720    3.096350   -3.325650

 Total Charge           Charge          ....    0
 Multiplicity           Mult            ....    1
 Number of Electrons    NEL             ....   66
 Basis Dimension        Dim             ....  212

ORBITAL ENERGIES
----------------

  NO   OCC          E(Eh)            E(eV)
   0   2.0000     -88.383333     -2405.0328
   1   2.0000     -24.419770      -664.4957
   2   2.0000     -18.804252      -511.6897
   3   2.0000     -18.790179      -511.3068
   4   2.0000      -9.978910      -271.5399
   5   2.0000      -9.947298      -270.6798
   6   2.0000      -9.910126      -269.6682
   7   2.0000      -7.920968      -215.5405
   8   2.0000      -5.960330      -162.1888
   9   2.0000      -5.953905      -162.0140
  10   2.0000      -5.952061      -161.9638
  11   2.0000      -1.266716       -34.4691
  12   2.0000      -1.014623       -27.6093
  13   2.0000      -0.912872       -24.8405
  14   2.0000      -0.744764       -20.2660
  15   2.0000      -0.679082       -18.4788
  16   2.0000      -0.634875       -17.2758
  17   2.0000      -0.564484       -15.3604
  18   2.0000      -0.521182       -14.1821
  19   2.0000      -0.514021       -13.9872
  20   2.0000      -0.494620       -13.4593
  21   2.0000      -0.437751       -11.9118
  22   2.0000      -0.432238       -11.7618
  23   2.0000      -0.400053       -10.8860
  24   2.0000      -0.390094       -10.6150
  25   2.0000      -0.382876       -10.4186
  26   2.0000      -0.338578        -9.2132
  27   2.0000      -0.326931        -8.8963
  28   2.0000      -0.324132        -8.8201
  29   2.0000      -0.312940        -8.5155
  30   2.0000      -0.289242        -7.8707
  31   2.0000      -0.268730        -7.3125
  32   2.0000      -0.257966        -7.0196
  33   0.0000      -0.027494        -0.7481
  34   0.0000      -0.004855        -0.1321
  35   0.0000       0.015601         0.4245
  36   0.0000       0.022512         0.6126
  37   0.0000       0.023085         0.6282

MULLIKEN ATOMIC CHARGES
-----------------------
   0 C :    1.291832
   1 C :    0.033602
   2 C :    0.299693
   3 H :   -0.129207
   4 H :   -0.128846
   5 S :    1.406177
   6 F :   -0.384959
   7 O :   -0.590782
   8 O :   -0.683748
   9 H :   -0.143622
  10 H :   -0.270972
  11 H :   -0.408177
  12 H :   -0.126148
  13 H :   -0.164843
Sum of atomic charges:   -0.0000000

LOEWDIN ATOMIC CHARGES
----------------------
   0 C :    0.151103
   1 C :   -0.054063
   2 C :   -0.056489
   3 H :    0.019486
   4 H :    0.013493
   5 S :    1.088621
   6 F :   -0.242087
   7 O :   -0.438552
   8 O :   -0.455149
   9 H :    0.026110
  10 H :    0.028753
  11 H :   -0.050096
  12 H :   -0.015272
  13 H :   -0.015859

  Mayer bond orders larger than 0.100000
B(  0-C ,  1-C ) :   1.2641 B(  0-C ,  9-H ) :   0.1337 B(  0-C , 11-H ) :   0.6466
B(  0-C , 12-H ) :   0.6116 B(  0-C , 13-H ) :   0.5786 B(  1-C ,  2-C ) :   1.2576
B(  1-C ,  3-H ) :   0.1481 B(  1-C ,  4-H ) :   0.1740 B(  1-C ,  9-H ) :   0.8023
B(  1-C , 10-H ) :   0.7646 B(  1-C , 11-H ) :   0.3212 B(  1-C , 12-H ) :   0.2774
B(  1-C , 13-H ) :   0.2795 B(  2-C ,  3-H ) :   0.8766 B(  2-C ,  4-H ) :   0.8094
B(  2-C ,  5-S ) :   0.9119 B(  2-C ,  9-H ) :   0.1541 B(  2-C , 10-H ) :   0.1579
B(  5-S ,  6-F ) :   0.7348 B(  5-S ,  7-O ) :   1.5244 B(  5-S ,  8-O ) :   1.4574
B(  7-O ,  8-O ) :   0.1121 B(  8-O , 11-H ) :   0.1139 B( 11-H , 12-H ) :   0.1362
B( 11-H , 13-H ) :   0.1257

Dispersion correction           -0.027032295
FINAL SINGLE POINT ENERGY      -766.466274572518

DIPOLE MOMENT
-------------
                                X             Y             Z
Electronic contribution:    -10.70397      -8.86737      -2.87635
Nuclear contribution   :     11.47400       8.34657       4.07449
                        -----------------------------------------
Total Dipole Moment    :      0.77002      -0.52080       1.19814
                        -----------------------------------------
Magnitude (a.u.)       :      1.51648
Magnitude (Debye)      :      3.85458

Rotational constants in cm-1:     0.134491     0.052696     0.050832
Rotational constants in MHz :  4031.952949  1579.780527  1523.918863

                             ****ORCA TERMINATED NORMALLY****
TOTAL RUN TIME: 0 days 0 hours 0 minutes 5 seconds 302 msec
