                         Program Version 5.0.0 -  RELEASE  -
|  1> !BLYP D3BJ RIJCOSX def2-SVPD def2/J TightSCF
|  2> *xyz 0 1
|  3> C          3.38093        2.08304       -3.35013
|  4> C          4.53592        1.18245       -3.42852
|  5> C          2.49556        1.81615       -2.13636
|  6> C          1.87218        0.42790       -2.07750
|  7> C          4.67196        0.12227       -4.22060
|  8> N          5.86602       -0.50785       -4.22428
|  9> N          3.69888       -0.31284       -4.98699
| 10> H          2.73141       -0.05009       -4.84900
| 11> H          3.89005       -1.05517       -5.64373
| 12> H          5.25193        1.30346       -2.72101
| 13> H          6.69516       -0.06232       -3.85160
| 14> H          5.97538       -1.39688       -4.69141
| 15> H          1.69700        2.56197       -2.14111
| 16> H          3.08079        1.98744       -1.22584
| 17> H          2.80646        1.98651       -4.26848
| 18> H          3.77871        3.09828       -3.30738
| 19> H          1.29954        0.25615       -2.96490
| 20> H          1.23321        0.35984       -1.22194
| 21> H          2.64581       -0.30765       -2.00430
| 22> *
| 23>
| 24> %MaxCore 64000
| 25>
| 26> %pal nprocs 8
| 27> end
| 28>
| 29> %scf
| 30>   MaxIter 150
| 31> end
| 32>
| 33>
| 34>                          ****END OF INPUT****

CARTESIAN COORDINATES (ANGSTROEM)
---------------------------------
  C      3.380930    2.083040   -3.350130
  C      4.535920    1.182450   -3.428520
  C      2.495560    1.816150   -2.136360
  C      1.872180    0.427900   -2.077500
  C      4.671960    0.122270   -4.220600
  N      5.866020   -0.507850   -4.224280
  N      3.698880   -0.312840   -4.986990
  H      2.731410   -0.050090   -4.849000
  H      3.890050   -1.055170   -5.643730
  H      5.251930    1.303460   -2.721010
  H      6.695160   -0.062320   -3.851600
  H      5.975380   -1.396880   -4.691410
  H      1.697000    2.561970   -2.141110
  H      3.080790    1.987440   -1.225840
  H      2.806460    1.986510   -4.268480
  H      3.778710    3.098280   -3.307380
  H      1.299540    0.256150   -2.964900
  H      1.233210    0.359840   -1.221940
  H      2.645810   -0.307650   -2.004300

 Total Charge           Charge          ....    0
 Multiplicity           Mult            ....    1
 Number of Electrons    NEL             ....   56
 Basis Dimension        Dim             ....  236

ORBITAL ENERGIES
----------------

  NO   OCC          E(Eh)            E(eV)
   0   2.0000     -14.028074      -381.7233
   1   2.0000     -14.021298      -381.5389
   2   2.0000      -9.960498      -271.0389
   3   2.0000      -9.898136      -269.3420
   4   2.0000      -9.894246      -269.2361
   5   2.0000      -9.893926      -269.2274
   6   2.0000      -9.845544      -267.9109
   7   2.0000      -0.863608       -23.5000
   8   2.0000      -0.778396       -21.1812
   9   2.0000      -0.697584       -18.9822
  10   2.0000      -0.639178       -17.3929
  11   2.0000      -0.584835       -15.9142
  12   2.0000      -0.534150       -14.5350
  13   2.0000      -0.499628       -13.5956
  14   2.0000      -0.485865       -13.2211
  15   2.0000      -0.449395       -12.2287
  16   2.0000      -0.429585       -11.6896
  17   2.0000      -0.391689       -10.6584
  18   2.0000      -0.380486       -10.3535
  19   2.0000      -0.364259        -9.9120
  20   2.0000      -0.333741        -9.0816
  21   2.0000      -0.326533        -8.8854
  22   2.0000      -0.304568        -8.2877
  23   2.0000      -0.287659        -7.8276
  24   2.0000      -0.272481        -7.4146
  25   2.0000      -0.266917        -7.2632
  26   2.0000      -0.218594        -5.9482
  27   2.0000      -0.125010        -3.4017
  28   0.0000      -0.007717        -0.2100
  29   0.0000       0.015042         0.4093
  30   0.0000       0.028453         0.7743
  31   0.0000       0.041529         1.1301
  32   0.0000       0.043114         1.1732

MULLIKEN ATOMIC CHARGES
-----------------------
   0 C :    0.609489
   1 C :   -0.218237
   2 C :   -0.094834
   3 C :    1.209160
   4 C :    0.810731
   5 N :    0.223334
   6 N :    0.393875
   7 H :   -0.214962
   8 H :   -0.349903
   9 H :   -0.430799
  10 H :   -0.167378
  11 H :   -0.214079
  12 H :   -0.224210
  13 H :   -0.189480
  14 H :   -0.251938
  15 H :   -0.234703
  16 H :   -0.200341
  17 H :   -0.309715
  18 H :   -0.146012
Sum of atomic charges:    0.0000000

LOEWDIN ATOMIC CHARGES
----------------------
   0 C :   -0.049230
   1 C :   -0.021151
   2 C :   -0.072386
   3 C :    0.129275
   4 C :   -0.234763
   5 N :    0.201261
   6 N :    0.221460
   7 H :   -0.016345
   8 H :   -0.013520
   9 H :   -0.051587
  10 H :   -0.004486
  11 H :   -0.025631
  12 H :    0.006361
  13 H :    0.015943
  14 H :   -0.001808
  15 H :    0.007230
  16 H :   -0.034454
  17 H :   -0.028210
  18 H :   -0.027962

  Mayer bond orders larger than 0.100000
B(  0-C ,  1-C ) :   1.1204 B(  0-C ,  2-C ) :   1.1177 B(  0-C ,  9-H ) :   0.3108
B(  0-C , 12-H ) :   0.1773 B(  0-C , 13-H ) :   0.1866 B(  0-C , 14-H ) :   0.6430
B(  0-C , 15-H ) :   0.7220 B(  1-C ,  2-C ) :   0.1716 B(  1-C ,  4-C ) :   1.4829
B(  1-C ,  5-N ) :   0.4673 B(  1-C ,  6-N ) :   0.3253 B(  1-C ,  9-H ) :   0.7345
B(  1-C , 14-H ) :   0.3246 B(  1-C , 15-H ) :   0.1902 B(  2-C ,  3-C ) :   1.2849
B(  2-C , 12-H ) :   0.7981 B(  2-C , 13-H ) :   0.8043 B(  2-C , 14-H ) :   0.1665
B(  2-C , 15-H ) :   0.1231 B(  2-C , 16-H ) :   0.3026 B(  2-C , 17-H ) :   0.2942
B(  2-C , 18-H ) :   0.3252 B(  3-C , 12-H ) :   0.1465 B(  3-C , 13-H ) :   0.1232
B(  3-C , 16-H ) :   0.6700 B(  3-C , 17-H ) :   0.6249 B(  3-C , 18-H ) :   0.6575
B(  4-C ,  5-N ) :   0.8035 B(  4-C ,  6-N ) :   1.0824 B(  4-C ,  8-H ) :  -0.2217
B(  4-C ,  9-H ) :   0.1373 B(  4-C , 10-H ) :  -0.1700 B(  4-C , 14-H ) :  -0.1510
B(  5-N ,  6-N ) :   0.1131 B(  5-N , 10-H ) :   1.2380 B(  5-N , 11-H ) :   1.1646
B(  6-N ,  7-H ) :   1.1469 B(  6-N ,  8-H ) :   1.3546 B(  7-H ,  8-H ) :  -0.2436
B( 10-H , 11-H ) :  -0.1799 B( 16-H , 18-H ) :   0.1197

Dispersion correction           -0.033461040
FINAL SINGLE POINT ENERGY      -306.894295296541

DIPOLE MOMENT
-------------
                                X             Y             Z
Electronic contribution:      4.24931      -1.63762      -3.47102
Nuclear contribution   :     -4.04774       0.83876       2.94666
                        -----------------------------------------
Total Dipole Moment    :      0.20157      -0.79886      -0.52436
                        -----------------------------------------
Magnitude (a.u.)       :      0.97661
Magnitude (Debye)      :      2.48233

Rotational constants in cm-1:     0.155283     0.051523     0.046710
Rotational constants in MHz :  4655.262593  1544.606434  1400.328421

                             ****ORCA TERMINATED NORMALLY****
TOTAL RUN TIME: 0 days 0 hours 0 minutes 7 seconds 173 msec
