                         Program Version 5.0.0 -  RELEASE  -
|  1> !BLYP D3BJ RIJCOSX def2-SVPD def2/J TightSCF
|  2> *xyz 0 1
|  3> C          3.38093        2.08304       -3.35013
|  4> C          2.49556        1.81615       -2.13636
|  5> C          1.87218        0.42790       -2.07750
|  6> H          2.61427       -0.36583       -2.19889
|  7> H          1.38995        0.27309       -1.11236
|  8> S          0.57902        0.14047       -3.29794
|  9> O          0.22886       -1.24687       -3.12787
| 10> F         -0.43927        1.11897       -3.01455
| 11> O          1.24788        0.40347       -4.59565
| 12> H          1.69700        2.56197       -2.14111
| 13> H          3.08079        1.98744       -1.22584
| 14> H          2.81820        1.91840       -4.24519
| 15> H          4.22171        1.42153       -3.33067
| 16> H          3.72372        3.09635       -3.32565
| 17> *
| 18>
| 19> %MaxCore 64000
| 20>
| 21> %pal nprocs 8
| 22> end
| 23>
| 24> %scf
| 25>   MaxIter 150
| 26> end
| 27>
| 28>
| 29>                          ****END OF INPUT****

CARTESIAN COORDINATES (ANGSTROEM)
---------------------------------
  C      3.380930    2.083040   -3.350130
  C      2.495560    1.816150   -2.136360
  C      1.872180    0.427900   -2.077500
  H      2.614270   -0.365830   -2.198890
  H      1.389950    0.273090   -1.112360
  S      0.579020    0.140470   -3.297940
  O      0.228860   -1.246870   -3.127870
  F     -0.439270    1.118970   -3.014550
  O      1.247880    0.403470   -4.595650
  H      1.697000    2.561970   -2.141110
  H      3.080790    1.987440   -1.225840
  H      2.818200    1.918400   -4.245190
  H      4.221710    1.421530   -3.330670
  H      3.723720    3.096350   -3.325650

 Total Charge           Charge          ....    0
 Multiplicity           Mult            ....    1
 Number of Electrons    NEL             ....   66
 Basis Dimension        Dim             ....  212

ORBITAL ENERGIES
----------------

  NO   OCC          E(Eh)            E(eV)
   0   2.0000     -88.383812     -2405.0458
   1   2.0000     -24.420522      -664.5162
   2   2.0000     -18.804299      -511.6910
   3   2.0000     -18.790814      -511.3240
   4   2.0000      -9.978903      -271.5397
   5   2.0000      -9.950127      -270.7567
   6   2.0000      -9.912823      -269.7416
   7   2.0000      -7.921360      -215.5512
   8   2.0000      -5.960828      -162.2024
   9   2.0000      -5.954246      -162.0233
  10   2.0000      -5.952423      -161.9737
  11   2.0000      -1.267830       -34.4994
  12   2.0000      -1.013917       -27.5901
  13   2.0000      -0.914002       -24.8713
  14   2.0000      -0.747872       -20.3506
  15   2.0000      -0.676518       -18.4090
  16   2.0000      -0.638134       -17.3645
  17   2.0000      -0.564499       -15.3608
  18   2.0000      -0.529956       -14.4208
  19   2.0000      -0.519757       -14.1433
  20   2.0000      -0.486534       -13.2393
  21   2.0000      -0.435272       -11.8444
  22   2.0000      -0.433692       -11.8013
  23   2.0000      -0.404544       -11.0082
  24   2.0000      -0.393120       -10.6973
  25   2.0000      -0.383475       -10.4349
  26   2.0000      -0.339220        -9.2307
  27   2.0000      -0.331089        -9.0094
  28   2.0000      -0.327670        -8.9163
  29   2.0000      -0.315773        -8.5926
  30   2.0000      -0.287264        -7.8168
  31   2.0000      -0.271159        -7.3786
  32   2.0000      -0.257713        -7.0127
  33   0.0000      -0.031779        -0.8648
  34   0.0000      -0.000519        -0.0141
  35   0.0000       0.013013         0.3541
  36   0.0000       0.018197         0.4952
  37   0.0000       0.020974         0.5707

MULLIKEN ATOMIC CHARGES
-----------------------
   0 C :    1.295156
   1 C :    0.081730
   2 C :    0.318744
   3 H :   -0.138872
   4 H :   -0.148223
   5 S :    1.362695
   6 O :   -0.589545
   7 F :   -0.359496
   8 O :   -0.670787
   9 H :   -0.174711
  10 H :   -0.275913
  11 H :   -0.412127
  12 H :   -0.123958
  13 H :   -0.164693
Sum of atomic charges:    0.0000000

LOEWDIN ATOMIC CHARGES
----------------------
   0 C :    0.148747
   1 C :   -0.069199
   2 C :   -0.045849
   3 H :    0.033897
   4 H :    0.013871
   5 S :    1.086182
   6 O :   -0.438232
   7 F :   -0.239651
   8 O :   -0.450160
   9 H :    0.018520
  10 H :    0.025427
  11 H :   -0.053596
  12 H :   -0.013172
  13 H :   -0.016784

  Mayer bond orders larger than 0.100000
B(  0-C ,  1-C ) :   1.2739 B(  0-C ,  9-H ) :   0.1360 B(  0-C , 11-H ) :   0.6408
B(  0-C , 12-H ) :   0.6142 B(  0-C , 13-H ) :   0.5840 B(  1-C ,  2-C ) :   1.2151
B(  1-C ,  3-H ) :   0.1417 B(  1-C ,  4-H ) :   0.1595 B(  1-C ,  9-H ) :   0.7856
B(  1-C , 10-H ) :   0.7607 B(  1-C , 11-H ) :   0.3285 B(  1-C , 12-H ) :   0.2785
B(  1-C , 13-H ) :   0.2772 B(  2-C ,  3-H ) :   0.8874 B(  2-C ,  4-H ) :   0.8348
B(  2-C ,  5-S ) :   0.9390 B(  2-C ,  9-H ) :   0.1475 B(  2-C , 10-H ) :   0.1489
B(  5-S ,  6-O ) :   1.5982 B(  5-S ,  7-F ) :   0.7056 B(  5-S ,  8-O ) :   1.4941
B(  8-O , 11-H ) :   0.1123 B( 11-H , 12-H ) :   0.1340 B( 11-H , 13-H ) :   0.1255

Dispersion correction           -0.026900817
FINAL SINGLE POINT ENERGY      -766.465685177975

DIPOLE MOMENT
-------------
                                X             Y             Z
Electronic contribution:    -11.81663      -4.87005      -2.68624
Nuclear contribution   :     12.19253       5.80225       3.95262
                        -----------------------------------------
Total Dipole Moment    :      0.37590       0.93220       1.26639
                        -----------------------------------------
Magnitude (a.u.)       :      1.61680
Magnitude (Debye)      :      4.10958

Rotational constants in cm-1:     0.130581     0.053444     0.051914
Rotational constants in MHz :  3914.711139  1602.211061  1556.338643

                             ****ORCA TERMINATED NORMALLY****
TOTAL RUN TIME: 0 days 0 hours 0 minutes 5 seconds 832 msec
