                         Program Version 5.0.0 -  RELEASE  -
|  1> !BLYP D3BJ RIJCOSX def2-SVPD def2/J TightSCF
|  2> *xyz 0 1
|  3> C          3.38093        2.08304       -3.35013
|  4> N          4.53592        1.18245       -3.42852
|  5> C          2.49556        1.81615       -2.13636
|  6> C          1.87218        0.42790       -2.07750
|  7> C          4.67196        0.12227       -4.22060
|  8> C          5.86602       -0.50785       -4.22428
|  9> N          3.69888       -0.31284       -4.98699
| 10> H          2.73141       -0.05009       -4.84900
| 11> H          3.89005       -1.05517       -5.64373
| 12> H          5.25193        1.30346       -2.72101
| 13> H          6.69516       -0.06232       -3.85160
| 14> H          5.97538       -1.39688       -4.69141
| 15> H          1.69700        2.56197       -2.14111
| 16> H          3.08079        1.98744       -1.22584
| 17> H          2.80646        1.98651       -4.26848
| 18> H          3.77871        3.09828       -3.30738
| 19> H          1.29954        0.25615       -2.96490
| 20> H          1.23321        0.35984       -1.22194
| 21> H          2.64581       -0.30765       -2.00430
| 22> *
| 23>
| 24> %MaxCore 64000
| 25>
| 26> %pal nprocs 8
| 27> end
| 28>
| 29> %scf
| 30>   MaxIter 150
| 31> end
| 32>
| 33>
| 34>                          ****END OF INPUT****

CARTESIAN COORDINATES (ANGSTROEM)
---------------------------------
  C      3.380930    2.083040   -3.350130
  N      4.535920    1.182450   -3.428520
  C      2.495560    1.816150   -2.136360
  C      1.872180    0.427900   -2.077500
  C      4.671960    0.122270   -4.220600
  C      5.866020   -0.507850   -4.224280
  N      3.698880   -0.312840   -4.986990
  H      2.731410   -0.050090   -4.849000
  H      3.890050   -1.055170   -5.643730
  H      5.251930    1.303460   -2.721010
  H      6.695160   -0.062320   -3.851600
  H      5.975380   -1.396880   -4.691410
  H      1.697000    2.561970   -2.141110
  H      3.080790    1.987440   -1.225840
  H      2.806460    1.986510   -4.268480
  H      3.778710    3.098280   -3.307380
  H      1.299540    0.256150   -2.964900
  H      1.233210    0.359840   -1.221940
  H      2.645810   -0.307650   -2.004300

 Total Charge           Charge          ....    0
 Multiplicity           Mult            ....    1
 Number of Electrons    NEL             ....   56
 Basis Dimension        Dim             ....  236

ORBITAL ENERGIES
----------------

  NO   OCC          E(Eh)            E(eV)
   0   2.0000     -14.026118      -381.6701
   1   2.0000     -14.022471      -381.5708
   2   2.0000      -9.962807      -271.1018
   3   2.0000      -9.958436      -270.9828
   4   2.0000      -9.924715      -270.0652
   5   2.0000      -9.912897      -269.7437
   6   2.0000      -9.832535      -267.5569
   7   2.0000      -0.869624       -23.6637
   8   2.0000      -0.795102       -21.6358
   9   2.0000      -0.706047       -19.2125
  10   2.0000      -0.640935       -17.4407
  11   2.0000      -0.593044       -16.1375
  12   2.0000      -0.539592       -14.6830
  13   2.0000      -0.528089       -14.3700
  14   2.0000      -0.486430       -13.2364
  15   2.0000      -0.443502       -12.0683
  16   2.0000      -0.423612       -11.5271
  17   2.0000      -0.408449       -11.1145
  18   2.0000      -0.398106       -10.8330
  19   2.0000      -0.357416        -9.7258
  20   2.0000      -0.344980        -9.3874
  21   2.0000      -0.340044        -9.2531
  22   2.0000      -0.323689        -8.8080
  23   2.0000      -0.306213        -8.3325
  24   2.0000      -0.302423        -8.2294
  25   2.0000      -0.298875        -8.1328
  26   2.0000      -0.209008        -5.6874
  27   2.0000      -0.122396        -3.3306
  28   0.0000      -0.008056        -0.2192
  29   0.0000       0.013508         0.3676
  30   0.0000       0.022132         0.6022
  31   0.0000       0.029328         0.7980
  32   0.0000       0.045439         1.2364

MULLIKEN ATOMIC CHARGES
-----------------------
   0 C :    1.064642
   1 N :   -0.193247
   2 C :   -0.063740
   3 C :    1.196341
   4 C :    0.538936
   5 C :    0.688489
   6 N :    0.464829
   7 H :   -0.319199
   8 H :   -0.206359
   9 H :   -0.332092
  10 H :   -0.563746
  11 H :   -0.494070
  12 H :   -0.193140
  13 H :   -0.207073
  14 H :   -0.234504
  15 H :   -0.484299
  16 H :   -0.176001
  17 H :   -0.370313
  18 H :   -0.115455
Sum of atomic charges:   -0.0000000

LOEWDIN ATOMIC CHARGES
----------------------
   0 C :    0.054439
   1 N :    0.014392
   2 C :   -0.064192
   3 C :    0.134508
   4 C :   -0.254381
   5 C :    0.157687
   6 N :    0.218295
   7 H :   -0.030335
   8 H :    0.005840
   9 H :    0.032050
  10 H :   -0.115043
  11 H :   -0.118032
  12 H :    0.012405
  13 H :    0.015345
  14 H :    0.005968
  15 H :    0.009758
  16 H :   -0.031861
  17 H :   -0.024307
  18 H :   -0.022537

  Mayer bond orders larger than 0.100000
B(  0-C ,  1-N ) :   1.0165 B(  0-C ,  2-C ) :   1.0781 B(  0-C ,  9-H ) :  -0.2353
B(  0-C , 12-H ) :   0.1634 B(  0-C , 13-H ) :   0.1760 B(  0-C , 14-H ) :   0.6388
B(  0-C , 15-H ) :   0.7508 B(  1-N ,  4-C ) :   1.0593 B(  1-N ,  5-C ) :   0.2372
B(  1-N ,  6-N ) :   0.2287 B(  1-N ,  9-H ) :   1.2285 B(  1-N , 14-H ) :   0.2309
B(  1-N , 15-H ) :   0.1846 B(  2-C ,  3-C ) :   1.2776 B(  2-C , 12-H ) :   0.8042
B(  2-C , 13-H ) :   0.7996 B(  2-C , 14-H ) :   0.1577 B(  2-C , 15-H ) :   0.1111
B(  2-C , 16-H ) :   0.3023 B(  2-C , 17-H ) :   0.2877 B(  2-C , 18-H ) :   0.2989
B(  3-C , 12-H ) :   0.1249 B(  3-C , 13-H ) :   0.1140 B(  3-C , 16-H ) :   0.6783
B(  3-C , 17-H ) :   0.6390 B(  3-C , 18-H ) :   0.6855 B(  4-C ,  5-C ) :   1.1697
B(  4-C ,  6-N ) :   1.1307 B(  4-C ,  7-H ) :  -0.1069 B(  4-C ,  8-H ) :  -0.1127
B(  4-C ,  9-H ) :  -0.2359 B(  4-C , 11-H ) :   0.2502 B(  4-C , 14-H ) :  -0.1039
B(  5-C ,  6-N ) :   0.2249 B(  5-C , 10-H ) :   0.7264 B(  5-C , 11-H ) :   0.6001
B(  6-N ,  7-H ) :   1.1451 B(  6-N ,  8-H ) :   1.2497 B(  6-N , 14-H ) :   0.1304
B(  7-H ,  8-H ) :  -0.2341 B( 14-H , 15-H ) :  -0.1932

Dispersion correction           -0.033032437
FINAL SINGLE POINT ENERGY      -306.883930518930

DIPOLE MOMENT
-------------
                                X             Y             Z
Electronic contribution:      2.73198      -0.00234      -2.61589
Nuclear contribution   :     -3.75638       0.46849       2.77235
                        -----------------------------------------
Total Dipole Moment    :     -1.02440       0.46615       0.15646
                        -----------------------------------------
Magnitude (a.u.)       :      1.13630
Magnitude (Debye)      :      2.88824

Rotational constants in cm-1:     0.154609     0.053528     0.048030
Rotational constants in MHz :  4635.053294  1604.739826  1439.897073

                             ****ORCA TERMINATED NORMALLY****
TOTAL RUN TIME: 0 days 0 hours 0 minutes 7 seconds 401 msec
