                         Program Version 5.0.0 -  RELEASE  -
|  1> !BLYP D3BJ RIJCOSX def2-SVPD def2/J TightSCF
|  2> *xyz 0 1
|  3> C          3.38093        2.08304       -3.35013
|  4> C          2.49556        1.81615       -2.13636
|  5> C          1.87218        0.42790       -2.07750
|  6> H          2.61427       -0.36583       -2.19889
|  7> H          1.38995        0.27309       -1.11236
|  8> S          0.57902        0.14047       -3.29794
|  9> O          0.22886       -1.24687       -3.12787
| 10> O         -0.43927        1.11897       -3.01455
| 11> F          1.24788        0.40347       -4.59565
| 12> H          1.69700        2.56197       -2.14111
| 13> H          3.08079        1.98744       -1.22584
| 14> H          2.81820        1.91840       -4.24519
| 15> H          4.22171        1.42153       -3.33067
| 16> H          3.72372        3.09635       -3.32565
| 17> *
| 18>
| 19> %MaxCore 64000
| 20>
| 21> %pal nprocs 8
| 22> end
| 23>
| 24> %scf
| 25>   MaxIter 150
| 26> end
| 27>
| 28>
| 29>                          ****END OF INPUT****

CARTESIAN COORDINATES (ANGSTROEM)
---------------------------------
  C      3.380930    2.083040   -3.350130
  C      2.495560    1.816150   -2.136360
  C      1.872180    0.427900   -2.077500
  H      2.614270   -0.365830   -2.198890
  H      1.389950    0.273090   -1.112360
  S      0.579020    0.140470   -3.297940
  O      0.228860   -1.246870   -3.127870
  O     -0.439270    1.118970   -3.014550
  F      1.247880    0.403470   -4.595650
  H      1.697000    2.561970   -2.141110
  H      3.080790    1.987440   -1.225840
  H      2.818200    1.918400   -4.245190
  H      4.221710    1.421530   -3.330670
  H      3.723720    3.096350   -3.325650

 Total Charge           Charge          ....    0
 Multiplicity           Mult            ....    1
 Number of Electrons    NEL             ....   66
 Basis Dimension        Dim             ....  212

ORBITAL ENERGIES
----------------

  NO   OCC          E(Eh)            E(eV)
   0   2.0000     -88.380510     -2404.9559
   1   2.0000     -24.398682      -663.9219
   2   2.0000     -18.803985      -511.6824
   3   2.0000     -18.803336      -511.6648
   4   2.0000      -9.977546      -271.5028
   5   2.0000      -9.950177      -270.7581
   6   2.0000      -9.927106      -270.1303
   7   2.0000      -7.918150      -215.4638
   8   2.0000      -5.957366      -162.1082
   9   2.0000      -5.951234      -161.9413
  10   2.0000      -5.949428      -161.8922
  11   2.0000      -1.232452       -33.5367
  12   2.0000      -1.022975       -27.8366
  13   2.0000      -0.933159       -25.3926
  14   2.0000      -0.749228       -20.3875
  15   2.0000      -0.674145       -18.3444
  16   2.0000      -0.627702       -17.0806
  17   2.0000      -0.569082       -15.4855
  18   2.0000      -0.512056       -13.9338
  19   2.0000      -0.496473       -13.5097
  20   2.0000      -0.485686       -13.2162
  21   2.0000      -0.437563       -11.9067
  22   2.0000      -0.425572       -11.5804
  23   2.0000      -0.411788       -11.2053
  24   2.0000      -0.402128       -10.9425
  25   2.0000      -0.386602       -10.5200
  26   2.0000      -0.349499        -9.5104
  27   2.0000      -0.339583        -9.2405
  28   2.0000      -0.325040        -8.8448
  29   2.0000      -0.319277        -8.6880
  30   2.0000      -0.293532        -7.9874
  31   2.0000      -0.285009        -7.7555
  32   2.0000      -0.272924        -7.4266
  33   0.0000      -0.027251        -0.7415
  34   0.0000       0.001434         0.0390
  35   0.0000       0.014936         0.4064
  36   0.0000       0.018552         0.5048
  37   0.0000       0.024611         0.6697

MULLIKEN ATOMIC CHARGES
-----------------------
   0 C :    1.277269
   1 C :    0.082803
   2 C :    0.312464
   3 H :   -0.133310
   4 H :   -0.139572
   5 S :    1.347818
   6 O :   -0.600507
   7 O :   -0.605234
   8 F :   -0.408365
   9 H :   -0.147307
  10 H :   -0.265758
  11 H :   -0.435691
  12 H :   -0.118430
  13 H :   -0.166179
Sum of atomic charges:   -0.0000000

LOEWDIN ATOMIC CHARGES
----------------------
   0 C :    0.147555
   1 C :   -0.067482
   2 C :   -0.045127
   3 H :    0.021814
   4 H :    0.027948
   5 S :    1.075661
   6 O :   -0.438943
   7 O :   -0.436848
   8 F :   -0.260476
   9 H :    0.022923
  10 H :    0.027063
  11 H :   -0.046424
  12 H :   -0.014161
  13 H :   -0.013502

  Mayer bond orders larger than 0.100000
B(  0-C ,  1-C ) :   1.2633 B(  0-C ,  9-H ) :   0.1314 B(  0-C , 11-H ) :   0.6325
B(  0-C , 12-H ) :   0.6282 B(  0-C , 13-H ) :   0.5952 B(  1-C ,  2-C ) :   1.2248
B(  1-C ,  3-H ) :   0.1503 B(  1-C ,  4-H ) :   0.1612 B(  1-C ,  9-H ) :   0.8089
B(  1-C , 10-H ) :   0.7533 B(  1-C , 11-H ) :   0.3144 B(  1-C , 12-H ) :   0.2727
B(  1-C , 13-H ) :   0.2746 B(  2-C ,  3-H ) :   0.8913 B(  2-C ,  4-H ) :   0.8217
B(  2-C ,  5-S ) :   0.9489 B(  2-C ,  9-H ) :   0.1586 B(  2-C , 10-H ) :   0.1601
B(  5-S ,  6-O ) :   1.5848 B(  5-S ,  7-O ) :   1.5401 B(  5-S ,  8-F ) :   0.6682
B(  6-O ,  7-O ) :   0.1248 B( 11-H , 12-H ) :   0.1253 B( 11-H , 13-H ) :   0.1242

Dispersion correction           -0.026768157
FINAL SINGLE POINT ENERGY      -766.484118996002

DIPOLE MOMENT
-------------
                                X             Y             Z
Electronic contribution:     -8.92006      -6.03441      -5.32651
Nuclear contribution   :     10.37810       6.57173       5.65300
                        -----------------------------------------
Total Dipole Moment    :      1.45804       0.53732       0.32649
                        -----------------------------------------
Magnitude (a.u.)       :      1.58783
Magnitude (Debye)      :      4.03594

Rotational constants in cm-1:     0.130522     0.054787     0.051463
Rotational constants in MHz :  3912.959799  1642.486768  1542.828917

                             ****ORCA TERMINATED NORMALLY****
TOTAL RUN TIME: 0 days 0 hours 0 minutes 5 seconds 433 msec
