                         Program Version 5.0.0 -  RELEASE  -
|  1> !BLYP D3BJ RIJCOSX def2-SVPD def2/J TightSCF
|  2> *xyz 0 1
|  3> C          3.38093        2.08304       -3.35013
|  4> N          4.53592        1.18245       -3.42852
|  5> C          2.49556        1.81615       -2.13636
|  6> C          1.87218        0.42790       -2.07750
|  7> C          4.67196        0.12227       -4.22060
|  8> N          5.86602       -0.50785       -4.22428
|  9> C          3.69888       -0.31284       -4.98699
| 10> H          2.73141       -0.05009       -4.84900
| 11> H          3.89005       -1.05517       -5.64373
| 12> H          5.25193        1.30346       -2.72101
| 13> H          6.69516       -0.06232       -3.85160
| 14> H          5.97538       -1.39688       -4.69141
| 15> H          1.69700        2.56197       -2.14111
| 16> H          3.08079        1.98744       -1.22584
| 17> H          2.80646        1.98651       -4.26848
| 18> H          3.77871        3.09828       -3.30738
| 19> H          1.29954        0.25615       -2.96490
| 20> H          1.23321        0.35984       -1.22194
| 21> H          2.64581       -0.30765       -2.00430
| 22> *
| 23>
| 24> %MaxCore 64000
| 25>
| 26> %pal nprocs 8
| 27> end
| 28>
| 29> %scf
| 30>   MaxIter 150
| 31> end
| 32>
| 33>
| 34>                          ****END OF INPUT****

CARTESIAN COORDINATES (ANGSTROEM)
---------------------------------
  C      3.380930    2.083040   -3.350130
  N      4.535920    1.182450   -3.428520
  C      2.495560    1.816150   -2.136360
  C      1.872180    0.427900   -2.077500
  C      4.671960    0.122270   -4.220600
  N      5.866020   -0.507850   -4.224280
  C      3.698880   -0.312840   -4.986990
  H      2.731410   -0.050090   -4.849000
  H      3.890050   -1.055170   -5.643730
  H      5.251930    1.303460   -2.721010
  H      6.695160   -0.062320   -3.851600
  H      5.975380   -1.396880   -4.691410
  H      1.697000    2.561970   -2.141110
  H      3.080790    1.987440   -1.225840
  H      2.806460    1.986510   -4.268480
  H      3.778710    3.098280   -3.307380
  H      1.299540    0.256150   -2.964900
  H      1.233210    0.359840   -1.221940
  H      2.645810   -0.307650   -2.004300

 Total Charge           Charge          ....    0
 Multiplicity           Mult            ....    1
 Number of Electrons    NEL             ....   56
 Basis Dimension        Dim             ....  236

ORBITAL ENERGIES
----------------

  NO   OCC          E(Eh)            E(eV)
   0   2.0000     -14.023621      -381.6021
   1   2.0000     -14.021150      -381.5349
   2   2.0000      -9.961238      -271.0591
   3   2.0000      -9.950704      -270.7724
   4   2.0000      -9.917515      -269.8693
   5   2.0000      -9.900511      -269.4066
   6   2.0000      -9.837078      -267.6805
   7   2.0000      -0.864242       -23.5172
   8   2.0000      -0.787234       -21.4217
   9   2.0000      -0.693251       -18.8643
  10   2.0000      -0.636388       -17.3170
  11   2.0000      -0.609143       -16.5756
  12   2.0000      -0.534199       -14.5363
  13   2.0000      -0.500795       -13.6273
  14   2.0000      -0.482951       -13.1418
  15   2.0000      -0.457197       -12.4410
  16   2.0000      -0.413963       -11.2645
  17   2.0000      -0.402860       -10.9624
  18   2.0000      -0.379578       -10.3288
  19   2.0000      -0.361057        -9.8249
  20   2.0000      -0.339573        -9.2403
  21   2.0000      -0.337123        -9.1736
  22   2.0000      -0.322509        -8.7759
  23   2.0000      -0.299191        -8.1414
  24   2.0000      -0.298061        -8.1107
  25   2.0000      -0.287134        -7.8133
  26   2.0000      -0.202454        -5.5090
  27   2.0000      -0.134552        -3.6614
  28   0.0000      -0.005121        -0.1394
  29   0.0000       0.014906         0.4056
  30   0.0000       0.025606         0.6968
  31   0.0000       0.036141         0.9834
  32   0.0000       0.047681         1.2975

MULLIKEN ATOMIC CHARGES
-----------------------
   0 C :    1.087881
   1 N :   -0.321991
   2 C :   -0.109287
   3 C :    1.210426
   4 C :    0.809120
   5 N :    0.337861
   6 C :    0.520425
   7 H :   -0.490902
   8 H :   -0.634256
   9 H :   -0.397581
  10 H :   -0.265308
  11 H :   -0.096801
  12 H :   -0.213061
  13 H :   -0.210118
  14 H :   -0.121137
  15 H :   -0.449262
  16 H :   -0.140231
  17 H :   -0.368208
  18 H :   -0.147569
Sum of atomic charges:   -0.0000000

LOEWDIN ATOMIC CHARGES
----------------------
   0 C :    0.062627
   1 N :    0.005126
   2 C :   -0.061878
   3 C :    0.136911
   4 C :   -0.250409
   5 N :    0.203409
   6 C :    0.168274
   7 H :   -0.116351
   8 H :   -0.103349
   9 H :    0.016406
  10 H :   -0.022395
  11 H :   -0.005974
  12 H :    0.012323
  13 H :    0.011351
  14 H :    0.012421
  15 H :    0.010520
  16 H :   -0.026359
  17 H :   -0.027247
  18 H :   -0.025408

  Mayer bond orders larger than 0.100000
B(  0-C ,  1-N ) :   0.9792 B(  0-C ,  2-C ) :   1.0669 B(  0-C ,  4-C ) :  -0.1098
B(  0-C ,  9-H ) :  -0.2084 B(  0-C , 12-H ) :   0.1527 B(  0-C , 13-H ) :   0.1484
B(  0-C , 14-H ) :   0.6496 B(  0-C , 15-H ) :   0.7461 B(  1-N ,  2-C ) :   0.1262
B(  1-N ,  4-C ) :   0.9473 B(  1-N ,  5-N ) :   0.1812 B(  1-N ,  6-C ) :   0.4619
B(  1-N ,  9-H ) :   1.3420 B(  1-N , 14-H ) :   0.1746 B(  1-N , 15-H ) :   0.1832
B(  2-C ,  3-C ) :   1.2749 B(  2-C , 12-H ) :   0.8220 B(  2-C , 13-H ) :   0.8247
B(  2-C , 14-H ) :   0.1669 B(  2-C , 15-H ) :   0.1138 B(  2-C , 16-H ) :   0.2998
B(  2-C , 17-H ) :   0.2886 B(  2-C , 18-H ) :   0.2944 B(  3-C , 12-H ) :   0.1274
B(  3-C , 13-H ) :   0.1079 B(  3-C , 16-H ) :   0.6810 B(  3-C , 17-H ) :   0.6354
B(  3-C , 18-H ) :   0.6926 B(  4-C ,  5-N ) :   1.0210 B(  4-C ,  6-C ) :   1.2310
B(  4-C ,  8-H ) :   0.3278 B(  4-C ,  9-H ) :  -0.2976 B(  5-N ,  6-C ) :   0.3570
B(  5-N ,  8-H ) :   0.1240 B(  5-N , 10-H ) :   1.1805 B(  5-N , 11-H ) :   1.1344
B(  6-C ,  7-H ) :   0.5760 B(  6-C ,  8-H ) :   0.6332 B(  7-H ,  8-H ) :  -0.1949
B(  7-H , 14-H ) :   0.1037 B( 10-H , 11-H ) :  -0.1920 B( 14-H , 15-H ) :  -0.1936
B( 16-H , 18-H ) :   0.1082

Dispersion correction           -0.033294566
FINAL SINGLE POINT ENERGY      -306.887899102055

DIPOLE MOMENT
-------------
                                X             Y             Z
Electronic contribution:      4.86614      -0.23429      -1.98400
Nuclear contribution   :     -4.23110       0.51121       2.60527
                        -----------------------------------------
Total Dipole Moment    :      0.63504       0.27693       0.62127
                        -----------------------------------------
Magnitude (a.u.)       :      0.93056
Magnitude (Debye)      :      2.36530

Rotational constants in cm-1:     0.158478     0.052124     0.047173
Rotational constants in MHz :  4751.056263  1562.646208  1414.197352

                             ****ORCA TERMINATED NORMALLY****
TOTAL RUN TIME: 0 days 0 hours 0 minutes 7 seconds 222 msec
