                         Program Version 5.0.0 -  RELEASE  -
|  1> !BLYP D3BJ RIJCOSX def2-SVPD def2/J TightSCF xyzfile
|  2>
|  3> *xyzfile 0 1 D2.xyz
|  4>
|  5> %MaxCore 64000
|  6>
|  7> %pal nprocs 4
|  8> end
|  9>
| 10> %scf
| 11>   MaxIter 150
| 12> end
| 13>
| 14>
| 15>                          ****END OF INPUT****

CARTESIAN COORDINATES (ANGSTROEM)
---------------------------------
  C      3.380928    2.083045   -3.350127
  N      4.535924    1.182447   -3.428518
  C      2.495557    1.816150   -2.136364
  C      1.872181    0.427903   -2.077497
  H      2.614270   -0.365825   -2.198894
  H      1.389953    0.273087   -1.112360
  S      0.579024    0.140472   -3.297943
  C      4.671956    0.122273   -4.220598
  C      5.866023   -0.507849   -4.224284
  N      3.698881   -0.312844   -4.986988
  H      2.731405   -0.050091   -4.849000
  H      3.890046   -1.055172   -5.643730
  H      5.251933    1.303459   -2.721014
  H      6.695165   -0.062322   -3.851596
  H      5.975383   -1.396884   -4.691414
  F      0.228860   -1.246868   -3.127871
  O     -0.439269    1.118966   -3.014550
  O      1.247881    0.403474   -4.595647
  H      1.697003    2.561969   -2.141109
  H      3.080787    1.987436   -1.225838
  H      2.806463    1.986511   -4.268484
  H      3.778714    3.098282   -3.307383

 Total Charge           Charge          ....    0
 Multiplicity           Mult            ....    1
 Number of Electrons    NEL             ....   96
 Basis Dimension        Dim             ....  324

ORBITAL ENERGIES
----------------

  NO   OCC          E(Eh)            E(eV)
   0   2.0000     -88.406113     -2405.6526
   1   2.0000     -24.437742      -664.9848
   2   2.0000     -18.823602      -512.2162
   3   2.0000     -18.817313      -512.0451
   4   2.0000     -14.024409      -381.6236
   5   2.0000     -13.998256      -380.9119
   6   2.0000      -9.991771      -271.8899
   7   2.0000      -9.964172      -271.1389
   8   2.0000      -9.959011      -270.9985
   9   2.0000      -9.955741      -270.9095
  10   2.0000      -9.826412      -267.3903
  11   2.0000      -7.943146      -216.1440
  12   2.0000      -5.982473      -162.7914
  13   2.0000      -5.976348      -162.6247
  14   2.0000      -5.974126      -162.5642
  15   2.0000      -1.284530       -34.9538
  16   2.0000      -1.037559       -28.2334
  17   2.0000      -0.941591       -25.6220
  18   2.0000      -0.864212       -23.5164
  19   2.0000      -0.789084       -21.4721
  20   2.0000      -0.753022       -20.4908
  21   2.0000      -0.694425       -18.8963
  22   2.0000      -0.653525       -17.7833
  23   2.0000      -0.612657       -16.6713
  24   2.0000      -0.569031       -15.4841
  25   2.0000      -0.541241       -14.7279
  26   2.0000      -0.534574       -14.5465
  27   2.0000      -0.530454       -14.4344
  28   2.0000      -0.519384       -14.1332
  29   2.0000      -0.486310       -13.2332
  30   2.0000      -0.454336       -12.3631
  31   2.0000      -0.437481       -11.9045
  32   2.0000      -0.436176       -11.8690
  33   2.0000      -0.429713       -11.6931
  34   2.0000      -0.411919       -11.2089
  35   2.0000      -0.397176       -10.8077
  36   2.0000      -0.367889       -10.0108
  37   2.0000      -0.360234        -9.8025
  38   2.0000      -0.357922        -9.7396
  39   2.0000      -0.340199        -9.2573
  40   2.0000      -0.335187        -9.1209
  41   2.0000      -0.322423        -8.7736
  42   2.0000      -0.308859        -8.4045
  43   2.0000      -0.298923        -8.1341
  44   2.0000      -0.294929        -8.0254
  45   2.0000      -0.277785        -7.5589
  46   2.0000      -0.204200        -5.5566
  47   2.0000      -0.117311        -3.1922
  48   0.0000      -0.042427        -1.1545
  49   0.0000      -0.016702        -0.4545
  50   0.0000       0.003932         0.1070
  51   0.0000       0.010059         0.2737
  52   0.0000       0.012103         0.3293

MULLIKEN ATOMIC CHARGES
-----------------------
   0 C :    1.252615
   1 N :   -0.142502
   2 C :    0.450638
   3 C :    0.419849
   4 H :   -0.006607
   5 H :   -0.322198
   6 S :    1.415158
   7 C :    0.327231
   8 C :    0.638782
   9 N :    0.976682
  10 H :   -0.607533
  11 H :   -0.273007
  12 H :   -0.314433
  13 H :   -0.538870
  14 H :   -0.439227
  15 F :   -0.371829
  16 O :   -0.611940
  17 O :   -0.783170
  18 H :   -0.140089
  19 H :   -0.185885
  20 H :   -0.214169
  21 H :   -0.529496
Sum of atomic charges:   -0.0000000

LOEWDIN ATOMIC CHARGES
----------------------
   0 C :    0.078363
   1 N :    0.015920
   2 C :   -0.000060
   3 C :   -0.037227
   4 H :    0.017430
   5 H :    0.015825
   6 S :    1.131434
   7 C :   -0.253899
   8 C :    0.151517
   9 N :    0.246393
  10 H :   -0.160289
  11 H :    0.009380
  12 H :    0.029296
  13 H :   -0.119999
  14 H :   -0.119423
  15 F :   -0.227128
  16 O :   -0.421041
  17 O :   -0.433395
  18 H :    0.026859
  19 H :    0.032199
  20 H :   -0.000316
  21 H :    0.018161

  Mayer bond orders larger than 0.100000
B(  0-C ,  1-N ) :   0.9778 B(  0-C ,  2-C ) :   1.0430 B(  0-C , 12-H ) :  -0.2147
B(  0-C , 18-H ) :   0.1892 B(  0-C , 19-H ) :   0.1748 B(  0-C , 20-H ) :   0.6300
B(  0-C , 21-H ) :   0.6212 B(  1-N ,  7-C ) :   1.0727 B(  1-N ,  8-C ) :   0.2260
B(  1-N ,  9-N ) :   0.1496 B(  1-N , 12-H ) :   1.2066 B(  1-N , 20-H ) :   0.2879
B(  1-N , 21-H ) :   0.1911 B(  2-C ,  3-C ) :   1.2630 B(  2-C ,  4-H ) :   0.1826
B(  2-C ,  5-H ) :   0.2243 B(  2-C , 18-H ) :   0.7444 B(  2-C , 19-H ) :   0.6467
B(  2-C , 20-H ) :   0.1843 B(  2-C , 21-H ) :   0.1311 B(  3-C ,  4-H ) :   0.8776
B(  3-C ,  5-H ) :   0.6222 B(  3-C ,  6-S ) :   0.8995 B(  3-C , 17-O ) :   0.1696
B(  3-C , 18-H ) :   0.1579 B(  3-C , 19-H ) :   0.1794 B(  5-H ,  6-S ) :   0.1085
B(  6-S , 15-F ) :   0.7092 B(  6-S , 16-O ) :   1.5651 B(  6-S , 17-O ) :   1.3972
B(  7-C ,  8-C ) :   1.1996 B(  7-C ,  9-N ) :   1.1605 B(  7-C , 12-H ) :  -0.2167
B(  7-C , 13-H ) :   0.1593 B(  7-C , 14-H ) :   0.2494 B(  7-C , 20-H ) :  -0.1039
B(  8-C ,  9-N ) :   0.1592 B(  8-C , 13-H ) :   0.6006 B(  8-C , 14-H ) :   0.6533
B(  9-N , 10-H ) :   0.7896 B(  9-N , 11-H ) :   1.1011 B(  9-N , 20-H ) :   0.1406
B( 10-H , 11-H ) :  -0.2382 B( 10-H , 17-O ) :   0.1805 B( 13-H , 14-H ) :   0.1697
B( 17-O , 20-H ) :   0.1080 B( 20-H , 21-H ) :  -0.1996

Dispersion correction           -0.051347389
FINAL SINGLE POINT ENERGY      -954.372663483500

DIPOLE MOMENT
-------------
                                X             Y             Z
Electronic contribution:    -16.71885      -5.21828      -0.40784
Nuclear contribution   :     16.05479       5.17692       1.74190
                        -----------------------------------------
Total Dipole Moment    :     -0.66406      -0.04136       1.33405
                        -----------------------------------------
Magnitude (a.u.)       :      1.49077
Magnitude (Debye)      :      3.78923

Rotational constants in cm-1:     0.058652     0.021107     0.018077
Rotational constants in MHz :  1758.344290   632.763813   541.920558

                             ****ORCA TERMINATED NORMALLY****
TOTAL RUN TIME: 0 days 0 hours 0 minutes 24 seconds 318 msec
