                         Program Version 5.0.0 -  RELEASE  -
|  1> !BLYP D3BJ RIJCOSX def2-SVPD def2/J TightSCF xyzfile
|  2>
|  3> *xyzfile 0 1 D9.xyz
|  4>
|  5> %MaxCore 64000
|  6>
|  7> %pal nprocs 4
|  8> end
|  9>
| 10> %scf
| 11>   MaxIter 150
| 12> end
| 13>
| 14>
| 15>                          ****END OF INPUT****

CARTESIAN COORDINATES (ANGSTROEM)
---------------------------------
  C      3.380928    2.083045   -3.350127
  N      4.535924    1.182447   -3.428518
  C      2.495557    1.816150   -2.136364
  C      1.872181    0.427903   -2.077497
  H      2.614270   -0.365825   -2.198894
  H      1.389953    0.273087   -1.112360
  S      0.579024    0.140472   -3.297943
  C      4.671956    0.122273   -4.220598
  N      5.866023   -0.507849   -4.224284
  C      3.698881   -0.312844   -4.986988
  H      2.731405   -0.050091   -4.849000
  H      3.890046   -1.055172   -5.643730
  H      5.251933    1.303459   -2.721014
  H      6.695165   -0.062322   -3.851596
  H      5.975383   -1.396884   -4.691414
  O      0.228860   -1.246868   -3.127871
  O     -0.439269    1.118966   -3.014550
  F      1.247881    0.403474   -4.595647
  H      1.697003    2.561969   -2.141109
  H      3.080787    1.987436   -1.225838
  H      2.806463    1.986511   -4.268484
  H      3.778714    3.098282   -3.307383

 Total Charge           Charge          ....    0
 Multiplicity           Mult            ....    1
 Number of Electrons    NEL             ....   96
 Basis Dimension        Dim             ....  324

ORBITAL ENERGIES
----------------

  NO   OCC          E(Eh)            E(eV)
   0   2.0000     -88.378475     -2404.9006
   1   2.0000     -24.396241      -663.8555
   2   2.0000     -18.801370      -511.6113
   3   2.0000     -18.799767      -511.5677
   4   2.0000     -14.039780      -382.0418
   5   2.0000     -14.030794      -381.7973
   6   2.0000      -9.974133      -271.4100
   7   2.0000      -9.973161      -271.3835
   8   2.0000      -9.972571      -271.3674
   9   2.0000      -9.952450      -270.8199
  10   2.0000      -9.840422      -267.7715
  11   2.0000      -7.915520      -215.3923
  12   2.0000      -5.954859      -162.0400
  13   2.0000      -5.948578      -161.8690
  14   2.0000      -5.946807      -161.8209
  15   2.0000      -1.234382       -33.5892
  16   2.0000      -1.020494       -27.7691
  17   2.0000      -0.929805       -25.3013
  18   2.0000      -0.878494       -23.9050
  19   2.0000      -0.801832       -21.8190
  20   2.0000      -0.742144       -20.1948
  21   2.0000      -0.673104       -18.3161
  22   2.0000      -0.653696       -17.7880
  23   2.0000      -0.622613       -16.9422
  24   2.0000      -0.584681       -15.9100
  25   2.0000      -0.526064       -14.3149
  26   2.0000      -0.516965       -14.0673
  27   2.0000      -0.502645       -13.6777
  28   2.0000      -0.495067       -13.4715
  29   2.0000      -0.481735       -13.1087
  30   2.0000      -0.462407       -12.5827
  31   2.0000      -0.442052       -12.0289
  32   2.0000      -0.427068       -11.6211
  33   2.0000      -0.415133       -11.2963
  34   2.0000      -0.414192       -11.2707
  35   2.0000      -0.394146       -10.7253
  36   2.0000      -0.368442       -10.0258
  37   2.0000      -0.361253        -9.8302
  38   2.0000      -0.347468        -9.4551
  39   2.0000      -0.341469        -9.2918
  40   2.0000      -0.335545        -9.1306
  41   2.0000      -0.324939        -8.8420
  42   2.0000      -0.308535        -8.3957
  43   2.0000      -0.289689        -7.8828
  44   2.0000      -0.282217        -7.6795
  45   2.0000      -0.269516        -7.3339
  46   2.0000      -0.216858        -5.9010
  47   2.0000      -0.146398        -3.9837
  48   0.0000      -0.022360        -0.6085
  49   0.0000      -0.013170        -0.3584
  50   0.0000       0.003696         0.1006
  51   0.0000       0.015130         0.4117
  52   0.0000       0.024284         0.6608

MULLIKEN ATOMIC CHARGES
-----------------------
   0 C :    1.241203
   1 N :   -0.343683
   2 C :    0.464222
   3 C :    0.546693
   4 H :   -0.076697
   5 H :   -0.341992
   6 S :    1.308563
   7 C :    0.826374
   8 N :    0.332930
   9 C :    1.043442
  10 H :   -0.939477
  11 H :   -0.560600
  12 H :   -0.367813
  13 H :   -0.244249
  14 H :   -0.093426
  15 O :   -0.603714
  16 O :   -0.648544
  17 F :   -0.560592
  18 H :   -0.154526
  19 H :   -0.182541
  20 H :   -0.138607
  21 H :   -0.506966
Sum of atomic charges:   -0.0000000

LOEWDIN ATOMIC CHARGES
----------------------
   0 C :    0.081453
   1 N :    0.007903
   2 C :   -0.012581
   3 C :   -0.029978
   4 H :    0.014880
   5 H :    0.026251
   6 S :    1.085734
   7 C :   -0.237978
   8 N :    0.206048
   9 C :    0.197167
  10 H :   -0.180377
  11 H :   -0.087697
  12 H :    0.018152
  13 H :   -0.020919
  14 H :   -0.003019
  15 O :   -0.429760
  16 O :   -0.433617
  17 F :   -0.277174
  18 H :    0.023712
  19 H :    0.025739
  20 H :    0.005353
  21 H :    0.020708

  Mayer bond orders larger than 0.100000
B(  0-C ,  1-N ) :   0.9539 B(  0-C ,  2-C ) :   1.0363 B(  0-C ,  3-C ) :   0.1136
B(  0-C , 12-H ) :  -0.1929 B(  0-C , 18-H ) :   0.1683 B(  0-C , 19-H ) :   0.1575
B(  0-C , 20-H ) :   0.6191 B(  0-C , 21-H ) :   0.6676 B(  1-N ,  2-C ) :   0.1080
B(  1-N ,  7-C ) :   0.9779 B(  1-N ,  8-N ) :   0.1904 B(  1-N ,  9-C ) :   0.3470
B(  1-N , 12-H ) :   1.3527 B(  1-N , 20-H ) :   0.2081 B(  1-N , 21-H ) :   0.1834
B(  2-C ,  3-C ) :   1.2116 B(  2-C ,  4-H ) :   0.1851 B(  2-C ,  5-H ) :   0.2228
B(  2-C , 18-H ) :   0.7565 B(  2-C , 19-H ) :   0.6604 B(  2-C , 20-H ) :   0.1760
B(  2-C , 21-H ) :   0.1245 B(  3-C ,  4-H ) :   0.9054 B(  3-C ,  5-H ) :   0.5597
B(  3-C ,  6-S ) :   0.9424 B(  3-C , 17-F ) :   0.1249 B(  3-C , 18-H ) :   0.1815
B(  3-C , 19-H ) :   0.1802 B(  5-H ,  6-S ) :   0.1382 B(  6-S , 15-O ) :   1.5505
B(  6-S , 16-O ) :   1.5314 B(  6-S , 17-F ) :   0.6806 B(  7-C ,  8-N ) :   0.9811
B(  7-C ,  9-C ) :   1.5936 B(  7-C , 10-H ) :  -0.1404 B(  7-C , 11-H ) :   0.4563
B(  7-C , 12-H ) :  -0.3117 B(  7-C , 20-H ) :  -0.1145 B(  8-N ,  9-C ) :   0.3974
B(  8-N , 11-H ) :   0.1256 B(  8-N , 13-H ) :   1.1599 B(  8-N , 14-H ) :   1.1404
B(  9-C , 10-H ) :  -0.3942 B(  9-C , 11-H ) :   0.5579 B( 10-H , 11-H ) :  -0.1860
B( 10-H , 17-F ) :   0.2436 B( 10-H , 20-H ) :   0.1138 B( 13-H , 14-H ) :  -0.1897
B( 15-O , 16-O ) :   0.1273 B( 20-H , 21-H ) :  -0.2407

Dispersion correction           -0.051282438
FINAL SINGLE POINT ENERGY      -954.375061280294

DIPOLE MOMENT
-------------
                                X             Y             Z
Electronic contribution:    -12.65682      -2.65362      -2.43779
Nuclear contribution   :     14.72648       3.38697       3.27638
                        -----------------------------------------
Total Dipole Moment    :      2.06967       0.73334       0.83859
                        -----------------------------------------
Magnitude (a.u.)       :      2.35043
Magnitude (Debye)      :      5.97433

Rotational constants in cm-1:     0.059651     0.020833     0.018010
Rotational constants in MHz :  1788.283887   624.555661   539.921162

                             ****ORCA TERMINATED NORMALLY****
TOTAL RUN TIME: 0 days 0 hours 0 minutes 23 seconds 782 msec
