                         Program Version 5.0.0 -  RELEASE  -
|  1> !wB97X-D3 RIJCOSX def2-SVPD def2/J TightSCF CPCM(Water)
|  2> *xyz -1 1
|  3> C         -7.33044       -2.67899       -3.20681
|  4> S         -6.01966       -2.92697       -4.41913
|  5> O         -5.64583       -1.58838       -4.91931
|  6> O         -4.88196       -3.50370       -3.66724
|  7> O         -6.54927       -3.80515       -5.42507
|  8> H         -8.18867       -2.26077       -3.68996
|  9> H         -6.98921       -2.01038       -2.44430
| 10> H         -7.59151       -3.61862       -2.76655
| 11> *
| 12> %MaxCore 64000
| 13>
| 14> %pal nprocs 8
| 15> end
| 16>
| 17> %scf
| 18>   MaxIter 150
| 19> end
| 20>
| 21>
| 22>                          ****END OF INPUT****

CARTESIAN COORDINATES (ANGSTROEM)
---------------------------------
  C     -7.330440   -2.678990   -3.206810
  S     -6.019660   -2.926970   -4.419130
  O     -5.645830   -1.588380   -4.919310
  O     -4.881960   -3.503700   -3.667240
  O     -6.549270   -3.805150   -5.425070
  H     -8.188670   -2.260770   -3.689960
  H     -6.989210   -2.010380   -2.444300
  H     -7.591510   -3.618620   -2.766550

 Total Charge           Charge          ....   -1
 Multiplicity           Mult            ....    1
 Number of Electrons    NEL             ....   50
 Basis Dimension        Dim             ....  140

ORBITAL ENERGIES
----------------

  NO   OCC          E(Eh)            E(eV)
   0   2.0000     -89.157493     -2426.0987
   1   2.0000     -19.212052      -522.7865
   2   2.0000     -19.202792      -522.5345
   3   2.0000     -19.200596      -522.4748
   4   2.0000     -10.293655      -280.1046
   5   2.0000      -8.231409      -223.9880
   6   2.0000      -6.191212      -168.4714
   7   2.0000      -6.191199      -168.4711
   8   2.0000      -6.189734      -168.4312
   9   2.0000      -1.228075       -33.4176
  10   2.0000      -1.085973       -29.5508
  11   2.0000      -1.064115       -28.9560
  12   2.0000      -0.850185       -23.1347
  13   2.0000      -0.668033       -18.1781
  14   2.0000      -0.583889       -15.8884
  15   2.0000      -0.563086       -15.3223
  16   2.0000      -0.561561       -15.2809
  17   2.0000      -0.511336       -13.9142
  18   2.0000      -0.509616       -13.8673
  19   2.0000      -0.437022       -11.8920
  20   2.0000      -0.435713       -11.8564
  21   2.0000      -0.392628       -10.6839
  22   2.0000      -0.382734       -10.4147
  23   2.0000      -0.380888       -10.3645
  24   2.0000      -0.345957        -9.4140
  25   0.0000       0.079815         2.1719
  26   0.0000       0.103079         2.8049
  27   0.0000       0.103998         2.8299
  28   0.0000       0.104356         2.8397
  29   0.0000       0.152541         4.1509

MULLIKEN ATOMIC CHARGES
-----------------------
   0 C :    0.369637
   1 S :    1.058412
   2 O :   -0.819605
   3 O :   -0.825263
   4 O :   -0.770810
   5 H :   -0.004506
   6 H :   -0.005824
   7 H :   -0.002041
Sum of atomic charges:   -1.0000000

LOEWDIN ATOMIC CHARGES
----------------------
   0 C :    0.085882
   1 S :    0.836648
   2 O :   -0.632417
   3 O :   -0.637087
   4 O :   -0.604239
   5 H :   -0.016335
   6 H :   -0.016545
   7 H :   -0.015908

  Mayer bond orders larger than 0.100000
B(  0-C ,  1-S ) :   0.9678 B(  0-C ,  5-H ) :   0.9321 B(  0-C ,  6-H ) :   0.9334
B(  0-C ,  7-H ) :   0.9312 B(  1-S ,  2-O ) :   1.3004 B(  1-S ,  3-O ) :   1.2963
B(  1-S ,  4-O ) :   1.3504 B(  1-S ,  5-H ) :   0.1007 B(  1-S ,  6-H ) :   0.1083
B(  1-S ,  7-H ) :   0.1020

Dispersion correction           -0.001519896
FINAL SINGLE POINT ENERGY      -663.520053412890

DIPOLE MOMENT
-------------
                                X             Y             Z
Electronic contribution:      2.42298      -0.58091      -2.48222
Nuclear contribution   :     -4.26236       0.77434       3.87117
                        -----------------------------------------
Total Dipole Moment    :     -1.83938       0.19343       1.38895
                        -----------------------------------------
Magnitude (a.u.)       :      2.31298
Magnitude (Debye)      :      5.87914

Rotational constants in cm-1:     0.172427     0.155038     0.152780
Rotational constants in MHz :  5169.225473  4647.928623  4580.233540

                             ****ORCA TERMINATED NORMALLY****
TOTAL RUN TIME: 0 days 0 hours 0 minutes 10 seconds 442 msec
