                         Program Version 5.0.0 -  RELEASE  -
|  1> !wB97X-D3 RIJCOSX def2-SVPD def2/J TightSCF CPCM(Water)
|  2> *xyz 1 1
|  3> C         -2.16038       -1.36949       -3.46710
|  4> N         -3.03011       -1.91086       -4.54107
|  5> H         -3.47744       -2.79151       -4.25710
|  6> H         -2.53801       -2.01786       -5.43808
|  7> H         -3.89159       -1.37604       -4.71437
|  8> H         -1.71294       -0.45536       -3.79734
|  9> H         -1.39344       -2.07939       -3.23742
| 10> H         -2.74775       -1.18344       -2.59230
| 11> *
| 12> %MaxCore 64000
| 13>
| 14> %pal nprocs 8
| 15> end
| 16>
| 17> %scf
| 18>   MaxIter 150
| 19> end
| 20>
| 21>
| 22>                          ****END OF INPUT****

CARTESIAN COORDINATES (ANGSTROEM)
---------------------------------
  C     -2.160380   -1.369490   -3.467100
  N     -3.030110   -1.910860   -4.541070
  H     -3.477440   -2.791510   -4.257100
  H     -2.538010   -2.017860   -5.438080
  H     -3.891590   -1.376040   -4.714370
  H     -1.712940   -0.455360   -3.797340
  H     -1.393440   -2.079390   -3.237420
  H     -2.747750   -1.183440   -2.592300

 Total Charge           Charge          ....    1
 Multiplicity           Mult            ....    1
 Number of Electrons    NEL             ....   18
 Basis Dimension        Dim             ....   88

ORBITAL ENERGIES
----------------

  NO   OCC          E(Eh)            E(eV)
   0   2.0000     -14.558772      -396.1643
   1   2.0000     -10.342912      -281.4449
   2   2.0000      -1.107584       -30.1389
   3   2.0000      -0.838714       -22.8226
   4   2.0000      -0.693004       -18.8576
   5   2.0000      -0.665935       -18.1210
   6   2.0000      -0.604371       -16.4458
   7   2.0000      -0.519307       -14.1311
   8   2.0000      -0.514231       -13.9929
   9   0.0000       0.085555         2.3281
  10   0.0000       0.121146         3.2965
  11   0.0000       0.158199         4.3048
  12   0.0000       0.158684         4.3180
  13   0.0000       0.196209         5.3391

MULLIKEN ATOMIC CHARGES
-----------------------
   0 C :    0.776272
   1 N :   -0.966154
   2 H :    0.415770
   3 H :    0.434255
   4 H :    0.399685
   5 H :   -0.026262
   6 H :   -0.013010
   7 H :   -0.020556
Sum of atomic charges:    1.0000000

LOEWDIN ATOMIC CHARGES
----------------------
   0 C :    0.271207
   1 N :    0.322602
   2 H :    0.115843
   3 H :    0.120531
   4 H :    0.117381
   5 H :    0.016483
   6 H :    0.017824
   7 H :    0.018129

  Mayer bond orders larger than 0.100000
B(  0-C ,  1-N ) :   0.7178 B(  0-C ,  5-H ) :   0.9253 B(  0-C ,  6-H ) :   0.9127
B(  0-C ,  7-H ) :   0.9209 B(  1-N ,  2-H ) :   0.7447 B(  1-N ,  3-H ) :   0.7033
B(  1-N ,  4-H ) :   0.7635

Dispersion correction           -0.000522512
FINAL SINGLE POINT ENERGY       -96.239253467830

DIPOLE MOMENT
-------------
                                X             Y             Z
Electronic contribution:     -0.73373      -0.46785      -0.95528
Nuclear contribution   :      0.00575       0.04584       0.17617
                        -----------------------------------------
Total Dipole Moment    :     -0.72798      -0.42200      -0.77911
                        -----------------------------------------
Magnitude (a.u.)       :      1.14675
Magnitude (Debye)      :      2.91482

Rotational constants in cm-1:     2.917716     0.684997     0.676552
Rotational constants in MHz : 87470.913131 20535.702929 20282.512120

                             ****ORCA TERMINATED NORMALLY****
TOTAL RUN TIME: 0 days 0 hours 0 minutes 4 seconds 833 msec
