                         Program Version 5.0.0 -  RELEASE  -
|  1> !wB97X-D3 RIJCOSX def2-SVPD def2/J TightSCF CPCM(Water) xyzfile
|  2>
|  3> *xyzfile 0 1 B.xyz
|  4>
|  5> %MaxCore 64000
|  6>
|  7> %pal nprocs 18
|  8> end
|  9>
| 10> %scf
| 11>   MaxIter 150
| 12> end
| 13>
| 14>
| 15>                          ****END OF INPUT****

CARTESIAN COORDINATES (ANGSTROEM)
---------------------------------
  C     -2.160376   -1.369486   -3.467104
  N     -3.030108   -1.910857   -4.541074
  C     -2.047717    0.146583   -3.511774
  C     -7.330440   -2.678991   -3.206811
  S     -6.019659   -2.926965   -4.419128
  H     -3.477443   -2.791513   -4.257096
  H     -2.538013   -2.017860   -5.438075
  H     -3.891589   -1.376039   -4.714365
  O     -5.645830   -1.588384   -4.919307
  O     -4.881961   -3.503697   -3.667235
  H     -1.184438   -1.843997   -3.566393
  H     -2.598195   -1.708376   -2.528477
  O     -6.549267   -3.805150   -5.425071
  C     -3.328755    0.875037   -3.103669
  H     -1.740034    0.452343   -4.517126
  H     -1.232611    0.434938   -2.842208
  C     -3.628487    0.771601   -1.609363
  H     -4.175106    0.490791   -3.682203
  H     -3.237812    1.928663   -3.381480
  C     -4.975718    1.361432   -1.190644
  H     -2.830700    1.276234   -1.054766
  H     -3.594312   -0.275838   -1.294603
  C     -6.184720    0.784347   -1.926464
  H     -4.956292    2.445725   -1.342200
  H     -5.097256    1.205252   -0.114136
  C     -6.286921   -0.735882   -1.893531
  H     -6.163994    1.100199   -2.974250
  H     -7.094530    1.223459   -1.504509
  C     -7.468999   -1.246153   -2.713833
  H     -6.360641   -1.090347   -0.859176
  H     -5.369848   -1.171853   -2.295982
  H     -7.601914   -0.601349   -3.585329
  H     -8.389791   -1.173436   -2.126922
  H     -7.118254   -3.379818   -2.398055
  H     -8.241838   -3.004745   -3.706513

 Total Charge           Charge          ....    0
 Multiplicity           Mult            ....    1
 Number of Electrons    NEL             ....  122
 Basis Dimension        Dim             ....  464

ORBITAL ENERGIES
----------------

  NO   OCC          E(Eh)            E(eV)
   0   2.0000     -89.171505     -2426.4800
   1   2.0000     -19.223160      -523.0888
   2   2.0000     -19.221290      -523.0379
   3   2.0000     -19.221265      -523.0372
   4   2.0000     -14.509812      -394.8321
   5   2.0000     -10.337034      -281.2850
   6   2.0000     -10.306746      -280.4608
   7   2.0000     -10.292375      -280.0698
   8   2.0000     -10.287471      -279.9363
   9   2.0000     -10.282620      -279.8043
  10   2.0000     -10.277641      -279.6688
  11   2.0000     -10.276845      -279.6472
  12   2.0000     -10.276726      -279.6439
  13   2.0000     -10.275974      -279.6235
  14   2.0000      -8.244895      -224.3550
  15   2.0000      -6.205191      -168.8518
  16   2.0000      -6.204729      -168.8393
  17   2.0000      -6.202656      -168.7828
  18   2.0000      -1.246367       -33.9154
  19   2.0000      -1.106234       -30.1022
  20   2.0000      -1.088158       -29.6103
  21   2.0000      -1.076904       -29.3041
  22   2.0000      -0.931115       -25.3369
  23   2.0000      -0.911836       -24.8123
  24   2.0000      -0.884467       -24.0676
  25   2.0000      -0.837151       -22.7800
  26   2.0000      -0.802547       -21.8384
  27   2.0000      -0.757124       -20.6024
  28   2.0000      -0.722950       -19.6725
  29   2.0000      -0.697973       -18.9928
  30   2.0000      -0.679522       -18.4907
  31   2.0000      -0.655857       -17.8468
  32   2.0000      -0.654054       -17.7977
  33   2.0000      -0.646773       -17.5996
  34   2.0000      -0.606306       -16.4984
  35   2.0000      -0.588589       -16.0163
  36   2.0000      -0.580483       -15.7958
  37   2.0000      -0.575182       -15.6515
  38   2.0000      -0.566314       -15.4102
  39   2.0000      -0.556676       -15.1479
  40   2.0000      -0.545150       -14.8343
  41   2.0000      -0.532504       -14.4902
  42   2.0000      -0.518263       -14.1026
  43   2.0000      -0.513463       -13.9720
  44   2.0000      -0.501080       -13.6351
  45   2.0000      -0.484910       -13.1951
  46   2.0000      -0.473072       -12.8729
  47   2.0000      -0.457403       -12.4466
  48   2.0000      -0.451437       -12.2842
  49   2.0000      -0.449111       -12.2209
  50   2.0000      -0.445428       -12.1207
  51   2.0000      -0.437841       -11.9143
  52   2.0000      -0.428718       -11.6660
  53   2.0000      -0.420424       -11.4403
  54   2.0000      -0.406133       -11.0514
  55   2.0000      -0.402923       -10.9641
  56   2.0000      -0.398309       -10.8385
  57   2.0000      -0.396521       -10.7899
  58   2.0000      -0.395274       -10.7559
  59   2.0000      -0.382724       -10.4145
  60   2.0000      -0.366276        -9.9669
  61   0.0000       0.079882         2.1737
  62   0.0000       0.091977         2.5028
  63   0.0000       0.096088         2.6147
  64   0.0000       0.100794         2.7427
  65   0.0000       0.112345         3.0571

MULLIKEN ATOMIC CHARGES
-----------------------
   0 C :    0.860086
   1 N :   -1.138743
   2 C :    0.317199
   3 C :    0.363801
   4 S :    1.273200
   5 H :    0.326821
   6 H :    0.608350
   7 H :    0.352901
   8 O :   -0.834888
   9 O :   -0.852832
  10 H :   -0.229674
  11 H :    0.005965
  12 O :   -0.870490
  13 C :    0.411336
  14 H :   -0.012714
  15 H :    0.027478
  16 C :   -0.202373
  17 H :   -0.553239
  18 H :   -0.052379
  19 C :    0.648928
  20 H :   -0.322557
  21 H :    0.120191
  22 C :   -0.120689
  23 H :   -0.012632
  24 H :    0.026486
  25 C :    0.259834
  26 H :    0.177445
  27 H :   -0.360867
  28 C :    0.229548
  29 H :   -0.024747
  30 H :   -0.366077
  31 H :    0.086853
  32 H :   -0.177139
  33 H :    0.014778
  34 H :    0.020839
Sum of atomic charges:    0.0000000

LOEWDIN ATOMIC CHARGES
----------------------
   0 C :    0.111963
   1 N :    0.343703
   2 C :   -0.006320
   3 C :   -0.045041
   4 S :    0.954406
   5 H :   -0.040521
   6 H :    0.123531
   7 H :   -0.030882
   8 O :   -0.545359
   9 O :   -0.552818
  10 H :    0.046684
  11 H :    0.034029
  12 O :   -0.564392
  13 C :   -0.018121
  14 H :    0.034077
  15 H :    0.034869
  16 C :   -0.034556
  17 H :   -0.002667
  18 H :    0.033805
  19 C :   -0.030959
  20 H :    0.027378
  21 H :    0.007781
  22 C :   -0.038046
  23 H :    0.024313
  24 H :    0.024619
  25 C :   -0.026424
  26 H :    0.017865
  27 H :    0.027772
  28 C :   -0.041684
  29 H :    0.039421
  30 H :   -0.007713
  31 H :    0.018693
  32 H :    0.036173
  33 H :    0.026337
  34 H :    0.018083

  Mayer bond orders larger than 0.100000
B(  0-C ,  1-N ) :   0.5566 B(  0-C ,  2-C ) :   1.1943 B(  0-C , 10-H ) :   0.8997
B(  0-C , 11-H ) :   0.7489 B(  0-C , 15-H ) :   0.1459 B(  1-N ,  5-H ) :   0.7026
B(  1-N ,  6-H ) :   0.4128 B(  1-N ,  7-H ) :   0.6734 B(  1-N , 11-H ) :   0.1971
B(  2-C , 10-H ) :   0.1092 B(  2-C , 13-C ) :   1.1826 B(  2-C , 14-H ) :   0.7620
B(  2-C , 15-H ) :   0.7901 B(  2-C , 17-H ) :   0.1091 B(  3-C ,  4-S ) :   0.9007
B(  3-C , 12-O ) :   0.1158 B(  3-C , 28-C ) :   1.2457 B(  3-C , 33-H ) :   0.8989
B(  3-C , 34-H ) :   0.7784 B(  4-S ,  8-O ) :   1.1427 B(  4-S ,  9-O ) :   1.1544
B(  4-S , 12-O ) :   1.3659 B(  5-H ,  9-O ) :   0.1384 B(  7-H ,  8-O ) :   0.1327
B(  7-H , 17-H ) :   0.1001 B( 10-H , 11-H ) :  -0.1231 B( 13-C , 14-H ) :   0.1568
B( 13-C , 15-H ) :   0.1024 B( 13-C , 16-C ) :   1.1754 B( 13-C , 17-H ) :   0.7260
B( 13-C , 18-H ) :   0.7991 B( 13-C , 20-H ) :   0.1895 B( 16-C , 17-H ) :   0.2035
B( 16-C , 18-H ) :   0.1735 B( 16-C , 19-C ) :   1.1688 B( 16-C , 20-H ) :   1.0373
B( 16-C , 21-H ) :   0.8546 B( 16-C , 23-H ) :   0.1497 B( 16-C , 24-H ) :   0.2472
B( 17-H , 26-H ) :   0.1100 B( 19-C , 22-C ) :   1.1342 B( 19-C , 23-H ) :   0.6984
B( 19-C , 24-H ) :   0.6986 B( 22-C , 23-H ) :   0.2177 B( 22-C , 24-H ) :   0.1145
B( 22-C , 25-C ) :   1.2459 B( 22-C , 26-H ) :   0.8106 B( 22-C , 27-H ) :   1.0367
B( 22-C , 28-C ) :   0.1064 B( 22-C , 29-H ) :   0.1055 B( 22-C , 30-H ) :   0.1195
B( 25-C , 27-H ) :   0.1861 B( 25-C , 28-C ) :   1.1342 B( 25-C , 29-H ) :   0.7409
B( 25-C , 30-H ) :   0.8797 B( 25-C , 32-H ) :   0.1912 B( 28-C , 29-H ) :   0.1246
B( 28-C , 31-H ) :   0.8453 B( 28-C , 32-H ) :   0.8566 B( 28-C , 34-H ) :   0.2097
B( 29-H , 30-H ) :   0.2281

Dispersion correction           -0.018858199
FINAL SINGLE POINT ENERGY     -1033.531997323856

DIPOLE MOMENT
-------------
                                X             Y             Z
Electronic contribution:     -5.37067     -14.83674     -11.09729
Nuclear contribution   :      8.59301      16.99497      12.41069
                        -----------------------------------------
Total Dipole Moment    :      3.22234       2.15823       1.31340
                        -----------------------------------------
Magnitude (a.u.)       :      4.09469
Magnitude (Debye)      :     10.40787

Rotational constants in cm-1:     0.025617     0.015295     0.010641
Rotational constants in MHz :   767.991150   458.522408   319.013093

                             ****ORCA TERMINATED NORMALLY****
TOTAL RUN TIME: 0 days 0 hours 1 minutes 19 seconds 503 msec
