                         Program Version 5.0.0 -  RELEASE  -
|  1> !wB97X-D3 RIJCOSX def2-SVPD def2/J TightSCF CPCM(Water)
|  2> *xyz 0 1
|  3> C         -7.33044       -2.67899       -3.20681
|  4> S         -6.01966       -2.92697       -4.41913
|  5> F         -5.64583       -1.58838       -4.91931
|  6> O         -4.88196       -3.50370       -3.66724
|  7> O         -6.54927       -3.80515       -5.42507
|  8> H         -8.18867       -2.26077       -3.68996
|  9> H         -6.98921       -2.01038       -2.44430
| 10> H         -7.59151       -3.61862       -2.76655
| 11> *
| 12> %MaxCore 64000
| 13>
| 14> %pal nprocs 8
| 15> end
| 16>
| 17> %scf
| 18>   MaxIter 150
| 19> end
| 20>
| 21>
| 22>                          ****END OF INPUT****

CARTESIAN COORDINATES (ANGSTROEM)
---------------------------------
  C     -7.330440   -2.678990   -3.206810
  S     -6.019660   -2.926970   -4.419130
  F     -5.645830   -1.588380   -4.919310
  O     -4.881960   -3.503700   -3.667240
  O     -6.549270   -3.805150   -5.425070
  H     -8.188670   -2.260770   -3.689960
  H     -6.989210   -2.010380   -2.444300
  H     -7.591510   -3.618620   -2.766550

 Total Charge           Charge          ....    0
 Multiplicity           Mult            ....    1
 Number of Electrons    NEL             ....   50
 Basis Dimension        Dim             ....  140

ORBITAL ENERGIES
----------------

  NO   OCC          E(Eh)            E(eV)
   0   2.0000     -89.243983     -2428.4522
   1   2.0000     -24.906074      -677.7287
   2   2.0000     -19.273067      -524.4468
   3   2.0000     -19.260672      -524.1095
   4   2.0000     -10.334354      -281.2121
   5   2.0000      -8.317796      -226.3387
   6   2.0000      -6.281342      -170.9240
   7   2.0000      -6.275536      -170.7660
   8   2.0000      -6.273701      -170.7161
   9   2.0000      -1.466150       -39.8960
  10   2.0000      -1.238039       -33.6888
  11   2.0000      -1.134836       -30.8804
  12   2.0000      -0.903936       -24.5974
  13   2.0000      -0.812042       -22.0968
  14   2.0000      -0.693701       -18.8766
  15   2.0000      -0.677788       -18.4436
  16   2.0000      -0.665139       -18.0993
  17   2.0000      -0.580882       -15.8066
  18   2.0000      -0.575012       -15.6469
  19   2.0000      -0.551739       -15.0136
  20   2.0000      -0.539406       -14.6780
  21   2.0000      -0.497358       -13.5338
  22   2.0000      -0.448059       -12.1923
  23   2.0000      -0.435831       -11.8596
  24   2.0000      -0.421814       -11.4782
  25   0.0000       0.068431         1.8621
  26   0.0000       0.099376         2.7042
  27   0.0000       0.099644         2.7115
  28   0.0000       0.102116         2.7787
  29   0.0000       0.116005         3.1566

MULLIKEN ATOMIC CHARGES
-----------------------
   0 C :    0.274630
   1 S :    1.283954
   2 F :   -0.382233
   3 O :   -0.719504
   4 O :   -0.664500
   5 H :    0.070343
   6 H :    0.067970
   7 H :    0.069339
Sum of atomic charges:    0.0000000

LOEWDIN ATOMIC CHARGES
----------------------
   0 C :    0.146754
   1 S :    1.122713
   2 F :   -0.260207
   3 O :   -0.528583
   4 O :   -0.497587
   5 H :    0.002788
   6 H :    0.002761
   7 H :    0.011361

  Mayer bond orders larger than 0.100000
B(  0-C ,  1-S ) :   1.0130 B(  0-C ,  5-H ) :   0.9275 B(  0-C ,  6-H ) :   0.9283
B(  0-C ,  7-H ) :   0.9216 B(  1-S ,  2-F ) :   0.6790 B(  1-S ,  3-O ) :   1.4743
B(  1-S ,  4-O ) :   1.5254 B(  1-S ,  7-H ) :   0.1017

Dispersion correction           -0.001526319
FINAL SINGLE POINT ENERGY      -687.923757179441

DIPOLE MOMENT
-------------
                                X             Y             Z
Electronic contribution:      3.20539       1.92524      -3.53854
Nuclear contribution   :     -4.68608      -0.54182       4.44322
                        -----------------------------------------
Total Dipole Moment    :     -1.48069       1.38341       0.90468
                        -----------------------------------------
Magnitude (a.u.)       :      2.21917
Magnitude (Debye)      :      5.64068

Rotational constants in cm-1:     0.164393     0.151201     0.145518
Rotational constants in MHz :  4928.381777  4532.884356  4362.527209

                             ****ORCA TERMINATED NORMALLY****
TOTAL RUN TIME: 0 days 0 hours 0 minutes 11 seconds 8 msec
