                         Program Version 5.0.0 -  RELEASE  -
|  1> !wB97X-D3 RIJCOSX def2-SVPD def2/J TightSCF CPCM(Water)
|  2> *xyz 0 1
|  3> C         -2.16038       -1.36949       -3.46710
|  4> C         -3.03011       -1.91086       -4.54107
|  5> H         -3.47744       -2.79151       -4.25710
|  6> H         -2.53801       -2.01786       -5.43808
|  7> H         -3.89159       -1.37604       -4.71437
|  8> H         -1.71294       -0.45536       -3.79734
|  9> H         -1.39344       -2.07939       -3.23742
| 10> H         -2.74775       -1.18344       -2.59230
| 11> *
| 12> %MaxCore 64000
| 13>
| 14> %pal nprocs 8
| 15> end
| 16>
| 17> %scf
| 18>   MaxIter 150
| 19> end
| 20>
| 21>
| 22>                          ****END OF INPUT****

CARTESIAN COORDINATES (ANGSTROEM)
---------------------------------
  C     -2.160380   -1.369490   -3.467100
  C     -3.030110   -1.910860   -4.541070
  H     -3.477440   -2.791510   -4.257100
  H     -2.538010   -2.017860   -5.438080
  H     -3.891590   -1.376040   -4.714370
  H     -1.712940   -0.455360   -3.797340
  H     -1.393440   -2.079390   -3.237420
  H     -2.747750   -1.183440   -2.592300

 Total Charge           Charge          ....    0
 Multiplicity           Mult            ....    1
 Number of Electrons    NEL             ....   18
 Basis Dimension        Dim             ....   88

ORBITAL ENERGIES
----------------

  NO   OCC          E(Eh)            E(eV)
   0   2.0000     -10.263281      -279.2781
   1   2.0000     -10.248243      -278.8689
   2   2.0000      -0.875076       -23.8120
   3   2.0000      -0.727763       -19.8034
   4   2.0000      -0.550788       -14.9877
   5   2.0000      -0.535387       -14.5686
   6   2.0000      -0.467966       -12.7340
   7   2.0000      -0.442238       -12.0339
   8   2.0000      -0.425476       -11.5778
   9   0.0000       0.102620         2.7924
  10   0.0000       0.130460         3.5500
  11   0.0000       0.185057         5.0357
  12   0.0000       0.187967         5.1148
  13   0.0000       0.206811         5.6276

MULLIKEN ATOMIC CHARGES
-----------------------
   0 C :    0.181721
   1 C :    0.412282
   2 H :   -0.171328
   3 H :   -0.149009
   4 H :   -0.185938
   5 H :   -0.037574
   6 H :   -0.030766
   7 H :   -0.019388
Sum of atomic charges:   -0.0000000

LOEWDIN ATOMIC CHARGES
----------------------
   0 C :    0.075084
   1 C :    0.069419
   2 H :   -0.035299
   3 H :   -0.029259
   4 H :   -0.035650
   5 H :   -0.015975
   6 H :   -0.014438
   7 H :   -0.013881

  Mayer bond orders larger than 0.100000
B(  0-C ,  1-C ) :   1.4185 B(  0-C ,  2-H ) :   0.1413 B(  0-C ,  3-H ) :   0.1446
B(  0-C ,  4-H ) :   0.1224 B(  0-C ,  5-H ) :   0.8844 B(  0-C ,  6-H ) :   0.8639
B(  0-C ,  7-H ) :   0.8830 B(  1-C ,  2-H ) :   0.7865 B(  1-C ,  3-H ) :   0.8310
B(  1-C ,  4-H ) :   0.7916 B(  1-C ,  5-H ) :   0.1351 B(  1-C ,  6-H ) :   0.1424
B(  1-C ,  7-H ) :   0.1373 B(  2-H ,  4-H ) :   0.2316

Dispersion correction           -0.000511730
FINAL SINGLE POINT ENERGY       -79.734776426410

DIPOLE MOMENT
-------------
                                X             Y             Z
Electronic contribution:      0.09006       0.02901      -0.00346
Nuclear contribution   :     -0.14218      -0.04688      -0.00907
                        -----------------------------------------
Total Dipole Moment    :     -0.05211      -0.01787      -0.01253
                        -----------------------------------------
Magnitude (a.u.)       :      0.05650
Magnitude (Debye)      :      0.14360

Rotational constants in cm-1:     2.917838     0.714537     0.705359
Rotational constants in MHz : 87474.579540 21421.280941 21146.123231

                             ****ORCA TERMINATED NORMALLY****
TOTAL RUN TIME: 0 days 0 hours 0 minutes 4 seconds 863 msec
