                         Program Version 5.0.0 -  RELEASE  -
|  1> !wB97X-D3 RIJCOSX def2-SVPD def2/J TightSCF CPCM(Water)
|  2> *xyz 0 1
|  3> C         -7.33044       -2.67899       -3.20681
|  4> S         -6.01966       -2.92697       -4.41913
|  5> O         -5.64583       -1.58838       -4.91931
|  6> F         -4.88196       -3.50370       -3.66724
|  7> O         -6.54927       -3.80515       -5.42507
|  8> H         -8.18867       -2.26077       -3.68996
|  9> H         -6.98921       -2.01038       -2.44430
| 10> H         -7.59151       -3.61862       -2.76655
| 11> *
| 12> %MaxCore 64000
| 13>
| 14> %pal nprocs 8
| 15> end
| 16>
| 17> %scf
| 18>   MaxIter 150
| 19> end
| 20>
| 21>
| 22>                          ****END OF INPUT****

CARTESIAN COORDINATES (ANGSTROEM)
---------------------------------
  C     -7.330440   -2.678990   -3.206810
  S     -6.019660   -2.926970   -4.419130
  O     -5.645830   -1.588380   -4.919310
  F     -4.881960   -3.503700   -3.667240
  O     -6.549270   -3.805150   -5.425070
  H     -8.188670   -2.260770   -3.689960
  H     -6.989210   -2.010380   -2.444300
  H     -7.591510   -3.618620   -2.766550

 Total Charge           Charge          ....    0
 Multiplicity           Mult            ....    1
 Number of Electrons    NEL             ....   50
 Basis Dimension        Dim             ....  140

ORBITAL ENERGIES
----------------

  NO   OCC          E(Eh)            E(eV)
   0   2.0000     -89.243873     -2428.4493
   1   2.0000     -24.903636      -677.6624
   2   2.0000     -19.273068      -524.4468
   3   2.0000     -19.262846      -524.1687
   4   2.0000     -10.334263      -281.2096
   5   2.0000      -8.317659      -226.3350
   6   2.0000      -6.281208      -170.9204
   7   2.0000      -6.275422      -170.7629
   8   2.0000      -6.273569      -170.7125
   9   2.0000      -1.462961       -39.8092
  10   2.0000      -1.238614       -33.7044
  11   2.0000      -1.137283       -30.9470
  12   2.0000      -0.904211       -24.6048
  13   2.0000      -0.810143       -22.0451
  14   2.0000      -0.692369       -18.8403
  15   2.0000      -0.675741       -18.3878
  16   2.0000      -0.664947       -18.0941
  17   2.0000      -0.581128       -15.8133
  18   2.0000      -0.575113       -15.6496
  19   2.0000      -0.551109       -14.9964
  20   2.0000      -0.540001       -14.6942
  21   2.0000      -0.497890       -13.5483
  22   2.0000      -0.448532       -12.2052
  23   2.0000      -0.438043       -11.9198
  24   2.0000      -0.423634       -11.5277
  25   0.0000       0.068939         1.8759
  26   0.0000       0.099508         2.7078
  27   0.0000       0.099729         2.7138
  28   0.0000       0.102179         2.7804
  29   0.0000       0.117810         3.2058

MULLIKEN ATOMIC CHARGES
-----------------------
   0 C :    0.273268
   1 S :    1.283755
   2 O :   -0.715693
   3 F :   -0.383235
   4 O :   -0.665646
   5 H :    0.066258
   6 H :    0.068139
   7 H :    0.073155
Sum of atomic charges:   -0.0000000

LOEWDIN ATOMIC CHARGES
----------------------
   0 C :    0.146717
   1 S :    1.121551
   2 O :   -0.523851
   3 F :   -0.263660
   4 O :   -0.497801
   5 H :    0.011135
   6 H :    0.002768
   7 H :    0.003141

  Mayer bond orders larger than 0.100000
B(  0-C ,  1-S ) :   1.0132 B(  0-C ,  5-H ) :   0.9233 B(  0-C ,  6-H ) :   0.9294
B(  0-C ,  7-H ) :   0.9253 B(  1-S ,  2-O ) :   1.4774 B(  1-S ,  3-F ) :   0.6762
B(  1-S ,  4-O ) :   1.5258 B(  1-S ,  5-H ) :   0.1018

Dispersion correction           -0.001526802
FINAL SINGLE POINT ENERGY      -687.926086703023

DIPOLE MOMENT
-------------
                                X             Y             Z
Electronic contribution:      4.65913      -1.70404      -1.16419
Nuclear contribution   :     -5.44924       1.37171       3.19232
                        -----------------------------------------
Total Dipole Moment    :     -0.79011      -0.33233       2.02813
                        -----------------------------------------
Magnitude (a.u.)       :      2.20182
Magnitude (Debye)      :      5.59659

Rotational constants in cm-1:     0.163884     0.151426     0.145804
Rotational constants in MHz :  4913.124213  4539.628058  4371.086672

                             ****ORCA TERMINATED NORMALLY****
TOTAL RUN TIME: 0 days 0 hours 0 minutes 10 seconds 943 msec
