                         Program Version 5.0.0 -  RELEASE  -
|  1> !wB97X-D3 RIJCOSX def2-SVPD def2/J TightSCF CPCM(Water)
|  2> *xyz 0 1
|  3> C         -7.33044       -2.67899       -3.20681
|  4> S         -6.01966       -2.92697       -4.41913
|  5> O         -5.64583       -1.58838       -4.91931
|  6> O         -4.88196       -3.50370       -3.66724
|  7> F         -6.54927       -3.80515       -5.42507
|  8> H         -8.18867       -2.26077       -3.68996
|  9> H         -6.98921       -2.01038       -2.44430
| 10> H         -7.59151       -3.61862       -2.76655
| 11> *
| 12> %MaxCore 64000
| 13>
| 14> %pal nprocs 8
| 15> end
| 16>
| 17> %scf
| 18>   MaxIter 150
| 19> end
| 20>
| 21>
| 22>                          ****END OF INPUT****

CARTESIAN COORDINATES (ANGSTROEM)
---------------------------------
  C     -7.330440   -2.678990   -3.206810
  S     -6.019660   -2.926970   -4.419130
  O     -5.645830   -1.588380   -4.919310
  O     -4.881960   -3.503700   -3.667240
  F     -6.549270   -3.805150   -5.425070
  H     -8.188670   -2.260770   -3.689960
  H     -6.989210   -2.010380   -2.444300
  H     -7.591510   -3.618620   -2.766550

 Total Charge           Charge          ....    0
 Multiplicity           Mult            ....    1
 Number of Electrons    NEL             ....   50
 Basis Dimension        Dim             ....  140

ORBITAL ENERGIES
----------------

  NO   OCC          E(Eh)            E(eV)
   0   2.0000     -89.246975     -2428.5337
   1   2.0000     -24.923266      -678.1965
   2   2.0000     -19.263546      -524.1877
   3   2.0000     -19.261330      -524.1274
   4   2.0000     -10.335352      -281.2392
   5   2.0000      -8.320758      -226.4193
   6   2.0000      -6.284499      -171.0099
   7   2.0000      -6.278376      -170.8433
   8   2.0000      -6.276459      -170.7911
   9   2.0000      -1.498341       -40.7719
  10   2.0000      -1.224427       -33.3184
  11   2.0000      -1.121284       -30.5117
  12   2.0000      -0.907600       -24.6970
  13   2.0000      -0.825832       -22.4720
  14   2.0000      -0.708635       -19.2829
  15   2.0000      -0.699020       -19.0213
  16   2.0000      -0.668131       -18.1808
  17   2.0000      -0.578289       -15.7361
  18   2.0000      -0.572749       -15.5853
  19   2.0000      -0.552373       -15.0308
  20   2.0000      -0.536227       -14.5915
  21   2.0000      -0.491728       -13.3806
  22   2.0000      -0.437706       -11.9106
  23   2.0000      -0.435737       -11.8570
  24   2.0000      -0.411869       -11.2075
  25   0.0000       0.068294         1.8584
  26   0.0000       0.098910         2.6915
  27   0.0000       0.099559         2.7091
  28   0.0000       0.102264         2.7827
  29   0.0000       0.122244         3.3264

MULLIKEN ATOMIC CHARGES
-----------------------
   0 C :    0.272547
   1 S :    1.285605
   2 O :   -0.703998
   3 O :   -0.709989
   4 F :   -0.356328
   5 H :    0.072123
   6 H :    0.065499
   7 H :    0.074542
Sum of atomic charges:   -0.0000000

LOEWDIN ATOMIC CHARGES
----------------------
   0 C :    0.146721
   1 S :    1.126690
   2 O :   -0.523750
   3 O :   -0.528543
   4 F :   -0.238906
   5 H :    0.003073
   6 H :    0.011285
   7 H :    0.003430

  Mayer bond orders larger than 0.100000
B(  0-C ,  1-S ) :   1.0135 B(  0-C ,  5-H ) :   0.9258 B(  0-C ,  6-H ) :   0.9269
B(  0-C ,  7-H ) :   0.9246 B(  1-S ,  2-O ) :   1.4807 B(  1-S ,  3-O ) :   1.4775
B(  1-S ,  4-F ) :   0.7273 B(  1-S ,  6-H ) :   0.1065

Dispersion correction           -0.001528595
FINAL SINGLE POINT ENERGY      -687.909765195005

DIPOLE MOMENT
-------------
                                X             Y             Z
Electronic contribution:      1.51527      -2.24653      -4.47037
Nuclear contribution   :     -3.78348       1.67287       4.94851
                        -----------------------------------------
Total Dipole Moment    :     -2.26822      -0.57366       0.47814
                        -----------------------------------------
Magnitude (a.u.)       :      2.38799
Magnitude (Debye)      :      6.06980

Rotational constants in cm-1:     0.163108     0.153882     0.144407
Rotational constants in MHz :  4889.859464  4613.257659  4329.207840

                             ****ORCA TERMINATED NORMALLY****
TOTAL RUN TIME: 0 days 0 hours 0 minutes 10 seconds 843 msec
