                         Program Version 5.0.0 -  RELEASE  -
|  1> !TPSS D3BJ RIJCOSX def2-SVP def2/J TightSCF
|  2> *xyz -1 1
|  3> C         -1.91658       -2.48508       -3.64367
|  4> C         -1.36353       -1.98134       -2.29361
|  5> O         -0.35039       -2.74969       -1.79601
|  6> H         -2.22622       -1.90839       -1.60204
|  7> H         -1.05135       -0.91567       -2.44333
|  8> H         -1.11522       -2.57167       -4.34739
|  9> H         -2.64227       -1.79099       -4.01314
| 10> H         -2.37564       -3.44180       -3.50640
| 11> *
| 12>
| 13> %MaxCore 64000
| 14> %pal nprocs 4
| 15> end
| 16>
| 17> %scf
| 18>   MaxIter 150
| 19> end
| 20>
| 21>
| 22>                          ****END OF INPUT****

CARTESIAN COORDINATES (ANGSTROEM)
---------------------------------
  C     -1.916580   -2.485080   -3.643670
  C     -1.363530   -1.981340   -2.293610
  O     -0.350390   -2.749690   -1.796010
  H     -2.226220   -1.908390   -1.602040
  H     -1.051350   -0.915670   -2.443330
  H     -1.115220   -2.571670   -4.347390
  H     -2.642270   -1.790990   -4.013140
  H     -2.375640   -3.441800   -3.506400

 Total Charge           Charge          ....   -1
 Multiplicity           Mult            ....    1
 Number of Electrons    NEL             ....   26
 Basis Dimension        Dim             ....   67

ORBITAL ENERGIES
----------------

  NO   OCC          E(Eh)            E(eV)
   0   2.0000     -18.513624      -503.7813
   1   2.0000      -9.789525      -266.3865
   2   2.0000      -9.777791      -266.0672
   3   2.0000      -0.564119       -15.3505
   4   2.0000      -0.443793       -12.0762
   5   2.0000      -0.296058        -8.0562
   6   2.0000      -0.189599        -5.1592
   7   2.0000      -0.169364        -4.6086
   8   2.0000      -0.111870        -3.0441
   9   2.0000      -0.098059        -2.6683
  10   2.0000      -0.028393        -0.7726
  11   2.0000       0.114491         3.1154
  12   2.0000       0.118846         3.2340
  13   0.0000       0.243318         6.6210
  14   0.0000       0.284227         7.7342
  15   0.0000       0.295427         8.0390
  16   0.0000       0.306532         8.3412
  17   0.0000       0.346057         9.4167

MULLIKEN ATOMIC CHARGES
-----------------------
   0 C :    0.080353
   1 C :    0.235394
   2 O :   -0.678641
   3 H :   -0.176315
   4 H :   -0.180632
   5 H :   -0.073779
   6 H :   -0.134127
   7 H :   -0.072253
Sum of atomic charges:   -1.0000000

LOEWDIN ATOMIC CHARGES
----------------------
   0 C :   -0.101958
   1 C :    0.011532
   2 O :   -0.635578
   3 H :   -0.090053
   4 H :   -0.093837
   5 H :   -0.022481
   6 H :   -0.045834
   7 H :   -0.021792

  Mayer bond orders larger than 0.100000
B(  0-C ,  1-C ) :   0.9878 B(  0-C ,  5-H ) :   0.9502 B(  0-C ,  6-H ) :   0.9008
B(  0-C ,  7-H ) :   0.9536 B(  1-C ,  2-O ) :   1.5241 B(  1-C ,  3-H ) :   0.8514
B(  1-C ,  4-H ) :   0.8495

Dispersion correction           -0.004550127
FINAL SINGLE POINT ENERGY      -154.304790623324

DIPOLE MOMENT
-------------
                                X             Y             Z
Electronic contribution:      2.42350      -1.16008       2.06180
Nuclear contribution   :     -3.14382       1.30299      -2.83231
                        -----------------------------------------
Total Dipole Moment    :     -0.72032       0.14291      -0.77051
                        -----------------------------------------
Magnitude (a.u.)       :      1.06441
Magnitude (Debye)      :      2.70552

Rotational constants in cm-1:     1.288206     0.322942     0.285188
Rotational constants in MHz : 38619.437223  9681.562038  8549.712012

                             ****ORCA TERMINATED NORMALLY****
TOTAL RUN TIME: 0 days 0 hours 0 minutes 6 seconds 866 msec
