                         Program Version 5.0.0 -  RELEASE  -
|  1> !TPSS D3BJ RIJCOSX def2-SVP def2/J TightSCF
|  2> *xyz 1 1
|  3> C          1.64703       -2.34528       -5.02041
|  4> C          2.20996       -2.81239       -3.66571
|  5> C          2.48901       -1.66851       -2.73754
|  6> N          3.59631       -0.94761       -2.95225
|  7> N          1.66394       -1.41369       -1.77781
|  8> H          0.81164       -1.96318       -1.70275
|  9> H          1.84550       -0.63508       -1.15875
| 10> H          4.20535       -1.17600       -3.73383
| 11> H          3.81723       -0.12585       -2.40604
| 12> H          3.14311       -3.36280       -3.81152
| 13> H          1.48768       -3.45893       -3.16521
| 14> H          1.46566       -3.19589       -5.64368
| 15> H          2.35406       -1.69850       -5.49654
| 16> H          0.73014       -1.81680       -4.86253
| 17> *
| 18>
| 19> %MaxCore 64000
| 20> %pal nprocs 4
| 21> end
| 22>
| 23> %scf
| 24>   MaxIter 150
| 25> end
| 26>
| 27>
| 28>                          ****END OF INPUT****

CARTESIAN COORDINATES (ANGSTROEM)
---------------------------------
  C      1.647030   -2.345280   -5.020410
  C      2.209960   -2.812390   -3.665710
  C      2.489010   -1.668510   -2.737540
  N      3.596310   -0.947610   -2.952250
  N      1.663940   -1.413690   -1.777810
  H      0.811640   -1.963180   -1.702750
  H      1.845500   -0.635080   -1.158750
  H      4.205350   -1.176000   -3.733830
  H      3.817230   -0.125850   -2.406040
  H      3.143110   -3.362800   -3.811520
  H      1.487680   -3.458930   -3.165210
  H      1.465660   -3.195890   -5.643680
  H      2.354060   -1.698500   -5.496540
  H      0.730140   -1.816800   -4.862530

 Total Charge           Charge          ....    1
 Multiplicity           Mult            ....    1
 Number of Electrons    NEL             ....   40
 Basis Dimension        Dim             ....  115

ORBITAL ENERGIES
----------------

  NO   OCC          E(Eh)            E(eV)
   0   2.0000     -14.367536      -390.9605
   1   2.0000     -14.358737      -390.7211
   2   2.0000     -10.309443      -280.5342
   3   2.0000     -10.198088      -277.5041
   4   2.0000     -10.158364      -276.4231
   5   2.0000      -1.129971       -30.7481
   6   2.0000      -1.039774       -28.2937
   7   2.0000      -0.904638       -24.6164
   8   2.0000      -0.804145       -21.8819
   9   2.0000      -0.764976       -20.8161
  10   2.0000      -0.727854       -19.8059
  11   2.0000      -0.703248       -19.1363
  12   2.0000      -0.661766       -18.0076
  13   2.0000      -0.604364       -16.4456
  14   2.0000      -0.581263       -15.8170
  15   2.0000      -0.570844       -15.5334
  16   2.0000      -0.505439       -13.7537
  17   2.0000      -0.497833       -13.5467
  18   2.0000      -0.493516       -13.4293
  19   2.0000      -0.454068       -12.3558
  20   0.0000      -0.229880        -6.2554
  21   0.0000      -0.159235        -4.3330
  22   0.0000      -0.115356        -3.1390
  23   0.0000      -0.113025        -3.0756
  24   0.0000      -0.086640        -2.3576

MULLIKEN ATOMIC CHARGES
-----------------------
   0 C :    0.027293
   1 C :   -0.016931
   2 C :   -0.076641
   3 N :   -0.009431
   4 N :    0.055246
   5 H :    0.189342
   6 H :    0.172602
   7 H :    0.184049
   8 H :    0.169791
   9 H :    0.084743
  10 H :    0.056903
  11 H :    0.079629
  12 H :    0.038485
  13 H :    0.044920
Sum of atomic charges:    1.0000000

LOEWDIN ATOMIC CHARGES
----------------------
   0 C :   -0.008939
   1 C :   -0.022633
   2 C :    0.128854
   3 N :    0.092558
   4 N :    0.128234
   5 H :    0.125753
   6 H :    0.112937
   7 H :    0.120049
   8 H :    0.107841
   9 H :    0.058106
  10 H :    0.046939
  11 H :    0.049524
  12 H :    0.027835
  13 H :    0.032942

  Mayer bond orders larger than 0.100000
B(  0-C ,  1-C ) :   1.0719 B(  0-C , 11-H ) :   0.9619 B(  0-C , 12-H ) :   0.9711
B(  0-C , 13-H ) :   0.9676 B(  1-C ,  2-C ) :   1.0229 B(  1-C ,  9-H ) :   0.9211
B(  1-C , 10-H ) :   0.9240 B(  2-C ,  3-N ) :   1.4800 B(  2-C ,  4-N ) :   1.5500
B(  3-N ,  7-H ) :   0.9224 B(  3-N ,  8-H ) :   0.9321 B(  4-N ,  5-H ) :   0.9115
B(  4-N ,  6-H ) :   0.9261

Dispersion correction           -0.012451825
FINAL SINGLE POINT ENERGY      -228.912420356257

DIPOLE MOMENT
-------------
                                X             Y             Z
Electronic contribution:      1.21050       1.70464       3.66052
Nuclear contribution   :     -0.98617      -1.03178      -2.77619
                        -----------------------------------------
Total Dipole Moment    :      0.22433       0.67287       0.88433
                        -----------------------------------------
Magnitude (a.u.)       :      1.13363
Magnitude (Debye)      :      2.88146

Rotational constants in cm-1:     0.257311     0.127495     0.099037
Rotational constants in MHz :  7713.982239  3822.189706  2969.039713

                             ****ORCA TERMINATED NORMALLY****
TOTAL RUN TIME: 0 days 0 hours 0 minutes 9 seconds 515 msec
