                         Program Version 5.0.0 -  RELEASE  -
|  1> !TPSS D3BJ RIJCOSX def2-SVP def2/J TightSCF
|  2> *xyz 0 1
|  3> C         -1.91658       -2.48508       -3.64367
|  4> C         -1.36353       -1.98134       -2.29361
|  5> F         -0.35039       -2.74969       -1.79601
|  6> H         -2.22622       -1.90839       -1.60204
|  7> H         -1.05135       -0.91567       -2.44333
|  8> H         -1.11522       -2.57167       -4.34739
|  9> H         -2.64227       -1.79099       -4.01314
| 10> H         -2.37564       -3.44180       -3.50640
| 11> *
| 12>
| 13> %MaxCore 64000
| 14> %pal nprocs 4
| 15> end
| 16>
| 17> %scf
| 18>   MaxIter 150
| 19> end
| 20>
| 21>
| 22>                          ****END OF INPUT****

CARTESIAN COORDINATES (ANGSTROEM)
---------------------------------
  C     -1.916580   -2.485080   -3.643670
  C     -1.363530   -1.981340   -2.293610
  F     -0.350390   -2.749690   -1.796010
  H     -2.226220   -1.908390   -1.602040
  H     -1.051350   -0.915670   -2.443330
  H     -1.115220   -2.571670   -4.347390
  H     -2.642270   -1.790990   -4.013140
  H     -2.375640   -3.441800   -3.506400

 Total Charge           Charge          ....    0
 Multiplicity           Mult            ....    1
 Number of Electrons    NEL             ....   26
 Basis Dimension        Dim             ....   67

ORBITAL ENERGIES
----------------

  NO   OCC          E(Eh)            E(eV)
   0   2.0000     -24.393546      -663.7821
   1   2.0000     -10.072905      -274.0977
   2   2.0000      -9.996290      -272.0129
   3   2.0000      -1.092271       -29.7222
   4   2.0000      -0.696409       -18.9502
   5   2.0000      -0.569400       -15.4942
   6   2.0000      -0.450102       -12.2479
   7   2.0000      -0.438930       -11.9439
   8   2.0000      -0.398865       -10.8537
   9   2.0000      -0.358742        -9.7619
  10   2.0000      -0.354159        -9.6372
  11   2.0000      -0.280667        -7.6373
  12   2.0000      -0.278173        -7.5695
  13   0.0000       0.053883         1.4662
  14   0.0000       0.097126         2.6429
  15   0.0000       0.101648         2.7660
  16   0.0000       0.111719         3.0400
  17   0.0000       0.131966         3.5910

MULLIKEN ATOMIC CHARGES
-----------------------
   0 C :   -0.043617
   1 C :    0.209776
   2 F :   -0.250950
   3 H :    0.007206
   4 H :    0.008027
   5 H :    0.027173
   6 H :    0.016028
   7 H :    0.026357
Sum of atomic charges:   -0.0000000

LOEWDIN ATOMIC CHARGES
----------------------
   0 C :   -0.062662
   1 C :    0.107971
   2 F :   -0.124303
   3 H :    0.004826
   4 H :    0.005726
   5 H :    0.021611
   6 H :    0.026200
   7 H :    0.020631

  Mayer bond orders larger than 0.100000
B(  0-C ,  1-C ) :   1.0919 B(  0-C ,  5-H ) :   0.9702 B(  0-C ,  6-H ) :   0.9582
B(  0-C ,  7-H ) :   0.9716 B(  1-C ,  2-F ) :   1.0152 B(  1-C ,  3-H ) :   0.9523
B(  1-C ,  4-H ) :   0.9533

Dispersion correction           -0.004197165
FINAL SINGLE POINT ENERGY      -178.944520104380

DIPOLE MOMENT
-------------
                                X             Y             Z
Electronic contribution:      3.68201      -1.39983       3.47024
Nuclear contribution   :     -4.15401       1.70894      -3.75000
                        -----------------------------------------
Total Dipole Moment    :     -0.47200       0.30911      -0.27975
                        -----------------------------------------
Magnitude (a.u.)       :      0.62976
Magnitude (Debye)      :      1.60072

Rotational constants in cm-1:     1.266842     0.300492     0.266603
Rotational constants in MHz : 37978.968232  9008.526876  7992.551454

                             ****ORCA TERMINATED NORMALLY****
TOTAL RUN TIME: 0 days 0 hours 0 minutes 6 seconds 276 msec
