                         Program Version 5.0.0 -  RELEASE  -
|  1> !TPSS D3BJ RIJCOSX def2-SVP def2/J TightSCF
|  2> *xyz 0 1
|  3> C          1.64703       -2.34528       -5.02041
|  4> C          2.20996       -2.81239       -3.66571
|  5> C          2.48901       -1.66851       -2.73754
|  6> C          3.59631       -0.94761       -2.95225
|  7> N          1.66394       -1.41369       -1.77781
|  8> H          0.81164       -1.96318       -1.70275
|  9> H          1.84550       -0.63508       -1.15875
| 10> H          4.20535       -1.17600       -3.73383
| 11> H          3.81723       -0.12585       -2.40604
| 12> H          3.14311       -3.36280       -3.81152
| 13> H          1.48768       -3.45893       -3.16521
| 14> H          1.46566       -3.19589       -5.64368
| 15> H          2.35406       -1.69850       -5.49654
| 16> H          0.73014       -1.81680       -4.86253
| 17> *
| 18>
| 19> %MaxCore 64000
| 20> %pal nprocs 4
| 21> end
| 22>
| 23> %scf
| 24>   MaxIter 150
| 25> end
| 26>
| 27>
| 28>                          ****END OF INPUT****

CARTESIAN COORDINATES (ANGSTROEM)
---------------------------------
  C      1.647030   -2.345280   -5.020410
  C      2.209960   -2.812390   -3.665710
  C      2.489010   -1.668510   -2.737540
  C      3.596310   -0.947610   -2.952250
  N      1.663940   -1.413690   -1.777810
  H      0.811640   -1.963180   -1.702750
  H      1.845500   -0.635080   -1.158750
  H      4.205350   -1.176000   -3.733830
  H      3.817230   -0.125850   -2.406040
  H      3.143110   -3.362800   -3.811520
  H      1.487680   -3.458930   -3.165210
  H      1.465660   -3.195890   -5.643680
  H      2.354060   -1.698500   -5.496540
  H      0.730140   -1.816800   -4.862530

 Total Charge           Charge          ....    0
 Multiplicity           Mult            ....    1
 Number of Electrons    NEL             ....   40
 Basis Dimension        Dim             ....  115

ORBITAL ENERGIES
----------------

  NO   OCC          E(Eh)            E(eV)
   0   2.0000     -14.116352      -384.1255
   1   2.0000     -10.005557      -272.2651
   2   2.0000      -9.996537      -272.0196
   3   2.0000      -9.985229      -271.7119
   4   2.0000      -9.924273      -270.0532
   5   2.0000      -0.859292       -23.3825
   6   2.0000      -0.710188       -19.3252
   7   2.0000      -0.640234       -17.4216
   8   2.0000      -0.578562       -15.7435
   9   2.0000      -0.512168       -13.9368
  10   2.0000      -0.481928       -13.1139
  11   2.0000      -0.429541       -11.6884
  12   2.0000      -0.396569       -10.7912
  13   2.0000      -0.365131        -9.9357
  14   2.0000      -0.347282        -9.4500
  15   2.0000      -0.336706        -9.1622
  16   2.0000      -0.312302        -8.4982
  17   2.0000      -0.292455        -7.9581
  18   2.0000      -0.288295        -7.8449
  19   2.0000      -0.143619        -3.9081
  20   0.0000       0.032070         0.8727
  21   0.0000       0.043896         1.1945
  22   0.0000       0.080874         2.2007
  23   0.0000       0.086861         2.3636
  24   0.0000       0.109687         2.9847

MULLIKEN ATOMIC CHARGES
-----------------------
   0 C :    0.041219
   1 C :    0.033095
   2 C :   -0.179944
   3 C :   -0.043905
   4 N :   -0.031522
   5 H :    0.110409
   6 H :    0.114754
   7 H :   -0.035554
   8 H :   -0.051841
   9 H :    0.027893
  10 H :   -0.016811
  11 H :    0.009455
  12 H :    0.017631
  13 H :    0.005120
Sum of atomic charges:    0.0000000

LOEWDIN ATOMIC CHARGES
----------------------
   0 C :   -0.030846
   1 C :   -0.021218
   2 C :   -0.015707
   3 C :   -0.181341
   4 N :    0.022332
   5 H :    0.071882
   6 H :    0.078164
   7 H :   -0.004440
   8 H :   -0.013373
   9 H :    0.033024
  10 H :    0.009838
  11 H :    0.015387
  12 H :    0.020316
  13 H :    0.015980

  Mayer bond orders larger than 0.100000
B(  0-C ,  1-C ) :   1.0972 B(  0-C , 11-H ) :   0.9647 B(  0-C , 12-H ) :   0.9721
B(  0-C , 13-H ) :   0.9669 B(  1-C ,  2-C ) :   1.0133 B(  1-C ,  9-H ) :   0.9344
B(  1-C , 10-H ) :   0.9299 B(  2-C ,  3-C ) :   1.8197 B(  2-C ,  4-N ) :   1.3136
B(  3-C ,  4-N ) :   0.1001 B(  3-C ,  7-H ) :   0.9400 B(  3-C ,  8-H ) :   0.9505
B(  4-N ,  5-H ) :   0.9415 B(  4-N ,  6-H ) :   0.9422

Dispersion correction           -0.012969366
FINAL SINGLE POINT ENERGY      -212.447279421331

DIPOLE MOMENT
-------------
                                X             Y             Z
Electronic contribution:     -0.09412       0.67130       3.08800
Nuclear contribution   :     -0.69146      -0.83112      -2.71336
                        -----------------------------------------
Total Dipole Moment    :     -0.78559      -0.15981       0.37464
                        -----------------------------------------
Magnitude (a.u.)       :      0.88490
Magnitude (Debye)      :      2.24923

Rotational constants in cm-1:     0.270661     0.129240     0.102040
Rotational constants in MHz :  8114.202941  3874.518141  3059.074383

                             ****ORCA TERMINATED NORMALLY****
TOTAL RUN TIME: 0 days 0 hours 0 minutes 9 seconds 985 msec
