                         Program Version 5.0.0 -  RELEASE  -
|  1> !TPSS D3BJ RIJCOSX def2-SVP def2/J TightSCF
|  2> *xyz 0 1
|  3> C          1.64703       -2.34528       -5.02041
|  4> C          2.20996       -2.81239       -3.66571
|  5> C          2.48901       -1.66851       -2.73754
|  6> N          3.59631       -0.94761       -2.95225
|  7> C          1.66394       -1.41369       -1.77781
|  8> H          0.81164       -1.96318       -1.70275
|  9> H          1.84550       -0.63508       -1.15875
| 10> H          4.20535       -1.17600       -3.73383
| 11> H          3.81723       -0.12585       -2.40604
| 12> H          3.14311       -3.36280       -3.81152
| 13> H          1.48768       -3.45893       -3.16521
| 14> H          1.46566       -3.19589       -5.64368
| 15> H          2.35406       -1.69850       -5.49654
| 16> H          0.73014       -1.81680       -4.86253
| 17> *
| 18>
| 19> %MaxCore 64000
| 20> %pal nprocs 4
| 21> end
| 22>
| 23> %scf
| 24>   MaxIter 150
| 25> end
| 26>
| 27>
| 28>                          ****END OF INPUT****

CARTESIAN COORDINATES (ANGSTROEM)
---------------------------------
  C      1.647030   -2.345280   -5.020410
  C      2.209960   -2.812390   -3.665710
  C      2.489010   -1.668510   -2.737540
  N      3.596310   -0.947610   -2.952250
  C      1.663940   -1.413690   -1.777810
  H      0.811640   -1.963180   -1.702750
  H      1.845500   -0.635080   -1.158750
  H      4.205350   -1.176000   -3.733830
  H      3.817230   -0.125850   -2.406040
  H      3.143110   -3.362800   -3.811520
  H      1.487680   -3.458930   -3.165210
  H      1.465660   -3.195890   -5.643680
  H      2.354060   -1.698500   -5.496540
  H      0.730140   -1.816800   -4.862530

 Total Charge           Charge          ....    0
 Multiplicity           Mult            ....    1
 Number of Electrons    NEL             ....   40
 Basis Dimension        Dim             ....  115

ORBITAL ENERGIES
----------------

  NO   OCC          E(Eh)            E(eV)
   0   2.0000     -14.109612      -383.9421
   1   2.0000     -10.003287      -272.2033
   2   2.0000      -9.995088      -271.9802
   3   2.0000      -9.986764      -271.7537
   4   2.0000      -9.927698      -270.1464
   5   2.0000      -0.841535       -22.8993
   6   2.0000      -0.710490       -19.3334
   7   2.0000      -0.653912       -17.7939
   8   2.0000      -0.574399       -15.6302
   9   2.0000      -0.508827       -13.8459
  10   2.0000      -0.470196       -12.7947
  11   2.0000      -0.430000       -11.7009
  12   2.0000      -0.390600       -10.6288
  13   2.0000      -0.375909       -10.2290
  14   2.0000      -0.350480        -9.5370
  15   2.0000      -0.339766        -9.2455
  16   2.0000      -0.312405        -8.5010
  17   2.0000      -0.291941        -7.9441
  18   2.0000      -0.279593        -7.6081
  19   2.0000      -0.154012        -4.1909
  20   0.0000       0.035049         0.9537
  21   0.0000       0.046465         1.2644
  22   0.0000       0.084288         2.2936
  23   0.0000       0.091188         2.4814
  24   0.0000       0.105963         2.8834

MULLIKEN ATOMIC CHARGES
-----------------------
   0 C :    0.040177
   1 C :    0.034441
   2 C :   -0.129681
   3 N :   -0.093330
   4 C :   -0.018567
   5 H :   -0.036200
   6 H :   -0.051670
   7 H :    0.107113
   8 H :    0.110709
   9 H :    0.002583
  10 H :    0.009254
  11 H :    0.012844
  12 H :   -0.001514
  13 H :    0.013841
Sum of atomic charges:   -0.0000000

LOEWDIN ATOMIC CHARGES
----------------------
   0 C :   -0.034692
   1 C :   -0.021463
   2 C :   -0.005233
   3 N :   -0.010808
   4 C :   -0.154421
   5 H :    0.000529
   6 H :   -0.008660
   7 H :    0.067797
   8 H :    0.072217
   9 H :    0.016493
  10 H :    0.028792
  11 H :    0.017198
  12 H :    0.011544
  13 H :    0.020706

  Mayer bond orders larger than 0.100000
B(  0-C ,  1-C ) :   1.0913 B(  0-C , 11-H ) :   0.9665 B(  0-C , 12-H ) :   0.9689
B(  0-C , 13-H ) :   0.9686 B(  1-C ,  2-C ) :   1.0299 B(  1-C ,  9-H ) :   0.9278
B(  1-C , 10-H ) :   0.9305 B(  2-C ,  3-N ) :   1.2507 B(  2-C ,  4-C ) :   1.8743
B(  3-N ,  7-H ) :   0.9501 B(  3-N ,  8-H ) :   0.9490 B(  4-C ,  5-H ) :   0.9261
B(  4-C ,  6-H ) :   0.9433

Dispersion correction           -0.012955130
FINAL SINGLE POINT ENERGY      -212.450687545274

DIPOLE MOMENT
-------------
                                X             Y             Z
Electronic contribution:      1.72065       1.11983       1.98371
Nuclear contribution   :     -1.13902      -0.93906      -2.44135
                        -----------------------------------------
Total Dipole Moment    :      0.58163       0.18077      -0.45764
                        -----------------------------------------
Magnitude (a.u.)       :      0.76185
Magnitude (Debye)      :      1.93646

Rotational constants in cm-1:     0.267243     0.130607     0.102304
Rotational constants in MHz :  8011.748167  3915.504600  3066.999841

                             ****ORCA TERMINATED NORMALLY****
TOTAL RUN TIME: 0 days 0 hours 0 minutes 9 seconds 647 msec
