                         Program Version 5.0.0 -  RELEASE  -
|  1> !TPSS D3BJ RIJCOSX def2-TZVP def2/J TightSCF xyzfile
|  2>
|  3> *xyzfile 0 1 D1.xyz
|  4>
|  5> %MaxCore 64000
|  6>
|  7> %pal nprocs 18
|  8> end
|  9>
| 10> %scf
| 11>   MaxIter 150
| 12> end
| 13>
| 14>
| 15>                          ****END OF INPUT****

CARTESIAN COORDINATES (ANGSTROEM)
---------------------------------
  C      1.647032   -2.345276   -5.020411
  C      0.217628   -1.814022   -4.924389
  C      2.209964   -2.812388   -3.665708
  C     -0.811356   -2.908780   -4.607625
  C     -1.916579   -2.485081   -3.643665
  H     -2.554525   -1.712428   -4.091993
  C     -1.363531   -1.981337   -2.293608
  H     -2.553448   -3.355667   -3.458815
  F     -0.350395   -2.749689   -1.796006
  H      2.308385   -1.588704   -5.457128
  H      1.674286   -3.203478   -5.697392
  C      2.489007   -1.668510   -2.737538
  C      3.596314   -0.947608   -2.952247
  N      1.663936   -1.413685   -1.777806
  H      0.811642   -1.963178   -1.702755
  H      1.845503   -0.635078   -1.158749
  H      4.205351   -1.176003   -3.733825
  H      3.817230   -0.125845   -2.406041
  H     -1.244829   -3.280884   -5.541040
  H     -0.306331   -3.757746   -4.142734
  H     -0.036244   -1.318555   -5.865303
  H      0.175004   -1.035382   -4.158095
  H      3.143106   -3.362803   -3.811524
  H      1.487683   -3.458935   -3.165211
  H     -2.226220   -1.908386   -1.602039
  H     -1.051353   -0.915671   -2.443331

 Total Charge           Charge          ....    0
 Multiplicity           Mult            ....    1
 Number of Electrons    NEL             ....   80
 Basis Dimension        Dim             ....  406

ORBITAL ENERGIES
----------------

  NO   OCC          E(Eh)            E(eV)
   0   2.0000     -24.444094      -665.1576
   1   2.0000     -14.070662      -382.8822
   2   2.0000     -10.081646      -274.3355
   3   2.0000     -10.002368      -272.1783
   4   2.0000      -9.986730      -271.7527
   5   2.0000      -9.980625      -271.5866
   6   2.0000      -9.978363      -271.5251
   7   2.0000      -9.974816      -271.4285
   8   2.0000      -9.971313      -271.3332
   9   2.0000      -9.896801      -269.3057
  10   2.0000      -1.179364       -32.0921
  11   2.0000      -0.853440       -23.2233
  12   2.0000      -0.762360       -20.7449
  13   2.0000      -0.722528       -19.6610
  14   2.0000      -0.679833       -18.4992
  15   2.0000      -0.637855       -17.3569
  16   2.0000      -0.613410       -16.6917
  17   2.0000      -0.563041       -15.3211
  18   2.0000      -0.539398       -14.6778
  19   2.0000      -0.524976       -14.2853
  20   2.0000      -0.486038       -13.2258
  21   2.0000      -0.483423       -13.1546
  22   2.0000      -0.461748       -12.5648
  23   2.0000      -0.442728       -12.0472
  24   2.0000      -0.422144       -11.4871
  25   2.0000      -0.413390       -11.2489
  26   2.0000      -0.394109       -10.7242
  27   2.0000      -0.378692       -10.3047
  28   2.0000      -0.375333       -10.2133
  29   2.0000      -0.347268        -9.4497
  30   2.0000      -0.331534        -9.0215
  31   2.0000      -0.325693        -8.8625
  32   2.0000      -0.318740        -8.6734
  33   2.0000      -0.314852        -8.5676
  34   2.0000      -0.301678        -8.2091
  35   2.0000      -0.294001        -8.0002
  36   2.0000      -0.284407        -7.7391
  37   2.0000      -0.272122        -7.4048
  38   2.0000      -0.271860        -7.3977
  39   2.0000      -0.135978        -3.7002
  40   0.0000       0.016825         0.4578
  41   0.0000       0.026217         0.7134
  42   0.0000       0.038635         1.0513
  43   0.0000       0.043133         1.1737
  44   0.0000       0.050286         1.3683

MULLIKEN ATOMIC CHARGES
-----------------------
   0 C :   -0.105758
   1 C :   -0.204016
   2 C :   -0.201166
   3 C :   -0.199138
   4 C :   -0.150860
   5 H :    0.099158
   6 C :   -0.074842
   7 H :    0.098355
   8 F :   -0.186909
   9 H :    0.095730
  10 H :    0.074381
  11 C :    0.157609
  12 C :   -0.438764
  13 N :   -0.454382
  14 H :    0.271883
  15 H :    0.210424
  16 H :    0.096403
  17 H :    0.077848
  18 H :    0.098443
  19 H :    0.106771
  20 H :    0.087086
  21 H :    0.103061
  22 H :    0.106577
  23 H :    0.093263
  24 H :    0.114784
  25 H :    0.124056
Sum of atomic charges:   -0.0000000

LOEWDIN ATOMIC CHARGES
----------------------
   0 C :   -0.249629
   1 C :   -0.255945
   2 C :   -0.211750
   3 C :   -0.265088
   4 C :   -0.270038
   5 H :    0.141590
   6 C :   -0.355615
   7 H :    0.134612
   8 F :    0.179057
   9 H :    0.136889
  10 H :    0.130938
  11 C :   -0.384921
  12 C :   -0.298469
  13 N :    0.026842
  14 H :    0.118130
  15 H :    0.166599
  16 H :    0.100028
  17 H :    0.089138
  18 H :    0.134417
  19 H :    0.138223
  20 H :    0.131305
  21 H :    0.136051
  22 H :    0.146989
  23 H :    0.131959
  24 H :    0.123947
  25 H :    0.124741

  Mayer bond orders larger than 0.100000
B(  0-C ,  1-C ) :   1.0251 B(  0-C ,  2-C ) :   1.0006 B(  0-C ,  9-H ) :   0.9357
B(  0-C , 10-H ) :   0.9369 B(  1-C ,  3-C ) :   0.9925 B(  1-C , 20-H ) :   0.9396
B(  1-C , 21-H ) :   0.9657 B(  2-C , 11-C ) :   0.9670 B(  2-C , 22-H ) :   0.9465
B(  2-C , 23-H ) :   0.9674 B(  3-C ,  4-C ) :   1.0071 B(  3-C , 18-H ) :   0.9451
B(  3-C , 19-H ) :   0.9637 B(  4-C ,  5-H ) :   0.9340 B(  4-C ,  6-C ) :   1.0330
B(  4-C ,  7-H ) :   0.9459 B(  6-C ,  8-F ) :   0.9375 B(  6-C , 24-H ) :   0.9522
B(  6-C , 25-H ) :   0.9678 B(  8-F , 14-H ) :   0.1209 B( 11-C , 12-C ) :   1.7416
B( 11-C , 13-N ) :   1.2654 B( 12-C , 16-H ) :   0.9777 B( 12-C , 17-H ) :   0.9727
B( 13-N , 14-H ) :   0.8319 B( 13-N , 15-H ) :   0.9142

Dispersion correction           -0.032979577
FINAL SINGLE POINT ENERGY      -469.293846226485

DIPOLE MOMENT
-------------
                                X             Y             Z
Electronic contribution:     -1.27323      -1.75018       6.97000
Nuclear contribution   :     -0.37390       1.73388      -6.94752
                        -----------------------------------------
Total Dipole Moment    :     -1.64713      -0.01629       0.02248
                        -----------------------------------------
Magnitude (a.u.)       :      1.64737
Magnitude (Debye)      :      4.18727

Rotational constants in cm-1:     0.062220     0.032742     0.024374
Rotational constants in MHz :  1865.297979   981.573941   730.711364

                             ****ORCA TERMINATED NORMALLY****
TOTAL RUN TIME: 0 days 0 hours 0 minutes 15 seconds 461 msec
