                         Program Version 5.0.0 -  RELEASE  -
|  1> !CAM-B3LYP RIJCOSX def2-SVP def2/J TightSCF
|  2> *xyz -1 1
|  3> C          0.84888        2.66797       -4.30235
|  4> C          2.09343        1.86104       -4.65684
|  5> H          2.44481        2.04157       -5.67499
|  6> H          2.90175        2.13786       -3.98034
|  7> S          1.87964        0.07859       -4.46297
|  8> O          3.20757       -0.46611       -4.42026
|  9> O          1.07506       -0.05616       -3.26876
| 10> O          1.13166       -0.31996       -5.67903
| 11> H          0.05064        2.40112       -4.96303
| 12> H          1.06043        3.71210       -4.40203
| 13> H          0.56237        2.45684       -3.29327
| 14> *
| 15>
| 16> %MaxCore 64000
| 17>
| 18> %pal nprocs 4
| 19> end
| 20>
| 21> %scf
| 22>   MaxIter 150
| 23> end
| 24>
| 25>
| 26>                          ****END OF INPUT****

CARTESIAN COORDINATES (ANGSTROEM)
---------------------------------
  C      0.848880    2.667970   -4.302350
  C      2.093430    1.861040   -4.656840
  H      2.444810    2.041570   -5.674990
  H      2.901750    2.137860   -3.980340
  S      1.879640    0.078590   -4.462970
  O      3.207570   -0.466110   -4.420260
  O      1.075060   -0.056160   -3.268760
  O      1.131660   -0.319960   -5.679030
  H      0.050640    2.401120   -4.963030
  H      1.060430    3.712100   -4.402030
  H      0.562370    2.456840   -3.293270

 Total Charge           Charge          ....   -1
 Multiplicity           Mult            ....    1
 Number of Electrons    NEL             ....   58
 Basis Dimension        Dim             ....  113

ORBITAL ENERGIES
----------------

  NO   OCC          E(Eh)            E(eV)
   0   2.0000     -88.920473     -2419.6491
   1   2.0000     -18.958572      -515.8890
   2   2.0000     -18.956064      -515.8207
   3   2.0000     -18.939990      -515.3833
   4   2.0000     -10.105204      -274.9766
   5   2.0000     -10.100346      -274.8444
   6   2.0000      -7.980631      -217.1640
   7   2.0000      -5.950053      -161.9092
   8   2.0000      -5.949823      -161.9029
   9   2.0000      -5.949725      -161.9003
  10   2.0000      -0.987568       -26.8731
  11   2.0000      -0.845332       -23.0026
  12   2.0000      -0.816845       -22.2275
  13   2.0000      -0.695977       -18.9385
  14   2.0000      -0.565293       -15.3824
  15   2.0000      -0.432543       -11.7701
  16   2.0000      -0.375896       -10.2287
  17   2.0000      -0.367992       -10.0136
  18   2.0000      -0.327292        -8.9061
  19   2.0000      -0.308886        -8.4052
  20   2.0000      -0.303681        -8.2636
  21   2.0000      -0.281366        -7.6564
  22   2.0000      -0.265822        -7.2334
  23   2.0000      -0.189521        -5.1571
  24   2.0000      -0.188685        -5.1344
  25   2.0000      -0.155158        -4.2221
  26   2.0000      -0.145221        -3.9517
  27   2.0000      -0.133378        -3.6294
  28   2.0000      -0.099754        -2.7144
  29   0.0000       0.246870         6.7177
  30   0.0000       0.298272         8.1164
  31   0.0000       0.306074         8.3287
  32   0.0000       0.313816         8.5394
  33   0.0000       0.343222         9.3396

MULLIKEN ATOMIC CHARGES
-----------------------
   0 C :    0.045686
   1 C :   -0.084901
   2 H :   -0.007698
   3 H :   -0.018001
   4 S :    0.870268
   5 O :   -0.566129
   6 O :   -0.577425
   7 O :   -0.620986
   8 H :   -0.001614
   9 H :   -0.044172
  10 H :    0.004971
Sum of atomic charges:   -1.0000000

LOEWDIN ATOMIC CHARGES
----------------------
   0 C :   -0.072509
   1 C :   -0.187370
   2 H :    0.006052
   3 H :    0.001195
   4 S :    1.108463
   5 O :   -0.607911
   6 O :   -0.615813
   7 O :   -0.662142
   8 H :    0.015216
   9 H :   -0.001229
  10 H :    0.016048

  Mayer bond orders larger than 0.100000
B(  0-C ,  1-C ) :   1.0657 B(  0-C ,  8-H ) :   0.9677 B(  0-C ,  9-H ) :   0.9597
B(  0-C , 10-H ) :   0.9644 B(  1-C ,  2-H ) :   0.9458 B(  1-C ,  3-H ) :   0.9414
B(  1-C ,  4-S ) :   0.9013 B(  4-S ,  5-O ) :   1.6554 B(  4-S ,  6-O ) :   1.6266
B(  4-S ,  7-O ) :   1.5925

FINAL SINGLE POINT ENERGY      -702.606747060822

DIPOLE MOMENT
-------------
                                X             Y             Z
Electronic contribution:      1.62928      -7.83213       0.06677
Nuclear contribution   :     -1.55288       9.51857       0.00420
                        -----------------------------------------
Total Dipole Moment    :      0.07640       1.68644       0.07098
                        -----------------------------------------
Magnitude (a.u.)       :      1.68966
Magnitude (Debye)      :      4.29477

Rotational constants in cm-1:     0.163401     0.083833     0.082462
Rotational constants in MHz :  4898.624208  2513.264548  2472.149188

                             ****ORCA TERMINATED NORMALLY****
TOTAL RUN TIME: 0 days 0 hours 0 minutes 19 seconds 242 msec
