                         Program Version 5.0.0 -  RELEASE  -
|  1> !CAM-B3LYP RIJCOSX def2-SVP def2/J TightSCF
|  2> *xyz 1 1
|  3> C         -0.46129        2.23469       -4.98962
|  4> C          0.84888        2.66797       -4.30235
|  5> C         -0.42384        2.39877       -6.47432
|  6> N         -0.95947        3.49265       -7.00740
|  7> N          0.14558        1.48689       -7.20399
|  8> H          0.56537        0.69681       -6.72386
|  9> H          0.22068        1.58177       -8.20752
| 10> H         -1.40624        4.18151       -6.40326
| 11> H         -0.93421        3.68160       -7.99947
| 12> H         -1.28888        2.82674       -4.59500
| 13> H         -0.65170        1.18634       -4.75655
| 14> H          1.66208        2.08894       -4.68750
| 15> H          0.76716        2.51042       -3.24717
| 16> H          1.02677        3.70527       -4.49537
| 17> *
| 18>
| 19> %MaxCore 64000
| 20>
| 21> %pal nprocs 4
| 22> end
| 23>
| 24> %scf
| 25>   MaxIter 150
| 26> end
| 27>
| 28>
| 29>                          ****END OF INPUT****

CARTESIAN COORDINATES (ANGSTROEM)
---------------------------------
  C     -0.461290    2.234690   -4.989620
  C      0.848880    2.667970   -4.302350
  C     -0.423840    2.398770   -6.474320
  N     -0.959470    3.492650   -7.007400
  N      0.145580    1.486890   -7.203990
  H      0.565370    0.696810   -6.723860
  H      0.220680    1.581770   -8.207520
  H     -1.406240    4.181510   -6.403260
  H     -0.934210    3.681600   -7.999470
  H     -1.288880    2.826740   -4.595000
  H     -0.651700    1.186340   -4.756550
  H      1.662080    2.088940   -4.687500
  H      0.767160    2.510420   -3.247170
  H      1.026770    3.705270   -4.495370

 Total Charge           Charge          ....    1
 Multiplicity           Mult            ....    1
 Number of Electrons    NEL             ....   40
 Basis Dimension        Dim             ....  115

ORBITAL ENERGIES
----------------

  NO   OCC          E(Eh)            E(eV)
   0   2.0000     -14.652875      -398.7250
   1   2.0000     -14.648199      -398.5977
   2   2.0000     -10.583160      -287.9824
   3   2.0000     -10.456062      -284.5239
   4   2.0000     -10.414846      -283.4024
   5   2.0000      -1.279905       -34.8280
   6   2.0000      -1.181303       -32.1449
   7   2.0000      -1.044772       -28.4297
   8   2.0000      -0.932781       -25.3823
   9   2.0000      -0.888613       -24.1804
  10   2.0000      -0.850196       -23.1350
  11   2.0000      -0.821056       -22.3421
  12   2.0000      -0.770393       -20.9635
  13   2.0000      -0.720637       -19.6095
  14   2.0000      -0.692482       -18.8434
  15   2.0000      -0.683578       -18.6011
  16   2.0000      -0.610323       -16.6077
  17   2.0000      -0.600427       -16.3384
  18   2.0000      -0.593603       -16.1527
  19   2.0000      -0.555382       -15.1127
  20   0.0000      -0.152321        -4.1449
  21   0.0000      -0.102912        -2.8004
  22   0.0000      -0.056148        -1.5279
  23   0.0000      -0.055165        -1.5011
  24   0.0000      -0.027056        -0.7362

MULLIKEN ATOMIC CHARGES
-----------------------
   0 C :   -0.011862
   1 C :    0.032413
   2 C :   -0.086557
   3 N :    0.005501
   4 N :    0.054008
   5 H :    0.185458
   6 H :    0.175953
   7 H :    0.187135
   8 H :    0.171467
   9 H :    0.059153
  10 H :    0.073069
  11 H :    0.034416
  12 H :    0.077892
  13 H :    0.041956
Sum of atomic charges:    1.0000000

LOEWDIN ATOMIC CHARGES
----------------------
   0 C :   -0.033335
   1 C :   -0.019934
   2 C :    0.155762
   3 N :    0.084307
   4 N :    0.106505
   5 H :    0.124698
   6 H :    0.115821
   7 H :    0.123940
   8 H :    0.111026
   9 H :    0.053819
  10 H :    0.057917
  11 H :    0.031114
  12 H :    0.052660
  13 H :    0.035700

  Mayer bond orders larger than 0.100000
B(  0-C ,  1-C ) :   1.0724 B(  0-C ,  2-C ) :   1.0290 B(  0-C ,  9-H ) :   0.9255
B(  0-C , 10-H ) :   0.9258 B(  1-C , 11-H ) :   0.9726 B(  1-C , 12-H ) :   0.9651
B(  1-C , 13-H ) :   0.9703 B(  2-C ,  3-N ) :   1.5034 B(  2-C ,  4-N ) :   1.5388
B(  3-N ,  7-H ) :   0.9208 B(  3-N ,  8-H ) :   0.9310 B(  4-N ,  5-H ) :   0.9172
B(  4-N ,  6-H ) :   0.9268

FINAL SINGLE POINT ENERGY      -228.740270825847

DIPOLE MOMENT
-------------
                                X             Y             Z
Electronic contribution:     -1.56314      -0.26527      -3.93366
Nuclear contribution   :      1.33202       0.27544       2.83701
                        -----------------------------------------
Total Dipole Moment    :     -0.23112       0.01017      -1.09665
                        -----------------------------------------
Magnitude (a.u.)       :      1.12079
Magnitude (Debye)      :      2.84882

Rotational constants in cm-1:     0.258570     0.126296     0.098869
Rotational constants in MHz :  7751.748523  3786.267300  2964.011691

                             ****ORCA TERMINATED NORMALLY****
TOTAL RUN TIME: 0 days 0 hours 0 minutes 19 seconds 247 msec
