                         Program Version 5.0.0 -  RELEASE  -
|  1> !CAM-B3LYP RIJCOSX def2-SVP def2/J TightSCF
|  2> *xyz 0 1
|  3> C          0.84888        2.66797       -4.30235
|  4> C          2.09343        1.86104       -4.65684
|  5> H          2.44481        2.04157       -5.67499
|  6> H          2.90175        2.13786       -3.98034
|  7> S          1.87964        0.07859       -4.46297
|  8> F          3.20757       -0.46611       -4.42026
|  9> O          1.07506       -0.05616       -3.26876
| 10> O          1.13166       -0.31996       -5.67903
| 11> H          0.05064        2.40112       -4.96303
| 12> H          1.06043        3.71210       -4.40203
| 13> H          0.56237        2.45684       -3.29327
| 14> *
| 15>
| 16> %MaxCore 64000
| 17>
| 18> %pal nprocs 4
| 19> end
| 20>
| 21> %scf
| 22>   MaxIter 150
| 23> end
| 24>
| 25>
| 26>                          ****END OF INPUT****

CARTESIAN COORDINATES (ANGSTROEM)
---------------------------------
  C      0.848880    2.667970   -4.302350
  C      2.093430    1.861040   -4.656840
  H      2.444810    2.041570   -5.674990
  H      2.901750    2.137860   -3.980340
  S      1.879640    0.078590   -4.462970
  F      3.207570   -0.466110   -4.420260
  O      1.075060   -0.056160   -3.268760
  O      1.131660   -0.319960   -5.679030
  H      0.050640    2.401120   -4.963030
  H      1.060430    3.712100   -4.402030
  H      0.562370    2.456840   -3.293270

 Total Charge           Charge          ....    0
 Multiplicity           Mult            ....    1
 Number of Electrons    NEL             ....   58
 Basis Dimension        Dim             ....  113

ORBITAL ENERGIES
----------------

  NO   OCC          E(Eh)            E(eV)
   0   2.0000     -89.195550     -2427.1343
   1   2.0000     -24.881013      -677.0468
   2   2.0000     -19.208240      -522.6828
   3   2.0000     -19.193763      -522.2889
   4   2.0000     -10.313592      -280.6471
   5   2.0000     -10.274310      -279.5782
   6   2.0000      -8.258146      -224.7156
   7   2.0000      -6.231649      -169.5718
   8   2.0000      -6.224990      -169.3906
   9   2.0000      -6.223811      -169.3585
  10   2.0000      -1.458486       -39.6874
  11   2.0000      -1.179275       -32.0897
  12   2.0000      -1.070140       -29.1200
  13   2.0000      -0.895338       -24.3634
  14   2.0000      -0.808823       -22.0092
  15   2.0000      -0.747161       -20.3313
  16   2.0000      -0.661449       -17.9989
  17   2.0000      -0.661167       -17.9913
  18   2.0000      -0.619806       -16.8658
  19   2.0000      -0.561431       -15.2773
  20   2.0000      -0.547232       -14.8909
  21   2.0000      -0.500084       -13.6080
  22   2.0000      -0.493757       -13.4358
  23   2.0000      -0.471445       -12.8287
  24   2.0000      -0.450313       -12.2536
  25   2.0000      -0.442034       -12.0283
  26   2.0000      -0.388504       -10.5717
  27   2.0000      -0.372899       -10.1471
  28   2.0000      -0.358571        -9.7572
  29   0.0000       0.085542         2.3277
  30   0.0000       0.096378         2.6226
  31   0.0000       0.127434         3.4677
  32   0.0000       0.134089         3.6487
  33   0.0000       0.142651         3.8817

MULLIKEN ATOMIC CHARGES
-----------------------
   0 C :    0.028602
   1 C :   -0.123568
   2 H :    0.065721
   3 H :    0.046903
   4 S :    0.945185
   5 F :   -0.163793
   6 O :   -0.440840
   7 O :   -0.479878
   8 H :    0.044628
   9 H :    0.030925
  10 H :    0.046114
Sum of atomic charges:    0.0000000

LOEWDIN ATOMIC CHARGES
----------------------
   0 C :   -0.047566
   1 C :   -0.150942
   2 H :    0.036626
   3 H :    0.027437
   4 S :    1.164121
   5 F :   -0.112548
   6 O :   -0.488886
   7 O :   -0.531468
   8 H :    0.034938
   9 H :    0.034469
  10 H :    0.033820

  Mayer bond orders larger than 0.100000
B(  0-C ,  1-C ) :   1.0757 B(  0-C ,  8-H ) :   0.9730 B(  0-C ,  9-H ) :   0.9634
B(  0-C , 10-H ) :   0.9674 B(  1-C ,  2-H ) :   0.9370 B(  1-C ,  3-H ) :   0.9336
B(  1-C ,  4-S ) :   0.9277 B(  4-S ,  5-F ) :   1.0374 B(  4-S ,  6-O ) :   1.7778
B(  4-S ,  7-O ) :   1.7440

FINAL SINGLE POINT ENERGY      -727.107202856531

DIPOLE MOMENT
-------------
                                X             Y             Z
Electronic contribution:      4.20770      -9.38488       0.11216
Nuclear contribution   :     -3.08754      10.54185      -0.04092
                        -----------------------------------------
Total Dipole Moment    :      1.12016       1.15697       0.07124
                        -----------------------------------------
Magnitude (a.u.)       :      1.61196
Magnitude (Debye)      :      4.09727

Rotational constants in cm-1:     0.158925     0.081210     0.079022
Rotational constants in MHz :  4764.450166  2434.603461  2369.014434

                             ****ORCA TERMINATED NORMALLY****
TOTAL RUN TIME: 0 days 0 hours 0 minutes 19 seconds 28 msec
