                         Program Version 5.0.0 -  RELEASE  -
|  1> !CAM-B3LYP RIJCOSX def2-SVP def2/J TightSCF
|  2> *xyz 0 1
|  3> C         -0.46129        2.23469       -4.98962
|  4> C          0.84888        2.66797       -4.30235
|  5> C         -0.42384        2.39877       -6.47432
|  6> C         -0.95947        3.49265       -7.00740
|  7> N          0.14558        1.48689       -7.20399
|  8> H          0.56537        0.69681       -6.72386
|  9> H          0.22068        1.58177       -8.20752
| 10> H         -1.40624        4.18151       -6.40326
| 11> H         -0.93421        3.68160       -7.99947
| 12> H         -1.28888        2.82674       -4.59500
| 13> H         -0.65170        1.18634       -4.75655
| 14> H          1.66208        2.08894       -4.68750
| 15> H          0.76716        2.51042       -3.24717
| 16> H          1.02677        3.70527       -4.49537
| 17> *
| 18>
| 19> %MaxCore 64000
| 20>
| 21> %pal nprocs 4
| 22> end
| 23>
| 24> %scf
| 25>   MaxIter 150
| 26> end
| 27>
| 28>
| 29>                          ****END OF INPUT****

CARTESIAN COORDINATES (ANGSTROEM)
---------------------------------
  C     -0.461290    2.234690   -4.989620
  C      0.848880    2.667970   -4.302350
  C     -0.423840    2.398770   -6.474320
  C     -0.959470    3.492650   -7.007400
  N      0.145580    1.486890   -7.203990
  H      0.565370    0.696810   -6.723860
  H      0.220680    1.581770   -8.207520
  H     -1.406240    4.181510   -6.403260
  H     -0.934210    3.681600   -7.999470
  H     -1.288880    2.826740   -4.595000
  H     -0.651700    1.186340   -4.756550
  H      1.662080    2.088940   -4.687500
  H      0.767160    2.510420   -3.247170
  H      1.026770    3.705270   -4.495370

 Total Charge           Charge          ....    0
 Multiplicity           Mult            ....    1
 Number of Electrons    NEL             ....   40
 Basis Dimension        Dim             ....  115

ORBITAL ENERGIES
----------------

  NO   OCC          E(Eh)            E(eV)
   0   2.0000     -14.399626      -391.8337
   1   2.0000     -10.272355      -279.5250
   2   2.0000     -10.254245      -279.0322
   3   2.0000     -10.243887      -278.7503
   4   2.0000     -10.184337      -277.1299
   5   2.0000      -1.002953       -27.2917
   6   2.0000      -0.850073       -23.1317
   7   2.0000      -0.781514       -21.2661
   8   2.0000      -0.704666       -19.1749
   9   2.0000      -0.635503       -17.2929
  10   2.0000      -0.594574       -16.1792
  11   2.0000      -0.545842       -14.8531
  12   2.0000      -0.504089       -13.7170
  13   2.0000      -0.484726       -13.1901
  14   2.0000      -0.454804       -12.3759
  15   2.0000      -0.444181       -12.0868
  16   2.0000      -0.415213       -11.2985
  17   2.0000      -0.396395       -10.7865
  18   2.0000      -0.392623       -10.6838
  19   2.0000      -0.237041        -6.4502
  20   0.0000       0.087849         2.3905
  21   0.0000       0.114090         3.1046
  22   0.0000       0.138528         3.7696
  23   0.0000       0.146501         3.9865
  24   0.0000       0.160531         4.3683

MULLIKEN ATOMIC CHARGES
-----------------------
   0 C :    0.044742
   1 C :    0.050545
   2 C :   -0.145260
   3 C :   -0.041314
   4 N :   -0.030035
   5 H :    0.105545
   6 H :    0.114035
   7 H :   -0.046038
   8 H :   -0.063922
   9 H :    0.009036
  10 H :   -0.010998
  11 H :   -0.006265
  12 H :    0.009379
  13 H :    0.010549
Sum of atomic charges:   -0.0000000

LOEWDIN ATOMIC CHARGES
----------------------
   0 C :   -0.026560
   1 C :   -0.043607
   2 C :    0.005055
   3 C :   -0.185362
   4 N :    0.002183
   5 H :    0.071770
   6 H :    0.079482
   7 H :   -0.001646
   8 H :   -0.011025
   9 H :    0.033623
  10 H :    0.016522
  11 H :    0.014979
  12 H :    0.020726
  13 H :    0.023861

  Mayer bond orders larger than 0.100000
B(  0-C ,  1-C ) :   1.0929 B(  0-C ,  2-C ) :   1.0294 B(  0-C ,  9-H ) :   0.9352
B(  0-C , 10-H ) :   0.9311 B(  1-C , 11-H ) :   0.9700 B(  1-C , 12-H ) :   0.9695
B(  1-C , 13-H ) :   0.9702 B(  2-C ,  3-C ) :   1.8655 B(  2-C ,  4-N ) :   1.2861
B(  3-C ,  7-H ) :   0.9372 B(  3-C ,  8-H ) :   0.9495 B(  4-N ,  5-H ) :   0.9486
B(  4-N ,  6-H ) :   0.9471

FINAL SINGLE POINT ENERGY      -212.278306123917

DIPOLE MOMENT
-------------
                                X             Y             Z
Electronic contribution:     -0.68487      -1.23227      -2.60533
Nuclear contribution   :      1.14741       0.51394       2.60761
                        -----------------------------------------
Total Dipole Moment    :      0.46254      -0.71833       0.00228
                        -----------------------------------------
Magnitude (a.u.)       :      0.85437
Magnitude (Debye)      :      2.17164

Rotational constants in cm-1:     0.269157     0.129188     0.102123
Rotational constants in MHz :  8069.118715  3872.945231  3061.580645

                             ****ORCA TERMINATED NORMALLY****
TOTAL RUN TIME: 0 days 0 hours 0 minutes 23 seconds 471 msec
