                         Program Version 5.0.0 -  RELEASE  -
|  1> !CAM-B3LYP RIJCOSX def2-SVP def2/J TightSCF
|  2> *xyz 0 1
|  3> C          0.84888        2.66797       -4.30235
|  4> C          2.09343        1.86104       -4.65684
|  5> H          2.44481        2.04157       -5.67499
|  6> H          2.90175        2.13786       -3.98034
|  7> S          1.87964        0.07859       -4.46297
|  8> O          3.20757       -0.46611       -4.42026
|  9> F          1.07506       -0.05616       -3.26876
| 10> O          1.13166       -0.31996       -5.67903
| 11> H          0.05064        2.40112       -4.96303
| 12> H          1.06043        3.71210       -4.40203
| 13> H          0.56237        2.45684       -3.29327
| 14> *
| 15>
| 16> %MaxCore 64000
| 17>
| 18> %pal nprocs 4
| 19> end
| 20>
| 21> %scf
| 22>   MaxIter 150
| 23> end
| 24>
| 25>
| 26>                          ****END OF INPUT****

CARTESIAN COORDINATES (ANGSTROEM)
---------------------------------
  C      0.848880    2.667970   -4.302350
  C      2.093430    1.861040   -4.656840
  H      2.444810    2.041570   -5.674990
  H      2.901750    2.137860   -3.980340
  S      1.879640    0.078590   -4.462970
  O      3.207570   -0.466110   -4.420260
  F      1.075060   -0.056160   -3.268760
  O      1.131660   -0.319960   -5.679030
  H      0.050640    2.401120   -4.963030
  H      1.060430    3.712100   -4.402030
  H      0.562370    2.456840   -3.293270

 Total Charge           Charge          ....    0
 Multiplicity           Mult            ....    1
 Number of Electrons    NEL             ....   58
 Basis Dimension        Dim             ....  113

ORBITAL ENERGIES
----------------

  NO   OCC          E(Eh)            E(eV)
   0   2.0000     -89.194878     -2427.1160
   1   2.0000     -24.875886      -676.9073
   2   2.0000     -19.211669      -522.7761
   3   2.0000     -19.193941      -522.2937
   4   2.0000     -10.313321      -280.6397
   5   2.0000     -10.281894      -279.7846
   6   2.0000      -8.257437      -224.6963
   7   2.0000      -6.231048      -169.5554
   8   2.0000      -6.224257      -169.3707
   9   2.0000      -6.223096      -169.3391
  10   2.0000      -1.449663       -39.4473
  11   2.0000      -1.183273       -32.1985
  12   2.0000      -1.073409       -29.2090
  13   2.0000      -0.901100       -24.5202
  14   2.0000      -0.801996       -21.8234
  15   2.0000      -0.750369       -20.4186
  16   2.0000      -0.670189       -18.2368
  17   2.0000      -0.654268       -17.8035
  18   2.0000      -0.609381       -16.5821
  19   2.0000      -0.563305       -15.3283
  20   2.0000      -0.542243       -14.7552
  21   2.0000      -0.515006       -14.0140
  22   2.0000      -0.498477       -13.5643
  23   2.0000      -0.477353       -12.9894
  24   2.0000      -0.459482       -12.5032
  25   2.0000      -0.442999       -12.0546
  26   2.0000      -0.390010       -10.6127
  27   2.0000      -0.373760       -10.1705
  28   2.0000      -0.361633        -9.8405
  29   0.0000       0.072622         1.9761
  30   0.0000       0.109992         2.9930
  31   0.0000       0.126119         3.4319
  32   0.0000       0.136321         3.7095
  33   0.0000       0.143201         3.8967

MULLIKEN ATOMIC CHARGES
-----------------------
   0 C :    0.007559
   1 C :   -0.124090
   2 H :    0.089067
   3 H :    0.058512
   4 S :    0.945345
   5 O :   -0.424075
   6 F :   -0.176768
   7 O :   -0.480569
   8 H :    0.043463
   9 H :    0.036957
  10 H :    0.024599
Sum of atomic charges:    0.0000000

LOEWDIN ATOMIC CHARGES
----------------------
   0 C :   -0.063035
   1 C :   -0.146915
   2 H :    0.051721
   3 H :    0.032695
   4 S :    1.166457
   5 O :   -0.478039
   6 F :   -0.122216
   7 O :   -0.532627
   8 H :    0.031848
   9 H :    0.036535
  10 H :    0.023575

  Mayer bond orders larger than 0.100000
B(  0-C ,  1-C ) :   1.0532 B(  0-C ,  8-H ) :   0.9721 B(  0-C ,  9-H ) :   0.9633
B(  0-C , 10-H ) :   0.9733 B(  1-C ,  2-H ) :   0.9411 B(  1-C ,  3-H ) :   0.9386
B(  1-C ,  4-S ) :   0.9323 B(  4-S ,  5-O ) :   1.8030 B(  4-S ,  6-F ) :   1.0164
B(  4-S ,  7-O ) :   1.7443

FINAL SINGLE POINT ENERGY      -727.112013619093

DIPOLE MOMENT
-------------
                                X             Y             Z
Electronic contribution:      0.57032      -8.65956       2.05531
Nuclear contribution   :     -0.86540      10.11467      -1.24082
                        -----------------------------------------
Total Dipole Moment    :     -0.29508       1.45511       0.81450
                        -----------------------------------------
Magnitude (a.u.)       :      1.69346
Magnitude (Debye)      :      4.30444

Rotational constants in cm-1:     0.154065     0.083345     0.080357
Rotational constants in MHz :  4618.752213  2498.631937  2409.037217

                             ****ORCA TERMINATED NORMALLY****
TOTAL RUN TIME: 0 days 0 hours 0 minutes 18 seconds 206 msec
