                         Program Version 5.0.0 -  RELEASE  -
|  1> !CAM-B3LYP RIJCOSX def2-SVP def2/J TightSCF
|  2> *xyz 0 1
|  3> C         -0.46129        2.23469       -4.98962
|  4> C          0.84888        2.66797       -4.30235
|  5> C         -0.42384        2.39877       -6.47432
|  6> N         -0.95947        3.49265       -7.00740
|  7> C          0.14558        1.48689       -7.20399
|  8> H          0.56537        0.69681       -6.72386
|  9> H          0.22068        1.58177       -8.20752
| 10> H         -1.40624        4.18151       -6.40326
| 11> H         -0.93421        3.68160       -7.99947
| 12> H         -1.28888        2.82674       -4.59500
| 13> H         -0.65170        1.18634       -4.75655
| 14> H          1.66208        2.08894       -4.68750
| 15> H          0.76716        2.51042       -3.24717
| 16> H          1.02677        3.70527       -4.49537
| 17> *
| 18>
| 19> %MaxCore 64000
| 20>
| 21> %pal nprocs 4
| 22> end
| 23>
| 24> %scf
| 25>   MaxIter 150
| 26> end
| 27>
| 28>
| 29>                          ****END OF INPUT****

CARTESIAN COORDINATES (ANGSTROEM)
---------------------------------
  C     -0.461290    2.234690   -4.989620
  C      0.848880    2.667970   -4.302350
  C     -0.423840    2.398770   -6.474320
  N     -0.959470    3.492650   -7.007400
  C      0.145580    1.486890   -7.203990
  H      0.565370    0.696810   -6.723860
  H      0.220680    1.581770   -8.207520
  H     -1.406240    4.181510   -6.403260
  H     -0.934210    3.681600   -7.999470
  H     -1.288880    2.826740   -4.595000
  H     -0.651700    1.186340   -4.756550
  H      1.662080    2.088940   -4.687500
  H      0.767160    2.510420   -3.247170
  H      1.026770    3.705270   -4.495370

 Total Charge           Charge          ....    0
 Multiplicity           Mult            ....    1
 Number of Electrons    NEL             ....   40
 Basis Dimension        Dim             ....  115

ORBITAL ENERGIES
----------------

  NO   OCC          E(Eh)            E(eV)
   0   2.0000     -14.395325      -391.7167
   1   2.0000     -10.270131      -279.4645
   2   2.0000     -10.253974      -279.0248
   3   2.0000     -10.242311      -278.7074
   4   2.0000     -10.183606      -277.1100
   5   2.0000      -0.990031       -26.9401
   6   2.0000      -0.851267       -23.1642
   7   2.0000      -0.785466       -21.3736
   8   2.0000      -0.705720       -19.2036
   9   2.0000      -0.629427       -17.1276
  10   2.0000      -0.584281       -15.8991
  11   2.0000      -0.547966       -14.9109
  12   2.0000      -0.505486       -13.7550
  13   2.0000      -0.479777       -13.0554
  14   2.0000      -0.455386       -12.3917
  15   2.0000      -0.445432       -12.1208
  16   2.0000      -0.412599       -11.2274
  17   2.0000      -0.399179       -10.8622
  18   2.0000      -0.388351       -10.5676
  19   2.0000      -0.241496        -6.5714
  20   0.0000       0.090417         2.4604
  21   0.0000       0.114602         3.1185
  22   0.0000       0.139484         3.7956
  23   0.0000       0.144477         3.9314
  24   0.0000       0.163700         4.4545

MULLIKEN ATOMIC CHARGES
-----------------------
   0 C :    0.046765
   1 C :    0.049179
   2 C :   -0.113278
   3 N :   -0.077456
   4 C :   -0.023125
   5 H :   -0.047897
   6 H :   -0.062699
   7 H :    0.105458
   8 H :    0.108967
   9 H :   -0.018952
  10 H :    0.014798
  11 H :    0.010364
  12 H :    0.007141
  13 H :    0.000735
Sum of atomic charges:    0.0000000

LOEWDIN ATOMIC CHARGES
----------------------
   0 C :   -0.026678
   1 C :   -0.041229
   2 C :    0.010849
   3 N :   -0.018292
   4 C :   -0.171078
   5 H :   -0.000199
   6 H :   -0.007367
   7 H :    0.070149
   8 H :    0.074348
   9 H :    0.015462
  10 H :    0.033221
  11 H :    0.022700
  12 H :    0.019442
  13 H :    0.018670

  Mayer bond orders larger than 0.100000
B(  0-C ,  1-C ) :   1.0982 B(  0-C ,  2-C ) :   1.0160 B(  0-C ,  9-H ) :   0.9322
B(  0-C , 10-H ) :   0.9375 B(  1-C , 11-H ) :   0.9729 B(  1-C , 12-H ) :   0.9693
B(  1-C , 13-H ) :   0.9688 B(  2-C ,  3-N ) :   1.2509 B(  2-C ,  4-C ) :   1.9026
B(  3-N ,  7-H ) :   0.9516 B(  3-N ,  8-H ) :   0.9522 B(  4-C ,  5-H ) :   0.9289
B(  4-C ,  6-H ) :   0.9476

FINAL SINGLE POINT ENERGY      -212.278199329156

DIPOLE MOMENT
-------------
                                X             Y             Z
Electronic contribution:     -1.73736       0.64414      -2.41578
Nuclear contribution   :      1.40335       0.04939       2.56207
                        -----------------------------------------
Total Dipole Moment    :     -0.33401       0.69353       0.14630
                        -----------------------------------------
Magnitude (a.u.)       :      0.78355
Magnitude (Debye)      :      1.99162

Rotational constants in cm-1:     0.271383     0.128194     0.101873
Rotational constants in MHz :  8135.853259  3843.152748  3054.074278

                             ****ORCA TERMINATED NORMALLY****
TOTAL RUN TIME: 0 days 0 hours 0 minutes 19 seconds 328 msec
