                         Program Version 5.0.0 -  RELEASE  -
|  1> !CAM-B3LYP RIJCOSX def2-SVP def2/J TightSCF
|  2> *xyz 0 1
|  3> C          0.84888        2.66797       -4.30235
|  4> C          2.09343        1.86104       -4.65684
|  5> H          2.44481        2.04157       -5.67499
|  6> H          2.90175        2.13786       -3.98034
|  7> S          1.87964        0.07859       -4.46297
|  8> O          3.20757       -0.46611       -4.42026
|  9> O          1.07506       -0.05616       -3.26876
| 10> F          1.13166       -0.31996       -5.67903
| 11> H          0.05064        2.40112       -4.96303
| 12> H          1.06043        3.71210       -4.40203
| 13> H          0.56237        2.45684       -3.29327
| 14> *
| 15>
| 16> %MaxCore 64000
| 17>
| 18> %pal nprocs 4
| 19> end
| 20>
| 21> %scf
| 22>   MaxIter 150
| 23> end
| 24>
| 25>
| 26>                          ****END OF INPUT****

CARTESIAN COORDINATES (ANGSTROEM)
---------------------------------
  C      0.848880    2.667970   -4.302350
  C      2.093430    1.861040   -4.656840
  H      2.444810    2.041570   -5.674990
  H      2.901750    2.137860   -3.980340
  S      1.879640    0.078590   -4.462970
  O      3.207570   -0.466110   -4.420260
  O      1.075060   -0.056160   -3.268760
  F      1.131660   -0.319960   -5.679030
  H      0.050640    2.401120   -4.963030
  H      1.060430    3.712100   -4.402030
  H      0.562370    2.456840   -3.293270

 Total Charge           Charge          ....    0
 Multiplicity           Mult            ....    1
 Number of Electrons    NEL             ....   58
 Basis Dimension        Dim             ....  113

ORBITAL ENERGIES
----------------

  NO   OCC          E(Eh)            E(eV)
   0   2.0000     -89.194390     -2427.1027
   1   2.0000     -24.856364      -676.3761
   2   2.0000     -19.211910      -522.7827
   3   2.0000     -19.209158      -522.7078
   4   2.0000     -10.312597      -280.6200
   5   2.0000     -10.275957      -279.6230
   6   2.0000      -8.256741      -224.6774
   7   2.0000      -6.230074      -169.5289
   8   2.0000      -6.223863      -169.3599
   9   2.0000      -6.222628      -169.3263
  10   2.0000      -1.417942       -38.5842
  11   2.0000      -1.192481       -32.4491
  12   2.0000      -1.094575       -29.7849
  13   2.0000      -0.896973       -24.4079
  14   2.0000      -0.791255       -21.5311
  15   2.0000      -0.740849       -20.1595
  16   2.0000      -0.650159       -17.6917
  17   2.0000      -0.631735       -17.1904
  18   2.0000      -0.611769       -16.6471
  19   2.0000      -0.561401       -15.2765
  20   2.0000      -0.545679       -14.8487
  21   2.0000      -0.517917       -14.0932
  22   2.0000      -0.495541       -13.4844
  23   2.0000      -0.468795       -12.7566
  24   2.0000      -0.464430       -12.6378
  25   2.0000      -0.443613       -12.0713
  26   2.0000      -0.397402       -10.8139
  27   2.0000      -0.386572       -10.5192
  28   2.0000      -0.376868       -10.2551
  29   0.0000       0.078304         2.1308
  30   0.0000       0.106224         2.8905
  31   0.0000       0.129181         3.5152
  32   0.0000       0.136121         3.7040
  33   0.0000       0.141415         3.8481

MULLIKEN ATOMIC CHARGES
-----------------------
   0 C :    0.019660
   1 C :   -0.134141
   2 H :    0.059392
   3 H :    0.081006
   4 S :    0.955492
   5 O :   -0.429659
   6 O :   -0.445133
   7 F :   -0.212384
   8 H :    0.024468
   9 H :    0.030066
  10 H :    0.051233
Sum of atomic charges:    0.0000000

LOEWDIN ATOMIC CHARGES
----------------------
   0 C :   -0.059008
   1 C :   -0.152006
   2 H :    0.032755
   3 H :    0.048187
   4 S :    1.171462
   5 O :   -0.482002
   6 O :   -0.491726
   7 F :   -0.161523
   8 H :    0.025959
   9 H :    0.033638
  10 H :    0.034264

  Mayer bond orders larger than 0.100000
B(  0-C ,  1-C ) :   1.0573 B(  0-C ,  8-H ) :   0.9749 B(  0-C ,  9-H ) :   0.9619
B(  0-C , 10-H ) :   0.9679 B(  1-C ,  2-H ) :   0.9393 B(  1-C ,  3-H ) :   0.9408
B(  1-C ,  4-S ) :   0.9246 B(  4-S ,  5-O ) :   1.8074 B(  4-S ,  6-O ) :   1.7830
B(  4-S ,  7-F ) :   0.9806

FINAL SINGLE POINT ENERGY      -727.129249130792

DIPOLE MOMENT
-------------
                                X             Y             Z
Electronic contribution:      0.66106      -9.13938      -2.05570
Nuclear contribution   :     -0.92438      10.38956       1.27076
                        -----------------------------------------
Total Dipole Moment    :     -0.26332       1.25018      -0.78494
                        -----------------------------------------
Magnitude (a.u.)       :      1.49948
Magnitude (Debye)      :      3.81137

Rotational constants in cm-1:     0.154243     0.082247     0.080562
Rotational constants in MHz :  4624.087322  2465.703680  2415.175852

                             ****ORCA TERMINATED NORMALLY****
TOTAL RUN TIME: 0 days 0 hours 0 minutes 18 seconds 512 msec
