                         Program Version 5.0.0 -  RELEASE  -
|  1> !CAM-B3LYP RIJCOSX def2-TZVP def2/J TightSCF xyzfile
|  2>
|  3> *xyzfile 0 1 D2.xyz
|  4>
|  5> %MaxCore 64000
|  6>
|  7> %pal nprocs 18
|  8> end
|  9>
| 10> %scf
| 11>   MaxIter 150
| 12> end
| 13>
| 14>
| 15>                          ****END OF INPUT****

CARTESIAN COORDINATES (ANGSTROEM)
---------------------------------
  C     -0.461293    2.234686   -4.989619
  C      0.848883    2.667967   -4.302351
  C      2.093434    1.861037   -4.656845
  H      2.444814    2.041567   -5.674990
  H      2.901748    2.137864   -3.980338
  S      1.879644    0.078594   -4.462965
  C     -0.423841    2.398772   -6.474317
  N     -0.959467    3.492647   -7.007401
  C      0.145585    1.486891   -7.203987
  H      0.565371    0.696807   -6.723858
  H      0.220682    1.581768   -8.207520
  H     -1.406243    4.181507   -6.403261
  H     -0.934215    3.681601   -7.999468
  F      3.207574   -0.466111   -4.420259
  O      1.075064   -0.056160   -3.268758
  O      1.131661   -0.319960   -5.679031
  H      0.668432    2.559427   -3.232850
  H      1.034074    3.729426   -4.497081
  H     -1.288884    2.826737   -4.594997
  H     -0.651696    1.186343   -4.756552

 Total Charge           Charge          ....    0
 Multiplicity           Mult            ....    1
 Number of Electrons    NEL             ....   88
 Basis Dimension        Dim             ....  376

ORBITAL ENERGIES
----------------

  NO   OCC          E(Eh)            E(eV)
   0   2.0000     -89.180671     -2426.7294
   1   2.0000     -24.884573      -677.1437
   2   2.0000     -19.213323      -522.8211
   3   2.0000     -19.201677      -522.5042
   4   2.0000     -14.379373      -391.2826
   5   2.0000     -10.299088      -280.2524
   6   2.0000     -10.268556      -279.4216
   7   2.0000     -10.251514      -278.9579
   8   2.0000     -10.243624      -278.7432
   9   2.0000     -10.147118      -276.1171
  10   2.0000      -8.224762      -223.8071
  11   2.0000      -6.192479      -168.5059
  12   2.0000      -6.186117      -168.3328
  13   2.0000      -6.185830      -168.3250
  14   2.0000      -1.476500       -40.1776
  15   2.0000      -1.193062       -32.4649
  16   2.0000      -1.094426       -29.7808
  17   2.0000      -1.000366       -27.2213
  18   2.0000      -0.911274       -24.7970
  19   2.0000      -0.848811       -23.0973
  20   2.0000      -0.804464       -21.8906
  21   2.0000      -0.780105       -21.2277
  22   2.0000      -0.716072       -19.4853
  23   2.0000      -0.672744       -18.3063
  24   2.0000      -0.665234       -18.1019
  25   2.0000      -0.635776       -17.3004
  26   2.0000      -0.634337       -17.2612
  27   2.0000      -0.584102       -15.8942
  28   2.0000      -0.567507       -15.4426
  29   2.0000      -0.557309       -15.1651
  30   2.0000      -0.542744       -14.7688
  31   2.0000      -0.526240       -14.3197
  32   2.0000      -0.509343       -13.8599
  33   2.0000      -0.474280       -12.9058
  34   2.0000      -0.467037       -12.7087
  35   2.0000      -0.455180       -12.3861
  36   2.0000      -0.440425       -11.9846
  37   2.0000      -0.426727       -11.6118
  38   2.0000      -0.403892       -10.9905
  39   2.0000      -0.402278       -10.9465
  40   2.0000      -0.386169       -10.5082
  41   2.0000      -0.382082       -10.3970
  42   2.0000      -0.358763        -9.7624
  43   2.0000      -0.239978        -6.5301
  44   0.0000       0.059045         1.6067
  45   0.0000       0.070137         1.9085
  46   0.0000       0.084453         2.2981
  47   0.0000       0.090052         2.4505
  48   0.0000       0.108680         2.9573

MULLIKEN ATOMIC CHARGES
-----------------------
   0 C :   -0.322678
   1 C :   -0.171272
   2 C :   -0.319758
   3 H :    0.176774
   4 H :    0.146885
   5 S :    0.866927
   6 C :    0.254282
   7 N :   -0.466970
   8 C :   -0.472097
   9 H :    0.169691
  10 H :    0.081072
  11 H :    0.216431
  12 H :    0.223802
  13 F :   -0.098743
  14 O :   -0.408445
  15 O :   -0.422276
  16 H :    0.132866
  17 H :    0.123191
  18 H :    0.104008
  19 H :    0.186311
Sum of atomic charges:    0.0000000

LOEWDIN ATOMIC CHARGES
----------------------
   0 C :   -0.215163
   1 C :   -0.265903
   2 C :   -0.365617
   3 H :    0.145431
   4 H :    0.136508
   5 S :    0.552476
   6 C :   -0.374132
   7 N :   -0.020695
   8 C :   -0.263446
   9 H :    0.091364
  10 H :    0.095339
  11 H :    0.164750
  12 H :    0.167059
  13 F :    0.105233
  14 O :   -0.265868
  15 O :   -0.272940
  16 H :    0.145869
  17 H :    0.145283
  18 H :    0.138327
  19 H :    0.156126

  Mayer bond orders larger than 0.100000
B(  0-C ,  1-C ) :   0.9228 B(  0-C ,  6-C ) :   0.8901 B(  0-C , 18-H ) :   0.9897
B(  0-C , 19-H ) :   1.0042 B(  1-C ,  2-C ) :   0.9586 B(  1-C , 16-H ) :   0.9726
B(  1-C , 17-H ) :   0.9535 B(  2-C ,  3-H ) :   0.9345 B(  2-C ,  4-H ) :   0.9473
B(  2-C ,  5-S ) :   0.9360 B(  5-S , 13-F ) :   1.1551 B(  5-S , 14-O ) :   1.9095
B(  5-S , 15-O ) :   1.8090 B(  6-C ,  7-N ) :   1.1052 B(  6-C ,  8-C ) :   1.7382
B(  7-N , 11-H ) :   0.9308 B(  7-N , 12-H ) :   0.9275 B(  8-C ,  9-H ) :   0.9769
B(  8-C , 10-H ) :   0.9980

FINAL SINGLE POINT ENERGY      -899.718198874382

DIPOLE MOMENT
-------------
                                X             Y             Z
Electronic contribution:      9.28047     -12.43627       5.40989
Nuclear contribution   :     -8.42493      13.96425      -5.19491
                        -----------------------------------------
Total Dipole Moment    :      0.85554       1.52798       0.21499
                        -----------------------------------------
Magnitude (a.u.)       :      1.76434
Magnitude (Debye)      :      4.48459

Rotational constants in cm-1:     0.082815     0.024151     0.022015
Rotational constants in MHz :  2482.732265   724.035221   660.002136

                             ****ORCA TERMINATED NORMALLY****
TOTAL RUN TIME: 0 days 0 hours 0 minutes 50 seconds 989 msec
