                         Program Version 5.0.0 -  RELEASE  -
|  1> !CAM-B3LYP RIJCOSX def2-TZVP def2/J TightSCF xyzfile
|  2>
|  3> *xyzfile 0 1 D4.xyz
|  4>
|  5> %MaxCore 64000
|  6>
|  7> %pal nprocs 18
|  8> end
|  9>
| 10> %scf
| 11>   MaxIter 150
| 12> end
| 13>
| 14>
| 15>                          ****END OF INPUT****

CARTESIAN COORDINATES (ANGSTROEM)
---------------------------------
  C     -0.461293    2.234686   -4.989619
  C      0.848883    2.667967   -4.302351
  C      2.093434    1.861037   -4.656845
  H      2.444814    2.041567   -5.674990
  H      2.901748    2.137864   -3.980338
  S      1.879644    0.078594   -4.462965
  C     -0.423841    2.398772   -6.474317
  N     -0.959467    3.492647   -7.007401
  C      0.145585    1.486891   -7.203987
  H      0.565371    0.696807   -6.723858
  H      0.220682    1.581768   -8.207520
  H     -1.406243    4.181507   -6.403261
  H     -0.934215    3.681601   -7.999468
  O      3.207574   -0.466111   -4.420259
  F      1.075064   -0.056160   -3.268758
  O      1.131661   -0.319960   -5.679031
  H      0.668432    2.559427   -3.232850
  H      1.034074    3.729426   -4.497081
  H     -1.288884    2.826737   -4.594997
  H     -0.651696    1.186343   -4.756552

 Total Charge           Charge          ....    0
 Multiplicity           Mult            ....    1
 Number of Electrons    NEL             ....   88
 Basis Dimension        Dim             ....  376

ORBITAL ENERGIES
----------------

  NO   OCC          E(Eh)            E(eV)
   0   2.0000     -89.179574     -2426.6996
   1   2.0000     -24.879655      -677.0098
   2   2.0000     -19.215526      -522.8810
   3   2.0000     -19.200526      -522.4729
   4   2.0000     -14.383374      -391.3915
   5   2.0000     -10.298778      -280.2440
   6   2.0000     -10.274602      -279.5861
   7   2.0000     -10.256576      -279.0956
   8   2.0000     -10.254619      -279.0424
   9   2.0000     -10.151102      -276.2255
  10   2.0000      -8.223654      -223.7770
  11   2.0000      -6.191694      -168.4845
  12   2.0000      -6.184868      -168.2988
  13   2.0000      -6.184576      -168.2909
  14   2.0000      -1.468714       -39.9658
  15   2.0000      -1.195319       -32.5263
  16   2.0000      -1.096990       -29.8506
  17   2.0000      -1.004987       -27.3471
  18   2.0000      -0.918239       -24.9866
  19   2.0000      -0.848813       -23.0974
  20   2.0000      -0.803356       -21.8604
  21   2.0000      -0.784436       -21.3456
  22   2.0000      -0.718006       -19.5379
  23   2.0000      -0.676104       -18.3977
  24   2.0000      -0.667171       -18.1546
  25   2.0000      -0.640553       -17.4303
  26   2.0000      -0.627538       -17.0762
  27   2.0000      -0.587419       -15.9845
  28   2.0000      -0.568263       -15.4632
  29   2.0000      -0.551680       -15.0120
  30   2.0000      -0.547986       -14.9115
  31   2.0000      -0.532038       -14.4775
  32   2.0000      -0.512926       -13.9574
  33   2.0000      -0.481392       -13.0993
  34   2.0000      -0.469806       -12.7841
  35   2.0000      -0.462923       -12.5968
  36   2.0000      -0.446110       -12.1393
  37   2.0000      -0.440373       -11.9832
  38   2.0000      -0.408861       -11.1257
  39   2.0000      -0.399166       -10.8619
  40   2.0000      -0.392013       -10.6672
  41   2.0000      -0.388094       -10.5606
  42   2.0000      -0.356237        -9.6937
  43   2.0000      -0.244085        -6.6419
  44   0.0000       0.050391         1.3712
  45   0.0000       0.071002         1.9321
  46   0.0000       0.083475         2.2715
  47   0.0000       0.089069         2.4237
  48   0.0000       0.102172         2.7802

MULLIKEN ATOMIC CHARGES
-----------------------
   0 C :   -0.315465
   1 C :   -0.204663
   2 C :   -0.308884
   3 H :    0.188555
   4 H :    0.157073
   5 S :    0.870861
   6 C :    0.260317
   7 N :   -0.469078
   8 C :   -0.472032
   9 H :    0.178113
  10 H :    0.084409
  11 H :    0.215755
  12 H :    0.225979
  13 O :   -0.403056
  14 F :   -0.104764
  15 O :   -0.424991
  16 H :    0.126989
  17 H :    0.125313
  18 H :    0.107763
  19 H :    0.161806
Sum of atomic charges:   -0.0000000

LOEWDIN ATOMIC CHARGES
----------------------
   0 C :   -0.220735
   1 C :   -0.278300
   2 C :   -0.356997
   3 H :    0.154677
   4 H :    0.141172
   5 S :    0.555102
   6 C :   -0.375441
   7 N :   -0.020715
   8 C :   -0.256097
   9 H :    0.091879
  10 H :    0.096616
  11 H :    0.164655
  12 H :    0.168191
  13 O :   -0.258116
  14 F :    0.097465
  15 O :   -0.273441
  16 H :    0.138131
  17 H :    0.145592
  18 H :    0.138707
  19 H :    0.147655

  Mayer bond orders larger than 0.100000
B(  0-C ,  1-C ) :   0.8985 B(  0-C ,  6-C ) :   0.8822 B(  0-C , 18-H ) :   0.9896
B(  0-C , 19-H ) :   1.0153 B(  1-C ,  2-C ) :   0.9459 B(  1-C , 16-H ) :   0.9851
B(  1-C , 17-H ) :   0.9532 B(  2-C ,  3-H ) :   0.9360 B(  2-C ,  4-H ) :   0.9560
B(  2-C ,  5-S ) :   0.9313 B(  5-S , 13-O ) :   1.9824 B(  5-S , 14-F ) :   1.1220
B(  5-S , 15-O ) :   1.7945 B(  6-C ,  7-N ) :   1.1071 B(  6-C ,  8-C ) :   1.7436
B(  7-N , 11-H ) :   0.9306 B(  7-N , 12-H ) :   0.9271 B(  8-C ,  9-H ) :   0.9791
B(  8-C , 10-H ) :   0.9985

FINAL SINGLE POINT ENERGY      -899.721552128720

DIPOLE MOMENT
-------------
                                X             Y             Z
Electronic contribution:      5.55077     -11.67003       7.34443
Nuclear contribution   :     -6.09390      13.51614      -6.45360
                        -----------------------------------------
Total Dipole Moment    :     -0.54313       1.84611       0.89082
                        -----------------------------------------
Magnitude (a.u.)       :      2.12054
Magnitude (Debye)      :      5.38997

Rotational constants in cm-1:     0.081469     0.024519     0.022336
Rotational constants in MHz :  2442.393231   735.066768   669.628729

                             ****ORCA TERMINATED NORMALLY****
TOTAL RUN TIME: 0 days 0 hours 0 minutes 47 seconds 982 msec
