                         Program Version 5.0.0 -  RELEASE  -
|  1> !CAM-B3LYP RIJCOSX def2-TZVP def2/J TightSCF xyzfile
|  2>
|  3> *xyzfile 0 1 D5.xyz
|  4>
|  5> %MaxCore 64000
|  6>
|  7> %pal nprocs 18
|  8> end
|  9>
| 10> %scf
| 11>   MaxIter 150
| 12> end
| 13>
| 14>
| 15>                          ****END OF INPUT****

CARTESIAN COORDINATES (ANGSTROEM)
---------------------------------
  C     -0.461293    2.234686   -4.989619
  C      0.848883    2.667967   -4.302351
  C      2.093434    1.861037   -4.656845
  H      2.444814    2.041567   -5.674990
  H      2.901748    2.137864   -3.980338
  S      1.879644    0.078594   -4.462965
  C     -0.423841    2.398772   -6.474317
  C     -0.959467    3.492647   -7.007401
  N      0.145585    1.486891   -7.203987
  H      0.565371    0.696807   -6.723858
  H      0.220682    1.581768   -8.207520
  H     -1.406243    4.181507   -6.403261
  H     -0.934215    3.681601   -7.999468
  O      3.207574   -0.466111   -4.420259
  O      1.075064   -0.056160   -3.268758
  F      1.131661   -0.319960   -5.679031
  H      0.668432    2.559427   -3.232850
  H      1.034074    3.729426   -4.497081
  H     -1.288884    2.826737   -4.594997
  H     -0.651696    1.186343   -4.756552

 Total Charge           Charge          ....    0
 Multiplicity           Mult            ....    1
 Number of Electrons    NEL             ....   88
 Basis Dimension        Dim             ....  376

ORBITAL ENERGIES
----------------

  NO   OCC          E(Eh)            E(eV)
   0   2.0000     -89.188676     -2426.9473
   1   2.0000     -24.885433      -677.1671
   2   2.0000     -19.226800      -523.1878
   3   2.0000     -19.222962      -523.0834
   4   2.0000     -14.391786      -391.6204
   5   2.0000     -10.306975      -280.4670
   6   2.0000     -10.274032      -279.5706
   7   2.0000     -10.272102      -279.5181
   8   2.0000     -10.258222      -279.1404
   9   2.0000     -10.181962      -277.0653
  10   2.0000      -8.233070      -224.0332
  11   2.0000      -6.201369      -168.7478
  12   2.0000      -6.194232      -168.5536
  13   2.0000      -6.193702      -168.5392
  14   2.0000      -1.466872       -39.9156
  15   2.0000      -1.214457       -33.0471
  16   2.0000      -1.120407       -30.4878
  17   2.0000      -1.029668       -28.0187
  18   2.0000      -0.921180       -25.0666
  19   2.0000      -0.853890       -23.2355
  20   2.0000      -0.827890       -22.5280
  21   2.0000      -0.780092       -21.2274
  22   2.0000      -0.736269       -20.0349
  23   2.0000      -0.683179       -18.5903
  24   2.0000      -0.669641       -18.2218
  25   2.0000      -0.649506       -17.6739
  26   2.0000      -0.631065       -17.1721
  27   2.0000      -0.608060       -16.5461
  28   2.0000      -0.575928       -15.6718
  29   2.0000      -0.560677       -15.2568
  30   2.0000      -0.546552       -14.8724
  31   2.0000      -0.540400       -14.7050
  32   2.0000      -0.519132       -14.1263
  33   2.0000      -0.494211       -13.4482
  34   2.0000      -0.475182       -12.9304
  35   2.0000      -0.465873       -12.6771
  36   2.0000      -0.457462       -12.4482
  37   2.0000      -0.445702       -12.1282
  38   2.0000      -0.421214       -11.4618
  39   2.0000      -0.418173       -11.3791
  40   2.0000      -0.407894       -11.0993
  41   2.0000      -0.402250       -10.9458
  42   2.0000      -0.397207       -10.8085
  43   2.0000      -0.254575        -6.9273
  44   0.0000       0.049579         1.3491
  45   0.0000       0.074524         2.0279
  46   0.0000       0.076776         2.0892
  47   0.0000       0.083767         2.2794
  48   0.0000       0.094092         2.5604

MULLIKEN ATOMIC CHARGES
-----------------------
   0 C :   -0.350039
   1 C :   -0.146089
   2 C :   -0.346341
   3 H :    0.169264
   4 H :    0.172363
   5 S :    0.876899
   6 C :    0.233270
   7 C :   -0.433086
   8 N :   -0.437981
   9 H :    0.238787
  10 H :    0.225089
  11 H :    0.093920
  12 H :    0.095112
  13 O :   -0.404080
  14 O :   -0.406370
  15 F :   -0.142207
  16 H :    0.136027
  17 H :    0.129774
  18 H :    0.136542
  19 H :    0.159149
Sum of atomic charges:    0.0000000

LOEWDIN ATOMIC CHARGES
----------------------
   0 C :   -0.217603
   1 C :   -0.270696
   2 C :   -0.363246
   3 H :    0.140379
   4 H :    0.152096
   5 S :    0.555768
   6 C :   -0.375260
   7 C :   -0.278397
   8 N :    0.004657
   9 H :    0.141392
  10 H :    0.174084
  11 H :    0.105565
  12 H :    0.095449
  13 O :   -0.256036
  14 O :   -0.260710
  15 F :    0.063000
  16 H :    0.147165
  17 H :    0.147721
  18 H :    0.155723
  19 H :    0.138952

  Mayer bond orders larger than 0.100000
B(  0-C ,  1-C ) :   0.9118 B(  0-C ,  6-C ) :   0.8888 B(  0-C , 18-H ) :   0.9863
B(  0-C , 19-H ) :   1.0070 B(  1-C ,  2-C ) :   0.9408 B(  1-C , 16-H ) :   0.9691
B(  1-C , 17-H ) :   0.9496 B(  2-C ,  3-H ) :   0.9392 B(  2-C ,  4-H ) :   0.9488
B(  2-C ,  5-S ) :   0.9257 B(  5-S , 13-O ) :   1.9824 B(  5-S , 14-O ) :   1.9094
B(  5-S , 15-F ) :   1.0218 B(  6-C ,  7-C ) :   1.7280 B(  6-C ,  8-N ) :   1.1804
B(  7-C , 11-H ) :   0.9977 B(  7-C , 12-H ) :   0.9969 B(  8-N ,  9-H ) :   0.8989
B(  8-N , 10-H ) :   0.9237

FINAL SINGLE POINT ENERGY      -899.746089329606

DIPOLE MOMENT
-------------
                                X             Y             Z
Electronic contribution:      6.43256     -13.43271       3.14530
Nuclear contribution   :     -6.26130      13.99605      -3.80018
                        -----------------------------------------
Total Dipole Moment    :      0.17126       0.56334      -0.65488
                        -----------------------------------------
Magnitude (a.u.)       :      0.88066
Magnitude (Debye)      :      2.23845

Rotational constants in cm-1:     0.079895     0.025630     0.022948
Rotational constants in MHz :  2395.188639   768.373696   687.955250

                             ****ORCA TERMINATED NORMALLY****
TOTAL RUN TIME: 0 days 0 hours 0 minutes 48 seconds 907 msec
