                         Program Version 5.0.0 -  RELEASE  -
|  1> !CAM-B3LYP RIJCOSX def2-TZVP def2/J TightSCF xyzfile
|  2>
|  3> *xyzfile 0 1 D6.xyz
|  4>
|  5> %MaxCore 64000
|  6>
|  7> %pal nprocs 18
|  8> end
|  9>
| 10> %scf
| 11>   MaxIter 150
| 12> end
| 13>
| 14>
| 15>                          ****END OF INPUT****

CARTESIAN COORDINATES (ANGSTROEM)
---------------------------------
  C     -0.461293    2.234686   -4.989619
  C      0.848883    2.667967   -4.302351
  C      2.093434    1.861037   -4.656845
  H      2.444814    2.041567   -5.674990
  H      2.901748    2.137864   -3.980338
  S      1.879644    0.078594   -4.462965
  C     -0.423841    2.398772   -6.474317
  N     -0.959467    3.492647   -7.007401
  C      0.145585    1.486891   -7.203987
  H      0.565371    0.696807   -6.723858
  H      0.220682    1.581768   -8.207520
  H     -1.406243    4.181507   -6.403261
  H     -0.934215    3.681601   -7.999468
  O      3.207574   -0.466111   -4.420259
  O      1.075064   -0.056160   -3.268758
  F      1.131661   -0.319960   -5.679031
  H      0.668432    2.559427   -3.232850
  H      1.034074    3.729426   -4.497081
  H     -1.288884    2.826737   -4.594997
  H     -0.651696    1.186343   -4.756552

 Total Charge           Charge          ....    0
 Multiplicity           Mult            ....    1
 Number of Electrons    NEL             ....   88
 Basis Dimension        Dim             ....  376

ORBITAL ENERGIES
----------------

  NO   OCC          E(Eh)            E(eV)
   0   2.0000     -89.175305     -2426.5834
   1   2.0000     -24.859441      -676.4598
   2   2.0000     -19.213505      -522.8260
   3   2.0000     -19.210658      -522.7486
   4   2.0000     -14.396510      -391.7490
   5   2.0000     -10.296482      -280.1815
   6   2.0000     -10.272962      -279.5415
   7   2.0000     -10.270500      -279.4745
   8   2.0000     -10.258491      -279.1477
   9   2.0000     -10.174335      -276.8577
  10   2.0000      -8.219392      -223.6610
  11   2.0000      -6.187419      -168.3682
  12   2.0000      -6.180826      -168.1888
  13   2.0000      -6.180195      -168.1716
  14   2.0000      -1.442480       -39.2519
  15   2.0000      -1.200952       -32.6796
  16   2.0000      -1.108039       -30.1513
  17   2.0000      -1.017846       -27.6970
  18   2.0000      -0.916264       -24.9328
  19   2.0000      -0.853598       -23.2276
  20   2.0000      -0.805141       -21.9090
  21   2.0000      -0.791381       -21.5346
  22   2.0000      -0.716865       -19.5069
  23   2.0000      -0.677670       -18.4403
  24   2.0000      -0.646463       -17.5912
  25   2.0000      -0.632575       -17.2132
  26   2.0000      -0.622977       -16.9521
  27   2.0000      -0.603923       -16.4336
  28   2.0000      -0.571889       -15.5619
  29   2.0000      -0.559538       -15.2258
  30   2.0000      -0.541158       -14.7257
  31   2.0000      -0.527787       -14.3618
  32   2.0000      -0.518954       -14.1215
  33   2.0000      -0.481348       -13.0981
  34   2.0000      -0.472443       -12.8558
  35   2.0000      -0.462707       -12.5909
  36   2.0000      -0.448691       -12.2095
  37   2.0000      -0.441238       -12.0067
  38   2.0000      -0.414023       -11.2661
  39   2.0000      -0.407463       -11.0876
  40   2.0000      -0.403378       -10.9765
  41   2.0000      -0.392425       -10.6784
  42   2.0000      -0.389000       -10.5852
  43   2.0000      -0.261087        -7.1045
  44   0.0000       0.051527         1.4021
  45   0.0000       0.070757         1.9254
  46   0.0000       0.080096         2.1795
  47   0.0000       0.089444         2.4339
  48   0.0000       0.101114         2.7515

MULLIKEN ATOMIC CHARGES
-----------------------
   0 C :   -0.346594
   1 C :   -0.147228
   2 C :   -0.342740
   3 H :    0.177512
   4 H :    0.167062
   5 S :    0.875808
   6 C :    0.284537
   7 N :   -0.460265
   8 C :   -0.465726
   9 H :    0.115368
  10 H :    0.094044
  11 H :    0.223510
  12 H :    0.228168
  13 O :   -0.413291
  14 O :   -0.419002
  15 F :   -0.114145
  16 H :    0.138275
  17 H :    0.119654
  18 H :    0.112385
  19 H :    0.172669
Sum of atomic charges:   -0.0000000

LOEWDIN ATOMIC CHARGES
----------------------
   0 C :   -0.217062
   1 C :   -0.271567
   2 C :   -0.361145
   3 H :    0.142821
   4 H :    0.149667
   5 S :    0.558382
   6 C :   -0.366156
   7 N :   -0.010439
   8 C :   -0.276257
   9 H :    0.089839
  10 H :    0.099281
  11 H :    0.168885
  12 H :    0.169734
  13 O :   -0.262202
  14 O :   -0.269927
  15 F :    0.074046
  16 H :    0.147289
  17 H :    0.143372
  18 H :    0.141440
  19 H :    0.149998

  Mayer bond orders larger than 0.100000
B(  0-C ,  1-C ) :   0.9138 B(  0-C ,  6-C ) :   0.8800 B(  0-C , 18-H ) :   0.9899
B(  0-C , 19-H ) :   1.0120 B(  1-C ,  2-C ) :   0.9408 B(  1-C , 16-H ) :   0.9717
B(  1-C , 17-H ) :   0.9509 B(  2-C ,  3-H ) :   0.9423 B(  2-C ,  4-H ) :   0.9515
B(  2-C ,  5-S ) :   0.9250 B(  5-S , 13-O ) :   1.9751 B(  5-S , 14-O ) :   1.8954
B(  5-S , 15-F ) :   1.0669 B(  6-C ,  7-N ) :   1.1314 B(  6-C ,  8-C ) :   1.7157
B(  7-N , 11-H ) :   0.9276 B(  7-N , 12-H ) :   0.9260 B(  8-C ,  9-H ) :   1.0146
B(  8-C , 10-H ) :   0.9945

FINAL SINGLE POINT ENERGY      -899.738541591920

DIPOLE MOMENT
-------------
                                X             Y             Z
Electronic contribution:      5.53638     -11.94719       3.16382
Nuclear contribution   :     -6.15577      13.80449      -3.81895
                        -----------------------------------------
Total Dipole Moment    :     -0.61938       1.85730      -0.65513
                        -----------------------------------------
Magnitude (a.u.)       :      2.06456
Magnitude (Debye)      :      5.24770

Rotational constants in cm-1:     0.081431     0.024887     0.022470
Rotational constants in MHz :  2441.231544   746.086417   673.646914

                             ****ORCA TERMINATED NORMALLY****
TOTAL RUN TIME: 0 days 0 hours 0 minutes 43 seconds 301 msec
