                         Program Version 5.0.0 -  RELEASE  -
|  1> !M062X D3Zero RIJCOSX def2-SVPD def2/J TightSCF
|  2> *xyz -1 1
|  3> C         -0.47749        0.60819       -4.10105
|  4> C          0.18467       -0.50664       -4.91676
|  5> O         -0.15869       -1.70109       -4.65798
|  6> O          1.05594       -0.17441       -5.74037
|  7> H         -0.09903        1.55672       -4.42038
|  8> H         -0.25931        0.46828       -3.06292
|  9> H         -1.53664        0.57826       -4.25010
| 10> *
| 11>
| 12> %MaxCore 64000
| 13>
| 14> %pal nprocs 4
| 15> end
| 16>
| 17> %scf
| 18>   MaxIter 150
| 19> end
| 20>
| 21>
| 22>                          ****END OF INPUT****

CARTESIAN COORDINATES (ANGSTROEM)
---------------------------------
  C     -0.477490    0.608190   -4.101050
  C      0.184670   -0.506640   -4.916760
  O     -0.158690   -1.701090   -4.657980
  O      1.055940   -0.174410   -5.740370
  H     -0.099030    1.556720   -4.420380
  H     -0.259310    0.468280   -3.062920
  H     -1.536640    0.578260   -4.250100

 Total Charge           Charge          ....   -1
 Multiplicity           Mult            ....    1
 Number of Electrons    NEL             ....   32
 Basis Dimension        Dim             ....  110

ORBITAL ENERGIES
----------------

  NO   OCC          E(Eh)            E(eV)
   0   2.0000     -19.370968      -527.1108
   1   2.0000     -19.365101      -526.9512
   2   2.0000     -10.436912      -284.0028
   3   2.0000     -10.362201      -281.9698
   4   2.0000      -0.925699       -25.1895
   5   2.0000      -0.823807       -22.4169
   6   2.0000      -0.629168       -17.1205
   7   2.0000      -0.379596       -10.3293
   8   2.0000      -0.328497        -8.9388
   9   2.0000      -0.315594        -8.5877
  10   2.0000      -0.303302        -8.2533
  11   2.0000      -0.256282        -6.9738
  12   2.0000      -0.235671        -6.4129
  13   2.0000      -0.108790        -2.9603
  14   2.0000      -0.107506        -2.9254
  15   2.0000      -0.098446        -2.6789
  16   0.0000       0.191052         5.1988
  17   0.0000       0.222771         6.0619
  18   0.0000       0.251312         6.8386
  19   0.0000       0.259164         7.0522
  20   0.0000       0.283691         7.7196

MULLIKEN ATOMIC CHARGES
-----------------------
   0 C :    0.473120
   1 C :    0.131868
   2 O :   -0.742016
   3 O :   -0.678276
   4 H :   -0.078286
   5 H :   -0.053757
   6 H :   -0.052652
Sum of atomic charges:   -1.0000000

LOEWDIN ATOMIC CHARGES
----------------------
   0 C :    0.144458
   1 C :   -0.322326
   2 O :   -0.365390
   3 O :   -0.341568
   4 H :   -0.042975
   5 H :   -0.035215
   6 H :   -0.036984

  Mayer bond orders larger than 0.100000
B(  0-C ,  1-C ) :   1.1900 B(  0-C ,  4-H ) :   0.8731 B(  0-C ,  5-H ) :   0.8245
B(  0-C ,  6-H ) :   0.8163 B(  1-C ,  2-O ) :   1.4111 B(  1-C ,  3-O ) :   1.4495
B(  1-C ,  4-H ) :   0.2490 B(  1-C ,  5-H ) :   0.1602 B(  1-C ,  6-H ) :   0.1685

Dispersion correction           -0.000017500
FINAL SINGLE POINT ENERGY      -228.267631578981

DIPOLE MOMENT
-------------
                                X             Y             Z
Electronic contribution:      1.59481      -2.56635      -1.93236
Nuclear contribution   :     -2.19461       3.67480       2.63888
                        -----------------------------------------
Total Dipole Moment    :     -0.59980       1.10845       0.70652
                        -----------------------------------------
Magnitude (a.u.)       :      1.44485
Magnitude (Debye)      :      3.67252

Rotational constants in cm-1:     0.393152     0.332423     0.186264
Rotational constants in MHz : 11786.395082  9965.786704  5584.045355

                             ****ORCA TERMINATED NORMALLY****
TOTAL RUN TIME: 0 days 0 hours 0 minutes 8 seconds 577 msec
