                         Program Version 5.0.0 -  RELEASE  -
|  1> !M062X D3Zero RIJCOSX def2-SVPD def2/J TightSCF
|  2> *xyz 1 1
|  3> C          2.48645       -2.67712       -2.56345
|  4> C          3.03764       -2.36672       -3.92351
|  5> N          2.28036       -2.45441       -4.96769
|  6> N          4.32174       -2.01793       -4.01664
|  7> H          4.87994       -1.91167       -3.17382
|  8> H          4.71015       -1.67088       -4.88356
|  9> H          1.27042       -2.41265       -4.86614
| 10> H          2.58183       -2.05528       -5.84688
| 11> H          1.45238       -2.93848       -2.64882
| 12> H          2.58636       -1.81799       -1.93352
| 13> H          3.02742       -3.49632       -2.13781
| 14> *
| 15>
| 16> %MaxCore 64000
| 17>
| 18> %pal nprocs 4
| 19> end
| 20>
| 21> %scf
| 22>   MaxIter 150
| 23> end
| 24>
| 25>
| 26>                          ****END OF INPUT****

CARTESIAN COORDINATES (ANGSTROEM)
---------------------------------
  C      2.486450   -2.677120   -2.563450
  C      3.037640   -2.366720   -3.923510
  N      2.280360   -2.454410   -4.967690
  N      4.321740   -2.017930   -4.016640
  H      4.879940   -1.911670   -3.173820
  H      4.710150   -1.670880   -4.883560
  H      1.270420   -2.412650   -4.866140
  H      2.581830   -2.055280   -5.846880
  H      1.452380   -2.938480   -2.648820
  H      2.586360   -1.817990   -1.933520
  H      3.027420   -3.496320   -2.137810

 Total Charge           Charge          ....    1
 Multiplicity           Mult            ....    1
 Number of Electrons    NEL             ....   32
 Basis Dimension        Dim             ....  136

ORBITAL ENERGIES
----------------

  NO   OCC          E(Eh)            E(eV)
   0   2.0000     -15.019329      -408.6967
   1   2.0000     -15.013515      -408.5385
   2   2.0000     -10.890686      -296.3506
   3   2.0000     -10.751094      -292.5522
   4   2.0000      -1.316192       -35.8154
   5   2.0000      -1.211147       -32.9570
   6   2.0000      -1.044815       -28.4308
   7   2.0000      -0.928464       -25.2648
   8   2.0000      -0.858867       -23.3710
   9   2.0000      -0.845487       -23.0069
  10   2.0000      -0.778233       -21.1768
  11   2.0000      -0.737274       -20.0622
  12   2.0000      -0.681624       -18.5479
  13   2.0000      -0.669266       -18.2117
  14   2.0000      -0.646975       -17.6051
  15   2.0000      -0.565899       -15.3989
  16   0.0000      -0.181595        -4.9414
  17   0.0000      -0.140917        -3.8345
  18   0.0000      -0.097551        -2.6545
  19   0.0000      -0.096090        -2.6147
  20   0.0000      -0.070205        -1.9104

MULLIKEN ATOMIC CHARGES
-----------------------
   0 C :    0.535776
   1 C :    0.331752
   2 N :    0.058093
   3 N :    0.025051
   4 H :    0.020469
   5 H :   -0.121914
   6 H :    0.032957
   7 H :   -0.075892
   8 H :    0.073720
   9 H :    0.056077
  10 H :    0.063912
Sum of atomic charges:    1.0000000

LOEWDIN ATOMIC CHARGES
----------------------
   0 C :    0.237769
   1 C :   -0.060782
   2 N :    0.273103
   3 N :    0.271849
   4 H :    0.058345
   5 H :    0.046236
   6 H :    0.062697
   7 H :    0.053943
   8 H :    0.008405
   9 H :    0.023345
  10 H :    0.025089

  Mayer bond orders larger than 0.100000
B(  0-C ,  1-C ) :   1.3206 B(  0-C ,  8-H ) :   0.7718 B(  0-C ,  9-H ) :   0.7965
B(  0-C , 10-H ) :   0.7467 B(  1-C ,  2-N ) :   1.0817 B(  1-C ,  3-N ) :   1.0781
B(  1-C ,  5-H ) :  -0.1600 B(  1-C ,  7-H ) :  -0.1391 B(  1-C ,  8-H ) :   0.2625
B(  1-C ,  9-H ) :   0.1636 B(  1-C , 10-H ) :   0.1882 B(  2-N ,  3-N ) :   0.1404
B(  2-N ,  6-H ) :   1.0644 B(  2-N ,  7-H ) :   1.1984 B(  3-N ,  4-H ) :   1.1212
B(  3-N ,  5-H ) :   1.2512 B(  4-H ,  5-H ) :  -0.1667 B(  6-H ,  7-H ) :  -0.1350

Dispersion correction           -0.000088773
FINAL SINGLE POINT ENERGY      -189.487229253633

DIPOLE MOMENT
-------------
                                X             Y             Z
Electronic contribution:      0.78525       0.25155      -1.96673
Nuclear contribution   :     -0.70516       0.22720       1.57908
                        -----------------------------------------
Total Dipole Moment    :      0.08009       0.47876      -0.38765
                        -----------------------------------------
Magnitude (a.u.)       :      0.62121
Magnitude (Debye)      :      1.57898

Rotational constants in cm-1:     0.330529     0.301293     0.162717
Rotational constants in MHz :  9909.000224  9032.538169  4878.126278

                             ****ORCA TERMINATED NORMALLY****
TOTAL RUN TIME: 0 days 0 hours 0 minutes 11 seconds 693 msec
