                         Program Version 5.0.0 -  RELEASE  -
|  1> !M062X D3Zero RIJCOSX def2-SVPD def2/J TightSCF
|  2> *xyz 0 1
|  3> C         -0.47749        0.60819       -4.10105
|  4> C          0.18467       -0.50664       -4.91676
|  5> F         -0.15869       -1.70109       -4.65798
|  6> O          1.05594       -0.17441       -5.74037
|  7> H         -0.09903        1.55672       -4.42038
|  8> H         -0.25931        0.46828       -3.06292
|  9> H         -1.53664        0.57826       -4.25010
| 10> *
| 11>
| 12> %MaxCore 64000
| 13>
| 14> %pal nprocs 4
| 15> end
| 16>
| 17> %scf
| 18>   MaxIter 150
| 19> end
| 20>
| 21>
| 22>                          ****END OF INPUT****

CARTESIAN COORDINATES (ANGSTROEM)
---------------------------------
  C     -0.477490    0.608190   -4.101050
  C      0.184670   -0.506640   -4.916760
  F     -0.158690   -1.701090   -4.657980
  O      1.055940   -0.174410   -5.740370
  H     -0.099030    1.556720   -4.420380
  H     -0.259310    0.468280   -3.062920
  H     -1.536640    0.578260   -4.250100

 Total Charge           Charge          ....    0
 Multiplicity           Mult            ....    1
 Number of Electrons    NEL             ....   32
 Basis Dimension        Dim             ....  110

ORBITAL ENERGIES
----------------

  NO   OCC          E(Eh)            E(eV)
   0   2.0000     -25.327314      -689.1913
   1   2.0000     -19.653636      -534.8026
   2   2.0000     -10.743863      -292.3554
   3   2.0000     -10.580280      -287.9041
   4   2.0000      -1.438613       -39.1467
   5   2.0000      -1.154438       -31.4139
   6   2.0000      -0.864029       -23.5114
   7   2.0000      -0.751954       -20.4617
   8   2.0000      -0.641796       -17.4642
   9   2.0000      -0.637900       -17.3582
  10   2.0000      -0.590367       -16.0647
  11   2.0000      -0.516865       -14.0646
  12   2.0000      -0.505733       -13.7617
  13   2.0000      -0.485478       -13.2105
  14   2.0000      -0.432864       -11.7788
  15   2.0000      -0.377078       -10.2608
  16   0.0000       0.015364         0.4181
  17   0.0000       0.027242         0.7413
  18   0.0000       0.065726         1.7885
  19   0.0000       0.096507         2.6261
  20   0.0000       0.103388         2.8133

MULLIKEN ATOMIC CHARGES
-----------------------
   0 C :    0.344192
   1 C :    0.473623
   2 F :   -0.411303
   3 O :   -0.487766
   4 H :   -0.021642
   5 H :    0.052645
   6 H :    0.050251
Sum of atomic charges:   -0.0000000

LOEWDIN ATOMIC CHARGES
----------------------
   0 C :    0.218009
   1 C :   -0.012608
   2 F :   -0.062381
   3 O :   -0.141481
   4 H :    0.000129
   5 H :    0.000186
   6 H :   -0.001854

  Mayer bond orders larger than 0.100000
B(  0-C ,  1-C ) :   1.2388 B(  0-C ,  4-H ) :   0.9043 B(  0-C ,  5-H ) :   0.8193
B(  0-C ,  6-H ) :   0.8155 B(  1-C ,  2-F ) :   0.6960 B(  1-C ,  3-O ) :   1.8116
B(  1-C ,  4-H ) :   0.2046 B(  1-C ,  5-H ) :   0.1195 B(  1-C ,  6-H ) :   0.1239

Dispersion correction           -0.000021278
FINAL SINGLE POINT ENERGY      -252.804060996846

DIPOLE MOMENT
-------------
                                X             Y             Z
Electronic contribution:      1.08360      -4.64345      -1.61534
Nuclear contribution   :     -1.87439       4.97468       2.43802
                        -----------------------------------------
Total Dipole Moment    :     -0.79079       0.33123       0.82268
                        -----------------------------------------
Magnitude (a.u.)       :      1.18822
Magnitude (Debye)      :      3.02022

Rotational constants in cm-1:     0.370842     0.317886     0.176700
Rotational constants in MHz : 11117.569466  9529.969862  5297.328364

                             ****ORCA TERMINATED NORMALLY****
TOTAL RUN TIME: 0 days 0 hours 0 minutes 8 seconds 424 msec
