                         Program Version 5.0.0 -  RELEASE  -
|  1> !M062X D3Zero RIJCOSX def2-SVPD def2/J TightSCF
|  2> *xyz 0 1
|  3> C          2.48645       -2.67712       -2.56345
|  4> C          3.03764       -2.36672       -3.92351
|  5> C          2.28036       -2.45441       -4.96769
|  6> N          4.32174       -2.01793       -4.01664
|  7> H          4.87994       -1.91167       -3.17382
|  8> H          4.71015       -1.67088       -4.88356
|  9> H          1.27042       -2.41265       -4.86614
| 10> H          2.58183       -2.05528       -5.84688
| 11> H          1.45238       -2.93848       -2.64882
| 12> H          2.58636       -1.81799       -1.93352
| 13> H          3.02742       -3.49632       -2.13781
| 14> *
| 15>
| 16> %MaxCore 64000
| 17>
| 18> %pal nprocs 4
| 19> end
| 20>
| 21> %scf
| 22>   MaxIter 150
| 23> end
| 24>
| 25>
| 26>                          ****END OF INPUT****

CARTESIAN COORDINATES (ANGSTROEM)
---------------------------------
  C      2.486450   -2.677120   -2.563450
  C      3.037640   -2.366720   -3.923510
  C      2.280360   -2.454410   -4.967690
  N      4.321740   -2.017930   -4.016640
  H      4.879940   -1.911670   -3.173820
  H      4.710150   -1.670880   -4.883560
  H      1.270420   -2.412650   -4.866140
  H      2.581830   -2.055280   -5.846880
  H      1.452380   -2.938480   -2.648820
  H      2.586360   -1.817990   -1.933520
  H      3.027420   -3.496320   -2.137810

 Total Charge           Charge          ....    0
 Multiplicity           Mult            ....    1
 Number of Electrons    NEL             ....   32
 Basis Dimension        Dim             ....  136

ORBITAL ENERGIES
----------------

  NO   OCC          E(Eh)            E(eV)
   0   2.0000     -14.762775      -401.7155
   1   2.0000     -10.574775      -287.7543
   2   2.0000     -10.541205      -286.8408
   3   2.0000     -10.482153      -285.2339
   4   2.0000      -1.022234       -27.8164
   5   2.0000      -0.849403       -23.1134
   6   2.0000      -0.778118       -21.1737
   7   2.0000      -0.647308       -17.6142
   8   2.0000      -0.596832       -16.2406
   9   2.0000      -0.547248       -14.8914
  10   2.0000      -0.502472       -13.6730
  11   2.0000      -0.461665       -12.5625
  12   2.0000      -0.459111       -12.4930
  13   2.0000      -0.410287       -11.1645
  14   2.0000      -0.400420       -10.8960
  15   2.0000      -0.251829        -6.8526
  16   0.0000       0.038316         1.0426
  17   0.0000       0.072318         1.9679
  18   0.0000       0.076964         2.0943
  19   0.0000       0.081947         2.2299
  20   0.0000       0.113345         3.0843

MULLIKEN ATOMIC CHARGES
-----------------------
   0 C :    0.781969
   1 C :   -0.514298
   2 C :    0.349152
   3 N :    0.111840
   4 H :   -0.158664
   5 H :   -0.161625
   6 H :   -0.082582
   7 H :   -0.355490
   8 H :    0.059958
   9 H :   -0.032660
  10 H :    0.002399
Sum of atomic charges:    0.0000000

LOEWDIN ATOMIC CHARGES
----------------------
   0 C :    0.166322
   1 C :   -0.293663
   2 C :    0.158464
   3 N :    0.155947
   4 H :    0.002136
   5 H :    0.004816
   6 H :   -0.076839
   7 H :   -0.082915
   8 H :   -0.012708
   9 H :   -0.011265
  10 H :   -0.010295

  Mayer bond orders larger than 0.100000
B(  0-C ,  1-C ) :   1.3509 B(  0-C ,  8-H ) :   0.7827 B(  0-C ,  9-H ) :   0.6145
B(  0-C , 10-H ) :   0.7052 B(  1-C ,  2-C ) :   2.0193 B(  1-C ,  3-N ) :   1.0833
B(  1-C ,  7-H ) :   0.2314 B(  1-C ,  8-H ) :   0.2394 B(  1-C ,  9-H ) :   0.3459
B(  1-C , 10-H ) :   0.2408 B(  2-C ,  3-N ) :   0.2522 B(  2-C ,  6-H ) :   0.8442
B(  2-C ,  7-H ) :   0.7001 B(  3-N ,  4-H ) :   1.1948 B(  3-N ,  5-H ) :   1.1933
B(  4-H ,  5-H ) :  -0.1512 B(  6-H ,  7-H ) :   0.1817

Dispersion correction           -0.000087630
FINAL SINGLE POINT ENERGY      -173.035932466677

DIPOLE MOMENT
-------------
                                X             Y             Z
Electronic contribution:      1.42569       0.17985      -0.91345
Nuclear contribution   :     -0.87498       0.20680       1.33581
                        -----------------------------------------
Total Dipole Moment    :      0.55071       0.38665       0.42236
                        -----------------------------------------
Magnitude (a.u.)       :      0.79446
Magnitude (Debye)      :      2.01936

Rotational constants in cm-1:     0.351941     0.304186     0.168624
Rotational constants in MHz : 10550.928440  9119.266441  5055.221775

                             ****ORCA TERMINATED NORMALLY****
TOTAL RUN TIME: 0 days 0 hours 0 minutes 12 seconds 372 msec
