                         Program Version 5.0.0 -  RELEASE  -
|  1> !M062X D3Zero RIJCOSX def2-SVPD def2/J TightSCF
|  2> *xyz 0 1
|  3> C         -0.47749        0.60819       -4.10105
|  4> C          0.18467       -0.50664       -4.91676
|  5> O         -0.15869       -1.70109       -4.65798
|  6> F          1.05594       -0.17441       -5.74037
|  7> H         -0.09903        1.55672       -4.42038
|  8> H         -0.25931        0.46828       -3.06292
|  9> H         -1.53664        0.57826       -4.25010
| 10> *
| 11>
| 12> %MaxCore 64000
| 13>
| 14> %pal nprocs 4
| 15> end
| 16>
| 17> %scf
| 18>   MaxIter 150
| 19> end
| 20>
| 21>
| 22>                          ****END OF INPUT****

CARTESIAN COORDINATES (ANGSTROEM)
---------------------------------
  C     -0.477490    0.608190   -4.101050
  C      0.184670   -0.506640   -4.916760
  O     -0.158690   -1.701090   -4.657980
  F      1.055940   -0.174410   -5.740370
  H     -0.099030    1.556720   -4.420380
  H     -0.259310    0.468280   -3.062920
  H     -1.536640    0.578260   -4.250100

 Total Charge           Charge          ....    0
 Multiplicity           Mult            ....    1
 Number of Electrons    NEL             ....   32
 Basis Dimension        Dim             ....  110

ORBITAL ENERGIES
----------------

  NO   OCC          E(Eh)            E(eV)
   0   2.0000     -25.336532      -689.4421
   1   2.0000     -19.649457      -534.6889
   2   2.0000     -10.746391      -292.4242
   3   2.0000     -10.580773      -287.9175
   4   2.0000      -1.458233       -39.6805
   5   2.0000      -1.137508       -30.9532
   6   2.0000      -0.865728       -23.5577
   7   2.0000      -0.763095       -20.7649
   8   2.0000      -0.652836       -17.7646
   9   2.0000      -0.648637       -17.6503
  10   2.0000      -0.588448       -16.0125
  11   2.0000      -0.517794       -14.0899
  12   2.0000      -0.504108       -13.7175
  13   2.0000      -0.481121       -13.0920
  14   2.0000      -0.420471       -11.4416
  15   2.0000      -0.373896       -10.1742
  16   0.0000       0.009060         0.2465
  17   0.0000       0.026492         0.7209
  18   0.0000       0.065291         1.7767
  19   0.0000       0.099162         2.6983
  20   0.0000       0.102335         2.7847

MULLIKEN ATOMIC CHARGES
-----------------------
   0 C :    0.327432
   1 C :    0.469180
   2 O :   -0.540018
   3 F :   -0.362693
   4 H :    0.001258
   5 H :    0.054082
   6 H :    0.050759
Sum of atomic charges:    0.0000000

LOEWDIN ATOMIC CHARGES
----------------------
   0 C :    0.218302
   1 C :   -0.011977
   2 O :   -0.158842
   3 F :   -0.045762
   4 H :   -0.012259
   5 H :    0.005751
   6 H :    0.004787

  Mayer bond orders larger than 0.100000
B(  0-C ,  1-C ) :   1.2604 B(  0-C ,  4-H ) :   0.8906 B(  0-C ,  5-H ) :   0.8233
B(  0-C ,  6-H ) :   0.8162 B(  1-C ,  2-O ) :   1.7637 B(  1-C ,  3-F ) :   0.7599
B(  1-C ,  4-H ) :   0.1525 B(  1-C ,  5-H ) :   0.1307 B(  1-C ,  6-H ) :   0.1409

Dispersion correction           -0.000021251
FINAL SINGLE POINT ENERGY      -252.796226308679

DIPOLE MOMENT
-------------
                                X             Y             Z
Electronic contribution:      3.05174      -2.17011      -3.36922
Nuclear contribution   :     -3.12947       3.39716       3.55645
                        -----------------------------------------
Total Dipole Moment    :     -0.07773       1.22705       0.18723
                        -----------------------------------------
Magnitude (a.u.)       :      1.24369
Magnitude (Debye)      :      3.16120

Rotational constants in cm-1:     0.366922     0.321471     0.176896
Rotational constants in MHz : 11000.056350  9637.461211  5303.212706

                             ****ORCA TERMINATED NORMALLY****
TOTAL RUN TIME: 0 days 0 hours 0 minutes 8 seconds 460 msec
