                         Program Version 5.0.0 -  RELEASE  -
|  1> !M062X D3Zero RIJCOSX def2-SVPD def2/J TightSCF
|  2> *xyz 0 1
|  3> C          2.48645       -2.67712       -2.56345
|  4> C          3.03764       -2.36672       -3.92351
|  5> N          2.28036       -2.45441       -4.96769
|  6> C          4.32174       -2.01793       -4.01664
|  7> H          4.87994       -1.91167       -3.17382
|  8> H          4.71015       -1.67088       -4.88356
|  9> H          1.27042       -2.41265       -4.86614
| 10> H          2.58183       -2.05528       -5.84688
| 11> H          1.45238       -2.93848       -2.64882
| 12> H          2.58636       -1.81799       -1.93352
| 13> H          3.02742       -3.49632       -2.13781
| 14> *
| 15>
| 16> %MaxCore 64000
| 17>
| 18> %pal nprocs 4
| 19> end
| 20>
| 21> %scf
| 22>   MaxIter 150
| 23> end
| 24>
| 25>
| 26>                          ****END OF INPUT****

CARTESIAN COORDINATES (ANGSTROEM)
---------------------------------
  C      2.486450   -2.677120   -2.563450
  C      3.037640   -2.366720   -3.923510
  N      2.280360   -2.454410   -4.967690
  C      4.321740   -2.017930   -4.016640
  H      4.879940   -1.911670   -3.173820
  H      4.710150   -1.670880   -4.883560
  H      1.270420   -2.412650   -4.866140
  H      2.581830   -2.055280   -5.846880
  H      1.452380   -2.938480   -2.648820
  H      2.586360   -1.817990   -1.933520
  H      3.027420   -3.496320   -2.137810

 Total Charge           Charge          ....    0
 Multiplicity           Mult            ....    1
 Number of Electrons    NEL             ....   32
 Basis Dimension        Dim             ....  136

ORBITAL ENERGIES
----------------

  NO   OCC          E(Eh)            E(eV)
   0   2.0000     -14.766753      -401.8238
   1   2.0000     -10.574494      -287.7466
   2   2.0000     -10.541473      -286.8481
   3   2.0000     -10.481801      -285.2243
   4   2.0000      -1.038554       -28.2605
   5   2.0000      -0.845507       -23.0074
   6   2.0000      -0.770475       -20.9657
   7   2.0000      -0.656868       -17.8743
   8   2.0000      -0.597402       -16.2561
   9   2.0000      -0.544452       -14.8153
  10   2.0000      -0.501535       -13.6475
  11   2.0000      -0.461262       -12.5516
  12   2.0000      -0.456174       -12.4131
  13   2.0000      -0.414876       -11.2894
  14   2.0000      -0.409962       -11.1556
  15   2.0000      -0.240774        -6.5518
  16   0.0000       0.038135         1.0377
  17   0.0000       0.070115         1.9079
  18   0.0000       0.075854         2.0641
  19   0.0000       0.078187         2.1276
  20   0.0000       0.108203         2.9444

MULLIKEN ATOMIC CHARGES
-----------------------
   0 C :    0.803533
   1 C :   -0.417644
   2 N :    0.092692
   3 C :    0.336112
   4 H :   -0.221112
   5 H :   -0.401245
   6 H :   -0.065601
   7 H :   -0.099388
   8 H :   -0.088628
   9 H :    0.029026
  10 H :    0.032255
Sum of atomic charges:   -0.0000000

LOEWDIN ATOMIC CHARGES
----------------------
   0 C :    0.168610
   1 C :   -0.296044
   2 N :    0.150192
   3 C :    0.168854
   4 H :   -0.081057
   5 H :   -0.092582
   6 H :    0.006159
   7 H :    0.012586
   8 H :   -0.026031
   9 H :   -0.005777
  10 H :   -0.004908

  Mayer bond orders larger than 0.100000
B(  0-C ,  1-C ) :   1.1080 B(  0-C ,  8-H ) :   0.7021 B(  0-C ,  9-H ) :   0.7542
B(  0-C , 10-H ) :   0.7159 B(  1-C ,  2-N ) :   1.0173 B(  1-C ,  3-C ) :   1.8000
B(  1-C ,  4-H ) :   0.1133 B(  1-C ,  5-H ) :   0.1328 B(  1-C ,  8-H ) :   0.3280
B(  1-C ,  9-H ) :   0.1837 B(  1-C , 10-H ) :   0.2025 B(  2-N ,  3-C ) :   0.2260
B(  2-N ,  6-H ) :   1.0474 B(  2-N ,  7-H ) :   1.1345 B(  3-C ,  4-H ) :   0.8619
B(  3-C ,  5-H ) :   0.8619 B(  6-H ,  7-H ) :  -0.1212

Dispersion correction           -0.000087617
FINAL SINGLE POINT ENERGY      -173.036010706413

DIPOLE MOMENT
-------------
                                X             Y             Z
Electronic contribution:     -0.37290      -0.12879      -1.73079
Nuclear contribution   :     -0.41717       0.30469       1.54910
                        -----------------------------------------
Total Dipole Moment    :     -0.79007       0.17590      -0.18169
                        -----------------------------------------
Magnitude (a.u.)       :      0.82956
Magnitude (Debye)      :      2.10857

Rotational constants in cm-1:     0.351587     0.304754     0.168726
Rotational constants in MHz : 10540.302868  9136.286689  5058.281984

                             ****ORCA TERMINATED NORMALLY****
TOTAL RUN TIME: 0 days 0 hours 0 minutes 12 seconds 294 msec
