                         Program Version 5.0.0 -  RELEASE  -
|  1> !M062X D3Zero RIJCOSX def2-SVPD def2/J TightSCF xyzfile
|  2>
|  3> *xyzfile 0 1 D1.xyz
|  4>
|  5> %MaxCore 64000
|  6>
|  7> %pal nprocs 4
|  8> end
|  9>
| 10> %scf
| 11>   MaxIter 150
| 12> end
| 13>
| 14>
| 15>                          ****END OF INPUT****

CARTESIAN COORDINATES (ANGSTROEM)
---------------------------------
  C      2.486452   -2.677121   -2.563447
  C     -0.870963    0.248043   -2.662804
  C     -0.477492    0.608191   -4.101052
  H      0.206773    1.458299   -4.118748
  H     -1.368442    0.929419   -4.647855
  C      0.184673   -0.506640   -4.916760
  C      3.037640   -2.366715   -3.923509
  C      2.280360   -2.454408   -4.967692
  N      4.321736   -2.017932   -4.016641
  H      4.879940   -1.911668   -3.173823
  H      4.710148   -1.670882   -4.883561
  H      1.270423   -2.412650   -4.866143
  H      2.581829   -2.055282   -5.846878
  F     -0.158685   -1.701088   -4.657981
  O      1.055938   -0.174410   -5.740373
  C      2.497991   -1.469464   -1.610303
  C      1.582841   -0.321986   -2.042619
  H      2.193083   -1.833912   -0.625420
  H      3.523356   -1.103982   -1.490392
  C      0.100160   -0.673551   -1.915815
  H      1.822311   -0.040361   -3.072834
  H      1.813180    0.557019   -1.433266
  H     -0.063284   -1.679120   -2.301112
  H     -0.168820   -0.691680   -0.853831
  H     -1.001048    1.181040   -2.104071
  H     -1.844645   -0.246592   -2.663281
  H      1.472592   -3.051527   -2.694366
  H      3.083201   -3.490638   -2.141472

 Total Charge           Charge          ....    0
 Multiplicity           Mult            ....    1
 Number of Electrons    NEL             ....   94
 Basis Dimension        Dim             ....  374

ORBITAL ENERGIES
----------------

  NO   OCC          E(Eh)            E(eV)
   0   2.0000     -25.326646      -689.1731
   1   2.0000     -19.647774      -534.6431
   2   2.0000     -14.751158      -401.3994
   3   2.0000     -10.737376      -292.1789
   4   2.0000     -10.580490      -287.9098
   5   2.0000     -10.565646      -287.5058
   6   2.0000     -10.557448      -287.2828
   7   2.0000     -10.553542      -287.1765
   8   2.0000     -10.550626      -287.0971
   9   2.0000     -10.549262      -287.0600
  10   2.0000     -10.544038      -286.9179
  11   2.0000     -10.461783      -284.6796
  12   2.0000      -1.443232       -39.2723
  13   2.0000      -1.150283       -31.3008
  14   2.0000      -1.011312       -27.5192
  15   2.0000      -0.920490       -25.0478
  16   2.0000      -0.883531       -24.0421
  17   2.0000      -0.832105       -22.6427
  18   2.0000      -0.809868       -22.0376
  19   2.0000      -0.765198       -20.8221
  20   2.0000      -0.745786       -20.2939
  21   2.0000      -0.700322       -19.0567
  22   2.0000      -0.661530       -18.0012
  23   2.0000      -0.658880       -17.9290
  24   2.0000      -0.640171       -17.4199
  25   2.0000      -0.617958       -16.8155
  26   2.0000      -0.584748       -15.9118
  27   2.0000      -0.575216       -15.6524
  28   2.0000      -0.553058       -15.0495
  29   2.0000      -0.544021       -14.8036
  30   2.0000      -0.528791       -14.3891
  31   2.0000      -0.512582       -13.9481
  32   2.0000      -0.500835       -13.6284
  33   2.0000      -0.486116       -13.2279
  34   2.0000      -0.471073       -12.8185
  35   2.0000      -0.455844       -12.4041
  36   2.0000      -0.442782       -12.0487
  37   2.0000      -0.439005       -11.9459
  38   2.0000      -0.423808       -11.5324
  39   2.0000      -0.416598       -11.3362
  40   2.0000      -0.403257       -10.9732
  41   2.0000      -0.398659       -10.8480
  42   2.0000      -0.380954       -10.3663
  43   2.0000      -0.375962       -10.2304
  44   2.0000      -0.370785       -10.0896
  45   2.0000      -0.362020        -9.8511
  46   2.0000      -0.236894        -6.4462
  47   0.0000       0.012610         0.3431
  48   0.0000       0.029754         0.8096
  49   0.0000       0.042461         1.1554
  50   0.0000       0.051467         1.4005
  51   0.0000       0.055191         1.5018

MULLIKEN ATOMIC CHARGES
-----------------------
   0 C :    0.281650
   1 C :    0.531035
   2 C :    0.236884
   3 H :    0.222426
   4 H :   -0.282477
   5 C :    0.529286
   6 C :   -0.188648
   7 C :    1.171738
   8 N :    0.121426
   9 H :   -0.085210
  10 H :   -0.167913
  11 H :   -0.570725
  12 H :   -0.364889
  13 F :   -0.616742
  14 O :   -0.523081
  15 C :    0.347486
  16 C :    0.266777
  17 H :   -0.116953
  18 H :   -0.101621
  19 C :    0.049874
  20 H :   -0.151650
  21 H :   -0.219666
  22 H :   -0.035517
  23 H :   -0.206487
  24 H :   -0.114870
  25 H :    0.035243
  26 H :    0.145380
  27 H :   -0.192756
Sum of atomic charges:   -0.0000000

LOEWDIN ATOMIC CHARGES
----------------------
   0 C :    0.023680
   1 C :   -0.017104
   2 C :    0.062066
   3 H :    0.038266
   4 H :    0.039053
   5 C :    0.018789
   6 C :   -0.244215
   7 C :    0.185955
   8 N :    0.170489
   9 H :   -0.006441
  10 H :    0.007247
  11 H :   -0.136141
  12 H :   -0.068355
  13 F :   -0.072032
  14 O :   -0.123635
  15 C :   -0.019246
  16 C :   -0.011857
  17 H :    0.021907
  18 H :    0.011282
  19 C :   -0.025898
  20 H :    0.007725
  21 H :    0.026893
  22 H :   -0.005000
  23 H :    0.028800
  24 H :    0.025737
  25 H :    0.024045
  26 H :    0.011167
  27 H :    0.026821

  Mayer bond orders larger than 0.100000
B(  0-C ,  6-C ) :   1.1766 B(  0-C ,  7-C ) :   0.1277 B(  0-C ,  8-N ) :   0.1206
B(  0-C , 15-C ) :   1.1083 B(  0-C , 16-C ) :   0.1099 B(  0-C , 17-H ) :   0.1826
B(  0-C , 18-H ) :   0.2064 B(  0-C , 26-H ) :   0.7107 B(  0-C , 27-H ) :   0.8801
B(  1-C ,  2-C ) :   1.1480 B(  1-C , 19-C ) :   1.2991 B(  1-C , 24-H ) :   0.7843
B(  1-C , 25-H ) :   0.6774 B(  2-C ,  3-H ) :   0.7798 B(  2-C ,  4-H ) :   0.7787
B(  2-C ,  5-C ) :   1.1850 B(  2-C , 24-H ) :   0.1129 B(  3-H ,  4-H ) :  -0.1026
B(  3-H ,  5-C ) :   0.2121 B(  4-H ,  5-C ) :   0.2919 B(  5-C , 11-H ) :   0.1105
B(  5-C , 13-F ) :   0.5333 B(  5-C , 14-O ) :   1.7358 B(  6-C ,  7-C ) :   1.9950
B(  6-C ,  8-N ) :   1.0218 B(  6-C , 11-H ) :   0.2584 B(  6-C , 12-H ) :   0.5339
B(  6-C , 15-C ) :   0.1403 B(  6-C , 20-H ) :   0.1001 B(  6-C , 26-H ) :   0.1774
B(  6-C , 27-H ) :   0.2107 B(  7-C ,  8-N ) :   0.4295 B(  7-C , 11-H ) :   0.2994
B(  7-C , 26-H ) :  -0.1490 B(  8-N ,  9-H ) :   1.1558 B(  8-N , 10-H ) :   1.1855
B(  9-H , 10-H ) :  -0.1782 B( 11-H , 12-H ) :   0.2372 B( 11-H , 13-F ) :   0.2447
B( 15-C , 16-C ) :   1.1890 B( 15-C , 17-H ) :   0.8801 B( 15-C , 18-H ) :   0.6938
B( 15-C , 20-H ) :   0.1533 B( 15-C , 26-H ) :   0.1534 B( 16-C , 18-H ) :   0.2162
B( 16-C , 19-C ) :   1.1689 B( 16-C , 20-H ) :   0.8524 B( 16-C , 21-H ) :   0.8732
B( 16-C , 23-H ) :   0.2298 B( 16-C , 26-H ) :  -0.1156 B( 17-H , 18-H ) :  -0.1280
B( 19-C , 20-H ) :   0.1239 B( 19-C , 21-H ) :   0.1022 B( 19-C , 22-H ) :   0.8583
B( 19-C , 23-H ) :   0.8366 B( 19-C , 24-H ) :   0.1990 B( 19-C , 25-H ) :   0.2180
B( 21-H , 27-H ) :   0.1009 B( 22-H , 26-H ) :   0.1493 B( 24-H , 25-H ) :  -0.1387

Dispersion correction           -0.001380164
FINAL SINGLE POINT ENERGY      -581.692968294436

DIPOLE MOMENT
-------------
                                X             Y             Z
Electronic contribution:     -3.70279      -1.62263     -10.22385
Nuclear contribution   :      3.32973       2.37270      11.37738
                        -----------------------------------------
Total Dipole Moment    :     -0.37307       0.75007       1.15353
                        -----------------------------------------
Magnitude (a.u.)       :      1.42563
Magnitude (Debye)      :      3.62367

Rotational constants in cm-1:     0.040902     0.025807     0.019036
Rotational constants in MHz :  1226.202138   773.670450   570.681201

                             ****ORCA TERMINATED NORMALLY****
TOTAL RUN TIME: 0 days 0 hours 2 minutes 10 seconds 137 msec
