                         Program Version 5.0.0 -  RELEASE  -
|  1> !B3LYP D3BJ RIJCOSX def2-TZVPD def2/J TightSCF
|  2> *xyz 1 1
|  3> C          3.48828        1.60092       -1.52204
|  4> C          4.34297        1.31342       -2.75683
|  5> N          2.81029        0.42878       -1.01420
|  6> H          2.71455        2.33145       -1.76030
|  7> H          4.09099        2.06315       -0.73338
|  8> C          3.29098       -0.41802       -0.12908
|  9> N          2.51754       -1.43202        0.23936
| 10> N          4.53549       -0.28441        0.39580
| 11> H          5.04363        0.57189        0.22290
| 12> H          4.72335       -0.73327        1.28180
| 13> H          1.93479        0.10230       -1.40379
| 14> H          1.67464       -1.50562       -0.31610
| 15> H          2.92850       -2.21850        0.72549
| 16> H          3.73575        0.86277       -3.51385
| 17> H          5.13754        0.64699       -2.49333
| 18> H          4.75374        2.22930       -3.12740
| 19> *
| 20> %MaxCore 64000
| 21>
| 22> %pal nprocs 4
| 23> end
| 24>
| 25> %scf
| 26>   MaxIter 150
| 27> end
| 28>
| 29>
| 30>                          ****END OF INPUT****

CARTESIAN COORDINATES (ANGSTROEM)
---------------------------------
  C      3.488280    1.600920   -1.522040
  C      4.342970    1.313420   -2.756830
  N      2.810290    0.428780   -1.014200
  H      2.714550    2.331450   -1.760300
  H      4.090990    2.063150   -0.733380
  C      3.290980   -0.418020   -0.129080
  N      2.517540   -1.432020    0.239360
  N      4.535490   -0.284410    0.395800
  H      5.043630    0.571890    0.222900
  H      4.723350   -0.733270    1.281800
  H      1.934790    0.102300   -1.403790
  H      1.674640   -1.505620   -0.316100
  H      2.928500   -2.218500    0.725490
  H      3.735750    0.862770   -3.513850
  H      5.137540    0.646990   -2.493330
  H      4.753740    2.229300   -3.127400

 Total Charge           Charge          ....    1
 Multiplicity           Mult            ....    1
 Number of Electrons    NEL             ....   48
 Basis Dimension        Dim             ....  312

ORBITAL ENERGIES
----------------

  NO   OCC          E(Eh)            E(eV)
   0   2.0000     -14.543653      -395.7529
   1   2.0000     -14.538424      -395.6106
   2   2.0000     -14.536611      -395.5613
   3   2.0000     -10.501876      -285.7706
   4   2.0000     -10.379368      -282.4370
   5   2.0000     -10.304082      -280.3883
   6   2.0000      -1.219103       -33.1735
   7   2.0000      -1.107811       -30.1451
   8   2.0000      -1.094315       -29.7778
   9   2.0000      -0.933877       -25.4121
  10   2.0000      -0.839233       -22.8367
  11   2.0000      -0.808280       -21.9944
  12   2.0000      -0.780115       -21.2280
  13   2.0000      -0.748004       -20.3542
  14   2.0000      -0.693178       -18.8623
  15   2.0000      -0.684319       -18.6213
  16   2.0000      -0.654383       -17.8067
  17   2.0000      -0.638553       -17.3759
  18   2.0000      -0.603930       -16.4338
  19   2.0000      -0.561953       -15.2915
  20   2.0000      -0.534662       -14.5489
  21   2.0000      -0.515594       -14.0300
  22   2.0000      -0.479643       -13.0518
  23   2.0000      -0.453605       -12.3432
  24   0.0000      -0.174842        -4.7577
  25   0.0000      -0.166419        -4.5285
  26   0.0000      -0.136207        -3.7064
  27   0.0000      -0.122671        -3.3381
  28   0.0000      -0.096209        -2.6180

MULLIKEN ATOMIC CHARGES
-----------------------
   0 C :   -0.497143
   1 C :   -0.986366
   2 N :   -0.065240
   3 H :    0.274888
   4 H :    0.335786
   5 C :    0.588977
   6 N :   -0.282470
   7 N :   -0.318064
   8 H :    0.207088
   9 H :    0.213913
  10 H :    0.169602
  11 H :    0.190914
  12 H :    0.214592
  13 H :    0.305096
  14 H :    0.318779
  15 H :    0.329645
Sum of atomic charges:    1.0000000

LOEWDIN ATOMIC CHARGES
----------------------
   0 C :   -0.200768
   1 C :   -0.050418
   2 N :    0.087022
   3 H :    0.130290
   4 H :    0.119921
   5 C :   -0.431104
   6 N :    0.207596
   7 N :    0.217246
   8 H :    0.115353
   9 H :    0.133987
  10 H :    0.167273
  11 H :    0.134751
  12 H :    0.142024
  13 H :    0.076444
  14 H :    0.069225
  15 H :    0.081159

  Mayer bond orders larger than 0.100000
B(  0-C ,  1-C ) :   0.6863 B(  0-C ,  2-N ) :   0.8711 B(  0-C ,  3-H ) :   0.9621
B(  0-C ,  4-H ) :   0.8567 B(  1-C , 13-H ) :   0.9753 B(  1-C , 14-H ) :   0.9530
B(  1-C , 15-H ) :   0.9614 B(  2-N ,  5-C ) :   1.2505 B(  2-N , 10-H ) :   0.9952
B(  5-C ,  6-N ) :   1.1649 B(  5-C ,  7-N ) :   1.1791 B(  6-N , 11-H ) :   0.9642
B(  6-N , 12-H ) :   0.9609 B(  7-N ,  8-H ) :   0.9256 B(  7-N ,  9-H ) :   0.9752

Dispersion correction           -0.020255788
FINAL SINGLE POINT ENERGY      -284.351823582229

DIPOLE MOMENT
-------------
                                X             Y             Z
Electronic contribution:     -1.91983      -2.99198       3.72391
Nuclear contribution   :      1.59382       2.33278      -3.02574
                        -----------------------------------------
Total Dipole Moment    :     -0.32601      -0.65921       0.69818
                        -----------------------------------------
Magnitude (a.u.)       :      1.01404
Magnitude (Debye)      :      2.57750

Rotational constants in cm-1:     0.232230     0.073139     0.063030
Rotational constants in MHz :  6962.079716  2192.649203  1889.578947

                             ****ORCA TERMINATED NORMALLY****
TOTAL RUN TIME: 0 days 0 hours 0 minutes 49 seconds 271 msec
