                         Program Version 5.0.0 -  RELEASE  -
|  1> !B3LYP D3BJ RIJCOSX def2-TZVPD def2/J TightSCF xyzfile
|  2>
|  3> *xyzfile 0 1 B.xyz
|  4>
|  5> %MaxCore 64000
|  6>
|  7> %pal nprocs 4
|  8> end
|  9>
| 10> %scf
| 11>   MaxIter 150
| 12> end
| 13>
| 14>
| 15>                          ****END OF INPUT****

CARTESIAN COORDINATES (ANGSTROEM)
---------------------------------
  C      3.488276    1.600919   -1.522040
  C      4.342970    1.313419   -2.756826
  N      2.810285    0.428783   -1.014196
  H      5.132033    0.604994   -2.484466
  C      3.535896    0.749253   -3.924604
  H      4.841247    2.242136   -3.054083
  H      2.991617   -0.132199   -3.574137
  H      4.225505    0.392784   -4.695962
  C      2.564776    1.750890   -4.544523
  H      1.918749    2.171679   -3.769419
  C      1.686235    1.161657   -5.650111
  H      3.132494    2.594775   -4.951604
  C      0.839616   -0.037582   -5.220473
  H      2.323886    0.866395   -6.490796
  H      1.029518    1.951850   -6.029329
  C     -0.151019    0.254955   -4.094256
  H      1.499442   -0.857141   -4.922958
  H      0.290097   -0.410143   -6.091131
  H      0.328265    0.833022   -3.299125
  C     -0.721843   -0.999513   -3.439309
  H     -0.957367    0.884951   -4.485450
  H     -1.083403   -1.697555   -4.205656
  H     -1.581056   -0.723848   -2.820490
  C      0.287250   -1.711771   -2.527405
  H      1.131780   -2.067380   -3.159396
  H     -0.204137   -2.637326   -2.170480
  O      0.710505   -0.927506   -1.481767
  H      2.714548    2.331455   -1.760302
  H      4.090991    2.063151   -0.733382
  C      3.290978   -0.418021   -0.129083
  N      2.517536   -1.432017    0.239360
  N      4.535490   -0.284410    0.395800
  H      5.043627    0.571888    0.222899
  H      4.723346   -0.733273    1.281800
  H      1.934787    0.102305   -1.403788
  H      1.674638   -1.505616   -0.316095
  H      2.928503   -2.218502    0.725494

 Total Charge           Charge          ....    0
 Multiplicity           Mult            ....    1
 Number of Electrons    NEL             ....  112
 Basis Dimension        Dim             ....  728

ORBITAL ENERGIES
----------------

  NO   OCC          E(Eh)            E(eV)
   0   2.0000     -18.994756      -516.8736
   1   2.0000     -14.373690      -391.1280
   2   2.0000     -14.336185      -390.1074
   3   2.0000     -14.328792      -389.9063
   4   2.0000     -10.315280      -280.6931
   5   2.0000     -10.222228      -278.1610
   6   2.0000     -10.177346      -276.9397
   7   2.0000     -10.160104      -276.4705
   8   2.0000     -10.154462      -276.3170
   9   2.0000     -10.147757      -276.1345
  10   2.0000     -10.146592      -276.1028
  11   2.0000     -10.135841      -275.8103
  12   2.0000     -10.125449      -275.5275
  13   2.0000     -10.113853      -275.2119
  14   2.0000      -1.032296       -28.0902
  15   2.0000      -0.929019       -25.2799
  16   2.0000      -0.909637       -24.7525
  17   2.0000      -0.882939       -24.0260
  18   2.0000      -0.810415       -22.0525
  19   2.0000      -0.776495       -21.1295
  20   2.0000      -0.738725       -20.1017
  21   2.0000      -0.701723       -19.0949
  22   2.0000      -0.660746       -17.9798
  23   2.0000      -0.649109       -17.6631
  24   2.0000      -0.611178       -16.6310
  25   2.0000      -0.598572       -16.2880
  26   2.0000      -0.595000       -16.1908
  27   2.0000      -0.564718       -15.3668
  28   2.0000      -0.544358       -14.8127
  29   2.0000      -0.520400       -14.1608
  30   2.0000      -0.511168       -13.9096
  31   2.0000      -0.495166       -13.4741
  32   2.0000      -0.483033       -13.1440
  33   2.0000      -0.471400       -12.8274
  34   2.0000      -0.460132       -12.5208
  35   2.0000      -0.450856       -12.2684
  36   2.0000      -0.434116       -11.8129
  37   2.0000      -0.418816       -11.3966
  38   2.0000      -0.412488       -11.2244
  39   2.0000      -0.393927       -10.7193
  40   2.0000      -0.389791       -10.6067
  41   2.0000      -0.378305       -10.2942
  42   2.0000      -0.359686        -9.7876
  43   2.0000      -0.353368        -9.6156
  44   2.0000      -0.345026        -9.3886
  45   2.0000      -0.334250        -9.0954
  46   2.0000      -0.322469        -8.7748
  47   2.0000      -0.312826        -8.5124
  48   2.0000      -0.310468        -8.4483
  49   2.0000      -0.306142        -8.3306
  50   2.0000      -0.290550        -7.9063
  51   2.0000      -0.286460        -7.7950
  52   2.0000      -0.281248        -7.6531
  53   2.0000      -0.266747        -7.2586
  54   2.0000      -0.179988        -4.8977
  55   2.0000      -0.173420        -4.7190
  56   0.0000      -0.026018        -0.7080
  57   0.0000      -0.001472        -0.0401
  58   0.0000       0.005860         0.1595
  59   0.0000       0.019124         0.5204
  60   0.0000       0.020536         0.5588

MULLIKEN ATOMIC CHARGES
-----------------------
   0 C :   -1.061626
   1 C :   -0.312096
   2 N :   -0.074083
   3 H :    0.246653
   4 C :   -0.247110
   5 H :    0.249909
   6 H :    0.074444
   7 H :    0.254352
   8 C :   -0.396409
   9 H :    0.252906
  10 C :   -0.708016
  11 H :    0.226106
  12 C :   -0.415004
  13 H :    0.251098
  14 H :    0.257039
  15 C :   -0.194114
  16 H :    0.178263
  17 H :    0.276044
  18 H :    0.054799
  19 C :   -0.584014
  20 H :    0.264423
  21 H :    0.217996
  22 H :    0.248237
  23 C :   -0.425218
  24 H :    0.219594
  25 H :    0.247092
  26 O :   -1.105230
  27 H :    0.287451
  28 H :    0.371036
  29 C :    0.469393
  30 N :   -0.289788
  31 N :   -0.323541
  32 H :    0.192228
  33 H :    0.189680
  34 H :    0.584750
  35 H :    0.379378
  36 H :    0.143378
Sum of atomic charges:    0.0000000

LOEWDIN ATOMIC CHARGES
----------------------
   0 C :   -0.169691
   1 C :   -0.181934
   2 N :    0.097978
   3 H :    0.105140
   4 C :   -0.201267
   5 H :    0.111715
   6 H :    0.099718
   7 H :    0.117278
   8 C :   -0.213255
   9 H :    0.092944
  10 C :   -0.207558
  11 H :    0.111265
  12 C :   -0.216145
  13 H :    0.105260
  14 H :    0.106972
  15 C :   -0.215005
  16 H :    0.090350
  17 H :    0.110036
  18 H :    0.089826
  19 C :   -0.201025
  20 H :    0.108966
  21 H :    0.104068
  22 H :    0.103126
  23 C :   -0.402708
  24 H :    0.090507
  25 H :    0.095131
  26 O :   -0.315419
  27 H :    0.118112
  28 H :    0.108359
  29 C :   -0.443906
  30 N :    0.187567
  31 N :    0.175032
  32 H :    0.094531
  33 H :    0.111788
  34 H :    0.068840
  35 H :    0.044980
  36 H :    0.118422

  Mayer bond orders larger than 0.100000
B(  0-C ,  1-C ) :   0.7518 B(  0-C ,  2-N ) :   1.0702 B(  0-C ,  8-C ) :   0.1451
B(  0-C , 27-H ) :   0.8998 B(  0-C , 28-H ) :   0.7956 B(  0-C , 29-C ) :  -0.1997
B(  0-C , 34-H ) :  -0.2687 B(  1-C ,  3-H ) :   0.9341 B(  1-C ,  4-C ) :   0.9705
B(  1-C ,  5-H ) :   0.9611 B(  1-C ,  8-C ) :   0.1362 B(  2-N , 29-C ) :   1.2093
B(  2-N , 34-H ) :   0.7942 B(  4-C ,  6-H ) :   1.2707 B(  4-C ,  7-H ) :   0.8692
B(  4-C ,  8-C ) :   0.3712 B(  4-C ,  9-H ) :  -0.1099 B(  4-C , 10-C ) :   0.1478
B(  4-C , 11-H ) :  -0.1009 B(  4-C , 12-C ) :   0.1231 B(  6-H ,  8-C ) :  -0.1038
B(  8-C ,  9-H ) :   0.9904 B(  8-C , 10-C ) :   0.9280 B(  8-C , 11-H ) :   0.9707
B(  8-C , 15-C ) :   0.1315 B( 10-C , 12-C ) :   0.8667 B( 10-C , 13-H ) :   0.9660
B( 10-C , 14-H ) :   0.9546 B( 10-C , 15-C ) :   0.2096 B( 12-C , 15-C ) :   0.3475
B( 12-C , 16-H ) :   1.0500 B( 12-C , 17-H ) :   0.9293 B( 12-C , 19-C ) :   0.2488
B( 15-C , 16-H ) :  -0.1010 B( 15-C , 18-H ) :   1.1618 B( 15-C , 19-C ) :   0.9605
B( 15-C , 20-H ) :   0.8795 B( 18-H , 26-O ) :   0.1391 B( 19-C , 21-H ) :   0.9960
B( 19-C , 22-H ) :   0.9097 B( 19-C , 23-C ) :   0.9148 B( 19-C , 26-O ) :   0.1604
B( 23-C , 24-H ) :   0.9953 B( 23-C , 25-H ) :   0.9430 B( 23-C , 26-O ) :   0.8065
B( 26-O , 34-H ) :  -0.1688 B( 26-O , 35-H ) :   0.2143 B( 29-C , 30-N ) :   1.3183
B( 29-C , 31-N ) :   1.1128 B( 30-N , 35-H ) :   0.6441 B( 30-N , 36-H ) :   1.0045
B( 31-N , 32-H ) :   0.9417 B( 31-N , 33-H ) :   0.9827

Dispersion correction           -0.065323570
FINAL SINGLE POINT ENERGY      -634.291116700376

DIPOLE MOMENT
-------------
                                X             Y             Z
Electronic contribution:      3.58993      -2.04382      11.33967
Nuclear contribution   :     -0.74583       2.62534      -9.91488
                        -----------------------------------------
Total Dipole Moment    :      2.84410       0.58153       1.42479
                        -----------------------------------------
Magnitude (a.u.)       :      3.23375
Magnitude (Debye)      :      8.21953

Rotational constants in cm-1:     0.027028     0.016098     0.010898
Rotational constants in MHz :   810.278072   482.590922   326.703462

                             ****ORCA TERMINATED NORMALLY****
TOTAL RUN TIME: 0 days 0 hours 8 minutes 22 seconds 397 msec
