                         Program Version 5.0.0 -  RELEASE  -
|  1> !B3LYP D3BJ RIJCOSX def2-TZVPD def2/J TightSCF
|  2> *xyz 0 1
|  3> C         -0.72184       -0.99951       -3.43931
|  4> C          0.28725       -1.71177       -2.52740
|  5> H          1.13178       -2.06738       -3.15940
|  6> H         -0.20414       -2.63733       -2.17048
|  7> F          0.71050       -0.92751       -1.48177
|  8> H         -1.01315       -1.65739       -4.23129
|  9> H         -0.27123       -0.12142       -3.85259
| 10> H         -1.58442       -0.72333       -2.86958
| 11> *
| 12> %MaxCore 64000
| 13>
| 14> %pal nprocs 4
| 15> end
| 16>
| 17> %scf
| 18>   MaxIter 150
| 19> end
| 20>
| 21>
| 22>                          ****END OF INPUT****

CARTESIAN COORDINATES (ANGSTROEM)
---------------------------------
  C     -0.721840   -0.999510   -3.439310
  C      0.287250   -1.711770   -2.527400
  H      1.131780   -2.067380   -3.159400
  H     -0.204140   -2.637330   -2.170480
  F      0.710500   -0.927510   -1.481770
  H     -1.013150   -1.657390   -4.231290
  H     -0.271230   -0.121420   -3.852590
  H     -1.584420   -0.723330   -2.869580

 Total Charge           Charge          ....    0
 Multiplicity           Mult            ....    1
 Number of Electrons    NEL             ....   26
 Basis Dimension        Dim             ....  159

ORBITAL ENERGIES
----------------

  NO   OCC          E(Eh)            E(eV)
   0   2.0000     -24.669196      -671.2830
   1   2.0000     -10.247915      -278.8600
   2   2.0000     -10.163555      -276.5644
   3   2.0000      -1.197979       -32.5987
   4   2.0000      -0.765209       -20.8224
   5   2.0000      -0.632257       -17.2046
   6   2.0000      -0.508481       -13.8365
   7   2.0000      -0.495256       -13.4766
   8   2.0000      -0.458228       -12.4690
   9   2.0000      -0.406462       -11.0604
  10   2.0000      -0.402823       -10.9614
  11   2.0000      -0.338536        -9.2120
  12   2.0000      -0.332807        -9.0561
  13   0.0000       0.008563         0.2330
  14   0.0000       0.035235         0.9588
  15   0.0000       0.052320         1.4237
  16   0.0000       0.055814         1.5188
  17   0.0000       0.082136         2.2350

MULLIKEN ATOMIC CHARGES
-----------------------
   0 C :   -0.866878
   1 C :   -0.048753
   2 H :    0.206003
   3 H :    0.199627
   4 F :   -0.306426
   5 H :    0.299462
   6 H :    0.257339
   7 H :    0.259626
Sum of atomic charges:    0.0000000

LOEWDIN ATOMIC CHARGES
----------------------
   0 C :   -0.079488
   1 C :   -0.284281
   2 H :    0.111809
   3 H :    0.108140
   4 F :   -0.047482
   5 H :    0.065329
   6 H :    0.062777
   7 H :    0.063195

  Mayer bond orders larger than 0.100000
B(  0-C ,  1-C ) :   0.7764 B(  0-C ,  5-H ) :   0.9412 B(  0-C ,  6-H ) :   0.9691
B(  0-C ,  7-H ) :   0.9690 B(  1-C ,  2-H ) :   0.9766 B(  1-C ,  3-H ) :   0.9862
B(  1-C ,  4-F ) :   0.8056

Dispersion correction           -0.005741004
FINAL SINGLE POINT ENERGY      -179.049773382681

DIPOLE MOMENT
-------------
                                X             Y             Z
Electronic contribution:      2.69944       1.04660       4.21976
Nuclear contribution   :     -2.97459      -1.40206      -4.79987
                        -----------------------------------------
Total Dipole Moment    :     -0.27515      -0.35546      -0.58011
                        -----------------------------------------
Magnitude (a.u.)       :      0.73389
Magnitude (Debye)      :      1.86539

Rotational constants in cm-1:     1.257024     0.302702     0.267953
Rotational constants in MHz : 37684.643733  9074.792567  8033.038070

                             ****ORCA TERMINATED NORMALLY****
TOTAL RUN TIME: 0 days 0 hours 0 minutes 12 seconds 898 msec
