                         Program Version 5.0.0 -  RELEASE  -
|  1> !B3LYP D3BJ RIJCOSX def2-TZVPD def2/J TightSCF
|  2> *xyz 0 1
|  3> C          3.48828        1.60092       -1.52204
|  4> C          4.34297        1.31342       -2.75683
|  5> C          2.81029        0.42878       -1.01420
|  6> H          2.71455        2.33145       -1.76030
|  7> H          4.09099        2.06315       -0.73338
|  8> C          3.29098       -0.41802       -0.12908
|  9> N          2.51754       -1.43202        0.23936
| 10> N          4.53549       -0.28441        0.39580
| 11> H          5.04363        0.57189        0.22290
| 12> H          4.72335       -0.73327        1.28180
| 13> H          1.93479        0.10230       -1.40379
| 14> H          1.67464       -1.50562       -0.31610
| 15> H          2.92850       -2.21850        0.72549
| 16> H          3.73575        0.86277       -3.51385
| 17> H          5.13754        0.64699       -2.49333
| 18> H          4.75374        2.22930       -3.12740
| 19> *
| 20> %MaxCore 64000
| 21>
| 22> %pal nprocs 4
| 23> end
| 24>
| 25> %scf
| 26>   MaxIter 150
| 27> end
| 28>
| 29>
| 30>                          ****END OF INPUT****

CARTESIAN COORDINATES (ANGSTROEM)
---------------------------------
  C      3.488280    1.600920   -1.522040
  C      4.342970    1.313420   -2.756830
  C      2.810290    0.428780   -1.014200
  H      2.714550    2.331450   -1.760300
  H      4.090990    2.063150   -0.733380
  C      3.290980   -0.418020   -0.129080
  N      2.517540   -1.432020    0.239360
  N      4.535490   -0.284410    0.395800
  H      5.043630    0.571890    0.222900
  H      4.723350   -0.733270    1.281800
  H      1.934790    0.102300   -1.403790
  H      1.674640   -1.505620   -0.316100
  H      2.928500   -2.218500    0.725490
  H      3.735750    0.862770   -3.513850
  H      5.137540    0.646990   -2.493330
  H      4.753740    2.229300   -3.127400

 Total Charge           Charge          ....    0
 Multiplicity           Mult            ....    1
 Number of Electrons    NEL             ....   48
 Basis Dimension        Dim             ....  312

ORBITAL ENERGIES
----------------

  NO   OCC          E(Eh)            E(eV)
   0   2.0000     -14.316336      -389.5673
   1   2.0000     -14.311877      -389.4460
   2   2.0000     -10.208135      -277.7775
   3   2.0000     -10.145405      -276.0705
   4   2.0000     -10.132707      -275.7250
   5   2.0000     -10.093223      -274.6506
   6   2.0000      -0.959051       -26.0971
   7   2.0000      -0.871680       -23.7196
   8   2.0000      -0.775106       -21.0917
   9   2.0000      -0.696020       -18.9397
  10   2.0000      -0.615025       -16.7357
  11   2.0000      -0.580063       -15.7843
  12   2.0000      -0.537275       -14.6200
  13   2.0000      -0.511098       -13.9077
  14   2.0000      -0.467499       -12.7213
  15   2.0000      -0.439838       -11.9686
  16   2.0000      -0.418266       -11.3816
  17   2.0000      -0.396621       -10.7926
  18   2.0000      -0.382834       -10.4174
  19   2.0000      -0.352974        -9.6049
  20   2.0000      -0.334347        -9.0981
  21   2.0000      -0.322728        -8.7819
  22   2.0000      -0.266236        -7.2446
  23   2.0000      -0.164072        -4.4646
  24   0.0000      -0.002674        -0.0728
  25   0.0000       0.023250         0.6327
  26   0.0000       0.028544         0.7767
  27   0.0000       0.040627         1.1055
  28   0.0000       0.054989         1.4963

MULLIKEN ATOMIC CHARGES
-----------------------
   0 C :   -0.506127
   1 C :   -1.036566
   2 C :   -0.330990
   3 H :    0.190372
   4 H :    0.272781
   5 C :    0.374668
   6 N :   -0.361676
   7 N :   -0.374193
   8 H :    0.168498
   9 H :    0.155859
  10 H :    0.259472
  11 H :    0.161303
  12 H :    0.151352
  13 H :    0.301430
  14 H :    0.302945
  15 H :    0.270872
Sum of atomic charges:   -0.0000000

LOEWDIN ATOMIC CHARGES
----------------------
   0 C :   -0.278810
   1 C :   -0.098655
   2 C :   -0.145000
   3 H :    0.101089
   4 H :    0.095680
   5 C :   -0.540355
   6 N :    0.104776
   7 N :    0.130682
   8 H :    0.088284
   9 H :    0.092380
  10 H :    0.067397
  11 H :    0.105247
  12 H :    0.098453
  13 H :    0.063921
  14 H :    0.059940
  15 H :    0.054972

  Mayer bond orders larger than 0.100000
B(  0-C ,  1-C ) :   0.5824 B(  0-C ,  2-C ) :   0.7761 B(  0-C ,  3-H ) :   1.1158
B(  0-C ,  4-H ) :   0.9237 B(  0-C ,  5-C ) :   0.2440 B(  1-C , 13-H ) :   0.9846
B(  1-C , 14-H ) :   0.9740 B(  1-C , 15-H ) :   0.9755 B(  2-C ,  3-H ) :  -0.1005
B(  2-C ,  5-C ) :   1.2984 B(  2-C , 10-H ) :   1.0103 B(  5-C ,  6-N ) :   1.0908
B(  5-C ,  7-N ) :   0.9821 B(  5-C , 10-H ) :  -0.1979 B(  6-N , 11-H ) :   0.9723
B(  6-N , 12-H ) :   1.0262 B(  7-N ,  8-H ) :   0.9422 B(  7-N ,  9-H ) :   1.0161

Dispersion correction           -0.021183990
FINAL SINGLE POINT ENERGY      -267.871877856451

DIPOLE MOMENT
-------------
                                X             Y             Z
Electronic contribution:     -1.28214      -2.91443       3.63665
Nuclear contribution   :      1.44676       2.38443      -3.07370
                        -----------------------------------------
Total Dipole Moment    :      0.16463      -0.53001       0.56295
                        -----------------------------------------
Magnitude (a.u.)       :      0.79052
Magnitude (Debye)      :      2.00934

Rotational constants in cm-1:     0.235977     0.073199     0.063283
Rotational constants in MHz :  7074.404583  2194.453291  1897.179599

                             ****ORCA TERMINATED NORMALLY****
TOTAL RUN TIME: 0 days 0 hours 0 minutes 59 seconds 492 msec
