                         Program Version 5.0.0 -  RELEASE  -
|  1> !B3LYP D3BJ RIJCOSX def2-TZVPD def2/J TightSCF
|  2> *xyz 0 1
|  3> C          3.48828        1.60092       -1.52204
|  4> C          4.34297        1.31342       -2.75683
|  5> N          2.81029        0.42878       -1.01420
|  6> H          2.71455        2.33145       -1.76030
|  7> H          4.09099        2.06315       -0.73338
|  8> C          3.29098       -0.41802       -0.12908
|  9> C          2.51754       -1.43202        0.23936
| 10> N          4.53549       -0.28441        0.39580
| 11> H          5.04363        0.57189        0.22290
| 12> H          4.72335       -0.73327        1.28180
| 13> H          1.93479        0.10230       -1.40379
| 14> H          1.67464       -1.50562       -0.31610
| 15> H          2.92850       -2.21850        0.72549
| 16> H          3.73575        0.86277       -3.51385
| 17> H          5.13754        0.64699       -2.49333
| 18> H          4.75374        2.22930       -3.12740
| 19> *
| 20> %MaxCore 64000
| 21>
| 22> %pal nprocs 4
| 23> end
| 24>
| 25> %scf
| 26>   MaxIter 150
| 27> end
| 28>
| 29>
| 30>                          ****END OF INPUT****

CARTESIAN COORDINATES (ANGSTROEM)
---------------------------------
  C      3.488280    1.600920   -1.522040
  C      4.342970    1.313420   -2.756830
  N      2.810290    0.428780   -1.014200
  H      2.714550    2.331450   -1.760300
  H      4.090990    2.063150   -0.733380
  C      3.290980   -0.418020   -0.129080
  C      2.517540   -1.432020    0.239360
  N      4.535490   -0.284410    0.395800
  H      5.043630    0.571890    0.222900
  H      4.723350   -0.733270    1.281800
  H      1.934790    0.102300   -1.403790
  H      1.674640   -1.505620   -0.316100
  H      2.928500   -2.218500    0.725490
  H      3.735750    0.862770   -3.513850
  H      5.137540    0.646990   -2.493330
  H      4.753740    2.229300   -3.127400

 Total Charge           Charge          ....    0
 Multiplicity           Mult            ....    1
 Number of Electrons    NEL             ....   48
 Basis Dimension        Dim             ....  312

ORBITAL ENERGIES
----------------

  NO   OCC          E(Eh)            E(eV)
   0   2.0000     -14.316657      -389.5760
   1   2.0000     -14.315858      -389.5543
   2   2.0000     -10.212141      -277.8865
   3   2.0000     -10.211809      -277.8775
   4   2.0000     -10.158465      -276.4259
   5   2.0000     -10.077816      -274.2313
   6   2.0000      -0.969796       -26.3895
   7   2.0000      -0.884472       -24.0677
   8   2.0000      -0.775727       -21.1086
   9   2.0000      -0.702642       -19.1198
  10   2.0000      -0.630563       -17.1585
  11   2.0000      -0.598247       -16.2791
  12   2.0000      -0.536131       -14.5889
  13   2.0000      -0.500131       -13.6093
  14   2.0000      -0.479638       -13.0516
  15   2.0000      -0.441436       -12.0121
  16   2.0000      -0.430321       -11.7096
  17   2.0000      -0.405438       -11.0325
  18   2.0000      -0.380236       -10.3468
  19   2.0000      -0.374273       -10.1845
  20   2.0000      -0.363650        -9.8954
  21   2.0000      -0.357970        -9.7409
  22   2.0000      -0.259043        -7.0489
  23   2.0000      -0.162327        -4.4171
  24   0.0000      -0.003418        -0.0930
  25   0.0000       0.021862         0.5949
  26   0.0000       0.025931         0.7056
  27   0.0000       0.031633         0.8608
  28   0.0000       0.060076         1.6348

MULLIKEN ATOMIC CHARGES
-----------------------
   0 C :   -0.453823
   1 C :   -0.996884
   2 N :   -0.098340
   3 H :    0.252290
   4 H :    0.309331
   5 C :    0.634066
   6 C :   -1.155604
   7 N :   -0.376577
   8 H :    0.152475
   9 H :    0.184781
  10 H :    0.124282
  11 H :    0.264128
  12 H :    0.275961
  13 H :    0.261599
  14 H :    0.304490
  15 H :    0.317825
Sum of atomic charges:    0.0000000

LOEWDIN ATOMIC CHARGES
----------------------
   0 C :   -0.239175
   1 C :   -0.079306
   2 N :    0.015815
   3 H :    0.109779
   4 H :    0.104645
   5 C :   -0.559062
   6 C :   -0.005457
   7 N :    0.126149
   8 H :    0.079106
   9 H :    0.105336
  10 H :    0.144041
  11 H :    0.004545
  12 H :    0.006449
  13 H :    0.064708
  14 H :    0.061705
  15 H :    0.060721

  Mayer bond orders larger than 0.100000
B(  0-C ,  1-C ) :   0.6553 B(  0-C ,  2-N ) :   0.8550 B(  0-C ,  3-H ) :   0.9885
B(  0-C ,  4-H ) :   0.8910 B(  1-C , 13-H ) :   1.0020 B(  1-C , 14-H ) :   0.9863
B(  1-C , 15-H ) :   0.9627 B(  2-N ,  5-C ) :   1.0908 B(  2-N , 10-H ) :   0.9718
B(  5-C ,  6-C ) :   1.1691 B(  5-C ,  7-N ) :   1.0322 B(  6-C , 11-H ) :   0.9935
B(  6-C , 12-H ) :   1.0469 B(  7-N ,  8-H ) :   0.9786 B(  7-N ,  9-H ) :   0.9738

Dispersion correction           -0.020932358
FINAL SINGLE POINT ENERGY      -267.859737384003

DIPOLE MOMENT
-------------
                                X             Y             Z
Electronic contribution:     -0.87427      -1.05404       2.41260
Nuclear contribution   :      1.38466       1.98967      -2.80776
                        -----------------------------------------
Total Dipole Moment    :      0.51039       0.93563      -0.39517
                        -----------------------------------------
Magnitude (a.u.)       :      1.13668
Magnitude (Debye)      :      2.88922

Rotational constants in cm-1:     0.235618     0.075969     0.065309
Rotational constants in MHz :  7063.646698  2277.495424  1957.925383

                             ****ORCA TERMINATED NORMALLY****
TOTAL RUN TIME: 0 days 0 hours 0 minutes 53 seconds 989 msec
