                         Program Version 5.0.0 -  RELEASE  -
|  1> !B3LYP D3BJ RIJCOSX def2-TZVPD def2/J TightSCF
|  2> *xyz 0 1
|  3> C          3.48828        1.60092       -1.52204
|  4> C          4.34297        1.31342       -2.75683
|  5> N          2.81029        0.42878       -1.01420
|  6> H          2.71455        2.33145       -1.76030
|  7> H          4.09099        2.06315       -0.73338
|  8> C          3.29098       -0.41802       -0.12908
|  9> N          2.51754       -1.43202        0.23936
| 10> C          4.53549       -0.28441        0.39580
| 11> H          5.04363        0.57189        0.22290
| 12> H          4.72335       -0.73327        1.28180
| 13> H          1.93479        0.10230       -1.40379
| 14> H          1.67464       -1.50562       -0.31610
| 15> H          2.92850       -2.21850        0.72549
| 16> H          3.73575        0.86277       -3.51385
| 17> H          5.13754        0.64699       -2.49333
| 18> H          4.75374        2.22930       -3.12740
| 19> *
| 20> %MaxCore 64000
| 21>
| 22> %pal nprocs 4
| 23> end
| 24>
| 25> %scf
| 26>   MaxIter 150
| 27> end
| 28>
| 29>
| 30>                          ****END OF INPUT****

CARTESIAN COORDINATES (ANGSTROEM)
---------------------------------
  C      3.488280    1.600920   -1.522040
  C      4.342970    1.313420   -2.756830
  N      2.810290    0.428780   -1.014200
  H      2.714550    2.331450   -1.760300
  H      4.090990    2.063150   -0.733380
  C      3.290980   -0.418020   -0.129080
  N      2.517540   -1.432020    0.239360
  C      4.535490   -0.284410    0.395800
  H      5.043630    0.571890    0.222900
  H      4.723350   -0.733270    1.281800
  H      1.934790    0.102300   -1.403790
  H      1.674640   -1.505620   -0.316100
  H      2.928500   -2.218500    0.725490
  H      3.735750    0.862770   -3.513850
  H      5.137540    0.646990   -2.493330
  H      4.753740    2.229300   -3.127400

 Total Charge           Charge          ....    0
 Multiplicity           Mult            ....    1
 Number of Electrons    NEL             ....   48
 Basis Dimension        Dim             ....  312

ORBITAL ENERGIES
----------------

  NO   OCC          E(Eh)            E(eV)
   0   2.0000     -14.322786      -389.7428
   1   2.0000     -14.317965      -389.6116
   2   2.0000     -10.214868      -277.9607
   3   2.0000     -10.204387      -277.6755
   4   2.0000     -10.150816      -276.2177
   5   2.0000     -10.079761      -274.2842
   6   2.0000      -0.978861       -26.6362
   7   2.0000      -0.889700       -24.2100
   8   2.0000      -0.756536       -20.5864
   9   2.0000      -0.706519       -19.2254
  10   2.0000      -0.644774       -17.5452
  11   2.0000      -0.564101       -15.3500
  12   2.0000      -0.543054       -14.7773
  13   2.0000      -0.530173       -14.4267
  14   2.0000      -0.468792       -12.7565
  15   2.0000      -0.441197       -12.0056
  16   2.0000      -0.426103       -11.5948
  17   2.0000      -0.396287       -10.7835
  18   2.0000      -0.380887       -10.3645
  19   2.0000      -0.370107       -10.0711
  20   2.0000      -0.360382        -9.8065
  21   2.0000      -0.349576        -9.5124
  22   2.0000      -0.253321        -6.8932
  23   2.0000      -0.166055        -4.5186
  24   0.0000      -0.005695        -0.1550
  25   0.0000       0.019290         0.5249
  26   0.0000       0.029846         0.8122
  27   0.0000       0.034407         0.9363
  28   0.0000       0.059752         1.6259

MULLIKEN ATOMIC CHARGES
-----------------------
   0 C :   -0.382729
   1 C :   -1.028567
   2 N :   -0.138605
   3 H :    0.252866
   4 H :    0.296947
   5 C :    0.681390
   6 N :   -0.339153
   7 C :   -1.218097
   8 H :    0.253604
   9 H :    0.288370
  10 H :    0.134243
  11 H :    0.127903
  12 H :    0.182468
  13 H :    0.275558
  14 H :    0.304786
  15 H :    0.309015
Sum of atomic charges:    0.0000000

LOEWDIN ATOMIC CHARGES
----------------------
   0 C :   -0.233922
   1 C :   -0.076384
   2 N :    0.014021
   3 H :    0.109296
   4 H :    0.110105
   5 C :   -0.566331
   6 N :    0.117137
   7 C :    0.007078
   8 H :   -0.013028
   9 H :    0.000167
  10 H :    0.136248
  11 H :    0.095408
  12 H :    0.113351
  13 H :    0.061953
  14 H :    0.062950
  15 H :    0.061952

  Mayer bond orders larger than 0.100000
B(  0-C ,  1-C ) :   0.6449 B(  0-C ,  2-N ) :   0.8367 B(  0-C ,  3-H ) :   0.9319
B(  0-C ,  4-H ) :   0.8966 B(  1-C , 13-H ) :   0.9810 B(  1-C , 14-H ) :   1.0026
B(  1-C , 15-H ) :   0.9525 B(  2-N ,  5-C ) :   1.0561 B(  2-N , 10-H ) :   1.0152
B(  5-C ,  6-N ) :   1.0117 B(  5-C ,  7-C ) :   1.2077 B(  5-C ,  9-H ) :  -0.1088
B(  6-N , 11-H ) :   1.0254 B(  6-N , 12-H ) :   0.9790 B(  7-C ,  8-H ) :   1.0109
B(  7-C ,  9-H ) :   1.0575

Dispersion correction           -0.021084015
FINAL SINGLE POINT ENERGY      -267.860264570338

DIPOLE MOMENT
-------------
                                X             Y             Z
Electronic contribution:     -2.79987      -2.27873       2.19257
Nuclear contribution   :      1.81275       2.23313      -2.77458
                        -----------------------------------------
Total Dipole Moment    :     -0.98712      -0.04561      -0.58201
                        -----------------------------------------
Magnitude (a.u.)       :      1.14683
Magnitude (Debye)      :      2.91501

Rotational constants in cm-1:     0.245202     0.073668     0.064348
Rotational constants in MHz :  7350.977980  2208.513334  1929.108541

                             ****ORCA TERMINATED NORMALLY****
TOTAL RUN TIME: 0 days 0 hours 0 minutes 54 seconds 111 msec
