                         Program Version 5.0.0 -  RELEASE  -
|  1> !B3LYP D3BJ RIJCOSX def2-TZVPD def2/J TightSCF xyzfile
|  2>
|  3> *xyzfile 0 1 D1.xyz
|  4>
|  5> %MaxCore 64000
|  6>
|  7> %pal nprocs 4
|  8> end
|  9>
| 10> %scf
| 11>   MaxIter 150
| 12> end
| 13>
| 14>
| 15>                          ****END OF INPUT****

CARTESIAN COORDINATES (ANGSTROEM)
---------------------------------
  C      3.488276    1.600919   -1.522040
  C      4.342970    1.313419   -2.756826
  C      2.810285    0.428783   -1.014196
  H      5.132033    0.604994   -2.484466
  C      3.535896    0.749253   -3.924604
  H      4.841247    2.242136   -3.054083
  H      2.991617   -0.132199   -3.574137
  H      4.225505    0.392784   -4.695962
  C      2.564776    1.750890   -4.544523
  H      1.918749    2.171679   -3.769419
  C      1.686235    1.161657   -5.650111
  H      3.132494    2.594775   -4.951604
  C      0.839616   -0.037582   -5.220473
  H      2.323886    0.866395   -6.490796
  H      1.029518    1.951850   -6.029329
  C     -0.151019    0.254955   -4.094256
  H      1.499442   -0.857141   -4.922958
  H      0.290097   -0.410143   -6.091131
  H      0.328265    0.833022   -3.299125
  C     -0.721843   -0.999513   -3.439309
  H     -0.957367    0.884951   -4.485450
  H     -1.083403   -1.697555   -4.205656
  H     -1.581056   -0.723848   -2.820490
  C      0.287250   -1.711771   -2.527405
  H      1.131780   -2.067380   -3.159396
  H     -0.204137   -2.637326   -2.170480
  F      0.710505   -0.927506   -1.481767
  H      2.714548    2.331455   -1.760302
  H      4.090991    2.063151   -0.733382
  C      3.290978   -0.418021   -0.129083
  N      2.517536   -1.432017    0.239360
  N      4.535490   -0.284410    0.395800
  H      5.043627    0.571888    0.222899
  H      4.723346   -0.733273    1.281800
  H      1.934787    0.102305   -1.403788
  H      1.674638   -1.505616   -0.316095
  H      2.928503   -2.218502    0.725494

 Total Charge           Charge          ....    0
 Multiplicity           Mult            ....    1
 Number of Electrons    NEL             ....  112
 Basis Dimension        Dim             ....  728

ORBITAL ENERGIES
----------------

  NO   OCC          E(Eh)            E(eV)
   0   2.0000     -24.697831      -672.0622
   1   2.0000     -14.301642      -389.1675
   2   2.0000     -14.285622      -388.7315
   3   2.0000     -10.258644      -279.1519
   4   2.0000     -10.190431      -277.2957
   5   2.0000     -10.180042      -277.0130
   6   2.0000     -10.164822      -276.5989
   7   2.0000     -10.160713      -276.4870
   8   2.0000     -10.156152      -276.3629
   9   2.0000     -10.148423      -276.1526
  10   2.0000     -10.143026      -276.0058
  11   2.0000     -10.138098      -275.8717
  12   2.0000     -10.131861      -275.7019
  13   2.0000     -10.066096      -273.9124
  14   2.0000      -1.237129       -33.6640
  15   2.0000      -0.941073       -25.6079
  16   2.0000      -0.854666       -23.2566
  17   2.0000      -0.817986       -22.2585
  18   2.0000      -0.793575       -21.5943
  19   2.0000      -0.764634       -20.8067
  20   2.0000      -0.731265       -19.8987
  21   2.0000      -0.692971       -18.8567
  22   2.0000      -0.667095       -18.1526
  23   2.0000      -0.633486       -17.2380
  24   2.0000      -0.603315       -16.4170
  25   2.0000      -0.589274       -16.0350
  26   2.0000      -0.564961       -15.3734
  27   2.0000      -0.547852       -14.9078
  28   2.0000      -0.534608       -14.5474
  29   2.0000      -0.522031       -14.2052
  30   2.0000      -0.513282       -13.9671
  31   2.0000      -0.496242       -13.5034
  32   2.0000      -0.486846       -13.2477
  33   2.0000      -0.463400       -12.6097
  34   2.0000      -0.455696       -12.4001
  35   2.0000      -0.443242       -12.0612
  36   2.0000      -0.436873       -11.8879
  37   2.0000      -0.423408       -11.5215
  38   2.0000      -0.413418       -11.2497
  39   2.0000      -0.403370       -10.9763
  40   2.0000      -0.395815       -10.7707
  41   2.0000      -0.376969       -10.2579
  42   2.0000      -0.372571       -10.1382
  43   2.0000      -0.364900        -9.9294
  44   2.0000      -0.361271        -9.8307
  45   2.0000      -0.358770        -9.7626
  46   2.0000      -0.338819        -9.2197
  47   2.0000      -0.331182        -9.0119
  48   2.0000      -0.322006        -8.7622
  49   2.0000      -0.319530        -8.6948
  50   2.0000      -0.315897        -8.5960
  51   2.0000      -0.301722        -8.2103
  52   2.0000      -0.295753        -8.0478
  53   2.0000      -0.290408        -7.9024
  54   2.0000      -0.249025        -6.7763
  55   2.0000      -0.147089        -4.0025
  56   0.0000       0.001250         0.0340
  57   0.0000       0.009782         0.2662
  58   0.0000       0.014496         0.3944
  59   0.0000       0.019772         0.5380
  60   0.0000       0.031430         0.8552

MULLIKEN ATOMIC CHARGES
-----------------------
   0 C :   -0.636223
   1 C :   -0.428475
   2 C :   -0.949255
   3 H :    0.268995
   4 C :   -0.190880
   5 H :    0.182502
   6 H :    0.038002
   7 H :    0.246600
   8 C :   -0.356559
   9 H :    0.197030
  10 C :   -0.707956
  11 H :    0.225930
  12 C :   -0.414123
  13 H :    0.261994
  14 H :    0.256200
  15 C :   -0.215152
  16 H :    0.217320
  17 H :    0.268933
  18 H :    0.107175
  19 C :   -0.589965
  20 H :    0.265001
  21 H :    0.246514
  22 H :    0.269089
  23 C :   -0.342074
  24 H :    0.302398
  25 H :    0.252852
  26 F :   -0.495350
  27 H :    0.226650
  28 H :    0.291323
  29 C :   -0.479223
  30 N :   -0.368849
  31 N :   -0.369089
  32 H :    0.180534
  33 H :    0.139239
  34 H :    1.652305
  35 H :    0.341199
  36 H :    0.105385
Sum of atomic charges:   -0.0000000

LOEWDIN ATOMIC CHARGES
----------------------
   0 C :   -0.221517
   1 C :   -0.198924
   2 C :   -0.126626
   3 H :    0.106631
   4 C :   -0.207360
   5 H :    0.103366
   6 H :    0.091715
   7 H :    0.113315
   8 C :   -0.210887
   9 H :    0.093700
  10 C :   -0.205843
  11 H :    0.113115
  12 C :   -0.214197
  13 H :    0.107381
  14 H :    0.107207
  15 C :   -0.204151
  16 H :    0.091573
  17 H :    0.111299
  18 H :    0.100649
  19 C :   -0.173099
  20 H :    0.116633
  21 H :    0.118793
  22 H :    0.110788
  23 C :   -0.191356
  24 H :    0.122595
  25 H :    0.121923
  26 F :   -0.076579
  27 H :    0.098981
  28 H :    0.099085
  29 C :   -0.520272
  30 N :    0.116109
  31 N :    0.129373
  32 H :    0.085275
  33 H :    0.089263
  34 H :    0.038603
  35 H :    0.065744
  36 H :    0.097695

  Mayer bond orders larger than 0.100000
B(  0-C ,  1-C ) :   0.7504 B(  0-C ,  2-C ) :   0.4963 B(  0-C ,  8-C ) :   0.1131
B(  0-C , 27-H ) :   0.9803 B(  0-C , 28-H ) :   0.9600 B(  0-C , 29-C ) :   0.2760
B(  1-C ,  3-H ) :   0.9283 B(  1-C ,  4-C ) :   1.0232 B(  1-C ,  5-H ) :   0.9597
B(  1-C ,  8-C ) :   0.1438 B(  2-C ,  4-C ) :   0.1390 B(  2-C , 26-F ) :   0.5372
B(  2-C , 29-C ) :   1.9328 B(  2-C , 30-N ) :  -0.1450 B(  2-C , 31-N ) :  -0.1158
B(  2-C , 34-H ) :  -0.4751 B(  4-C ,  6-H ) :   1.3544 B(  4-C ,  7-H ) :   0.8574
B(  4-C ,  8-C ) :   0.3665 B(  4-C ,  9-H ) :  -0.1125 B(  4-C , 10-C ) :   0.1450
B(  4-C , 12-C ) :   0.1214 B(  6-H ,  8-C ) :  -0.1494 B(  8-C ,  9-H ) :   1.0369
B(  8-C , 10-C ) :   0.9020 B(  8-C , 11-H ) :   0.9624 B( 10-C , 12-C ) :   0.9330
B( 10-C , 13-H ) :   0.9579 B( 10-C , 14-H ) :   0.9530 B( 10-C , 15-C ) :   0.2105
B( 12-C , 15-C ) :   0.3343 B( 12-C , 16-H ) :   1.0146 B( 12-C , 17-H ) :   0.9510
B( 12-C , 19-C ) :   0.2298 B( 15-C , 16-H ) :  -0.1121 B( 15-C , 18-H ) :   1.1542
B( 15-C , 19-C ) :   0.9189 B( 15-C , 20-H ) :   0.8942 B( 19-C , 21-H ) :   0.9558
B( 19-C , 22-H ) :   0.9304 B( 19-C , 23-C ) :   0.9172 B( 19-C , 26-F ) :   0.1576
B( 23-C , 24-H ) :   0.9427 B( 23-C , 25-H ) :   0.9297 B( 23-C , 26-F ) :   0.6106
B( 26-F , 29-C ) :   0.1423 B( 26-F , 34-H ) :  -0.9164 B( 26-F , 35-H ) :   0.1126
B( 29-C , 30-N ) :   1.2137 B( 29-C , 31-N ) :   1.0732 B( 29-C , 34-H ) :  -0.4445
B( 29-C , 35-H ) :   0.1194 B( 30-N , 35-H ) :   0.7404 B( 30-N , 36-H ) :   1.0638
B( 31-N , 32-H ) :   0.9496 B( 31-N , 33-H ) :   1.0280 B( 34-H , 35-H ) :  -0.1226

Dispersion correction           -0.065309319
FINAL SINGLE POINT ENERGY      -642.219244555703

DIPOLE MOMENT
-------------
                                X             Y             Z
Electronic contribution:     -1.60176      -4.83901      10.68666
Nuclear contribution   :      1.15699       3.94991     -10.89335
                        -----------------------------------------
Total Dipole Moment    :     -0.44477      -0.88910      -0.20669
                        -----------------------------------------
Magnitude (a.u.)       :      1.01540
Magnitude (Debye)      :      2.58095

Rotational constants in cm-1:     0.026548     0.016177     0.010851
Rotational constants in MHz :   795.884848   484.988695   325.313537

                             ****ORCA TERMINATED NORMALLY****
TOTAL RUN TIME: 0 days 0 hours 7 minutes 35 seconds 681 msec
