                         Program Version 5.0.0 -  RELEASE  -
|  1> !B3LYP D3BJ RIJCOSX def2-TZVPD def2/J TightSCF xyzfile
|  2>
|  3> *xyzfile 0 1 D2.xyz
|  4>
|  5> %MaxCore 64000
|  6>
|  7> %pal nprocs 4
|  8> end
|  9>
| 10> %scf
| 11>   MaxIter 150
| 12> end
| 13>
| 14>
| 15>                          ****END OF INPUT****

CARTESIAN COORDINATES (ANGSTROEM)
---------------------------------
  C      3.488276    1.600919   -1.522040
  C      4.342970    1.313419   -2.756826
  N      2.810285    0.428783   -1.014196
  H      5.132033    0.604994   -2.484466
  C      3.535896    0.749253   -3.924604
  H      4.841247    2.242136   -3.054083
  H      2.991617   -0.132199   -3.574137
  H      4.225505    0.392784   -4.695962
  C      2.564776    1.750890   -4.544523
  H      1.918749    2.171679   -3.769419
  C      1.686235    1.161657   -5.650111
  H      3.132494    2.594775   -4.951604
  C      0.839616   -0.037582   -5.220473
  H      2.323886    0.866395   -6.490796
  H      1.029518    1.951850   -6.029329
  C     -0.151019    0.254955   -4.094256
  H      1.499442   -0.857141   -4.922958
  H      0.290097   -0.410143   -6.091131
  H      0.328265    0.833022   -3.299125
  C     -0.721843   -0.999513   -3.439309
  H     -0.957367    0.884951   -4.485450
  H     -1.083403   -1.697555   -4.205656
  H     -1.581056   -0.723848   -2.820490
  C      0.287250   -1.711771   -2.527405
  H      1.131780   -2.067380   -3.159396
  H     -0.204137   -2.637326   -2.170480
  F      0.710505   -0.927506   -1.481767
  H      2.714548    2.331455   -1.760302
  H      4.090991    2.063151   -0.733382
  C      3.290978   -0.418021   -0.129083
  C      2.517536   -1.432017    0.239360
  N      4.535490   -0.284410    0.395800
  H      5.043627    0.571888    0.222899
  H      4.723346   -0.733273    1.281800
  H      1.934787    0.102305   -1.403788
  H      1.674638   -1.505616   -0.316095
  H      2.928503   -2.218502    0.725494

 Total Charge           Charge          ....    0
 Multiplicity           Mult            ....    1
 Number of Electrons    NEL             ....  112
 Basis Dimension        Dim             ....  728

ORBITAL ENERGIES
----------------

  NO   OCC          E(Eh)            E(eV)
   0   2.0000     -24.695346      -671.9945
   1   2.0000     -14.299782      -389.1168
   2   2.0000     -14.289577      -388.8391
   3   2.0000     -10.257451      -279.1194
   4   2.0000     -10.195547      -277.4349
   5   2.0000     -10.192912      -277.3632
   6   2.0000     -10.181822      -277.0615
   7   2.0000     -10.171653      -276.7848
   8   2.0000     -10.168063      -276.6871
   9   2.0000     -10.166052      -276.6324
  10   2.0000     -10.162878      -276.5460
  11   2.0000     -10.160879      -276.4916
  12   2.0000     -10.160186      -276.4727
  13   2.0000     -10.050547      -273.4893
  14   2.0000      -1.234670       -33.5971
  15   2.0000      -0.950983       -25.8776
  16   2.0000      -0.868280       -23.6271
  17   2.0000      -0.825565       -22.4648
  18   2.0000      -0.798795       -21.7363
  19   2.0000      -0.772070       -21.0091
  20   2.0000      -0.727406       -19.7937
  21   2.0000      -0.703929       -19.1549
  22   2.0000      -0.669966       -18.2307
  23   2.0000      -0.643582       -17.5128
  24   2.0000      -0.611327       -16.6351
  25   2.0000      -0.596768       -16.2389
  26   2.0000      -0.576741       -15.6939
  27   2.0000      -0.559236       -15.2176
  28   2.0000      -0.535676       -14.5765
  29   2.0000      -0.522443       -14.2164
  30   2.0000      -0.510799       -13.8995
  31   2.0000      -0.495700       -13.4887
  32   2.0000      -0.483792       -13.1646
  33   2.0000      -0.472943       -12.8694
  34   2.0000      -0.467486       -12.7209
  35   2.0000      -0.453735       -12.3467
  36   2.0000      -0.437349       -11.9009
  37   2.0000      -0.430687       -11.7196
  38   2.0000      -0.428473       -11.6594
  39   2.0000      -0.413792       -11.2599
  40   2.0000      -0.395225       -10.7546
  41   2.0000      -0.383408       -10.4331
  42   2.0000      -0.374772       -10.1981
  43   2.0000      -0.372414       -10.1339
  44   2.0000      -0.364857        -9.9283
  45   2.0000      -0.361043        -9.8245
  46   2.0000      -0.346994        -9.4422
  47   2.0000      -0.344107        -9.3636
  48   2.0000      -0.337587        -9.1862
  49   2.0000      -0.329270        -8.9599
  50   2.0000      -0.321156        -8.7391
  51   2.0000      -0.317879        -8.6499
  52   2.0000      -0.315201        -8.5770
  53   2.0000      -0.311608        -8.4793
  54   2.0000      -0.241466        -6.5706
  55   2.0000      -0.143366        -3.9012
  56   0.0000       0.002203         0.0599
  57   0.0000       0.006776         0.1844
  58   0.0000       0.011610         0.3159
  59   0.0000       0.015734         0.4282
  60   0.0000       0.030155         0.8206

MULLIKEN ATOMIC CHARGES
-----------------------
   0 C :   -1.044553
   1 C :   -0.401275
   2 N :   -0.105773
   3 H :    0.277845
   4 C :   -0.223141
   5 H :    0.271766
   6 H :    0.031080
   7 H :    0.245640
   8 C :   -0.343478
   9 H :    0.223335
  10 C :   -0.734506
  11 H :    0.231034
  12 C :   -0.417537
  13 H :    0.260345
  14 H :    0.258846
  15 C :   -0.254332
  16 H :    0.221156
  17 H :    0.270595
  18 H :    0.119946
  19 C :   -0.560890
  20 H :    0.273289
  21 H :    0.239672
  22 H :    0.270714
  23 C :   -0.368660
  24 H :    0.302766
  25 H :    0.275748
  26 F :   -0.532152
  27 H :    0.282361
  28 H :    0.370828
  29 C :    0.736666
  30 C :   -1.432855
  31 N :   -0.366083
  32 H :    0.151347
  33 H :    0.195285
  34 H :    0.417893
  35 H :    0.586346
  36 H :    0.270732
Sum of atomic charges:    0.0000000

LOEWDIN ATOMIC CHARGES
----------------------
   0 C :   -0.187513
   1 C :   -0.184660
   2 N :    0.038661
   3 H :    0.107517
   4 C :   -0.205142
   5 H :    0.108204
   6 H :    0.093811
   7 H :    0.116143
   8 C :   -0.213057
   9 H :    0.091698
  10 C :   -0.204325
  11 H :    0.113962
  12 C :   -0.213555
  13 H :    0.108649
  14 H :    0.108483
  15 C :   -0.206033
  16 H :    0.091989
  17 H :    0.112864
  18 H :    0.097293
  19 C :   -0.173269
  20 H :    0.116991
  21 H :    0.119149
  22 H :    0.111350
  23 C :   -0.189252
  24 H :    0.122408
  25 H :    0.126216
  26 F :   -0.078543
  27 H :    0.107717
  28 H :    0.107977
  29 C :   -0.539604
  30 C :    0.007385
  31 N :    0.123487
  32 H :    0.076020
  33 H :    0.102319
  34 H :    0.095627
  35 H :   -0.018739
  36 H :    0.007777

  Mayer bond orders larger than 0.100000
B(  0-C ,  1-C ) :   0.7423 B(  0-C ,  2-N ) :   1.0793 B(  0-C ,  8-C ) :   0.1326
B(  0-C , 27-H ) :   0.9033 B(  0-C , 28-H ) :   0.8302 B(  0-C , 29-C ) :  -0.1977
B(  0-C , 34-H ) :  -0.2221 B(  1-C ,  3-H ) :   0.9241 B(  1-C ,  4-C ) :   1.0040
B(  1-C ,  5-H ) :   0.9740 B(  1-C ,  6-H ) :   0.1041 B(  1-C ,  8-C ) :   0.1429
B(  2-N , 29-C ) :   0.8943 B(  2-N , 34-H ) :   0.8841 B(  4-C ,  6-H ) :   1.3315
B(  4-C ,  7-H ) :   0.8743 B(  4-C ,  8-C ) :   0.3516 B(  4-C ,  9-H ) :  -0.1133
B(  4-C , 10-C ) :   0.1517 B(  4-C , 12-C ) :   0.1160 B(  6-H ,  8-C ) :  -0.1412
B(  8-C ,  9-H ) :   1.0152 B(  8-C , 10-C ) :   0.9142 B(  8-C , 11-H ) :   0.9557
B(  8-C , 15-C ) :   0.1042 B( 10-C , 12-C ) :   0.9219 B( 10-C , 13-H ) :   0.9626
B( 10-C , 14-H ) :   0.9516 B( 10-C , 15-C ) :   0.2265 B( 12-C , 15-C ) :   0.3433
B( 12-C , 16-H ) :   1.0129 B( 12-C , 17-H ) :   0.9425 B( 12-C , 19-C ) :   0.2204
B( 15-C , 16-H ) :  -0.1110 B( 15-C , 18-H ) :   1.1490 B( 15-C , 19-C ) :   0.9461
B( 15-C , 20-H ) :   0.8874 B( 19-C , 21-H ) :   0.9661 B( 19-C , 22-H ) :   0.9217
B( 19-C , 23-C ) :   0.9015 B( 19-C , 26-F ) :   0.1328 B( 23-C , 24-H ) :   0.9448
B( 23-C , 25-H ) :   0.9094 B( 23-C , 26-F ) :   0.6293 B( 26-F , 30-C ) :   0.2239
B( 26-F , 35-H ) :  -0.1316 B( 29-C , 30-C ) :   1.2088 B( 29-C , 31-N ) :   0.9903
B( 29-C , 34-H ) :  -0.1359 B( 29-C , 36-H ) :  -0.1400 B( 30-C , 35-H ) :   0.7232
B( 30-C , 36-H ) :   1.1657 B( 31-N , 32-H ) :   0.9998 B( 31-N , 33-H ) :   0.9690

Dispersion correction           -0.064839659
FINAL SINGLE POINT ENERGY      -642.207047039611

DIPOLE MOMENT
-------------
                                X             Y             Z
Electronic contribution:     -1.28280      -3.13581       9.42884
Nuclear contribution   :      1.09892       3.58083     -10.64472
                        -----------------------------------------
Total Dipole Moment    :     -0.18388       0.44502      -1.21588
                        -----------------------------------------
Magnitude (a.u.)       :      1.30775
Magnitude (Debye)      :      3.32404

Rotational constants in cm-1:     0.026768     0.016312     0.010954
Rotational constants in MHz :   802.489946   489.033275   328.388904

                             ****ORCA TERMINATED NORMALLY****
TOTAL RUN TIME: 0 days 0 hours 8 minutes 24 seconds 601 msec
