                         Program Version 5.0.0 -  RELEASE  -
|  1> !B3LYP D3BJ RIJCOSX def2-TZVPD def2/J TightSCF xyzfile
|  2>
|  3> *xyzfile 0 1 D3.xyz
|  4>
|  5> %MaxCore 64000
|  6>
|  7> %pal nprocs 4
|  8> end
|  9>
| 10> %scf
| 11>   MaxIter 150
| 12> end
| 13>
| 14>
| 15>                          ****END OF INPUT****

CARTESIAN COORDINATES (ANGSTROEM)
---------------------------------
  C      3.488276    1.600919   -1.522040
  C      4.342970    1.313419   -2.756826
  N      2.810285    0.428783   -1.014196
  H      5.132033    0.604994   -2.484466
  C      3.535896    0.749253   -3.924604
  H      4.841247    2.242136   -3.054083
  H      2.991617   -0.132199   -3.574137
  H      4.225505    0.392784   -4.695962
  C      2.564776    1.750890   -4.544523
  H      1.918749    2.171679   -3.769419
  C      1.686235    1.161657   -5.650111
  H      3.132494    2.594775   -4.951604
  C      0.839616   -0.037582   -5.220473
  H      2.323886    0.866395   -6.490796
  H      1.029518    1.951850   -6.029329
  C     -0.151019    0.254955   -4.094256
  H      1.499442   -0.857141   -4.922958
  H      0.290097   -0.410143   -6.091131
  H      0.328265    0.833022   -3.299125
  C     -0.721843   -0.999513   -3.439309
  H     -0.957367    0.884951   -4.485450
  H     -1.083403   -1.697555   -4.205656
  H     -1.581056   -0.723848   -2.820490
  C      0.287250   -1.711771   -2.527405
  H      1.131780   -2.067380   -3.159396
  H     -0.204137   -2.637326   -2.170480
  F      0.710505   -0.927506   -1.481767
  H      2.714548    2.331455   -1.760302
  H      4.090991    2.063151   -0.733382
  C      3.290978   -0.418021   -0.129083
  N      2.517536   -1.432017    0.239360
  C      4.535490   -0.284410    0.395800
  H      5.043627    0.571888    0.222899
  H      4.723346   -0.733273    1.281800
  H      1.934787    0.102305   -1.403788
  H      1.674638   -1.505616   -0.316095
  H      2.928503   -2.218502    0.725494

 Total Charge           Charge          ....    0
 Multiplicity           Mult            ....    1
 Number of Electrons    NEL             ....  112
 Basis Dimension        Dim             ....  728

ORBITAL ENERGIES
----------------

  NO   OCC          E(Eh)            E(eV)
   0   2.0000     -24.724623      -672.7912
   1   2.0000     -14.293465      -388.9450
   2   2.0000     -14.287922      -388.7941
   3   2.0000     -10.275405      -279.6080
   4   2.0000     -10.195152      -277.4242
   5   2.0000     -10.193776      -277.3867
   6   2.0000     -10.187632      -277.2196
   7   2.0000     -10.179062      -276.9864
   8   2.0000     -10.173010      -276.8217
   9   2.0000     -10.168007      -276.6855
  10   2.0000     -10.162380      -276.5324
  11   2.0000     -10.158568      -276.4287
  12   2.0000     -10.153105      -276.2800
  13   2.0000     -10.061425      -273.7853
  14   2.0000      -1.262697       -34.3597
  15   2.0000      -0.956638       -26.0314
  16   2.0000      -0.868704       -23.6386
  17   2.0000      -0.831821       -22.6350
  18   2.0000      -0.802172       -21.8282
  19   2.0000      -0.768715       -20.9178
  20   2.0000      -0.727441       -19.7947
  21   2.0000      -0.694686       -18.9034
  22   2.0000      -0.688073       -18.7234
  23   2.0000      -0.654096       -17.7988
  24   2.0000      -0.621163       -16.9027
  25   2.0000      -0.594824       -16.1860
  26   2.0000      -0.574220       -15.6253
  27   2.0000      -0.561293       -15.2736
  28   2.0000      -0.555678       -15.1208
  29   2.0000      -0.528530       -14.3820
  30   2.0000      -0.520433       -14.1617
  31   2.0000      -0.508950       -13.8492
  32   2.0000      -0.493500       -13.4288
  33   2.0000      -0.476361       -12.9624
  34   2.0000      -0.463418       -12.6102
  35   2.0000      -0.454700       -12.3730
  36   2.0000      -0.440307       -11.9814
  37   2.0000      -0.437361       -11.9012
  38   2.0000      -0.428856       -11.6698
  39   2.0000      -0.410951       -11.1825
  40   2.0000      -0.401316       -10.9204
  41   2.0000      -0.386125       -10.5070
  42   2.0000      -0.380554       -10.3554
  43   2.0000      -0.373437       -10.1617
  44   2.0000      -0.370436       -10.0801
  45   2.0000      -0.361357        -9.8330
  46   2.0000      -0.352779        -9.5996
  47   2.0000      -0.349555        -9.5119
  48   2.0000      -0.340994        -9.2789
  49   2.0000      -0.337664        -9.1883
  50   2.0000      -0.331194        -9.0122
  51   2.0000      -0.318119        -8.6564
  52   2.0000      -0.316678        -8.6172
  53   2.0000      -0.309713        -8.4277
  54   2.0000      -0.231194        -6.2911
  55   2.0000      -0.147605        -4.0165
  56   0.0000      -0.005756        -0.1566
  57   0.0000       0.004293         0.1168
  58   0.0000       0.011579         0.3151
  59   0.0000       0.015801         0.4300
  60   0.0000       0.028084         0.7642

MULLIKEN ATOMIC CHARGES
-----------------------
   0 C :   -0.993186
   1 C :   -0.442620
   2 N :   -0.195077
   3 H :    0.293168
   4 C :   -0.216564
   5 H :    0.261791
   6 H :    0.003610
   7 H :    0.251673
   8 C :   -0.322392
   9 H :    0.200602
  10 C :   -0.752816
  11 H :    0.233636
  12 C :   -0.409058
  13 H :    0.262319
  14 H :    0.258784
  15 C :   -0.253431
  16 H :    0.220227
  17 H :    0.272690
  18 H :    0.127808
  19 C :   -0.589823
  20 H :    0.272012
  21 H :    0.241241
  22 H :    0.270834
  23 C :   -0.323072
  24 H :    0.295588
  25 H :    0.267526
  26 F :   -0.547338
  27 H :    0.288686
  28 H :    0.368187
  29 C :    0.724441
  30 N :   -0.393975
  31 C :   -1.376518
  32 H :    0.281084
  33 H :    0.298011
  34 H :    0.573377
  35 H :    0.409090
  36 H :    0.139486
Sum of atomic charges:    0.0000000

LOEWDIN ATOMIC CHARGES
----------------------
   0 C :   -0.182349
   1 C :   -0.178535
   2 N :    0.037073
   3 H :    0.109302
   4 C :   -0.206725
   5 H :    0.110218
   6 H :    0.091046
   7 H :    0.116009
   8 C :   -0.213153
   9 H :    0.091321
  10 C :   -0.204084
  11 H :    0.114664
  12 C :   -0.213448
  13 H :    0.109118
  14 H :    0.108550
  15 C :   -0.204823
  16 H :    0.091667
  17 H :    0.113051
  18 H :    0.097845
  19 C :   -0.171330
  20 H :    0.118285
  21 H :    0.121122
  22 H :    0.112153
  23 C :   -0.186492
  24 H :    0.124200
  25 H :    0.125777
  26 F :   -0.067917
  27 H :    0.107340
  28 H :    0.112919
  29 C :   -0.550956
  30 N :    0.124965
  31 C :    0.002136
  32 H :   -0.017613
  33 H :   -0.004458
  34 H :    0.091264
  35 H :    0.059428
  36 H :    0.112430

  Mayer bond orders larger than 0.100000
B(  0-C ,  1-C ) :   0.7857 B(  0-C ,  2-N ) :   1.0655 B(  0-C ,  8-C ) :   0.1337
B(  0-C , 27-H ) :   0.8481 B(  0-C , 28-H ) :   0.8102 B(  0-C , 29-C ) :  -0.1503
B(  0-C , 31-C ) :   0.1224 B(  0-C , 34-H ) :  -0.2985 B(  1-C ,  3-H ) :   0.9410
B(  1-C ,  4-C ) :   0.9946 B(  1-C ,  5-H ) :   0.9371 B(  1-C ,  8-C ) :   0.1405
B(  2-N , 29-C ) :   0.9062 B(  2-N , 34-H ) :   0.7849 B(  4-C ,  6-H ) :   1.3471
B(  4-C ,  7-H ) :   0.8740 B(  4-C ,  8-C ) :   0.3553 B(  4-C ,  9-H ) :  -0.1184
B(  4-C , 10-C ) :   0.1567 B(  4-C , 12-C ) :   0.1155 B(  6-H ,  8-C ) :  -0.1440
B(  8-C ,  9-H ) :   1.0269 B(  8-C , 10-C ) :   0.9113 B(  8-C , 11-H ) :   0.9535
B(  8-C , 15-C ) :   0.1017 B( 10-C , 12-C ) :   0.9331 B( 10-C , 13-H ) :   0.9615
B( 10-C , 14-H ) :   0.9537 B( 10-C , 15-C ) :   0.2287 B( 12-C , 15-C ) :   0.3326
B( 12-C , 16-H ) :   1.0122 B( 12-C , 17-H ) :   0.9440 B( 12-C , 19-C ) :   0.2185
B( 15-C , 16-H ) :  -0.1163 B( 15-C , 18-H ) :   1.1432 B( 15-C , 19-C ) :   0.9293
B( 15-C , 20-H ) :   0.8908 B( 19-C , 21-H ) :   0.9536 B( 19-C , 22-H ) :   0.9363
B( 19-C , 23-C ) :   0.9237 B( 19-C , 26-F ) :   0.1609 B( 23-C , 24-H ) :   0.9547
B( 23-C , 25-H ) :   0.9130 B( 23-C , 26-F ) :   0.5959 B( 26-F , 34-H ) :  -0.1284
B( 29-C , 30-N ) :   1.1448 B( 29-C , 31-C ) :   1.0288 B( 29-C , 33-H ) :  -0.1246
B( 30-N , 35-H ) :   0.7184 B( 30-N , 36-H ) :   1.0140 B( 31-C , 32-H ) :   1.0452
B( 31-C , 33-H ) :   1.1113

Dispersion correction           -0.064838174
FINAL SINGLE POINT ENERGY      -642.219191398765

DIPOLE MOMENT
-------------
                                X             Y             Z
Electronic contribution:     -3.23756      -4.29172       9.07505
Nuclear contribution   :      1.49917       3.80845     -10.61369
                        -----------------------------------------
Total Dipole Moment    :     -1.73839      -0.48327      -1.53864
                        -----------------------------------------
Magnitude (a.u.)       :      2.37128
Magnitude (Debye)      :      6.02732

Rotational constants in cm-1:     0.026547     0.016542     0.011018
Rotational constants in MHz :   795.873737   495.912559   330.323979

                             ****ORCA TERMINATED NORMALLY****
TOTAL RUN TIME: 0 days 0 hours 7 minutes 45 seconds 819 msec
