                         Program Version 5.0.0 -  RELEASE  -
|  1> !TPSS D3BJ RIJCOSX def2-TZVPD def2/J TightSCF
|  2> *xyz -1 1
|  3> C         -0.77894        0.17197        1.80496
|  4> C         -0.60249       -0.63071        0.49224
|  5> H          0.31389       -1.24035        0.60350
|  6> H         -0.36383        0.11332       -0.30117
|  7> O         -1.71206       -1.37684        0.20253
|  8> H         -1.65864        0.77733        1.73736
|  9> H          0.07466        0.79896        1.95712
| 10> H         -0.87474       -0.50584        2.62734
| 11> *
| 12> %MaxCore 64000
| 13>
| 14> %pal nprocs 4
| 15> end
| 16>
| 17> %scf
| 18>   MaxIter 150
| 19> end
| 20>
| 21>
| 22>                          ****END OF INPUT****

CARTESIAN COORDINATES (ANGSTROEM)
---------------------------------
  C     -0.778940    0.171970    1.804960
  C     -0.602490   -0.630710    0.492240
  H      0.313890   -1.240350    0.603500
  H     -0.363830    0.113320   -0.301170
  O     -1.712060   -1.376840    0.202530
  H     -1.658640    0.777330    1.737360
  H      0.074660    0.798960    1.957120
  H     -0.874740   -0.505840    2.627340

 Total Charge           Charge          ....   -1
 Multiplicity           Mult            ....    1
 Number of Electrons    NEL             ....   26
 Basis Dimension        Dim             ....  159

ORBITAL ENERGIES
----------------

  NO   OCC          E(Eh)            E(eV)
   0   2.0000     -18.561275      -505.0780
   1   2.0000      -9.801865      -266.7223
   2   2.0000      -9.776481      -266.0316
   3   2.0000      -0.621787       -16.9197
   4   2.0000      -0.471921       -12.8416
   5   2.0000      -0.328952        -8.9513
   6   2.0000      -0.210108        -5.7173
   7   2.0000      -0.187748        -5.1089
   8   2.0000      -0.134342        -3.6556
   9   2.0000      -0.123475        -3.3599
  10   2.0000      -0.076733        -2.0880
  11   2.0000       0.062683         1.7057
  12   2.0000       0.064439         1.7535
  13   0.0000       0.146564         3.9882
  14   0.0000       0.168927         4.5968
  15   0.0000       0.193950         5.2776
  16   0.0000       0.197525         5.3749
  17   0.0000       0.218458         5.9446

MULLIKEN ATOMIC CHARGES
-----------------------
   0 C :   -1.070314
   1 C :   -0.036477
   2 H :    0.138448
   3 H :    0.134197
   4 O :   -1.011005
   5 H :    0.242828
   6 H :    0.353111
   7 H :    0.249212
Sum of atomic charges:   -1.0000000

LOEWDIN ATOMIC CHARGES
----------------------
   0 C :   -0.172257
   1 C :   -0.605630
   2 H :    0.045676
   3 H :    0.046729
   4 O :   -0.395653
   5 H :    0.033425
   6 H :    0.016029
   7 H :    0.031681

  Mayer bond orders larger than 0.100000
B(  0-C ,  1-C ) :   0.9365 B(  0-C ,  4-O ) :   0.6338 B(  0-C ,  5-H ) :   0.9790
B(  0-C ,  6-H ) :   0.9257 B(  0-C ,  7-H ) :   0.9719 B(  1-C ,  2-H ) :   1.0473
B(  1-C ,  3-H ) :   1.0495 B(  1-C ,  4-O ) :   0.6643 B(  4-O ,  6-H ) :  -0.1051

Dispersion correction           -0.004555562
FINAL SINGLE POINT ENERGY      -154.515213701429

DIPOLE MOMENT
-------------
                                X             Y             Z
Electronic contribution:     -1.72550      -1.98186      -1.62241
Nuclear contribution   :      2.47835       2.80827       2.30058
                        -----------------------------------------
Total Dipole Moment    :      0.75284       0.82642       0.67817
                        -----------------------------------------
Magnitude (a.u.)       :      1.30753
Magnitude (Debye)      :      3.32349

Rotational constants in cm-1:     1.255775     0.327783     0.287473
Rotational constants in MHz : 37647.186859  9826.677683  8618.224821

                             ****ORCA TERMINATED NORMALLY****
TOTAL RUN TIME: 0 days 0 hours 0 minutes 12 seconds 42 msec
