                         Program Version 5.0.0 -  RELEASE  -
|  1> !TPSS D3BJ RIJCOSX def2-TZVPD def2/J TightSCF
|  2> *xyz 1 1
|  3> C         -2.12050        0.88520        1.78951
|  4> C         -0.77894        0.17197        1.80496
|  5> H         -2.32419        1.47265        2.68608
|  6> H         -2.18770        1.54127        0.91948
|  7> N         -3.17690       -0.15948        1.61070
|  8> H         -4.06474        0.23127        1.28675
|  9> H         -3.34407       -0.67151        2.48493
| 10> H         -2.71686       -0.78189        0.93588
| 11> H         -0.65708       -0.37837        0.89547
| 12> H         -0.74207       -0.50050        2.63642
| 13> H          0.00707        0.89251        1.89389
| 14> *
| 15> %MaxCore 64000
| 16>
| 17> %pal nprocs 4
| 18> end
| 19>
| 20> %scf
| 21>   MaxIter 150
| 22> end
| 23>
| 24>
| 25>                          ****END OF INPUT****

CARTESIAN COORDINATES (ANGSTROEM)
---------------------------------
  C     -2.120500    0.885200    1.789510
  C     -0.778940    0.171970    1.804960
  H     -2.324190    1.472650    2.686080
  H     -2.187700    1.541270    0.919480
  N     -3.176900   -0.159480    1.610700
  H     -4.064740    0.231270    1.286750
  H     -3.344070   -0.671510    2.484930
  H     -2.716860   -0.781890    0.935880
  H     -0.657080   -0.378370    0.895470
  H     -0.742070   -0.500500    2.636420
  H      0.007070    0.892510    1.893890

 Total Charge           Charge          ....    1
 Multiplicity           Mult            ....    1
 Number of Electrons    NEL             ....   26
 Basis Dimension        Dim             ....  183

ORBITAL ENERGIES
----------------

  NO   OCC          E(Eh)            E(eV)
   0   2.0000     -14.432833      -392.7374
   1   2.0000     -10.240619      -278.6614
   2   2.0000     -10.166716      -276.6504
   3   2.0000      -1.155632       -31.4464
   4   2.0000      -0.913855       -24.8672
   5   2.0000      -0.797336       -21.6966
   6   2.0000      -0.758789       -20.6477
   7   2.0000      -0.748391       -20.3648
   8   2.0000      -0.650084       -17.6897
   9   2.0000      -0.605399       -16.4737
  10   2.0000      -0.547448       -14.8968
  11   2.0000      -0.541139       -14.7251
  12   2.0000      -0.522443       -14.2164
  13   0.0000      -0.211795        -5.7632
  14   0.0000      -0.153980        -4.1900
  15   0.0000      -0.152844        -4.1591
  16   0.0000      -0.143409        -3.9024
  17   0.0000      -0.114788        -3.1235

MULLIKEN ATOMIC CHARGES
-----------------------
   0 C :   -0.118222
   1 C :   -0.955464
   2 H :    0.228031
   3 H :    0.224633
   4 N :   -0.232221
   5 H :    0.309742
   6 H :    0.309678
   7 H :    0.312389
   8 H :    0.398876
   9 H :    0.320727
  10 H :    0.201831
Sum of atomic charges:    1.0000000

LOEWDIN ATOMIC CHARGES
----------------------
   0 C :   -0.186701
   1 C :   -0.050501
   2 H :    0.134541
   3 H :    0.133483
   4 N :    0.186019
   5 H :    0.177609
   6 H :    0.179878
   7 H :    0.166064
   8 H :    0.082361
   9 H :    0.084391
  10 H :    0.092855

  Mayer bond orders larger than 0.100000
B(  0-C ,  1-C ) :   0.8553 B(  0-C ,  2-H ) :   0.9353 B(  0-C ,  3-H ) :   0.9297
B(  0-C ,  4-N ) :   0.9688 B(  1-C ,  8-H ) :   0.8380 B(  1-C ,  9-H ) :   0.9184
B(  1-C , 10-H ) :   1.0123 B(  4-N ,  5-H ) :   0.8817 B(  4-N ,  6-H ) :   0.8856
B(  4-N ,  7-H ) :   0.8557

Dispersion correction           -0.007538507
FINAL SINGLE POINT ENERGY      -135.611490907292

DIPOLE MOMENT
-------------
                                X             Y             Z
Electronic contribution:     -1.79580      -0.14613      -0.05430
Nuclear contribution   :      0.50278      -0.30871      -0.06979
                        -----------------------------------------
Total Dipole Moment    :     -1.29302      -0.45485      -0.12409
                        -----------------------------------------
Magnitude (a.u.)       :      1.37629
Magnitude (Debye)      :      3.49825

Rotational constants in cm-1:     0.963746     0.295157     0.256910
Rotational constants in MHz : 28892.375247  8848.576767  7701.963879

                             ****ORCA TERMINATED NORMALLY****
TOTAL RUN TIME: 0 days 0 hours 0 minutes 12 seconds 579 msec
