                         Program Version 5.0.0 -  RELEASE  -
|  1> !TPSS D3BJ RIJCOSX def2-TZVPD def2/J TightSCF xyzfile
|  2>
|  3> *xyzfile 0 1 B.xyz
|  4>
|  5> %MaxCore 64000
|  6>
|  7> %pal nprocs 4
|  8> end
|  9>
| 10> %scf
| 11>   MaxIter 150
| 12> end
| 13>
| 14>
| 15>                          ****END OF INPUT****

CARTESIAN COORDINATES (ANGSTROEM)
---------------------------------
  C     -2.120502    0.885196    1.789506
  C     -0.778939    0.171966    1.804965
  H     -2.324193    1.472649    2.686078
  H     -2.187698    1.541272    0.919482
  N     -3.176900   -0.159484    1.610700
  H      0.015695    0.910767    1.939153
  H     -0.743553   -0.506827    2.665420
  C     -0.602493   -0.630712    0.492240
  H      0.313894   -1.240346    0.603498
  H     -0.363829    0.113322   -0.301169
  O     -1.712061   -1.376836    0.202535
  H     -4.064736    0.231272    1.286754
  H     -3.344073   -0.671511    2.484928
  H     -2.716861   -0.781886    0.935880

 Total Charge           Charge          ....    0
 Multiplicity           Mult            ....    1
 Number of Electrons    NEL             ....   42
 Basis Dimension        Dim             ....  269

ORBITAL ENERGIES
----------------

  NO   OCC          E(Eh)            E(eV)
   0   2.0000     -18.759746      -510.4786
   1   2.0000     -14.181324      -385.8934
   2   2.0000     -10.048471      -273.4328
   3   2.0000      -9.983496      -271.6648
   4   2.0000      -9.979631      -271.5596
   5   2.0000      -0.930244       -25.3132
   6   2.0000      -0.831868       -22.6363
   7   2.0000      -0.716465       -19.4960
   8   2.0000      -0.605684       -16.4815
   9   2.0000      -0.545559       -14.8454
  10   2.0000      -0.526485       -14.3264
  11   2.0000      -0.500436       -13.6175
  12   2.0000      -0.444363       -12.0917
  13   2.0000      -0.397692       -10.8217
  14   2.0000      -0.366275        -9.9668
  15   2.0000      -0.363894        -9.9020
  16   2.0000      -0.319999        -8.7076
  17   2.0000      -0.304949        -8.2981
  18   2.0000      -0.277774        -7.5586
  19   2.0000      -0.147228        -4.0063
  20   2.0000      -0.138608        -3.7717
  21   0.0000      -0.035481        -0.9655
  22   0.0000       0.002597         0.0707
  23   0.0000       0.004310         0.1173
  24   0.0000       0.027410         0.7459
  25   0.0000       0.047976         1.3055

MULLIKEN ATOMIC CHARGES
-----------------------
   0 C :   -0.273340
   1 C :   -0.337673
   2 H :    0.151912
   3 H :    0.190308
   4 N :   -0.193966
   5 H :    0.132563
   6 H :    0.211712
   7 C :   -0.057357
   8 H :    0.158794
   9 H :    0.153904
  10 O :   -0.930161
  11 H :    0.264834
  12 H :    0.278166
  13 H :    0.250304
Sum of atomic charges:    0.0000000

LOEWDIN ATOMIC CHARGES
----------------------
   0 C :   -0.172107
   1 C :   -0.185148
   2 H :    0.110257
   3 H :    0.123934
   4 N :    0.131331
   5 H :    0.104939
   6 H :    0.105981
   7 C :   -0.417307
   8 H :    0.092880
   9 H :    0.093389
  10 O :   -0.265684
  11 H :    0.149989
  12 H :    0.155224
  13 H :   -0.027677

  Mayer bond orders larger than 0.100000
B(  0-C ,  1-C ) :   0.9598 B(  0-C ,  2-H ) :   0.9820 B(  0-C ,  3-H ) :   0.9015
B(  0-C ,  4-N ) :   1.0028 B(  1-C ,  5-H ) :   0.9944 B(  1-C ,  6-H ) :   0.9186
B(  1-C ,  7-C ) :   1.1083 B(  1-C , 10-O ) :   0.2229 B(  4-N , 11-H ) :   0.9169
B(  4-N , 12-H ) :   0.8932 B(  4-N , 13-H ) :   0.6659 B(  7-C ,  8-H ) :   1.0008
B(  7-C ,  9-H ) :   1.0117 B(  7-C , 10-O ) :   0.6647 B( 10-O , 13-H ) :   0.4118

Dispersion correction           -0.012737707
FINAL SINGLE POINT ENERGY      -249.802313775310

DIPOLE MOMENT
-------------
                                X             Y             Z
Electronic contribution:     -1.49186      -1.52054      -0.85829
Nuclear contribution   :      0.08650       3.01678       2.47433
                        -----------------------------------------
Total Dipole Moment    :     -1.40536       1.49624       1.61604
                        -----------------------------------------
Magnitude (a.u.)       :      2.61254
Magnitude (Debye)      :      6.64055

Rotational constants in cm-1:     0.238796     0.156489     0.106146
Rotational constants in MHz :  7158.916762  4691.413084  3182.185740

                             ****ORCA TERMINATED NORMALLY****
TOTAL RUN TIME: 0 days 0 hours 0 minutes 24 seconds 517 msec
