                         Program Version 5.0.0 -  RELEASE  -
|  1> !TPSS D3BJ RIJCOSX def2-TZVPD def2/J TightSCF
|  2> *xyz 0 1
|  3> C         -0.77894        0.17197        1.80496
|  4> C         -0.60249       -0.63071        0.49224
|  5> H          0.31389       -1.24035        0.60350
|  6> H         -0.36383        0.11332       -0.30117
|  7> F         -1.71206       -1.37684        0.20253
|  8> H         -1.65864        0.77733        1.73736
|  9> H          0.07466        0.79896        1.95712
| 10> H         -0.87474       -0.50584        2.62734
| 11> *
| 12> %MaxCore 64000
| 13>
| 14> %pal nprocs 4
| 15> end
| 16>
| 17> %scf
| 18>   MaxIter 150
| 19> end
| 20>
| 21>
| 22>                          ****END OF INPUT****

CARTESIAN COORDINATES (ANGSTROEM)
---------------------------------
  C     -0.778940    0.171970    1.804960
  C     -0.602490   -0.630710    0.492240
  H      0.313890   -1.240350    0.603500
  H     -0.363830    0.113320   -0.301170
  F     -1.712060   -1.376840    0.202530
  H     -1.658640    0.777330    1.737360
  H      0.074660    0.798960    1.957120
  H     -0.874740   -0.505840    2.627340

 Total Charge           Charge          ....    0
 Multiplicity           Mult            ....    1
 Number of Electrons    NEL             ....   26
 Basis Dimension        Dim             ....  159

ORBITAL ENERGIES
----------------

  NO   OCC          E(Eh)            E(eV)
   0   2.0000     -24.398481      -663.9164
   1   2.0000     -10.062911      -273.8257
   2   2.0000      -9.980414      -271.5809
   3   2.0000      -1.123803       -30.5802
   4   2.0000      -0.707197       -19.2438
   5   2.0000      -0.582390       -15.8476
   6   2.0000      -0.460405       -12.5282
   7   2.0000      -0.447029       -12.1643
   8   2.0000      -0.406872       -11.0715
   9   2.0000      -0.362662        -9.8685
  10   2.0000      -0.360860        -9.8195
  11   2.0000      -0.291429        -7.9302
  12   2.0000      -0.289349        -7.8736
  13   0.0000       0.000783         0.0213
  14   0.0000       0.027932         0.7601
  15   0.0000       0.040795         1.1101
  16   0.0000       0.047236         1.2854
  17   0.0000       0.072457         1.9716

MULLIKEN ATOMIC CHARGES
-----------------------
   0 C :   -0.743110
   1 C :    0.039393
   2 H :    0.160152
   3 H :    0.157434
   4 F :   -0.300343
   5 H :    0.213011
   6 H :    0.263401
   7 H :    0.210062
Sum of atomic charges:   -0.0000000

LOEWDIN ATOMIC CHARGES
----------------------
   0 C :   -0.075977
   1 C :   -0.286486
   2 H :    0.105912
   3 H :    0.108217
   4 F :   -0.033491
   5 H :    0.060454
   6 H :    0.062094
   7 H :    0.059277

  Mayer bond orders larger than 0.100000
B(  0-C ,  1-C ) :   1.0036 B(  0-C ,  4-F ) :   0.1009 B(  0-C ,  5-H ) :   0.9588
B(  0-C ,  6-H ) :   0.9228 B(  0-C ,  7-H ) :   0.9581 B(  1-C ,  2-H ) :   0.9602
B(  1-C ,  3-H ) :   0.9614 B(  1-C ,  4-F ) :   0.7819

Dispersion correction           -0.004201306
FINAL SINGLE POINT ENERGY      -179.158499928971

DIPOLE MOMENT
-------------
                                X             Y             Z
Electronic contribution:     -2.76196      -3.31089      -2.83361
Nuclear contribution   :      3.27800       3.70743       3.04146
                        -----------------------------------------
Total Dipole Moment    :      0.51604       0.39654       0.20784
                        -----------------------------------------
Magnitude (a.u.)       :      0.68319
Magnitude (Debye)      :      1.73652

Rotational constants in cm-1:     1.234437     0.305084     0.268865
Rotational constants in MHz : 37007.496448  9146.194083  8060.380630

                             ****ORCA TERMINATED NORMALLY****
TOTAL RUN TIME: 0 days 0 hours 0 minutes 10 seconds 373 msec
