                         Program Version 5.0.0 -  RELEASE  -
|  1> !TPSS D3BJ RIJCOSX def2-TZVPD def2/J TightSCF
|  2> *xyz 0 1
|  3> C         -2.12050        0.88520        1.78951
|  4> C         -0.77894        0.17197        1.80496
|  5> H         -2.32419        1.47265        2.68608
|  6> H         -2.18770        1.54127        0.91948
|  7> C         -3.17690       -0.15948        1.61070
|  8> H         -4.06474        0.23127        1.28675
|  9> H         -3.34407       -0.67151        2.48493
| 10> H         -2.71686       -0.78189        0.93588
| 11> H         -0.65708       -0.37837        0.89547
| 12> H         -0.74207       -0.50050        2.63642
| 13> H          0.00707        0.89251        1.89389
| 14> *
| 15> %MaxCore 64000
| 16>
| 17> %pal nprocs 4
| 18> end
| 19>
| 20> %scf
| 21>   MaxIter 150
| 22> end
| 23>
| 24>
| 25>                          ****END OF INPUT****

CARTESIAN COORDINATES (ANGSTROEM)
---------------------------------
  C     -2.120500    0.885200    1.789510
  C     -0.778940    0.171970    1.804960
  H     -2.324190    1.472650    2.686080
  H     -2.187700    1.541270    0.919480
  C     -3.176900   -0.159480    1.610700
  H     -4.064740    0.231270    1.286750
  H     -3.344070   -0.671510    2.484930
  H     -2.716860   -0.781890    0.935880
  H     -0.657080   -0.378370    0.895470
  H     -0.742070   -0.500500    2.636420
  H      0.007070    0.892510    1.893890

 Total Charge           Charge          ....    0
 Multiplicity           Mult            ....    1
 Number of Electrons    NEL             ....   26
 Basis Dimension        Dim             ....  183

ORBITAL ENERGIES
----------------

  NO   OCC          E(Eh)            E(eV)
   0   2.0000      -9.970661      -271.3155
   1   2.0000      -9.963813      -271.1291
   2   2.0000      -9.943922      -270.5879
   3   2.0000      -0.737940       -20.0804
   4   2.0000      -0.634487       -17.2653
   5   2.0000      -0.538983       -14.6665
   6   2.0000      -0.429512       -11.6876
   7   2.0000      -0.411497       -11.1974
   8   2.0000      -0.360899        -9.8206
   9   2.0000      -0.347443        -9.4544
  10   2.0000      -0.303322        -8.2538
  11   2.0000      -0.295199        -8.0328
  12   2.0000      -0.292070        -7.9476
  13   0.0000       0.005022         0.1367
  14   0.0000       0.029333         0.7982
  15   0.0000       0.032486         0.8840
  16   0.0000       0.049841         1.3562
  17   0.0000       0.071422         1.9435

MULLIKEN ATOMIC CHARGES
-----------------------
   0 C :    0.129796
   1 C :   -0.962945
   2 H :    0.151757
   3 H :    0.137832
   4 C :   -0.994856
   5 H :    0.218721
   6 H :    0.288075
   7 H :    0.266646
   8 H :    0.300321
   9 H :    0.268432
  10 H :    0.196222
Sum of atomic charges:   -0.0000000

LOEWDIN ATOMIC CHARGES
----------------------
   0 C :   -0.305270
   1 C :   -0.116091
   2 H :    0.099795
   3 H :    0.100061
   4 C :   -0.116369
   5 H :    0.048049
   6 H :    0.053938
   7 H :    0.045680
   8 H :    0.064237
   9 H :    0.067543
  10 H :    0.058428

  Mayer bond orders larger than 0.100000
B(  0-C ,  1-C ) :   0.7868 B(  0-C ,  2-H ) :   0.9366 B(  0-C ,  3-H ) :   0.9555
B(  0-C ,  4-C ) :   0.8277 B(  1-C ,  4-C ) :   0.2044 B(  1-C ,  8-H ) :   0.9359
B(  1-C ,  9-H ) :   0.9568 B(  1-C , 10-H ) :   1.0081 B(  4-C ,  5-H ) :   0.9702
B(  4-C ,  6-H ) :   0.9374 B(  4-C ,  7-H ) :   0.9666

Dispersion correction           -0.007560930
FINAL SINGLE POINT ENERGY      -119.193490555906

DIPOLE MOMENT
-------------
                                X             Y             Z
Electronic contribution:     -0.14629       0.47165       0.11330
Nuclear contribution   :      0.13334      -0.45108      -0.10852
                        -----------------------------------------
Total Dipole Moment    :     -0.01295       0.02057       0.00478
                        -----------------------------------------
Magnitude (a.u.)       :      0.02477
Magnitude (Debye)      :      0.06297

Rotational constants in cm-1:     0.972269     0.310387     0.269029
Rotational constants in MHz : 29147.878530  9305.178981  8065.286472

                             ****ORCA TERMINATED NORMALLY****
TOTAL RUN TIME: 0 days 0 hours 0 minutes 12 seconds 844 msec
