                         Program Version 5.0.0 -  RELEASE  -
|  1> !TPSS D3BJ RIJCOSX def2-TZVPD def2/J TightSCF xyzfile
|  2>
|  3> *xyzfile 0 1 D.xyz
|  4>
|  5> %MaxCore 64000
|  6>
|  7> %pal nprocs 4
|  8> end
|  9>
| 10> %scf
| 11>   MaxIter 150
| 12> end
| 13>
| 14>
| 15>                          ****END OF INPUT****

CARTESIAN COORDINATES (ANGSTROEM)
---------------------------------
  C     -2.120502    0.885196    1.789506
  C     -0.778939    0.171966    1.804965
  H     -2.324193    1.472649    2.686078
  H     -2.187698    1.541272    0.919482
  C     -3.176900   -0.159484    1.610700
  H      0.015695    0.910767    1.939153
  H     -0.743553   -0.506827    2.665420
  C     -0.602493   -0.630712    0.492240
  H      0.313894   -1.240346    0.603498
  H     -0.363829    0.113322   -0.301169
  F     -1.712061   -1.376836    0.202535
  H     -4.064736    0.231272    1.286754
  H     -3.344073   -0.671511    2.484928
  H     -2.716861   -0.781886    0.935880

 Total Charge           Charge          ....    0
 Multiplicity           Mult            ....    1
 Number of Electrons    NEL             ....   42
 Basis Dimension        Dim             ....  269

ORBITAL ENERGIES
----------------

  NO   OCC          E(Eh)            E(eV)
   0   2.0000     -24.415862      -664.3894
   1   2.0000     -10.070295      -274.0267
   2   2.0000      -9.989359      -271.8243
   3   2.0000      -9.969219      -271.2762
   4   2.0000      -9.909825      -269.6600
   5   2.0000      -1.155135       -31.4328
   6   2.0000      -0.747745       -20.3472
   7   2.0000      -0.679676       -18.4949
   8   2.0000      -0.586964       -15.9721
   9   2.0000      -0.542533       -14.7631
  10   2.0000      -0.478523       -13.0213
  11   2.0000      -0.477919       -13.0048
  12   2.0000      -0.439356       -11.9555
  13   2.0000      -0.398885       -10.8542
  14   2.0000      -0.367894       -10.0109
  15   2.0000      -0.360923        -9.8212
  16   2.0000      -0.339764        -9.2454
  17   2.0000      -0.305887        -8.3236
  18   2.0000      -0.290677        -7.9097
  19   2.0000      -0.288389        -7.8475
  20   2.0000      -0.237204        -6.4546
  21   0.0000      -0.001252        -0.0341
  22   0.0000       0.022229         0.6049
  23   0.0000       0.023203         0.6314
  24   0.0000       0.026841         0.7304
  25   0.0000       0.051004         1.3879

MULLIKEN ATOMIC CHARGES
-----------------------
   0 C :   -0.058405
   1 C :   -0.317124
   2 H :    0.059871
   3 H :    0.171475
   4 C :   -1.091043
   5 H :    0.110907
   6 H :    0.200247
   7 C :   -0.062976
   8 H :    0.171904
   9 H :    0.191992
  10 F :   -0.293317
  11 H :    0.227569
  12 H :    0.289244
  13 H :    0.399657
Sum of atomic charges:   -0.0000000

LOEWDIN ATOMIC CHARGES
----------------------
   0 C :   -0.249008
   1 C :   -0.181364
   2 H :    0.101259
   3 H :    0.107411
   4 C :   -0.097439
   5 H :    0.108233
   6 H :    0.111766
   7 C :   -0.199884
   8 H :    0.115040
   9 H :    0.123326
  10 F :   -0.027134
  11 H :    0.053214
  12 H :    0.058950
  13 H :   -0.024370

  Mayer bond orders larger than 0.100000
B(  0-C ,  1-C ) :   0.8805 B(  0-C ,  2-H ) :   1.0014 B(  0-C ,  3-H ) :   0.9304
B(  0-C ,  4-C ) :   0.8699 B(  1-C ,  4-C ) :   0.2254 B(  1-C ,  5-H ) :   0.9822
B(  1-C ,  6-H ) :   0.9431 B(  1-C ,  7-C ) :   1.0912 B(  4-C , 11-H ) :   0.9319
B(  4-C , 12-H ) :   0.9003 B(  4-C , 13-H ) :   1.1002 B(  7-C ,  8-H ) :   0.9595
B(  7-C ,  9-H ) :   0.9609 B(  7-C , 10-F ) :   0.8018 B( 10-F , 13-H ) :  -0.1450
B( 12-H , 13-H ) :   0.1084

Dispersion correction           -0.012177408
FINAL SINGLE POINT ENERGY      -257.770816653629

DIPOLE MOMENT
-------------
                                X             Y             Z
Electronic contribution:      0.85595      -4.22012      -3.74390
Nuclear contribution   :     -0.20666       4.43855       3.76066
                        -----------------------------------------
Total Dipole Moment    :      0.64928       0.21843       0.01676
                        -----------------------------------------
Magnitude (a.u.)       :      0.68525
Magnitude (Debye)      :      1.74176

Rotational constants in cm-1:     0.236353     0.155239     0.105045
Rotational constants in MHz :  7085.692869  4653.957069  3149.180346

                             ****ORCA TERMINATED NORMALLY****
TOTAL RUN TIME: 0 days 0 hours 0 minutes 21 seconds 439 msec
