                         Program Version 5.0.0 -  RELEASE  -
|  1> !PBE0 D3BJ RIJCOSX def2-SVPD def2/J TightSCF
|  2> *xyz -1 1
|  3> C         -0.01741        0.08059       -2.77841
|  4> C         -0.90349       -0.87394       -1.98739
|  5> H         -0.50255       -1.89210       -2.08120
|  6> H         -1.91704       -0.89543       -2.40628
|  7> C         -0.96015       -0.52236       -0.48987
|  8> H         -1.69039       -1.20813       -0.02168
|  9> H         -1.41449        0.48633       -0.40668
| 10> O          0.26170       -0.58031        0.13861
| 11> H         -0.01329       -0.20776       -3.80881
| 12> H          0.98025        0.04284       -2.39348
| 13> H         -0.39697        1.07694       -2.68836
| 14> *
| 15>
| 16> %MaxCore 64000
| 17>
| 18> %pal nprocs 4
| 19> end
| 20>
| 21> %scf
| 22>   MaxIter 150
| 23> end
| 24>
| 25>
| 26>                          ****END OF INPUT****

CARTESIAN COORDINATES (ANGSTROEM)
---------------------------------
  C     -0.017410    0.080590   -2.778410
  C     -0.903490   -0.873940   -1.987390
  H     -0.502550   -1.892100   -2.081200
  H     -1.917040   -0.895430   -2.406280
  C     -0.960150   -0.522360   -0.489870
  H     -1.690390   -1.208130   -0.021680
  H     -1.414490    0.486330   -0.406680
  O      0.261700   -0.580310    0.138610
  H     -0.013290   -0.207760   -3.808810
  H      0.980250    0.042840   -2.393480
  H     -0.396970    1.076940   -2.688360

 Total Charge           Charge          ....   -1
 Multiplicity           Mult            ....    1
 Number of Electrons    NEL             ....   34
 Basis Dimension        Dim             ....  139

ORBITAL ENERGIES
----------------

  NO   OCC          E(Eh)            E(eV)
   0   2.0000     -18.887062      -513.9431
   1   2.0000     -10.049673      -273.4655
   2   2.0000     -10.047160      -273.3971
   3   2.0000     -10.042108      -273.2597
   4   2.0000      -0.698881       -19.0175
   5   2.0000      -0.600601       -16.3432
   6   2.0000      -0.481187       -13.0938
   7   2.0000      -0.378614       -10.3026
   8   2.0000      -0.287829        -7.8322
   9   2.0000      -0.280243        -7.6258
  10   2.0000      -0.232300        -6.3212
  11   2.0000      -0.199422        -5.4266
  12   2.0000      -0.173688        -4.7263
  13   2.0000      -0.164689        -4.4814
  14   2.0000      -0.125260        -3.4085
  15   2.0000       0.015321         0.4169
  16   2.0000       0.019286         0.5248
  17   0.0000       0.172014         4.6807
  18   0.0000       0.197304         5.3689
  19   0.0000       0.213062         5.7977
  20   0.0000       0.241960         6.5841
  21   0.0000       0.257659         7.0112

MULLIKEN ATOMIC CHARGES
-----------------------
   0 C :    0.442327
   1 C :   -0.677380
   2 H :    0.010311
   3 H :   -0.011259
   4 C :    0.409907
   5 H :   -0.118902
   6 H :   -0.065875
   7 O :   -0.949703
   8 H :   -0.039802
   9 H :    0.024087
  10 H :   -0.023710
Sum of atomic charges:   -1.0000000

LOEWDIN ATOMIC CHARGES
----------------------
   0 C :    0.079236
   1 C :   -0.122638
   2 H :    0.006028
   3 H :   -0.010465
   4 C :   -0.215203
   5 H :   -0.032915
   6 H :   -0.027045
   7 O :   -0.568340
   8 H :   -0.047011
   9 H :   -0.028909
  10 H :   -0.032738

  Mayer bond orders larger than 0.100000
B(  0-C ,  1-C ) :   1.2705 B(  0-C ,  8-H ) :   0.8328 B(  0-C ,  9-H ) :   0.8566
B(  0-C , 10-H ) :   0.8610 B(  1-C ,  2-H ) :   0.9985 B(  1-C ,  3-H ) :   1.0214
B(  1-C ,  4-C ) :   1.0450 B(  1-C ,  5-H ) :   0.1295 B(  1-C ,  6-H ) :   0.1148
B(  1-C ,  7-O ) :   0.1353 B(  1-C ,  8-H ) :   0.1708 B(  1-C ,  9-H ) :   0.1887
B(  1-C , 10-H ) :   0.1722 B(  2-H ,  4-C ) :   0.1174 B(  4-C ,  5-H ) :   0.9780
B(  4-C ,  6-H ) :   0.9660 B(  4-C ,  7-O ) :   1.0692

Dispersion correction           -0.005477430
FINAL SINGLE POINT ENERGY      -193.384512496842

DIPOLE MOMENT
-------------
                                X             Y             Z
Electronic contribution:      1.22733      -0.49094       2.68502
Nuclear contribution   :     -2.03764       0.64089      -4.61583
                        -----------------------------------------
Total Dipole Moment    :     -0.81032       0.14995      -1.93081
                        -----------------------------------------
Magnitude (a.u.)       :      2.09932
Magnitude (Debye)      :      5.33604

Rotational constants in cm-1:     0.508897     0.174909     0.148249
Rotational constants in MHz : 15256.351998  5243.652192  4444.387232

                             ****ORCA TERMINATED NORMALLY****
TOTAL RUN TIME: 0 days 0 hours 0 minutes 10 seconds 315 msec
