                         Program Version 5.0.0 -  RELEASE  -
|  1> !PBE0 D3BJ RIJCOSX def2-SVPD def2/J TightSCF
|  2> *xyz 1 1
|  3> C          4.36645       -0.13321       -1.41606
|  4> C          4.50829       -0.93187       -2.72425
|  5> H          4.75372       -1.97205       -2.48841
|  6> C          3.29416       -0.91821       -3.65657
|  7> H          5.38564       -0.53624       -3.24264
|  8> C          3.05650       -0.32080       -0.70738
|  9> N          2.38983        0.71129       -0.24391
| 10> N          2.51600       -1.50772       -0.55023
| 11> H          2.96768       -2.32291       -0.95631
| 12> H          1.54987       -1.49063       -0.24988
| 13> H          2.74307        1.64947       -0.41280
| 14> H          1.44036        0.50278        0.03703
| 15> H          4.48784        0.93300       -1.61157
| 16> H          5.16967       -0.41443       -0.72982
| 17> H          3.50670       -1.50229       -4.52754
| 18> H          3.07837        0.08892       -3.94644
| 19> H          2.44880       -1.33173       -3.14739
| 20> *
| 21>
| 22> %MaxCore 64000
| 23>
| 24> %pal nprocs 4
| 25> end
| 26>
| 27> %scf
| 28>   MaxIter 150
| 29> end
| 30>
| 31>
| 32>                          ****END OF INPUT****

CARTESIAN COORDINATES (ANGSTROEM)
---------------------------------
  C      4.366450   -0.133210   -1.416060
  C      4.508290   -0.931870   -2.724250
  H      4.753720   -1.972050   -2.488410
  C      3.294160   -0.918210   -3.656570
  H      5.385640   -0.536240   -3.242640
  C      3.056500   -0.320800   -0.707380
  N      2.389830    0.711290   -0.243910
  N      2.516000   -1.507720   -0.550230
  H      2.967680   -2.322910   -0.956310
  H      1.549870   -1.490630   -0.249880
  H      2.743070    1.649470   -0.412800
  H      1.440360    0.502780    0.037030
  H      4.487840    0.933000   -1.611570
  H      5.169670   -0.414430   -0.729820
  H      3.506700   -1.502290   -4.527540
  H      3.078370    0.088920   -3.946440
  H      2.448800   -1.331730   -3.147390

 Total Charge           Charge          ....    1
 Multiplicity           Mult            ....    1
 Number of Electrons    NEL             ....   48
 Basis Dimension        Dim             ....  208

ORBITAL ENERGIES
----------------

  NO   OCC          E(Eh)            E(eV)
   0   2.0000     -14.641353      -398.4115
   1   2.0000     -14.639784      -398.3688
   2   2.0000     -10.552586      -287.1505
   3   2.0000     -10.430820      -283.8371
   4   2.0000     -10.398033      -282.9449
   5   2.0000     -10.362754      -281.9849
   6   2.0000      -1.230619       -33.4869
   7   2.0000      -1.122437       -30.5431
   8   2.0000      -0.992456       -27.0061
   9   2.0000      -0.905587       -24.6423
  10   2.0000      -0.847546       -23.0629
  11   2.0000      -0.807894       -21.9839
  12   2.0000      -0.782628       -21.2964
  13   2.0000      -0.748717       -20.3736
  14   2.0000      -0.718521       -19.5519
  15   2.0000      -0.673393       -18.3240
  16   2.0000      -0.646280       -17.5862
  17   2.0000      -0.608587       -16.5605
  18   2.0000      -0.594171       -16.1682
  19   2.0000      -0.574880       -15.6433
  20   2.0000      -0.522157       -14.2086
  21   2.0000      -0.516579       -14.0568
  22   2.0000      -0.508045       -13.8246
  23   2.0000      -0.499197       -13.5838
  24   0.0000      -0.208328        -5.6689
  25   0.0000      -0.152887        -4.1603
  26   0.0000      -0.112005        -3.0478
  27   0.0000      -0.107578        -2.9274
  28   0.0000      -0.075447        -2.0530

MULLIKEN ATOMIC CHARGES
-----------------------
   0 C :    0.119034
   1 C :   -0.530419
   2 H :    0.044896
   3 C :    0.589026
   4 H :   -0.101866
   5 C :    0.723400
   6 N :   -0.046473
   7 N :   -0.066422
   8 H :    0.065637
   9 H :   -0.061507
  10 H :    0.028586
  11 H :   -0.055260
  12 H :    0.224838
  13 H :    0.051241
  14 H :    0.006388
  15 H :    0.033860
  16 H :   -0.024959
Sum of atomic charges:    1.0000000

LOEWDIN ATOMIC CHARGES
----------------------
   0 C :    0.051433
   1 C :   -0.051404
   2 H :    0.026859
   3 C :    0.139345
   4 H :    0.041594
   5 C :   -0.043865
   6 N :    0.279495
   7 N :    0.284562
   8 H :    0.056424
   9 H :    0.046645
  10 H :    0.059381
  11 H :    0.044661
  12 H :    0.039982
  13 H :    0.058545
  14 H :    0.003670
  15 H :   -0.003118
  16 H :   -0.034207

  Mayer bond orders larger than 0.100000
B(  0-C ,  1-C ) :   1.2520 B(  0-C ,  2-H ) :   0.1024 B(  0-C ,  4-H ) :   0.1099
B(  0-C ,  5-C ) :   1.1624 B(  0-C , 12-H ) :   0.7850 B(  0-C , 13-H ) :   0.7882
B(  1-C ,  2-H ) :   0.9233 B(  1-C ,  3-C ) :   1.3662 B(  1-C ,  4-H ) :   1.0083
B(  1-C , 12-H ) :   0.1212 B(  1-C , 13-H ) :   0.1035 B(  1-C , 14-H ) :   0.1962
B(  1-C , 15-H ) :   0.1920 B(  1-C , 16-H ) :   0.1846 B(  3-C , 14-H ) :   0.7862
B(  3-C , 15-H ) :   0.8117 B(  3-C , 16-H ) :   0.8525 B(  5-C ,  6-N ) :   0.9984
B(  5-C ,  7-N ) :   1.0519 B(  5-C ,  9-H ) :  -0.1492 B(  5-C , 11-H ) :  -0.1163
B(  5-C , 12-H ) :   0.1121 B(  5-C , 13-H ) :   0.1632 B(  6-N ,  7-N ) :   0.2227
B(  6-N , 10-H ) :   1.1251 B(  6-N , 11-H ) :   1.2044 B(  7-N ,  8-H ) :   1.0214
B(  7-N ,  9-H ) :   1.2710 B(  8-H ,  9-H ) :  -0.1683 B( 10-H , 11-H ) :  -0.1442

Dispersion correction           -0.011728642
FINAL SINGLE POINT ENERGY      -267.855321124746

DIPOLE MOMENT
-------------
                                X             Y             Z
Electronic contribution:     -1.79204       0.89354       5.03549
Nuclear contribution   :      0.92830      -0.63755      -3.99475
                        -----------------------------------------
Total Dipole Moment    :     -0.86374       0.25599       1.04074
                        -----------------------------------------
Magnitude (a.u.)       :      1.37648
Magnitude (Debye)      :      3.49874

Rotational constants in cm-1:     0.183706     0.077449     0.071296
Rotational constants in MHz :  5507.368439  2321.870034  2137.394204

                             ****ORCA TERMINATED NORMALLY****
TOTAL RUN TIME: 0 days 0 hours 0 minutes 19 seconds 685 msec
