                         Program Version 5.0.0 -  RELEASE  -
|  1> !PBE0 D3BJ RIJCOSX def2-SVPD def2/J TightSCF
|  2> *xyz 0 1
|  3> C         -0.01741        0.08059       -2.77841
|  4> C         -0.90349       -0.87394       -1.98739
|  5> H         -0.50255       -1.89210       -2.08120
|  6> H         -1.91704       -0.89543       -2.40628
|  7> C         -0.96015       -0.52236       -0.48987
|  8> H         -1.69039       -1.20813       -0.02168
|  9> H         -1.41449        0.48633       -0.40668
| 10> F          0.26170       -0.58031        0.13861
| 11> H         -0.01329       -0.20776       -3.80881
| 12> H          0.98025        0.04284       -2.39348
| 13> H         -0.39697        1.07694       -2.68836
| 14> *
| 15>
| 16> %MaxCore 64000
| 17>
| 18> %pal nprocs 4
| 19> end
| 20>
| 21> %scf
| 22>   MaxIter 150
| 23> end
| 24>
| 25>
| 26>                          ****END OF INPUT****

CARTESIAN COORDINATES (ANGSTROEM)
---------------------------------
  C     -0.017410    0.080590   -2.778410
  C     -0.903490   -0.873940   -1.987390
  H     -0.502550   -1.892100   -2.081200
  H     -1.917040   -0.895430   -2.406280
  C     -0.960150   -0.522360   -0.489870
  H     -1.690390   -1.208130   -0.021680
  H     -1.414490    0.486330   -0.406680
  F      0.261700   -0.580310    0.138610
  H     -0.013290   -0.207760   -3.808810
  H      0.980250    0.042840   -2.393480
  H     -0.396970    1.076940   -2.688360

 Total Charge           Charge          ....    0
 Multiplicity           Mult            ....    1
 Number of Electrons    NEL             ....   34
 Basis Dimension        Dim             ....  139

ORBITAL ENERGIES
----------------

  NO   OCC          E(Eh)            E(eV)
   0   2.0000     -24.772659      -674.0983
   1   2.0000     -10.310880      -280.5733
   2   2.0000     -10.240944      -278.6702
   3   2.0000     -10.219381      -278.0835
   4   2.0000      -1.214032       -33.0355
   5   2.0000      -0.808049       -21.9881
   6   2.0000      -0.705753       -19.2045
   7   2.0000      -0.612382       -16.6638
   8   2.0000      -0.526996       -14.3403
   9   2.0000      -0.509762       -13.8713
  10   2.0000      -0.486610       -13.2413
  11   2.0000      -0.451452       -12.2846
  12   2.0000      -0.416940       -11.3455
  13   2.0000      -0.391335       -10.6488
  14   2.0000      -0.365896        -9.9565
  15   2.0000      -0.340823        -9.2743
  16   2.0000      -0.339903        -9.2492
  17   0.0000       0.028754         0.7824
  18   0.0000       0.055468         1.5094
  19   0.0000       0.063774         1.7354
  20   0.0000       0.076080         2.0702
  21   0.0000       0.098220         2.6727

MULLIKEN ATOMIC CHARGES
-----------------------
   0 C :    0.465867
   1 C :   -0.655830
   2 H :    0.005666
   3 H :   -0.003844
   4 C :    0.698506
   5 H :   -0.030471
   6 H :    0.010728
   7 F :   -0.486223
   8 H :   -0.014945
   9 H :    0.019576
  10 H :   -0.009030
Sum of atomic charges:    0.0000000

LOEWDIN ATOMIC CHARGES
----------------------
   0 C :    0.114142
   1 C :   -0.074129
   2 H :    0.027375
   3 H :    0.029001
   4 C :    0.102185
   5 H :    0.030191
   6 H :    0.034993
   7 F :   -0.218519
   8 H :   -0.017020
   9 H :   -0.012824
  10 H :   -0.015395

  Mayer bond orders larger than 0.100000
B(  0-C ,  1-C ) :   1.3019 B(  0-C ,  8-H ) :   0.8493 B(  0-C ,  9-H ) :   0.8513
B(  0-C , 10-H ) :   0.8554 B(  1-C ,  2-H ) :   0.9834 B(  1-C ,  3-H ) :   0.9873
B(  1-C ,  4-C ) :   1.1722 B(  1-C ,  8-H ) :   0.1592 B(  1-C ,  9-H ) :   0.1674
B(  1-C , 10-H ) :   0.1541 B(  4-C ,  5-H ) :   0.9297 B(  4-C ,  6-H ) :   0.9239
B(  4-C ,  7-F ) :   0.6617

Dispersion correction           -0.005165567
FINAL SINGLE POINT ENERGY      -217.983827284901

DIPOLE MOMENT
-------------
                                X             Y             Z
Electronic contribution:      2.24633      -0.77680       5.88640
Nuclear contribution   :     -2.83598       0.77614      -6.32113
                        -----------------------------------------
Total Dipole Moment    :     -0.58966      -0.00066      -0.43473
                        -----------------------------------------
Magnitude (a.u.)       :      0.73259
Magnitude (Debye)      :      1.86209

Rotational constants in cm-1:     0.494803     0.164634     0.139827
Rotational constants in MHz : 14833.819345  4935.593559  4191.919783

                             ****ORCA TERMINATED NORMALLY****
TOTAL RUN TIME: 0 days 0 hours 0 minutes 8 seconds 510 msec
