                         Program Version 5.0.0 -  RELEASE  -
|  1> !PBE0 D3BJ RIJCOSX def2-SVPD def2/J TightSCF
|  2> *xyz 0 1
|  3> C          4.36645       -0.13321       -1.41606
|  4> C          4.50829       -0.93187       -2.72425
|  5> H          4.75372       -1.97205       -2.48841
|  6> C          3.29416       -0.91821       -3.65657
|  7> H          5.38564       -0.53624       -3.24264
|  8> C          3.05650       -0.32080       -0.70738
|  9> C          2.38983        0.71129       -0.24391
| 10> N          2.51600       -1.50772       -0.55023
| 11> H          2.96768       -2.32291       -0.95631
| 12> H          1.54987       -1.49063       -0.24988
| 13> H          2.74307        1.64947       -0.41280
| 14> H          1.44036        0.50278        0.03703
| 15> H          4.48784        0.93300       -1.61157
| 16> H          5.16967       -0.41443       -0.72982
| 17> H          3.50670       -1.50229       -4.52754
| 18> H          3.07837        0.08892       -3.94644
| 19> H          2.44880       -1.33173       -3.14739
| 20> *
| 21>
| 22> %MaxCore 64000
| 23>
| 24> %pal nprocs 4
| 25> end
| 26>
| 27> %scf
| 28>   MaxIter 150
| 29> end
| 30>
| 31>
| 32>                          ****END OF INPUT****

CARTESIAN COORDINATES (ANGSTROEM)
---------------------------------
  C      4.366450   -0.133210   -1.416060
  C      4.508290   -0.931870   -2.724250
  H      4.753720   -1.972050   -2.488410
  C      3.294160   -0.918210   -3.656570
  H      5.385640   -0.536240   -3.242640
  C      3.056500   -0.320800   -0.707380
  C      2.389830    0.711290   -0.243910
  N      2.516000   -1.507720   -0.550230
  H      2.967680   -2.322910   -0.956310
  H      1.549870   -1.490630   -0.249880
  H      2.743070    1.649470   -0.412800
  H      1.440360    0.502780    0.037030
  H      4.487840    0.933000   -1.611570
  H      5.169670   -0.414430   -0.729820
  H      3.506700   -1.502290   -4.527540
  H      3.078370    0.088920   -3.946440
  H      2.448800   -1.331730   -3.147390

 Total Charge           Charge          ....    0
 Multiplicity           Mult            ....    1
 Number of Electrons    NEL             ....   48
 Basis Dimension        Dim             ....  208

ORBITAL ENERGIES
----------------

  NO   OCC          E(Eh)            E(eV)
   0   2.0000     -14.396088      -391.7375
   1   2.0000     -10.250514      -278.9307
   2   2.0000     -10.235691      -278.5273
   3   2.0000     -10.233073      -278.4561
   4   2.0000     -10.214843      -277.9600
   5   2.0000     -10.164333      -276.5856
   6   2.0000      -0.952832       -25.9279
   7   2.0000      -0.809666       -22.0321
   8   2.0000      -0.753305       -20.4985
   9   2.0000      -0.701051       -19.0766
  10   2.0000      -0.617273       -16.7969
  11   2.0000      -0.575097       -15.6492
  12   2.0000      -0.548511       -14.9257
  13   2.0000      -0.475099       -12.9281
  14   2.0000      -0.470395       -12.8001
  15   2.0000      -0.466260       -12.6876
  16   2.0000      -0.409269       -11.1368
  17   2.0000      -0.407102       -11.0778
  18   2.0000      -0.393916       -10.7190
  19   2.0000      -0.376570       -10.2470
  20   2.0000      -0.346442        -9.4272
  21   2.0000      -0.344932        -9.3861
  22   2.0000      -0.333182        -9.0663
  23   2.0000      -0.200537        -5.4569
  24   0.0000       0.020547         0.5591
  25   0.0000       0.038706         1.0532
  26   0.0000       0.056111         1.5269
  27   0.0000       0.059106         1.6084
  28   0.0000       0.068135         1.8540

MULLIKEN ATOMIC CHARGES
-----------------------
   0 C :    0.267756
   1 C :   -0.532972
   2 H :    0.014250
   3 C :    0.597152
   4 H :   -0.113578
   5 C :   -0.267360
   6 C :    0.301469
   7 N :    0.089522
   8 H :   -0.050334
   9 H :   -0.107698
  10 H :   -0.098463
  11 H :   -0.295159
  12 H :    0.264018
  13 H :   -0.031125
  14 H :    0.008356
  15 H :    0.003191
  16 H :   -0.049025
Sum of atomic charges:    0.0000000

LOEWDIN ATOMIC CHARGES
----------------------
   0 C :    0.011224
   1 C :   -0.076626
   2 H :    0.011480
   3 C :    0.121349
   4 H :    0.018460
   5 C :   -0.266941
   6 C :    0.169194
   7 N :    0.166213
   8 H :    0.006355
   9 H :    0.008711
  10 H :   -0.075878
  11 H :   -0.082179
  12 H :    0.025031
  13 H :    0.028163
  14 H :   -0.017681
  15 H :   -0.012132
  16 H :   -0.034743

  Mayer bond orders larger than 0.100000
B(  0-C ,  1-C ) :   1.2382 B(  0-C ,  2-H ) :   0.1334 B(  0-C ,  4-H ) :   0.1451
B(  0-C ,  5-C ) :   1.1997 B(  0-C , 12-H ) :   0.7799 B(  0-C , 13-H ) :   0.7435
B(  1-C ,  2-H ) :   0.9047 B(  1-C ,  3-C ) :   1.3428 B(  1-C ,  4-H ) :   0.9794
B(  1-C , 12-H ) :   0.1277 B(  1-C , 14-H ) :   0.2018 B(  1-C , 15-H ) :   0.1997
B(  1-C , 16-H ) :   0.1935 B(  3-C , 14-H ) :   0.7598 B(  3-C , 15-H ) :   0.8100
B(  3-C , 16-H ) :   0.8634 B(  5-C ,  6-C ) :   1.8774 B(  5-C ,  7-N ) :   1.1049
B(  5-C , 11-H ) :   0.3239 B(  5-C , 13-H ) :   0.2382 B(  6-C ,  7-N ) :   0.3272
B(  6-C , 10-H ) :   0.9965 B(  6-C , 11-H ) :   0.6692 B(  7-N ,  8-H ) :   1.0281
B(  7-N ,  9-H ) :   1.1668 B(  8-H ,  9-H ) :  -0.1468

Dispersion correction           -0.012101413
FINAL SINGLE POINT ENERGY      -251.405715753290

DIPOLE MOMENT
-------------
                                X             Y             Z
Electronic contribution:     -0.64346      -0.29649       3.30036
Nuclear contribution   :      0.70803      -0.34641      -3.68680
                        -----------------------------------------
Total Dipole Moment    :      0.06457      -0.64291      -0.38645
                        -----------------------------------------
Magnitude (a.u.)       :      0.75289
Magnitude (Debye)      :      1.91369

Rotational constants in cm-1:     0.186653     0.080341     0.073591
Rotational constants in MHz :  5595.710092  2408.571280  2206.200061

                             ****ORCA TERMINATED NORMALLY****
TOTAL RUN TIME: 0 days 0 hours 0 minutes 22 seconds 707 msec
