                         Program Version 5.0.0 -  RELEASE  -
|  1> !PBE0 D3BJ RIJCOSX def2-SVPD def2/J TightSCF
|  2> *xyz 0 1
|  3> C          4.36645       -0.13321       -1.41606
|  4> C          4.50829       -0.93187       -2.72425
|  5> H          4.75372       -1.97205       -2.48841
|  6> C          3.29416       -0.91821       -3.65657
|  7> H          5.38564       -0.53624       -3.24264
|  8> C          3.05650       -0.32080       -0.70738
|  9> N          2.38983        0.71129       -0.24391
| 10> C          2.51600       -1.50772       -0.55023
| 11> H          2.96768       -2.32291       -0.95631
| 12> H          1.54987       -1.49063       -0.24988
| 13> H          2.74307        1.64947       -0.41280
| 14> H          1.44036        0.50278        0.03703
| 15> H          4.48784        0.93300       -1.61157
| 16> H          5.16967       -0.41443       -0.72982
| 17> H          3.50670       -1.50229       -4.52754
| 18> H          3.07837        0.08892       -3.94644
| 19> H          2.44880       -1.33173       -3.14739
| 20> *
| 21>
| 22> %MaxCore 64000
| 23>
| 24> %pal nprocs 4
| 25> end
| 26>
| 27> %scf
| 28>   MaxIter 150
| 29> end
| 30>
| 31>
| 32>                          ****END OF INPUT****

CARTESIAN COORDINATES (ANGSTROEM)
---------------------------------
  C      4.366450   -0.133210   -1.416060
  C      4.508290   -0.931870   -2.724250
  H      4.753720   -1.972050   -2.488410
  C      3.294160   -0.918210   -3.656570
  H      5.385640   -0.536240   -3.242640
  C      3.056500   -0.320800   -0.707380
  N      2.389830    0.711290   -0.243910
  C      2.516000   -1.507720   -0.550230
  H      2.967680   -2.322910   -0.956310
  H      1.549870   -1.490630   -0.249880
  H      2.743070    1.649470   -0.412800
  H      1.440360    0.502780    0.037030
  H      4.487840    0.933000   -1.611570
  H      5.169670   -0.414430   -0.729820
  H      3.506700   -1.502290   -4.527540
  H      3.078370    0.088920   -3.946440
  H      2.448800   -1.331730   -3.147390

 Total Charge           Charge          ....    0
 Multiplicity           Mult            ....    1
 Number of Electrons    NEL             ....   48
 Basis Dimension        Dim             ....  208

ORBITAL ENERGIES
----------------

  NO   OCC          E(Eh)            E(eV)
   0   2.0000     -14.396526      -391.7494
   1   2.0000     -10.250611      -278.9333
   2   2.0000     -10.234841      -278.5042
   3   2.0000     -10.230476      -278.3854
   4   2.0000     -10.207547      -277.7615
   5   2.0000     -10.162388      -276.5326
   6   2.0000      -0.952828       -25.9278
   7   2.0000      -0.810358       -22.0510
   8   2.0000      -0.741324       -20.1724
   9   2.0000      -0.705294       -19.1920
  10   2.0000      -0.621164       -16.9027
  11   2.0000      -0.565131       -15.3780
  12   2.0000      -0.543057       -14.7773
  13   2.0000      -0.496473       -13.5097
  14   2.0000      -0.467330       -12.7167
  15   2.0000      -0.443612       -12.0713
  16   2.0000      -0.417046       -11.3484
  17   2.0000      -0.404576       -11.0091
  18   2.0000      -0.382799       -10.4165
  19   2.0000      -0.373712       -10.1692
  20   2.0000      -0.348987        -9.4964
  21   2.0000      -0.336848        -9.1661
  22   2.0000      -0.335085        -9.1181
  23   2.0000      -0.198241        -5.3944
  24   0.0000       0.026039         0.7086
  25   0.0000       0.036528         0.9940
  26   0.0000       0.050690         1.3793
  27   0.0000       0.060380         1.6430
  28   0.0000       0.073341         1.9957

MULLIKEN ATOMIC CHARGES
-----------------------
   0 C :    0.413011
   1 C :   -0.568915
   2 H :    0.064537
   3 C :    0.583624
   4 H :   -0.129408
   5 C :   -0.168054
   6 N :    0.047671
   7 C :    0.399957
   8 H :   -0.055456
   9 H :   -0.451679
  10 H :   -0.117713
  11 H :   -0.070528
  12 H :    0.101200
  13 H :   -0.040938
  14 H :   -0.019355
  15 H :    0.005692
  16 H :    0.006354
Sum of atomic charges:   -0.0000000

LOEWDIN ATOMIC CHARGES
----------------------
   0 C :    0.011093
   1 C :   -0.071107
   2 H :    0.018199
   3 C :    0.122354
   4 H :    0.017218
   5 C :   -0.257035
   6 N :    0.161077
   7 C :    0.163504
   8 H :   -0.071719
   9 H :   -0.081120
  10 H :    0.004125
  11 H :    0.006557
  12 H :    0.013639
  13 H :    0.030759
  14 H :   -0.017959
  15 H :   -0.015820
  16 H :   -0.033764

  Mayer bond orders larger than 0.100000
B(  0-C ,  1-C ) :   1.2433 B(  0-C ,  2-H ) :   0.1008 B(  0-C ,  4-H ) :   0.1488
B(  0-C ,  5-C ) :   1.0467 B(  0-C , 12-H ) :   0.6856 B(  0-C , 13-H ) :   0.8139
B(  1-C ,  2-H ) :   0.8985 B(  1-C ,  3-C ) :   1.3599 B(  1-C ,  4-H ) :   0.9829
B(  1-C , 12-H ) :   0.1175 B(  1-C , 13-H ) :   0.1249 B(  1-C , 14-H ) :   0.2096
B(  1-C , 15-H ) :   0.2026 B(  1-C , 16-H ) :   0.2074 B(  3-C , 14-H ) :   0.7653
B(  3-C , 15-H ) :   0.8153 B(  3-C , 16-H ) :   0.8520 B(  5-C ,  6-N ) :   1.0572
B(  5-C ,  7-C ) :   1.9541 B(  5-C ,  8-H ) :   0.1633 B(  5-C ,  9-H ) :   0.2656
B(  5-C , 12-H ) :   0.1751 B(  5-C , 13-H ) :   0.1490 B(  6-N ,  7-C ) :   0.2695
B(  6-N , 10-H ) :   1.1640 B(  6-N , 11-H ) :   1.1291 B(  7-C ,  8-H ) :   0.7565
B(  7-C ,  9-H ) :   0.7911 B( 10-H , 11-H ) :  -0.1212

Dispersion correction           -0.012146005
FINAL SINGLE POINT ENERGY      -251.404043335624

DIPOLE MOMENT
-------------
                                X             Y             Z
Electronic contribution:     -0.75404       1.58020       3.58790
Nuclear contribution   :      0.73787      -0.87128      -3.75926
                        -----------------------------------------
Total Dipole Moment    :     -0.01617       0.70892      -0.17136
                        -----------------------------------------
Magnitude (a.u.)       :      0.72951
Magnitude (Debye)      :      1.85428

Rotational constants in cm-1:     0.191039     0.078358     0.072723
Rotational constants in MHz :  5727.202281  2349.118247  2180.181745

                             ****ORCA TERMINATED NORMALLY****
TOTAL RUN TIME: 0 days 0 hours 0 minutes 22 seconds 806 msec
