                         Program Version 5.0.0 -  RELEASE  -
|  1> !PBE0 D3BJ RIJCOSX def2-SVPD def2/J TightSCF xyzfile
|  2>
|  3> *xyzfile 0 1 D1.xyz
|  4>
|  5> %MaxCore 64000
|  6>
|  7> %pal nprocs 4
|  8> end
|  9>
| 10> %scf
| 11>   MaxIter 150
| 12> end
| 13>
| 14>
| 15>                          ****END OF INPUT****

CARTESIAN COORDINATES (ANGSTROEM)
---------------------------------
  C      4.366454   -0.133215   -1.416062
  C      4.508292   -0.931872   -2.724249
  H      4.753716   -1.972051   -2.488408
  C      3.294164   -0.918214   -3.656570
  H      5.385637   -0.536236   -3.242640
  H      2.483463   -1.477378   -3.185764
  H      3.553092   -1.478495   -4.560331
  C      2.772335    0.460100   -4.051448
  H      2.608762    1.065107   -3.155194
  C      1.465354    0.410537   -4.853644
  H      3.532940    0.988848   -4.635671
  C      0.326171   -0.375613   -4.192580
  H      1.666704   -0.022269   -5.839323
  H      1.138198    1.439246   -5.035449
  C     -0.017405    0.080588   -2.778406
  H      0.585573   -1.439385   -4.168057
  H     -0.560005   -0.311425   -4.831461
  H      0.902090    0.201296   -2.206729
  C     -0.903495   -0.873945   -1.987388
  H     -0.479549    1.074657   -2.811915
  H     -0.502554   -1.892096   -2.081204
  H     -1.917039   -0.895427   -2.406277
  C     -0.960148   -0.522365   -0.489867
  H     -1.690392   -1.208130   -0.021677
  H     -1.414490    0.486329   -0.406677
  F      0.261703   -0.580307    0.138611
  C      3.056503   -0.320797   -0.707384
  C      2.389825    0.711285   -0.243909
  N      2.515999   -1.507721   -0.550229
  H      2.967683   -2.322915   -0.956305
  H      1.549872   -1.490634   -0.249876
  H      2.743071    1.649471   -0.412802
  H      1.440364    0.502778    0.037031
  H      4.487835    0.932997   -1.611569
  H      5.169672   -0.414432   -0.729817

 Total Charge           Charge          ....    0
 Multiplicity           Mult            ....    1
 Number of Electrons    NEL             ....  104
 Basis Dimension        Dim             ....  439

ORBITAL ENERGIES
----------------

  NO   OCC          E(Eh)            E(eV)
   0   2.0000     -24.804370      -674.9612
   1   2.0000     -14.371965      -391.0810
   2   2.0000     -10.325888      -280.9817
   3   2.0000     -10.246269      -278.8152
   4   2.0000     -10.234407      -278.4924
   5   2.0000     -10.226820      -278.2859
   6   2.0000     -10.226376      -278.2738
   7   2.0000     -10.224138      -278.2129
   8   2.0000     -10.223910      -278.2067
   9   2.0000     -10.221376      -278.1378
  10   2.0000     -10.219717      -278.0927
  11   2.0000     -10.217681      -278.0372
  12   2.0000     -10.139516      -275.9103
  13   2.0000      -1.254411       -34.1342
  14   2.0000      -0.934982       -25.4421
  15   2.0000      -0.836693       -22.7676
  16   2.0000      -0.814254       -22.1570
  17   2.0000      -0.787643       -21.4329
  18   2.0000      -0.749483       -20.3945
  19   2.0000      -0.721887       -19.6435
  20   2.0000      -0.701531       -19.0896
  21   2.0000      -0.653170       -17.7737
  22   2.0000      -0.631405       -17.1814
  23   2.0000      -0.599963       -16.3258
  24   2.0000      -0.571879       -15.5616
  25   2.0000      -0.557312       -15.1652
  26   2.0000      -0.552296       -15.0287
  27   2.0000      -0.543384       -14.7862
  28   2.0000      -0.532311       -14.4849
  29   2.0000      -0.502066       -13.6619
  30   2.0000      -0.487277       -13.2595
  31   2.0000      -0.475015       -12.9258
  32   2.0000      -0.457755       -12.4562
  33   2.0000      -0.452750       -12.3199
  34   2.0000      -0.442786       -12.0488
  35   2.0000      -0.436195       -11.8695
  36   2.0000      -0.412682       -11.2297
  37   2.0000      -0.404183       -10.9984
  38   2.0000      -0.394019       -10.7218
  39   2.0000      -0.385756       -10.4970
  40   2.0000      -0.379081       -10.3153
  41   2.0000      -0.370025       -10.0689
  42   2.0000      -0.362141        -9.8544
  43   2.0000      -0.355158        -9.6643
  44   2.0000      -0.351295        -9.5592
  45   2.0000      -0.342888        -9.3305
  46   2.0000      -0.326615        -8.8877
  47   2.0000      -0.324031        -8.8173
  48   2.0000      -0.316999        -8.6260
  49   2.0000      -0.313893        -8.5415
  50   2.0000      -0.310920        -8.4606
  51   2.0000      -0.183200        -4.9851
  52   0.0000       0.022412         0.6098
  53   0.0000       0.031507         0.8573
  54   0.0000       0.039395         1.0720
  55   0.0000       0.041694         1.1346
  56   0.0000       0.052974         1.4415

MULLIKEN ATOMIC CHARGES
-----------------------
   0 C :    0.324723
   1 C :    0.371117
   2 H :    0.053077
   3 C :   -0.255830
   4 H :   -0.075529
   5 H :    0.105246
   6 H :   -0.141045
   7 C :   -0.237116
   8 H :    0.232386
   9 C :    0.571276
  10 H :   -0.305058
  11 C :   -0.084637
  12 H :    0.039864
  13 H :    0.054094
  14 C :    0.169732
  15 H :    0.221919
  16 H :   -0.352866
  17 H :   -0.512080
  18 C :   -0.145018
  19 H :    0.039766
  20 H :    0.063289
  21 H :   -0.100411
  22 C :    1.025784
  23 H :   -0.061328
  24 H :    0.035304
  25 F :   -0.836085
  26 C :   -0.545353
  27 C :    0.546469
  28 N :    0.307990
  29 H :   -0.106556
  30 H :   -0.257186
  31 H :   -0.216973
  32 H :   -0.108341
  33 H :    0.428352
  34 H :   -0.248978
Sum of atomic charges:   -0.0000000

LOEWDIN ATOMIC CHARGES
----------------------
   0 C :    0.017275
   1 C :   -0.027805
   2 H :    0.014273
   3 C :   -0.034438
   4 H :    0.020539
   5 H :   -0.009050
   6 H :    0.027248
   7 C :   -0.030705
   8 H :    0.006700
   9 C :   -0.029375
  10 H :    0.025721
  11 C :   -0.038493
  12 H :    0.022276
  13 H :    0.023236
  14 C :   -0.030057
  15 H :    0.012841
  16 H :    0.021859
  17 H :   -0.022272
  18 C :   -0.018155
  19 H :    0.039323
  20 H :    0.029107
  21 H :    0.035220
  22 C :    0.169351
  23 H :    0.036372
  24 H :    0.046256
  25 F :   -0.230081
  26 C :   -0.243539
  27 C :    0.181146
  28 N :    0.195409
  29 H :    0.004890
  30 H :   -0.060281
  31 H :   -0.070652
  32 H :   -0.131134
  33 H :    0.021436
  34 H :    0.025560

  Mayer bond orders larger than 0.100000
B(  0-C ,  1-C ) :   1.2502 B(  0-C ,  2-H ) :   0.1396 B(  0-C ,  4-H ) :   0.2003
B(  0-C , 26-C ) :   1.1908 B(  0-C , 31-H ) :  -0.1153 B(  0-C , 33-H ) :   0.7379
B(  0-C , 34-H ) :   0.6880 B(  1-C ,  2-H ) :   0.6647 B(  1-C ,  3-C ) :   1.2920
B(  1-C ,  4-H ) :   0.7881 B(  1-C , 26-C ) :   0.1454 B(  1-C , 33-H ) :   0.1128
B(  2-H ,  3-C ) :   0.2517 B(  2-H ,  4-H ) :  -0.1243 B(  3-C ,  4-H ) :   0.1837
B(  3-C ,  5-H ) :   0.8443 B(  3-C ,  6-H ) :   0.9121 B(  3-C ,  7-C ) :   1.2811
B(  3-C , 10-H ) :   0.1707 B(  5-H ,  7-C ) :   0.1045 B(  5-H , 15-H ) :   0.1429
B(  6-H ,  7-C ) :   0.1374 B(  7-C ,  8-H ) :   0.8322 B(  7-C ,  9-C ) :   1.1604
B(  7-C , 10-H ) :   1.0358 B(  7-C , 11-C ) :   0.1035 B(  7-C , 12-H ) :   0.1213
B(  7-C , 13-H ) :   0.2185 B(  8-H , 17-H ) :   0.1557 B(  9-C , 11-C ) :   1.1559
B(  9-C , 12-H ) :   0.7527 B(  9-C , 13-H ) :   0.6990 B( 11-C , 12-H ) :   0.1645
B( 11-C , 13-H ) :   0.1428 B( 11-C , 14-C ) :   1.2181 B( 11-C , 15-H ) :   0.8058
B( 11-C , 16-H ) :   1.0604 B( 11-C , 17-H ) :   0.1123 B( 11-C , 19-H ) :   0.1163
B( 14-C , 15-H ) :   0.1326 B( 14-C , 16-H ) :   0.2309 B( 14-C , 17-H ) :   0.7307
B( 14-C , 18-C ) :   1.1954 B( 14-C , 19-H ) :   0.7063 B( 14-C , 20-H ) :   0.1197
B( 14-C , 21-H ) :   0.2249 B( 14-C , 27-C ) :   0.1742 B( 17-H , 18-C ) :   0.1063
B( 17-H , 19-H ) :   0.2612 B( 17-H , 27-C ) :  -0.1425 B( 17-H , 32-H ) :   0.1364
B( 18-C , 19-H ) :   0.1096 B( 18-C , 20-H ) :   0.9292 B( 18-C , 21-H ) :   0.8876
B( 18-C , 22-C ) :   1.1529 B( 18-C , 23-H ) :   0.1857 B( 18-C , 24-H ) :   0.1137
B( 18-C , 25-F ) :   0.1617 B( 22-C , 23-H ) :   0.7686 B( 22-C , 24-H ) :   0.8164
B( 22-C , 25-F ) :   0.5960 B( 24-H , 25-F ) :   0.1370 B( 25-F , 30-H ) :   0.1312
B( 26-C , 27-C ) :   2.1434 B( 26-C , 28-N ) :   0.9312 B( 26-C , 31-H ) :   0.1991
B( 26-C , 32-H ) :   0.5459 B( 26-C , 34-H ) :   0.3775 B( 27-C , 28-N ) :   0.3727
B( 27-C , 31-H ) :   1.0421 B( 27-C , 32-H ) :   0.1667 B( 28-N , 29-H ) :   1.1153
B( 28-N , 30-H ) :   1.1086 B( 28-N , 31-H ) :   0.1038 B( 29-H , 30-H ) :  -0.2222
B( 31-H , 32-H ) :  -0.1809

Dispersion correction           -0.034583891
FINAL SINGLE POINT ENERGY      -585.911832524500

DIPOLE MOMENT
-------------
                                X             Y             Z
Electronic contribution:     -2.70255      -1.60644      10.45573
Nuclear contribution   :      1.82572       1.04089     -11.09065
                        -----------------------------------------
Total Dipole Moment    :     -0.87683      -0.56554      -0.63491
                        -----------------------------------------
Magnitude (a.u.)       :      1.22139
Magnitude (Debye)      :      3.10452

Rotational constants in cm-1:     0.028436     0.022359     0.014416
Rotational constants in MHz :   852.496561   670.291843   432.183951

                             ****ORCA TERMINATED NORMALLY****
TOTAL RUN TIME: 0 days 0 hours 2 minutes 57 seconds 564 msec
