                         Program Version 5.0.0 -  RELEASE  -
|  1> !DLPNO-CCSD(T) aug-cc-pVTZ aug-cc-pVTZ/C TightSCF TightPNO RIJCOSX def2/J
|  2> *xyz -1 1
|  3> C          2.09343        1.86104       -4.65684
|  4> S          1.87964        0.07859       -4.46297
|  5> O          3.20757       -0.46611       -4.42026
|  6> O          1.07506       -0.05616       -3.26876
|  7> O          1.13166       -0.31996       -5.67903
|  8> H          2.68437        2.05681       -5.52711
|  9> H          2.58708        2.25699       -3.79404
| 10> H          1.13553        2.32556       -4.76426
| 11> *
| 12>
| 13> %MaxCore 64000
| 14>
| 15> %pal nprocs 2
| 16> end
| 17>
| 18> %scf
| 19>   MaxIter 150
| 20> end
| 21>
| 22>
| 23>                          ****END OF INPUT****

CARTESIAN COORDINATES (ANGSTROEM)
---------------------------------
  C      2.093430    1.861040   -4.656840
  S      1.879640    0.078590   -4.462970
  O      3.207570   -0.466110   -4.420260
  O      1.075060   -0.056160   -3.268760
  O      1.131660   -0.319960   -5.679030
  H      2.684370    2.056810   -5.527110
  H      2.587080    2.256990   -3.794040
  H      1.135530    2.325560   -4.764260

 Total Charge           Charge          ....   -1
 Multiplicity           Mult            ....    1
 Number of Electrons    NEL             ....   50
 Basis Dimension        Dim             ....  303

ORBITAL ENERGIES
----------------

  NO   OCC          E(Eh)            E(eV)
   0   2.0000     -91.983725     -2503.0044
   1   2.0000     -20.335083      -553.3457
   2   2.0000     -20.330652      -553.2252
   3   2.0000     -20.319019      -552.9086
   4   2.0000     -11.077886      -301.4446
   5   2.0000      -8.946624      -243.4500
   6   2.0000      -6.632954      -180.4919
   7   2.0000      -6.631498      -180.4522
   8   2.0000      -6.631470      -180.4515
   9   2.0000      -1.274321       -34.6760
  10   2.0000      -1.133961       -30.8566
  11   2.0000      -1.105549       -30.0835
  12   2.0000      -0.839345       -22.8397
  13   2.0000      -0.603232       -16.4148
  14   2.0000      -0.486083       -13.2270
  15   2.0000      -0.467943       -12.7334
  16   2.0000      -0.466735       -12.7005
  17   2.0000      -0.420225       -11.4349
  18   2.0000      -0.417221       -11.3532
  19   2.0000      -0.325199        -8.8491
  20   2.0000      -0.321513        -8.7488
  21   2.0000      -0.281174        -7.6511
  22   2.0000      -0.266872        -7.2619
  23   2.0000      -0.249883        -6.7997
  24   2.0000      -0.230147        -6.2626
  25   0.0000       0.128081         3.4853
  26   0.0000       0.140680         3.8281
  27   0.0000       0.141798         3.8585
  28   0.0000       0.189483         5.1561
  29   0.0000       0.212511         5.7827

MULLIKEN ATOMIC CHARGES
-----------------------
   0 C :   -1.057681
   1 S :    2.170752
   2 O :   -0.995389
   3 O :   -0.997862
   4 O :   -1.006842
   5 H :    0.290070
   6 H :    0.302517
   7 H :    0.294436
Sum of atomic charges:   -1.0000000

LOEWDIN ATOMIC CHARGES
----------------------
   0 C :    0.429701
   1 S :   -0.441913
   2 O :   -0.063429
   3 O :   -0.070357
   4 O :   -0.096572
   5 H :   -0.252419
   6 H :   -0.253636
   7 H :   -0.251376

  Mayer bond orders larger than 0.100000
B(  0-C ,  1-S ) :   0.7633 B(  0-C ,  5-H ) :   0.9171 B(  0-C ,  6-H ) :   0.8977
B(  0-C ,  7-H ) :   0.9128 B(  1-S ,  2-O ) :   1.3976 B(  1-S ,  3-O ) :   1.3852
B(  1-S ,  4-O ) :   1.3277

E(0)                                       ...   -661.878327516
E(0)                                       ...   -661.878327516
E(CORR)(strong-pairs)                      ...     -1.113879342
E(CORR)(weak-pairs)                        ...     -0.000986923
E(CORR)(corrected)                         ...     -1.114866265
E(TOT)                                     ...   -662.993193781
E(CCSD(T))                                 ...   -663.040874154
FINAL SINGLE POINT ENERGY      -663.040874154388

DIPOLE MOMENT
-------------
                                X             Y             Z
Electronic contribution:     -0.39970      -4.16228       0.56177
Nuclear contribution   :      0.72475       5.67579      -0.57287
                        -----------------------------------------
Total Dipole Moment    :      0.32505       1.51351      -0.01110
                        -----------------------------------------
Magnitude (a.u.)       :      1.54806
Magnitude (Debye)      :      3.93486

Rotational constants in cm-1:     0.171646     0.157781     0.155534
Rotational constants in MHz :  5145.813281  4730.160232  4662.792719

                             ****ORCA TERMINATED NORMALLY****
TOTAL RUN TIME: 0 days 1 hours 4 minutes 43 seconds 154 msec
