                         Program Version 5.0.0 -  RELEASE  -
|  1> !DLPNO-CCSD(T) aug-cc-pVTZ aug-cc-pVTZ/C TightSCF TightPNO RIJCOSX def2/J
|  2> *xyz 1 1
|  3> C         -0.46129        2.23469       -4.98962
|  4> C         -0.42384        2.39877       -6.47432
|  5> N         -0.95947        3.49265       -7.00740
|  6> N          0.14558        1.48689       -7.20399
|  7> H          0.56537        0.69681       -6.72386
|  8> H          0.22068        1.58177       -8.20752
|  9> H         -1.40624        4.18151       -6.40326
| 10> H         -0.93421        3.68160       -7.99947
| 11> H          0.00645        1.31059       -4.72100
| 12> H         -1.47822        2.22967       -4.65687
| 13> H          0.06109        3.04632       -4.52779
| 14> *
| 15>
| 16> %MaxCore 64000
| 17>
| 18> %pal nprocs 8
| 19> end
| 20>
| 21> %scf
| 22>   MaxIter 150
| 23> end
| 24>
| 25>
| 26>                          ****END OF INPUT****

CARTESIAN COORDINATES (ANGSTROEM)
---------------------------------
  C     -0.461290    2.234690   -4.989620
  C     -0.423840    2.398770   -6.474320
  N     -0.959470    3.492650   -7.007400
  N      0.145580    1.486890   -7.203990
  H      0.565370    0.696810   -6.723860
  H      0.220680    1.581770   -8.207520
  H     -1.406240    4.181510   -6.403260
  H     -0.934210    3.681600   -7.999470
  H      0.006450    1.310590   -4.721000
  H     -1.478220    2.229670   -4.656870
  H      0.061090    3.046320   -4.527790

 Total Charge           Charge          ....    1
 Multiplicity           Mult            ....    1
 Number of Electrons    NEL             ....   32
 Basis Dimension        Dim             ....  345

ORBITAL ENERGIES
----------------

  NO   OCC          E(Eh)            E(eV)
   0   2.0000     -15.816689      -430.3940
   1   2.0000     -15.807615      -430.1471
   2   2.0000     -11.578887      -315.0775
   3   2.0000     -11.425617      -310.9068
   4   2.0000      -1.529266       -41.6134
   5   2.0000      -1.410274       -38.3755
   6   2.0000      -1.217748       -33.1366
   7   2.0000      -1.054415       -28.6921
   8   2.0000      -0.969504       -26.3815
   9   2.0000      -0.954755       -25.9802
  10   2.0000      -0.874558       -23.7979
  11   2.0000      -0.825524       -22.4637
  12   2.0000      -0.775658       -21.1067
  13   2.0000      -0.763871       -20.7860
  14   2.0000      -0.731506       -19.9053
  15   2.0000      -0.633845       -17.2478
  16   0.0000      -0.101690        -2.7671
  17   0.0000      -0.076777        -2.0892
  18   0.0000      -0.074232        -2.0200
  19   0.0000      -0.070933        -1.9302
  20   0.0000      -0.050173        -1.3653

MULLIKEN ATOMIC CHARGES
-----------------------
   0 C :   -0.574728
   1 C :    0.605745
   2 N :   -0.300134
   3 N :   -0.301645
   4 H :    0.110181
   5 H :    0.159379
   6 H :    0.111111
   7 H :    0.166466
   8 H :    0.308456
   9 H :    0.352318
  10 H :    0.362852
Sum of atomic charges:    1.0000000

LOEWDIN ATOMIC CHARGES
----------------------
   0 C :    0.699453
   1 C :   -0.218882
   2 N :    0.940435
   3 N :    0.946657
   4 H :   -0.231365
   5 H :   -0.219164
   6 H :   -0.224336
   7 H :   -0.233988
   8 H :   -0.164416
   9 H :   -0.147584
  10 H :   -0.146811

  Mayer bond orders larger than 0.100000
B(  0-C ,  1-C ) :   0.5127 B(  0-C ,  8-H ) :   0.9713 B(  0-C ,  9-H ) :   0.8962
B(  0-C , 10-H ) :   0.8784 B(  1-C ,  2-N ) :   1.0556 B(  1-C ,  3-N ) :   1.0118
B(  2-N ,  3-N ) :  -0.1135 B(  2-N ,  6-H ) :   1.1156 B(  2-N ,  7-H ) :   1.0487
B(  3-N ,  4-H ) :   1.1191 B(  3-N ,  5-H ) :   1.0765

E(0)                                       ...   -188.596157875
E(0)                                       ...   -188.596157875
E(CORR)(strong-pairs)                      ...     -0.781970127
E(CORR)(weak-pairs)                        ...     -0.000659940
E(CORR)(corrected)                         ...     -0.782630067
E(TOT)                                     ...   -189.378787942
E(CCSD(T))                                 ...   -189.409485526
FINAL SINGLE POINT ENERGY      -189.409485525944

DIPOLE MOMENT
-------------
                                X             Y             Z
Electronic contribution:      0.06816       0.15468      -2.09770
Nuclear contribution   :     -0.00094      -0.11553       1.69525
                        -----------------------------------------
Total Dipole Moment    :      0.06721       0.03915      -0.40245
                        -----------------------------------------
Magnitude (a.u.)       :      0.40989
Magnitude (Debye)      :      1.04187

Rotational constants in cm-1:     0.329971     0.303414     0.162776
Rotational constants in MHz :  9892.292308  9096.128349  4879.901854

                             ****ORCA TERMINATED NORMALLY****
TOTAL RUN TIME: 0 days 0 hours 4 minutes 49 seconds 607 msec
