                         Program Version 5.0.0 -  RELEASE  -
|  1> !DLPNO-CCSD(T) aug-cc-pVTZ aug-cc-pVTZ/C TightSCF TightPNO RIJCOSX def2/J
|  2> *xyz 0 1
|  3> C          2.09343        1.86104       -4.65684
|  4> S          1.87964        0.07859       -4.46297
|  5> F          3.20757       -0.46611       -4.42026
|  6> O          1.07506       -0.05616       -3.26876
|  7> O          1.13166       -0.31996       -5.67903
|  8> H          2.68437        2.05681       -5.52711
|  9> H          2.58708        2.25699       -3.79404
| 10> H          1.13553        2.32556       -4.76426
| 11> *
| 12>
| 13> %MaxCore 64000
| 14>
| 15> %pal nprocs 2
| 16> end
| 17>
| 18> %scf
| 19>   MaxIter 150
| 20> end
| 21>
| 22>
| 23>                          ****END OF INPUT****

CARTESIAN COORDINATES (ANGSTROEM)
---------------------------------
  C      2.093430    1.861040   -4.656840
  S      1.879640    0.078590   -4.462970
  F      3.207570   -0.466110   -4.420260
  O      1.075060   -0.056160   -3.268760
  O      1.131660   -0.319960   -5.679030
  H      2.684370    2.056810   -5.527110
  H      2.587080    2.256990   -3.794040
  H      1.135530    2.325560   -4.764260

 Total Charge           Charge          ....    0
 Multiplicity           Mult            ....    1
 Number of Electrons    NEL             ....   50
 Basis Dimension        Dim             ....  303

ORBITAL ENERGIES
----------------

  NO   OCC          E(Eh)            E(eV)
   0   2.0000     -92.258883     -2510.4918
   1   2.0000     -26.443003      -719.5507
   2   2.0000     -20.572569      -559.8081
   3   2.0000     -20.560378      -559.4763
   4   2.0000     -11.289954      -307.2153
   5   2.0000      -9.221743      -250.9364
   6   2.0000      -6.909392      -188.0141
   7   2.0000      -6.905536      -187.9092
   8   2.0000      -6.904485      -187.8806
   9   2.0000      -1.813688       -49.3530
  10   2.0000      -1.455278       -39.6001
  11   2.0000      -1.344111       -36.5751
  12   2.0000      -1.068291       -29.0697
  13   2.0000      -0.972992       -26.4765
  14   2.0000      -0.844846       -22.9894
  15   2.0000      -0.839834       -22.8531
  16   2.0000      -0.769839       -20.9484
  17   2.0000      -0.662247       -18.0207
  18   2.0000      -0.656154       -17.8548
  19   2.0000      -0.635745       -17.2995
  20   2.0000      -0.612368       -16.6634
  21   2.0000      -0.560129       -15.2419
  22   2.0000      -0.503221       -13.6933
  23   2.0000      -0.485183       -13.2025
  24   2.0000      -0.478508       -13.0209
  25   0.0000       0.021943         0.5971
  26   0.0000       0.041192         1.1209
  27   0.0000       0.045049         1.2258
  28   0.0000       0.062411         1.6983
  29   0.0000       0.090825         2.4715

MULLIKEN ATOMIC CHARGES
-----------------------
   0 C :   -0.969717
   1 S :    2.126403
   2 F :   -0.486066
   3 O :   -0.837937
   4 O :   -0.846110
   5 H :    0.327882
   6 H :    0.342402
   7 H :    0.343143
Sum of atomic charges:    0.0000000

LOEWDIN ATOMIC CHARGES
----------------------
   0 C :    0.513108
   1 S :   -0.142538
   2 F :    0.284729
   3 O :    0.017441
   4 O :   -0.005714
   5 H :   -0.228272
   6 H :   -0.229145
   7 H :   -0.209610

  Mayer bond orders larger than 0.100000
B(  0-C ,  1-S ) :   0.8939 B(  0-C ,  5-H ) :   0.8842 B(  0-C ,  6-H ) :   0.8641
B(  0-C ,  7-H ) :   0.8790 B(  1-S ,  2-F ) :   0.5858 B(  1-S ,  3-O ) :   1.5792
B(  1-S ,  4-O ) :   1.5247

E(0)                                       ...   -686.370211945
E(0)                                       ...   -686.370211945
E(CORR)(strong-pairs)                      ...     -1.119793040
E(CORR)(weak-pairs)                        ...     -0.000970597
E(CORR)(corrected)                         ...     -1.120763636
E(TOT)                                     ...   -687.490975581
E(CCSD(T))                                 ...   -687.536444378
FINAL SINGLE POINT ENERGY      -687.536444378100

DIPOLE MOMENT
-------------
                                X             Y             Z
Electronic contribution:      1.94363      -5.07808       0.66005
Nuclear contribution   :     -0.60459       6.33153      -0.64388
                        -----------------------------------------
Total Dipole Moment    :      1.33904       1.25345       0.01618
                        -----------------------------------------
Magnitude (a.u.)       :      1.83424
Magnitude (Debye)      :      4.66228

Rotational constants in cm-1:     0.163601     0.155191     0.147098
Rotational constants in MHz :  4904.622287  4652.507792  4409.891356

                             ****ORCA TERMINATED NORMALLY****
TOTAL RUN TIME: 0 days 0 hours 59 minutes 40 seconds 861 msec
