                         Program Version 5.0.0 -  RELEASE  -
|  1> !DLPNO-CCSD(T) aug-cc-pVTZ aug-cc-pVTZ/C TightSCF TightPNO RIJCOSX def2/J
|  2> *xyz 0 1
|  3> C         -0.46129        2.23469       -4.98962
|  4> C         -0.42384        2.39877       -6.47432
|  5> C         -0.95947        3.49265       -7.00740
|  6> N          0.14558        1.48689       -7.20399
|  7> H          0.56537        0.69681       -6.72386
|  8> H          0.22068        1.58177       -8.20752
|  9> H         -1.40624        4.18151       -6.40326
| 10> H         -0.93421        3.68160       -7.99947
| 11> H          0.00645        1.31059       -4.72100
| 12> H         -1.47822        2.22967       -4.65687
| 13> H          0.06109        3.04632       -4.52779
| 14> *
| 15>
| 16> %MaxCore 64000
| 17>
| 18> %pal nprocs 2
| 19> end
| 20>
| 21> %scf
| 22>   MaxIter 150
| 23> end
| 24>
| 25>
| 26>                          ****END OF INPUT****

CARTESIAN COORDINATES (ANGSTROEM)
---------------------------------
  C     -0.461290    2.234690   -4.989620
  C     -0.423840    2.398770   -6.474320
  C     -0.959470    3.492650   -7.007400
  N      0.145580    1.486890   -7.203990
  H      0.565370    0.696810   -6.723860
  H      0.220680    1.581770   -8.207520
  H     -1.406240    4.181510   -6.403260
  H     -0.934210    3.681600   -7.999470
  H      0.006450    1.310590   -4.721000
  H     -1.478220    2.229670   -4.656870
  H      0.061090    3.046320   -4.527790

 Total Charge           Charge          ....    0
 Multiplicity           Mult            ....    1
 Number of Electrons    NEL             ....   32
 Basis Dimension        Dim             ....  345

ORBITAL ENERGIES
----------------

  NO   OCC          E(Eh)            E(eV)
   0   2.0000     -15.564908      -423.5427
   1   2.0000     -11.257278      -306.3261
   2   2.0000     -11.215785      -305.1970
   3   2.0000     -11.146204      -303.3036
   4   2.0000      -1.247776       -33.9537
   5   2.0000      -1.025816       -27.9139
   6   2.0000      -0.938033       -25.5252
   7   2.0000      -0.776712       -21.1354
   8   2.0000      -0.711769       -19.3682
   9   2.0000      -0.650075       -17.6895
  10   2.0000      -0.594558       -16.1787
  11   2.0000      -0.554656       -15.0930
  12   2.0000      -0.550533       -14.9808
  13   2.0000      -0.504353       -13.7241
  14   2.0000      -0.492337       -13.3972
  15   2.0000      -0.284191        -7.7332
  16   0.0000       0.026326         0.7164
  17   0.0000       0.037197         1.0122
  18   0.0000       0.042012         1.1432
  19   0.0000       0.050686         1.3792
  20   0.0000       0.057773         1.5721

MULLIKEN ATOMIC CHARGES
-----------------------
   0 C :   -0.670063
   1 C :    0.667927
   2 C :   -1.270393
   3 N :   -0.488919
   4 H :    0.047164
   5 H :    0.036521
   6 H :    0.194023
   7 H :    0.605433
   8 H :    0.280275
   9 H :    0.293296
  10 H :    0.304736
Sum of atomic charges:   -0.0000000

LOEWDIN ATOMIC CHARGES
----------------------
   0 C :    0.610109
   1 C :   -0.326088
   2 C :    0.547631
   3 N :    0.834130
   4 H :   -0.280221
   5 H :   -0.258730
   6 H :   -0.293436
   7 H :   -0.298313
   8 H :   -0.193046
   9 H :   -0.171234
  10 H :   -0.170802

  Mayer bond orders larger than 0.100000
B(  0-C ,  1-C ) :   0.7278 B(  0-C ,  8-H ) :   0.9839 B(  0-C ,  9-H ) :   0.9677
B(  0-C , 10-H ) :   0.9412 B(  1-C ,  2-C ) :   1.3025 B(  1-C ,  3-N ) :   0.7841
B(  2-C ,  3-N ) :  -0.2583 B(  2-C ,  6-H ) :   1.3139 B(  2-C ,  7-H ) :   0.5266
B(  3-N ,  4-H ) :   1.1795 B(  3-N ,  5-H ) :   1.2018

E(0)                                       ...   -172.157516920
E(0)                                       ...   -172.157516920
E(CORR)(strong-pairs)                      ...     -0.762544997
E(CORR)(weak-pairs)                        ...     -0.000647732
E(CORR)(corrected)                         ...     -0.763192729
E(TOT)                                     ...   -172.920709649
E(CCSD(T))                                 ...   -172.951631295
FINAL SINGLE POINT ENERGY      -172.951631295176

DIPOLE MOMENT
-------------
                                X             Y             Z
Electronic contribution:      0.55645      -0.85204      -1.47124
Nuclear contribution   :     -0.12116       0.12783       1.56719
                        -----------------------------------------
Total Dipole Moment    :      0.43529      -0.72421       0.09595
                        -----------------------------------------
Magnitude (a.u.)       :      0.85039
Magnitude (Debye)      :      2.16151

Rotational constants in cm-1:     0.350065     0.307664     0.168807
Rotational constants in MHz : 10494.676477  9223.531181  5060.697310

                             ****ORCA TERMINATED NORMALLY****
TOTAL RUN TIME: 0 days 0 hours 58 minutes 51 seconds 962 msec
