                         Program Version 5.0.0 -  RELEASE  -
|  1> !DLPNO-CCSD(T) aug-cc-pVTZ aug-cc-pVTZ/C TightSCF TightPNO RIJCOSX def2/J
|  2> *xyz 0 1
|  3> C          2.09343        1.86104       -4.65684
|  4> S          1.87964        0.07859       -4.46297
|  5> O          3.20757       -0.46611       -4.42026
|  6> F          1.07506       -0.05616       -3.26876
|  7> O          1.13166       -0.31996       -5.67903
|  8> H          2.68437        2.05681       -5.52711
|  9> H          2.58708        2.25699       -3.79404
| 10> H          1.13553        2.32556       -4.76426
| 11> *
| 12>
| 13> %MaxCore 64000
| 14>
| 15> %pal nprocs 2
| 16> end
| 17>
| 18> %scf
| 19>   MaxIter 150
| 20> end
| 21>
| 22>
| 23>                          ****END OF INPUT****

CARTESIAN COORDINATES (ANGSTROEM)
---------------------------------
  C      2.093430    1.861040   -4.656840
  S      1.879640    0.078590   -4.462970
  O      3.207570   -0.466110   -4.420260
  F      1.075060   -0.056160   -3.268760
  O      1.131660   -0.319960   -5.679030
  H      2.684370    2.056810   -5.527110
  H      2.587080    2.256990   -3.794040
  H      1.135530    2.325560   -4.764260

 Total Charge           Charge          ....    0
 Multiplicity           Mult            ....    1
 Number of Electrons    NEL             ....   50
 Basis Dimension        Dim             ....  303

ORBITAL ENERGIES
----------------

  NO   OCC          E(Eh)            E(eV)
   0   2.0000     -92.258571     -2510.4834
   1   2.0000     -26.436741      -719.3803
   2   2.0000     -20.576950      -559.9273
   3   2.0000     -20.560159      -559.4704
   4   2.0000     -11.289803      -307.2112
   5   2.0000      -9.221359      -250.9259
   6   2.0000      -6.909054      -188.0049
   7   2.0000      -6.905159      -187.8989
   8   2.0000      -6.904128      -187.8709
   9   2.0000      -1.803528       -49.0765
  10   2.0000      -1.460950       -39.7545
  11   2.0000      -1.347839       -36.6766
  12   2.0000      -1.068005       -29.0619
  13   2.0000      -0.966993       -26.3132
  14   2.0000      -0.838151       -22.8073
  15   2.0000      -0.832558       -22.6551
  16   2.0000      -0.770102       -20.9555
  17   2.0000      -0.664878       -18.0922
  18   2.0000      -0.657370       -17.8879
  19   2.0000      -0.635210       -17.2849
  20   2.0000      -0.614803       -16.7296
  21   2.0000      -0.563136       -15.3237
  22   2.0000      -0.507104       -13.7990
  23   2.0000      -0.486496       -13.2382
  24   2.0000      -0.481270       -13.0960
  25   0.0000       0.022085         0.6010
  26   0.0000       0.041355         1.1253
  27   0.0000       0.044802         1.2191
  28   0.0000       0.062966         1.7134
  29   0.0000       0.091002         2.4763

MULLIKEN ATOMIC CHARGES
-----------------------
   0 C :   -0.972373
   1 S :    2.135205
   2 O :   -0.838476
   3 F :   -0.491182
   4 O :   -0.844822
   5 H :    0.340976
   6 H :    0.340835
   7 H :    0.329838
Sum of atomic charges:    0.0000000

LOEWDIN ATOMIC CHARGES
----------------------
   0 C :    0.514396
   1 S :   -0.142275
   2 O :    0.023614
   3 F :    0.276880
   4 O :   -0.005700
   5 H :   -0.210391
   6 H :   -0.229453
   7 H :   -0.227072

  Mayer bond orders larger than 0.100000
B(  0-C ,  1-S ) :   0.8923 B(  0-C ,  5-H ) :   0.8820 B(  0-C ,  6-H ) :   0.8645
B(  0-C ,  7-H ) :   0.8816 B(  1-S ,  2-O ) :   1.5911 B(  1-S ,  3-F ) :   0.5794
B(  1-S ,  4-O ) :   1.5250

E(0)                                       ...   -686.375489761
E(0)                                       ...   -686.375489761
E(CORR)(strong-pairs)                      ...     -1.119493474
E(CORR)(weak-pairs)                        ...     -0.000967519
E(CORR)(corrected)                         ...     -1.120460993
E(TOT)                                     ...   -687.495950754
E(CCSD(T))                                 ...   -687.541336936
FINAL SINGLE POINT ENERGY      -687.541336935648

DIPOLE MOMENT
-------------
                                X             Y             Z
Electronic contribution:     -1.77303      -4.36577       2.67147
Nuclear contribution   :      1.52593       5.92196      -1.79430
                        -----------------------------------------
Total Dipole Moment    :     -0.24710       1.55620       0.87717
                        -----------------------------------------
Magnitude (a.u.)       :      1.80340
Magnitude (Debye)      :      4.58387

Rotational constants in cm-1:     0.162837     0.155564     0.147443
Rotational constants in MHz :  4881.731197  4663.686927  4420.233103

                             ****ORCA TERMINATED NORMALLY****
TOTAL RUN TIME: 0 days 0 hours 53 minutes 20 seconds 322 msec
