                         Program Version 5.0.0 -  RELEASE  -
|  1> !DLPNO-CCSD(T) aug-cc-pVTZ aug-cc-pVTZ/C TightSCF TightPNO RIJCOSX def2/J
|  2> *xyz 0 1
|  3> C         -0.46129        2.23469       -4.98962
|  4> C         -0.42384        2.39877       -6.47432
|  5> N         -0.95947        3.49265       -7.00740
|  6> C          0.14558        1.48689       -7.20399
|  7> H          0.56537        0.69681       -6.72386
|  8> H          0.22068        1.58177       -8.20752
|  9> H         -1.40624        4.18151       -6.40326
| 10> H         -0.93421        3.68160       -7.99947
| 11> H          0.00645        1.31059       -4.72100
| 12> H         -1.47822        2.22967       -4.65687
| 13> H          0.06109        3.04632       -4.52779
| 14> *
| 15>
| 16> %MaxCore 64000
| 17>
| 18> %pal nprocs 8
| 19> end
| 20>
| 21> %scf
| 22>   MaxIter 150
| 23> end
| 24>
| 25>
| 26>                          ****END OF INPUT****

CARTESIAN COORDINATES (ANGSTROEM)
---------------------------------
  C     -0.461290    2.234690   -4.989620
  C     -0.423840    2.398770   -6.474320
  N     -0.959470    3.492650   -7.007400
  C      0.145580    1.486890   -7.203990
  H      0.565370    0.696810   -6.723860
  H      0.220680    1.581770   -8.207520
  H     -1.406240    4.181510   -6.403260
  H     -0.934210    3.681600   -7.999470
  H      0.006450    1.310590   -4.721000
  H     -1.478220    2.229670   -4.656870
  H      0.061090    3.046320   -4.527790

 Total Charge           Charge          ....    0
 Multiplicity           Mult            ....    1
 Number of Electrons    NEL             ....   32
 Basis Dimension        Dim             ....  345

ORBITAL ENERGIES
----------------

  NO   OCC          E(Eh)            E(eV)
   0   2.0000     -15.558880      -423.3786
   1   2.0000     -11.253526      -306.2240
   2   2.0000     -11.213930      -305.1465
   3   2.0000     -11.151325      -303.4430
   4   2.0000      -1.231494       -33.5106
   5   2.0000      -1.031438       -28.0668
   6   2.0000      -0.942654       -25.6509
   7   2.0000      -0.770896       -20.9771
   8   2.0000      -0.698477       -19.0065
   9   2.0000      -0.653735       -17.7890
  10   2.0000      -0.593921       -16.1614
  11   2.0000      -0.557799       -15.1785
  12   2.0000      -0.551541       -15.0082
  13   2.0000      -0.504620       -13.7314
  14   2.0000      -0.482339       -13.1251
  15   2.0000      -0.297079        -8.0839
  16   0.0000       0.026849         0.7306
  17   0.0000       0.037453         1.0192
  18   0.0000       0.041758         1.1363
  19   0.0000       0.047926         1.3041
  20   0.0000       0.057832         1.5737

MULLIKEN ATOMIC CHARGES
-----------------------
   0 C :   -0.615648
   1 C :    0.809886
   2 N :   -0.532492
   3 C :   -1.449431
   4 H :    0.158525
   5 H :    0.569171
   6 H :    0.080139
   7 H :    0.063443
   8 H :    0.303284
   9 H :    0.303182
  10 H :    0.309942
Sum of atomic charges:   -0.0000000

LOEWDIN ATOMIC CHARGES
----------------------
   0 C :    0.605307
   1 C :   -0.319824
   2 N :    0.832576
   3 C :    0.548332
   4 H :   -0.298303
   5 H :   -0.282168
   6 H :   -0.272930
   7 H :   -0.273101
   8 H :   -0.188267
   9 H :   -0.176278
  10 H :   -0.175343

  Mayer bond orders larger than 0.100000
B(  0-C ,  1-C ) :   0.5053 B(  0-C ,  8-H ) :   0.9912 B(  0-C ,  9-H ) :   0.9598
B(  0-C , 10-H ) :   0.9508 B(  1-C ,  2-N ) :   0.8923 B(  1-C ,  3-C ) :   1.0817
B(  1-C ,  4-H ) :  -0.1128 B(  2-N ,  3-C ) :  -0.2412 B(  2-N ,  6-H ) :   1.1354
B(  2-N ,  7-H ) :   1.1466 B(  3-C ,  4-H ) :   1.4506 B(  3-C ,  5-H ) :   0.5163

E(0)                                       ...   -172.162989538
E(0)                                       ...   -172.162989538
E(CORR)(strong-pairs)                      ...     -0.761765612
E(CORR)(weak-pairs)                        ...     -0.000642148
E(CORR)(corrected)                         ...     -0.762407760
E(TOT)                                     ...   -172.925397298
E(CCSD(T))                                 ...   -172.956117047
FINAL SINGLE POINT ENERGY      -172.956117047022

DIPOLE MOMENT
-------------
                                X             Y             Z
Electronic contribution:     -0.44179       0.94682      -1.34628
Nuclear contribution   :      0.12666      -0.32199       1.52310
                        -----------------------------------------
Total Dipole Moment    :     -0.31513       0.62483       0.17683
                        -----------------------------------------
Magnitude (a.u.)       :      0.72179
Magnitude (Debye)      :      1.83465

Rotational constants in cm-1:     0.352483     0.305471     0.168700
Rotational constants in MHz : 10567.165953  9157.779739  5057.501411

                             ****ORCA TERMINATED NORMALLY****
TOTAL RUN TIME: 0 days 0 hours 5 minutes 52 seconds 304 msec
