                         Program Version 5.0.0 -  RELEASE  -
|  1> !DLPNO-CCSD(T) aug-cc-pVTZ aug-cc-pVTZ/C TightSCF TightPNO RIJCOSX def2/J
|  2> *xyz 0 1
|  3> C          2.09343        1.86104       -4.65684
|  4> S          1.87964        0.07859       -4.46297
|  5> O          3.20757       -0.46611       -4.42026
|  6> O          1.07506       -0.05616       -3.26876
|  7> F          1.13166       -0.31996       -5.67903
|  8> H          2.68437        2.05681       -5.52711
|  9> H          2.58708        2.25699       -3.79404
| 10> H          1.13553        2.32556       -4.76426
| 11> *
| 12>
| 13> %MaxCore 64000
| 14>
| 15> %pal nprocs 2
| 16> end
| 17>
| 18> %scf
| 19>   MaxIter 150
| 20> end
| 21>
| 22>
| 23>                          ****END OF INPUT****

CARTESIAN COORDINATES (ANGSTROEM)
---------------------------------
  C      2.093430    1.861040   -4.656840
  S      1.879640    0.078590   -4.462970
  O      3.207570   -0.466110   -4.420260
  O      1.075060   -0.056160   -3.268760
  F      1.131660   -0.319960   -5.679030
  H      2.684370    2.056810   -5.527110
  H      2.587080    2.256990   -3.794040
  H      1.135530    2.325560   -4.764260

 Total Charge           Charge          ....    0
 Multiplicity           Mult            ....    1
 Number of Electrons    NEL             ....   50
 Basis Dimension        Dim             ....  303

ORBITAL ENERGIES
----------------

  NO   OCC          E(Eh)            E(eV)
   0   2.0000     -92.257456     -2510.4530
   1   2.0000     -26.418124      -718.8737
   2   2.0000     -20.576503      -559.9151
   3   2.0000     -20.571867      -559.7890
   4   2.0000     -11.288965      -307.1884
   5   2.0000      -9.220015      -250.8894
   6   2.0000      -6.907681      -187.9675
   7   2.0000      -6.904006      -187.8675
   8   2.0000      -6.902839      -187.8358
   9   2.0000      -1.771140       -48.1952
  10   2.0000      -1.470782       -40.0220
  11   2.0000      -1.368759       -37.2458
  12   2.0000      -1.064813       -28.9750
  13   2.0000      -0.948614       -25.8131
  14   2.0000      -0.817644       -22.2492
  15   2.0000      -0.809846       -22.0370
  16   2.0000      -0.769507       -20.9394
  17   2.0000      -0.669367       -18.2144
  18   2.0000      -0.661819       -18.0090
  19   2.0000      -0.634372       -17.2621
  20   2.0000      -0.620684       -16.8897
  21   2.0000      -0.568460       -15.4686
  22   2.0000      -0.515938       -14.0394
  23   2.0000      -0.494947       -13.4682
  24   2.0000      -0.493096       -13.4178
  25   0.0000       0.022805         0.6205
  26   0.0000       0.041990         1.1426
  27   0.0000       0.044214         1.2031
  28   0.0000       0.064580         1.7573
  29   0.0000       0.091424         2.4878

MULLIKEN ATOMIC CHARGES
-----------------------
   0 C :   -0.979853
   1 S :    2.153617
   2 O :   -0.841340
   3 O :   -0.845524
   4 F :   -0.496875
   5 H :    0.327524
   6 H :    0.352284
   7 H :    0.330167
Sum of atomic charges:   -0.0000000

LOEWDIN ATOMIC CHARGES
----------------------
   0 C :    0.515028
   1 S :   -0.138480
   2 O :    0.023939
   3 O :    0.017651
   4 F :    0.248705
   5 H :   -0.228124
   6 H :   -0.211415
   7 H :   -0.227303

  Mayer bond orders larger than 0.100000
B(  0-C ,  1-S ) :   0.8822 B(  0-C ,  5-H ) :   0.8852 B(  0-C ,  6-H ) :   0.8633
B(  0-C ,  7-H ) :   0.8809 B(  1-S ,  2-O ) :   1.5923 B(  1-S ,  3-O ) :   1.5801
B(  1-S ,  4-F ) :   0.5661

E(0)                                       ...   -686.390376053
E(0)                                       ...   -686.390376053
E(CORR)(strong-pairs)                      ...     -1.118754596
E(CORR)(weak-pairs)                        ...     -0.000960893
E(CORR)(corrected)                         ...     -1.119715490
E(TOT)                                     ...   -687.510091542
E(CCSD(T))                                 ...   -687.555263431
FINAL SINGLE POINT ENERGY      -687.555263430987

DIPOLE MOMENT
-------------
                                X             Y             Z
Electronic contribution:     -1.68594      -4.82971      -1.55897
Nuclear contribution   :      1.46938       6.18552       0.61372
                        -----------------------------------------
Total Dipole Moment    :     -0.21656       1.35580      -0.94525
                        -----------------------------------------
Magnitude (a.u.)       :      1.66691
Magnitude (Debye)      :      4.23695

Rotational constants in cm-1:     0.163578     0.153284     0.148718
Rotational constants in MHz :  4903.939615  4595.352658  4458.447794

                             ****ORCA TERMINATED NORMALLY****
TOTAL RUN TIME: 0 days 0 hours 51 minutes 18 seconds 338 msec
