                         Program Version 5.0.0 -  RELEASE  -
|  1> !DLPNO-CCSD(T) aug-cc-pVTZ aug-cc-pVTZ/C TightSCF TightPNO RIJCOSX def2/J
|  2>
|  3> *xyzfile 0 1 D6.xyz
|  4>
|  5> %MaxCore 64000
|  6>
|  7> %pal nprocs 18
|  8> end
|  9>
| 10> %scf
| 11>   MaxIter 150
| 12> end
| 13>
| 14>
| 15>                          ****END OF INPUT****

CARTESIAN COORDINATES (ANGSTROEM)
---------------------------------
  C     -0.461293    2.234686   -4.989619
  C      0.848883    2.667967   -4.302351
  C      2.093434    1.861037   -4.656845
  H      2.444814    2.041567   -5.674990
  H      2.901748    2.137864   -3.980338
  S      1.879644    0.078594   -4.462965
  C     -0.423841    2.398772   -6.474317
  N     -0.959467    3.492647   -7.007401
  C      0.145585    1.486891   -7.203987
  H      0.565371    0.696807   -6.723858
  H      0.220682    1.581768   -8.207520
  H     -1.406243    4.181507   -6.403261
  H     -0.934215    3.681601   -7.999468
  O      3.207574   -0.466111   -4.420259
  O      1.075064   -0.056160   -3.268758
  F      1.131661   -0.319960   -5.679031
  H      0.668432    2.559427   -3.232850
  H      1.034074    3.729426   -4.497081
  H     -1.288884    2.826737   -4.594997
  H     -0.651696    1.186343   -4.756552

 Total Charge           Charge          ....    0
 Multiplicity           Mult            ....    1
 Number of Electrons    NEL             ....   88
 Basis Dimension        Dim             ....  694

ORBITAL ENERGIES
----------------

  NO   OCC          E(Eh)            E(eV)
   0   2.0000     -92.248959     -2510.2218
   1   2.0000     -26.411904      -718.7044
   2   2.0000     -20.571305      -559.7737
   3   2.0000     -20.567704      -559.6757
   4   2.0000     -15.570193      -423.6865
   5   2.0000     -11.286302      -307.1159
   6   2.0000     -11.263345      -306.4912
   7   2.0000     -11.256289      -306.2992
   8   2.0000     -11.243180      -305.9425
   9   2.0000     -11.152573      -303.4769
  10   2.0000      -9.212328      -250.6802
  11   2.0000      -6.900025      -187.7592
  12   2.0000      -6.896035      -187.6506
  13   2.0000      -6.895052      -187.6239
  14   2.0000      -1.773855       -48.2690
  15   2.0000      -1.467454       -39.9314
  16   2.0000      -1.365283       -37.1512
  17   2.0000      -1.244455       -33.8634
  18   2.0000      -1.114089       -30.3159
  19   2.0000      -1.041641       -28.3445
  20   2.0000      -0.984403       -26.7870
  21   2.0000      -0.958985       -26.0953
  22   2.0000      -0.867573       -23.6079
  23   2.0000      -0.827762       -22.5246
  24   2.0000      -0.810104       -22.0441
  25   2.0000      -0.770131       -20.9563
  26   2.0000      -0.754459       -20.5299
  27   2.0000      -0.714919       -19.4539
  28   2.0000      -0.681902       -18.5555
  29   2.0000      -0.668972       -18.2036
  30   2.0000      -0.645858       -17.5747
  31   2.0000      -0.644058       -17.5257
  32   2.0000      -0.620423       -16.8826
  33   2.0000      -0.578746       -15.7485
  34   2.0000      -0.567681       -15.4474
  35   2.0000      -0.549942       -14.9647
  36   2.0000      -0.541202       -14.7269
  37   2.0000      -0.534843       -14.5538
  38   2.0000      -0.509128       -13.8541
  39   2.0000      -0.496017       -13.4973
  40   2.0000      -0.487775       -13.2730
  41   2.0000      -0.484980       -13.1970
  42   2.0000      -0.473943       -12.8967
  43   2.0000      -0.306417        -8.3380
  44   0.0000       0.019875         0.5408
  45   0.0000       0.031112         0.8466
  46   0.0000       0.033661         0.9160
  47   0.0000       0.040536         1.1030
  48   0.0000       0.052201         1.4205

MULLIKEN ATOMIC CHARGES
-----------------------
   0 C :    0.005653
   1 C :   -0.489244
   2 C :   -0.549050
   3 H :    0.241721
   4 H :    0.278279
   5 S :    2.299885
   6 C :    0.801536
   7 N :   -0.766676
   8 C :   -1.560490
   9 H :    0.752993
  10 H :    0.392628
  11 H :   -0.001923
  12 H :    0.025290
  13 O :   -0.962813
  14 O :   -0.954941
  15 F :   -0.579945
  16 H :    0.256580
  17 H :    0.269168
  18 H :    0.316939
  19 H :    0.224408
Sum of atomic charges:    0.0000000

LOEWDIN ATOMIC CHARGES
----------------------
   0 C :    0.288173
   1 C :    0.264802
   2 C :    0.208467
   3 H :   -0.187976
   4 H :   -0.177940
   5 S :   -0.030335
   6 C :   -0.296152
   7 N :    0.846562
   8 C :    0.548716
   9 H :   -0.587365
  10 H :   -0.262203
  11 H :   -0.274876
  12 H :   -0.267558
  13 O :    0.046442
  14 O :    0.064456
  15 F :    0.431592
  16 H :   -0.163613
  17 H :   -0.132454
  18 H :   -0.140206
  19 H :   -0.178531

  Mayer bond orders larger than 0.100000
B(  0-C ,  1-C ) :   0.8150 B(  0-C ,  6-C ) :   0.5191 B(  0-C ,  7-N ) :  -0.1280
B(  0-C , 18-H ) :   0.9464 B(  0-C , 19-H ) :   1.0908 B(  1-C ,  2-C ) :   0.8970
B(  1-C ,  5-S ) :   0.1163 B(  1-C ,  6-C ) :   0.1680 B(  1-C , 16-H ) :   0.9986
B(  1-C , 17-H ) :   0.9332 B(  2-C ,  3-H ) :   0.9787 B(  2-C ,  4-H ) :   0.8908
B(  2-C ,  5-S ) :   0.8267 B(  2-C , 14-O ) :   0.1052 B(  5-S , 13-O ) :   1.3266
B(  5-S , 14-O ) :   1.5315 B(  5-S , 15-F ) :   0.6651 B(  6-C ,  7-N ) :   0.6138
B(  6-C ,  8-C ) :   1.0583 B(  6-C , 11-H ) :  -0.1234 B(  6-C , 18-H ) :  -0.1094
B(  7-N ,  8-C ) :  -0.3690 B(  7-N , 11-H ) :   1.2912 B(  7-N , 12-H ) :   1.2208
B(  8-C ,  9-H ) :   0.7092 B(  8-C , 10-H ) :   0.8986 B(  9-H , 15-F ) :  -0.3233

E(0)                                       ...   -896.401244025
E(0)                                       ...   -896.401244025
E(CORR)(strong-pairs)                      ...     -2.046788147
E(CORR)(weak-pairs)                        ...     -0.002760431
E(CORR)(corrected)                         ...     -2.049548578
E(TOT)                                     ...   -898.450792603
E(CCSD(T))                                 ...   -898.537642761
FINAL SINGLE POINT ENERGY      -898.537642761419

DIPOLE MOMENT
-------------
                                X             Y             Z
Electronic contribution:      5.51581     -11.86336       3.12155
Nuclear contribution   :     -6.15577      13.80449      -3.81895
                        -----------------------------------------
Total Dipole Moment    :     -0.63995       1.94114      -0.69740
                        -----------------------------------------
Magnitude (a.u.)       :      2.15961
Magnitude (Debye)      :      5.48929

Rotational constants in cm-1:     0.081431     0.024887     0.022470
Rotational constants in MHz :  2441.231544   746.086417   673.646914

                             ****ORCA TERMINATED NORMALLY****
TOTAL RUN TIME: 0 days 1 hours 33 minutes 47 seconds 980 msec
