                         Program Version 5.0.0 -  RELEASE  -
|  1> !TPSS D3BJ RIJCOSX def2-SVPD def2/J TightSCF
|  2> *xyz -1 1
|  3> C         -0.60249       -0.63071        0.49224
|  4> O         -1.71206       -1.37684        0.20253
|  5> H          0.27695       -1.19720        0.26733
|  6> H         -0.60598       -0.37494        1.53122
|  7> H         -0.61066        0.26355       -0.09525
|  8> *
|  9> %MaxCore 64000
| 10>
| 11> %pal nprocs 4
| 12> end
| 13> %scf
| 14>   MaxIter 150
| 15> end
| 16>
| 17>                          ****END OF INPUT****

CARTESIAN COORDINATES (ANGSTROEM)
---------------------------------
  C     -0.602490   -0.630710    0.492240
  O     -1.712060   -1.376840    0.202530
  H      0.276950   -1.197200    0.267330
  H     -0.605980   -0.374940    1.531220
  H     -0.610660    0.263550   -0.095250

 Total Charge           Charge          ....   -1
 Multiplicity           Mult            ....    1
 Number of Electrons    NEL             ....   18
 Basis Dimension        Dim             ....   67

ORBITAL ENERGIES
----------------

  NO   OCC          E(Eh)            E(eV)
   0   2.0000     -18.548550      -504.7317
   1   2.0000      -9.788153      -266.3492
   2   2.0000      -0.583817       -15.8865
   3   2.0000      -0.340389        -9.2625
   4   2.0000      -0.155420        -4.2292
   5   2.0000      -0.155419        -4.2292
   6   2.0000      -0.055157        -1.5009
   7   2.0000       0.091570         2.4917
   8   2.0000       0.091573         2.4918
   9   0.0000       0.189492         5.1563
  10   0.0000       0.259311         7.0562
  11   0.0000       0.259312         7.0562
  12   0.0000       0.267208         7.2711
  13   0.0000       0.304229         8.2785

MULLIKEN ATOMIC CHARGES
-----------------------
   0 C :    0.808056
   1 O :   -1.043357
   2 H :   -0.254912
   3 H :   -0.254892
   4 H :   -0.254896
Sum of atomic charges:   -1.0000000

LOEWDIN ATOMIC CHARGES
----------------------
   0 C :   -0.109845
   1 O :   -0.633738
   2 H :   -0.085472
   3 H :   -0.085472
   4 H :   -0.085472

  Mayer bond orders larger than 0.100000
B(  0-C ,  1-O ) :   1.1217 B(  0-C ,  2-H ) :   0.9219 B(  0-C ,  3-H ) :   0.9219
B(  0-C ,  4-H ) :   0.9219

Dispersion correction           -0.001756350
FINAL SINGLE POINT ENERGY      -115.034240159841

DIPOLE MOMENT
-------------
                                X             Y             Z
Electronic contribution:     -1.54947      -1.04193      -0.40458
Nuclear contribution   :      2.33640       1.57111       0.61004
                        -----------------------------------------
Total Dipole Moment    :      0.78693       0.52918       0.20546
                        -----------------------------------------
Magnitude (a.u.)       :      0.97031
Magnitude (Debye)      :      2.46633

Rotational constants in cm-1:     5.477665     0.940945     0.940944
Rotational constants in MHz : 164216.266994 28208.811441 28208.799857

                             ****ORCA TERMINATED NORMALLY****
TOTAL RUN TIME: 0 days 0 hours 0 minutes 2 seconds 786 msec
