                         Program Version 5.0.0 -  RELEASE  -
|  1> !TPSS D3BJ RIJCOSX def2-SVPD def2/J TightSCF
|  2> *xyz 1 1
|  3> C         -2.12050        0.88520        1.78951
|  4> N         -3.17690       -0.15948        1.61070
|  5> H         -4.06474        0.23127        1.28675
|  6> H         -3.34407       -0.67151        2.48493
|  7> H         -2.71686       -0.78189        0.93588
|  8> H         -1.96853        1.40078        0.86432
|  9> H         -1.20609        0.41954        2.09270
| 10> H         -2.43151        1.58226        2.53937
| 11> *
| 12> %MaxCore 64000
| 13>
| 14> %pal nprocs 4
| 15> end
| 16>
| 17> %scf
| 18>   MaxIter 150
| 19> end
| 20>
| 21>
| 22>                          ****END OF INPUT****

CARTESIAN COORDINATES (ANGSTROEM)
---------------------------------
  C     -2.120500    0.885200    1.789510
  N     -3.176900   -0.159480    1.610700
  H     -4.064740    0.231270    1.286750
  H     -3.344070   -0.671510    2.484930
  H     -2.716860   -0.781890    0.935880
  H     -1.968530    1.400780    0.864320
  H     -1.206090    0.419540    2.092700
  H     -2.431510    1.582260    2.539370

 Total Charge           Charge          ....    1
 Multiplicity           Mult            ....    1
 Number of Electrons    NEL             ....   18
 Basis Dimension        Dim             ....   88

ORBITAL ENERGIES
----------------

  NO   OCC          E(Eh)            E(eV)
   0   2.0000     -14.466877      -393.6637
   1   2.0000     -10.262538      -279.2579
   2   2.0000      -1.158184       -31.5158
   3   2.0000      -0.881007       -23.9734
   4   2.0000      -0.776549       -21.1310
   5   2.0000      -0.764423       -20.8010
   6   2.0000      -0.669311       -18.2129
   7   2.0000      -0.592994       -16.1362
   8   2.0000      -0.589408       -16.0386
   9   0.0000      -0.218725        -5.9518
  10   0.0000      -0.155627        -4.2348
  11   0.0000      -0.149739        -4.0746
  12   0.0000      -0.140263        -3.8168
  13   0.0000      -0.100957        -2.7472

MULLIKEN ATOMIC CHARGES
-----------------------
   0 C :    0.825562
   1 N :   -0.770842
   2 H :    0.350117
   3 H :    0.363213
   4 H :    0.404883
   5 H :   -0.048454
   6 H :   -0.041086
   7 H :   -0.083394
Sum of atomic charges:    1.0000000

LOEWDIN ATOMIC CHARGES
----------------------
   0 C :    0.292262
   1 N :    0.325735
   2 H :    0.106818
   3 H :    0.107453
   4 H :    0.102343
   5 H :    0.023003
   6 H :    0.023273
   7 H :    0.019112

  Mayer bond orders larger than 0.100000
B(  0-C ,  1-N ) :   0.8601 B(  0-C ,  5-H ) :   0.9031 B(  0-C ,  6-H ) :   0.8954
B(  0-C ,  7-H ) :   0.9398 B(  1-N ,  2-H ) :   0.7910 B(  1-N ,  3-H ) :   0.7774
B(  1-N ,  4-H ) :   0.7213

Dispersion correction           -0.004025030
FINAL SINGLE POINT ENERGY       -96.165365319805

DIPOLE MOMENT
-------------
                                X             Y             Z
Electronic contribution:     -0.83864      -0.76592      -0.13054
Nuclear contribution   :      0.30442       0.18283       0.03339
                        -----------------------------------------
Total Dipole Moment    :     -0.53422      -0.58309      -0.09715
                        -----------------------------------------
Magnitude (a.u.)       :      0.79676
Magnitude (Debye)      :      2.02520

Rotational constants in cm-1:     2.844840     0.686092     0.683099
Rotational constants in MHz : 85286.171795 20568.516729 20478.789944

                             ****ORCA TERMINATED NORMALLY****
TOTAL RUN TIME: 0 days 0 hours 0 minutes 3 seconds 267 msec
