                         Program Version 5.0.0 -  RELEASE  -
|  1> !TPSS D3BJ RIJCOSX def2-SVPD def2/J TightSCF
|  2> *xyz 0 1
|  3> C         -0.60249       -0.63071        0.49224
|  4> F         -1.71206       -1.37684        0.20253
|  5> H          0.27695       -1.19720        0.26733
|  6> H         -0.60598       -0.37494        1.53122
|  7> H         -0.61066        0.26355       -0.09525
|  8> *
|  9> %MaxCore 64000
| 10>
| 11> %pal nprocs 4
| 12> end
| 13> %scf
| 14>   MaxIter 150
| 15> end
| 16>
| 17>                          ****END OF INPUT****

CARTESIAN COORDINATES (ANGSTROEM)
---------------------------------
  C     -0.602490   -0.630710    0.492240
  F     -1.712060   -1.376840    0.202530
  H      0.276950   -1.197200    0.267330
  H     -0.605980   -0.374940    1.531220
  H     -0.610660    0.263550   -0.095250

 Total Charge           Charge          ....    0
 Multiplicity           Mult            ....    1
 Number of Electrons    NEL             ....   18
 Basis Dimension        Dim             ....   67

ORBITAL ENERGIES
----------------

  NO   OCC          E(Eh)            E(eV)
   0   2.0000     -24.411915      -664.2820
   1   2.0000     -10.072348      -274.0825
   2   2.0000      -1.105687       -30.0873
   3   2.0000      -0.648530       -17.6474
   4   2.0000      -0.450338       -12.2543
   5   2.0000      -0.441893       -12.0245
   6   2.0000      -0.441891       -12.0245
   7   2.0000      -0.303467        -8.2578
   8   2.0000      -0.303460        -8.2576
   9   0.0000       0.016121         0.4387
  10   0.0000       0.044508         1.2111
  11   0.0000       0.089731         2.4417
  12   0.0000       0.089733         2.4418
  13   0.0000       0.134288         3.6542

MULLIKEN ATOMIC CHARGES
-----------------------
   0 C :    0.856252
   1 F :   -0.485563
   2 H :   -0.123562
   3 H :   -0.123525
   4 H :   -0.123602
Sum of atomic charges:    0.0000000

LOEWDIN ATOMIC CHARGES
----------------------
   0 C :    0.273025
   1 F :   -0.242948
   2 H :   -0.010027
   3 H :   -0.010025
   4 H :   -0.010025

  Mayer bond orders larger than 0.100000
B(  0-C ,  1-F ) :   0.8390 B(  0-C ,  2-H ) :   0.9453 B(  0-C ,  3-H ) :   0.9453
B(  0-C ,  4-H ) :   0.9453

Dispersion correction           -0.001538454
FINAL SINGLE POINT ENERGY      -139.660528463796

DIPOLE MOMENT
-------------
                                X             Y             Z
Electronic contribution:     -2.39946      -1.61352      -0.62651
Nuclear contribution   :      2.96306       1.99251       0.77366
                        -----------------------------------------
Total Dipole Moment    :      0.56360       0.37900       0.14715
                        -----------------------------------------
Magnitude (a.u.)       :      0.69493
Magnitude (Debye)      :      1.76638

Rotational constants in cm-1:     5.477665     0.875886     0.875886
Rotational constants in MHz : 164216.266994 26258.396768 26258.386731

                             ****ORCA TERMINATED NORMALLY****
TOTAL RUN TIME: 0 days 0 hours 0 minutes 2 seconds 466 msec
