                         Program Version 5.0.0 -  RELEASE  -
|  1> !TPSS D3BJ RIJCOSX def2-SVPD def2/J TightSCF
|  2> *xyz 0 1
|  3> C         -2.12050        0.88520        1.78951
|  4> C         -3.17690       -0.15948        1.61070
|  5> H         -4.06474        0.23127        1.28675
|  6> H         -3.34407       -0.67151        2.48493
|  7> H         -2.71686       -0.78189        0.93588
|  8> H         -1.96853        1.40078        0.86432
|  9> H         -1.20609        0.41954        2.09270
| 10> H         -2.43151        1.58226        2.53937
| 11> *
| 12> %MaxCore 64000
| 13>
| 14> %pal nprocs 4
| 15> end
| 16>
| 17> %scf
| 18>   MaxIter 150
| 19> end
| 20>
| 21>
| 22>                          ****END OF INPUT****

CARTESIAN COORDINATES (ANGSTROEM)
---------------------------------
  C     -2.120500    0.885200    1.789510
  C     -3.176900   -0.159480    1.610700
  H     -4.064740    0.231270    1.286750
  H     -3.344070   -0.671510    2.484930
  H     -2.716860   -0.781890    0.935880
  H     -1.968530    1.400780    0.864320
  H     -1.206090    0.419540    2.092700
  H     -2.431510    1.582260    2.539370

 Total Charge           Charge          ....    0
 Multiplicity           Mult            ....    1
 Number of Electrons    NEL             ....   18
 Basis Dimension        Dim             ....   88

ORBITAL ENERGIES
----------------

  NO   OCC          E(Eh)            E(eV)
   0   2.0000      -9.979556      -271.5575
   1   2.0000      -9.966730      -271.2085
   2   2.0000      -0.707439       -19.2504
   3   2.0000      -0.564985       -15.3740
   4   2.0000      -0.414578       -11.2812
   5   2.0000      -0.406100       -11.0505
   6   2.0000      -0.328386        -8.9358
   7   2.0000      -0.312901        -8.5145
   8   2.0000      -0.303148        -8.2491
   9   0.0000       0.018860         0.5132
  10   0.0000       0.052313         1.4235
  11   0.0000       0.090402         2.4600
  12   0.0000       0.091943         2.5019
  13   0.0000       0.110725         3.0130

MULLIKEN ATOMIC CHARGES
-----------------------
   0 C :    0.130918
   1 C :    0.545161
   2 H :   -0.198437
   3 H :   -0.160826
   4 H :   -0.119553
   5 H :   -0.061292
   6 H :   -0.054741
   7 H :   -0.081230
Sum of atomic charges:   -0.0000000

LOEWDIN ATOMIC CHARGES
----------------------
   0 C :    0.082019
   1 C :    0.098011
   2 H :   -0.037801
   3 H :   -0.037518
   4 H :   -0.039375
   5 H :   -0.020245
   6 H :   -0.019506
   7 H :   -0.025586

  Mayer bond orders larger than 0.100000
B(  0-C ,  1-C ) :   1.4461 B(  0-C ,  2-H ) :   0.1545 B(  0-C ,  3-H ) :   0.1549
B(  0-C ,  4-H ) :   0.2169 B(  0-C ,  5-H ) :   0.8769 B(  0-C ,  6-H ) :   0.8704
B(  0-C ,  7-H ) :   0.9219 B(  1-C ,  2-H ) :   0.8266 B(  1-C ,  3-H ) :   0.8107
B(  1-C ,  4-H ) :   0.8022 B(  1-C ,  5-H ) :   0.1443 B(  1-C ,  6-H ) :   0.1483
B(  1-C ,  7-H ) :   0.1261

Dispersion correction           -0.004034986
FINAL SINGLE POINT ENERGY       -79.774272541916

DIPOLE MOMENT
-------------
                                X             Y             Z
Electronic contribution:     -0.12772      -0.02078      -0.00416
Nuclear contribution   :      0.12022       0.00247       0.00249
                        -----------------------------------------
Total Dipole Moment    :     -0.00751      -0.01831      -0.00167
                        -----------------------------------------
Magnitude (a.u.)       :      0.01986
Magnitude (Debye)      :      0.05048

Rotational constants in cm-1:     2.844858     0.716988     0.713720
Rotational constants in MHz : 85286.697487 21494.771942 21396.773512

                             ****ORCA TERMINATED NORMALLY****
TOTAL RUN TIME: 0 days 0 hours 0 minutes 3 seconds 539 msec
