                         Program Version 5.0.0 -  RELEASE  -
|  1> !M062X D3Zero RIJCOSX def2-SVPD def2/J TightSCF
|  2> *xyz -1 1
|  3> C         -0.10608        1.76991       -4.08984
|  4> C         -0.25875        1.00432       -5.40983
|  5> C          0.39596       -0.37070       -5.33994
|  6> H          0.23915        1.56939       -6.20125
|  7> H         -1.30936        0.88869       -5.68245
|  8> O         -0.32633       -1.39040       -5.49128
|  9> O          1.61941       -0.40073       -5.03683
| 10> H         -0.57627        2.72718       -4.17630
| 11> H          0.93321        1.90140       -3.87192
| 12> H         -0.56868        1.21534       -3.30031
| 13> *
| 14> %MaxCore 64000
| 15>
| 16> %pal nprocs 4
| 17> end
| 18>
| 19> %scf
| 20>   MaxIter 150
| 21> end
| 22>
| 23>
| 24>                          ****END OF INPUT****

CARTESIAN COORDINATES (ANGSTROEM)
---------------------------------
  C     -0.106080    1.769910   -4.089840
  C     -0.258750    1.004320   -5.409830
  C      0.395960   -0.370700   -5.339940
  H      0.239150    1.569390   -6.201250
  H     -1.309360    0.888690   -5.682450
  O     -0.326330   -1.390400   -5.491280
  O      1.619410   -0.400730   -5.036830
  H     -0.576270    2.727180   -4.176300
  H      0.933210    1.901400   -3.871920
  H     -0.568680    1.215340   -3.300310

 Total Charge           Charge          ....   -1
 Multiplicity           Mult            ....    1
 Number of Electrons    NEL             ....   40
 Basis Dimension        Dim             ....  146

ORBITAL ENERGIES
----------------

  NO   OCC          E(Eh)            E(eV)
   0   2.0000     -19.372166      -527.1434
   1   2.0000     -19.370542      -527.0992
   2   2.0000     -10.437618      -284.0220
   3   2.0000     -10.389210      -282.7048
   4   2.0000     -10.376990      -282.3723
   5   2.0000      -0.927044       -25.2262
   6   2.0000      -0.825911       -22.4742
   7   2.0000      -0.695115       -18.9150
   8   2.0000      -0.555872       -15.1260
   9   2.0000      -0.395599       -10.7648
  10   2.0000      -0.363309        -9.8862
  11   2.0000      -0.333676        -9.0798
  12   2.0000      -0.301420        -8.2021
  13   2.0000      -0.284437        -7.7399
  14   2.0000      -0.279478        -7.6050
  15   2.0000      -0.245256        -6.6737
  16   2.0000      -0.229709        -6.2507
  17   2.0000      -0.111010        -3.0207
  18   2.0000      -0.109842        -2.9889
  19   2.0000      -0.101422        -2.7598
  20   0.0000       0.173233         4.7139
  21   0.0000       0.206403         5.6165
  22   0.0000       0.216590         5.8937
  23   0.0000       0.243162         6.6168
  24   0.0000       0.263655         7.1744

MULLIKEN ATOMIC CHARGES
-----------------------
   0 C :    0.524632
   1 C :   -0.274741
   2 C :    0.560526
   3 H :   -0.009218
   4 H :   -0.078536
   5 O :   -0.752789
   6 O :   -0.781195
   7 H :   -0.081367
   8 H :   -0.038433
   9 H :   -0.068878
Sum of atomic charges:   -1.0000000

LOEWDIN ATOMIC CHARGES
----------------------
   0 C :    0.103333
   1 C :   -0.040415
   2 C :   -0.294497
   3 H :    0.008750
   4 H :    0.001668
   5 O :   -0.344218
   6 O :   -0.342566
   7 H :   -0.043403
   8 H :   -0.027323
   9 H :   -0.021330

  Mayer bond orders larger than 0.100000
B(  0-C ,  1-C ) :   1.2837 B(  0-C ,  7-H ) :   0.8547 B(  0-C ,  8-H ) :   0.8399
B(  0-C ,  9-H ) :   0.8628 B(  1-C ,  2-C ) :   0.9996 B(  1-C ,  3-H ) :   0.8928
B(  1-C ,  4-H ) :   0.9886 B(  1-C ,  7-H ) :   0.1518 B(  1-C ,  8-H ) :   0.1940
B(  1-C ,  9-H ) :   0.1648 B(  2-C ,  4-H ) :   0.1656 B(  2-C ,  5-O ) :   1.3886
B(  2-C ,  6-O ) :   1.4120

Dispersion correction           -0.000085539
FINAL SINGLE POINT ENERGY      -267.532736433525

DIPOLE MOMENT
-------------
                                X             Y             Z
Electronic contribution:      1.72195      -5.26439      -1.70181
Nuclear contribution   :     -2.46071       7.20791       1.95694
                        -----------------------------------------
Total Dipole Moment    :     -0.73877       1.94352       0.25513
                        -----------------------------------------
Magnitude (a.u.)       :      2.09479
Magnitude (Debye)      :      5.32453

Rotational constants in cm-1:     0.309435     0.135317     0.107436
Rotational constants in MHz :  9276.637721  4056.700783  3220.846587

                             ****ORCA TERMINATED NORMALLY****
TOTAL RUN TIME: 0 days 0 hours 0 minutes 20 seconds 63 msec
