                         Program Version 5.0.0 -  RELEASE  -
|  1> !M062X D3Zero RIJCOSX def2-SVPD def2/J TightSCF
|  2> *xyz 1 1
|  3> C          0.81607       -2.10149       -2.18655
|  4> H          1.69623       -2.36869       -1.60046
|  5> N          1.10055       -2.46749       -3.59927
|  6> C          0.51624       -0.61363       -2.03937
|  7> H         -0.02007       -2.71285       -1.84084
|  8> H          1.70061       -1.75723       -4.07838
|  9> H          0.29386       -2.35977       -4.25632
| 10> H          1.50132       -3.42848       -3.69491
| 11> H         -0.34841       -0.36504       -2.61858
| 12> H          1.35358       -0.04503       -2.38643
| 13> H          0.33317       -0.38682       -1.00984
| 14> *
| 15> %MaxCore 64000
| 16>
| 17> %pal nprocs 4
| 18> end
| 19>
| 20> %scf
| 21>   MaxIter 150
| 22> end
| 23>
| 24>
| 25>                          ****END OF INPUT****

CARTESIAN COORDINATES (ANGSTROEM)
---------------------------------
  C      0.816070   -2.101490   -2.186550
  H      1.696230   -2.368690   -1.600460
  N      1.100550   -2.467490   -3.599270
  C      0.516240   -0.613630   -2.039370
  H     -0.020070   -2.712850   -1.840840
  H      1.700610   -1.757230   -4.078380
  H      0.293860   -2.359770   -4.256320
  H      1.501320   -3.428480   -3.694910
  H     -0.348410   -0.365040   -2.618580
  H      1.353580   -0.045030   -2.386430
  H      0.333170   -0.386820   -1.009840

 Total Charge           Charge          ....    1
 Multiplicity           Mult            ....    1
 Number of Electrons    NEL             ....   26
 Basis Dimension        Dim             ....  124

ORBITAL ENERGIES
----------------

  NO   OCC          E(Eh)            E(eV)
   0   2.0000     -15.099660      -410.8826
   1   2.0000     -10.806415      -294.0575
   2   2.0000     -10.727233      -291.9029
   3   2.0000      -1.306845       -35.5611
   4   2.0000      -1.054158       -28.6851
   5   2.0000      -0.931115       -25.3369
   6   2.0000      -0.863859       -23.5068
   7   2.0000      -0.846891       -23.0451
   8   2.0000      -0.771802       -21.0018
   9   2.0000      -0.706323       -19.2200
  10   2.0000      -0.647444       -17.6178
  11   2.0000      -0.632234       -17.2040
  12   2.0000      -0.613996       -16.7077
  13   0.0000      -0.169686        -4.6174
  14   0.0000      -0.111196        -3.0258
  15   0.0000      -0.105941        -2.8828
  16   0.0000      -0.102316        -2.7842
  17   0.0000      -0.064021        -1.7421

MULLIKEN ATOMIC CHARGES
-----------------------
   0 C :    0.224052
   1 H :   -0.029969
   2 N :   -1.042229
   3 C :    0.527623
   4 H :   -0.045485
   5 H :    0.457169
   6 H :    0.417097
   7 H :    0.425256
   8 H :    0.044236
   9 H :    0.012332
  10 H :    0.009919
Sum of atomic charges:    1.0000000

LOEWDIN ATOMIC CHARGES
----------------------
   0 C :    0.052500
   1 H :    0.053024
   2 N :    0.295049
   3 C :    0.172839
   4 H :    0.054212
   5 H :    0.113840
   6 H :    0.118707
   7 H :    0.123272
   8 H :    0.001103
   9 H :   -0.000175
  10 H :    0.015629

  Mayer bond orders larger than 0.100000
B(  0-C ,  1-H ) :   0.9330 B(  0-C ,  2-N ) :   0.6413 B(  0-C ,  3-C ) :   1.3184
B(  0-C ,  4-H ) :   0.9509 B(  0-C ,  8-H ) :   0.1359 B(  0-C ,  9-H ) :   0.1451
B(  0-C , 10-H ) :   0.1784 B(  2-N ,  4-H ) :   0.1118 B(  2-N ,  5-H ) :   0.6243
B(  2-N ,  6-H ) :   0.7064 B(  2-N ,  7-H ) :   0.6450 B(  3-C ,  8-H ) :   0.8356
B(  3-C ,  9-H ) :   0.8517 B(  3-C , 10-H ) :   0.8481

Dispersion correction           -0.000054527
FINAL SINGLE POINT ENERGY      -135.355635702722

DIPOLE MOMENT
-------------
                                X             Y             Z
Electronic contribution:      0.41804      -1.43027      -1.06930
Nuclear contribution   :     -0.07506       0.54337      -0.16191
                        -----------------------------------------
Total Dipole Moment    :      0.34299      -0.88690      -1.23121
                        -----------------------------------------
Magnitude (a.u.)       :      1.55567
Magnitude (Debye)      :      3.95421

Rotational constants in cm-1:     0.999557     0.280801     0.246932
Rotational constants in MHz : 29965.963633  8418.199581  7402.841054

                             ****ORCA TERMINATED NORMALLY****
TOTAL RUN TIME: 0 days 0 hours 0 minutes 15 seconds 229 msec
