                         Program Version 5.0.0 -  RELEASE  -
|  1> !M062X D3Zero RIJCOSX def2-SVPD def2/J TightSCF xyzfile
|  2>
|  3> *xyzfile 0 1 B.xyz
|  4>
|  5> %MaxCore 64000
|  6>
|  7> %pal nprocs 4
|  8> end
|  9>
| 10> %scf
| 11>   MaxIter 150
| 12> end
| 13>
| 14>
| 15>                          ****END OF INPUT****

CARTESIAN COORDINATES (ANGSTROEM)
---------------------------------
  C      0.816067   -2.101491   -2.186546
  H      1.696232   -2.368691   -1.600457
  N      1.100552   -2.467492   -3.599269
  C      0.516243   -0.613634   -2.039373
  H     -0.020066   -2.712849   -1.840844
  C     -0.868621   -0.193925   -2.546303
  C     -0.984801    1.284739   -2.928686
  H     -0.764939    1.904116   -2.051568
  H     -2.032613    1.478953   -3.178952
  C     -0.106085    1.769914   -4.089836
  H     -0.347744    2.822196   -4.262942
  H      0.949683    1.745875   -3.808781
  C     -0.258747    1.004323   -5.409829
  C      0.395958   -0.370696   -5.339939
  H      0.239150    1.569393   -6.201253
  H     -1.309360    0.888694   -5.682455
  H      1.700606   -1.757225   -4.078378
  H      0.293855   -2.359766   -4.256324
  H      1.501324   -3.428479   -3.694915
  O     -0.326329   -1.390398   -5.491279
  O      1.619412   -0.400726   -5.036827
  H     -1.607271   -0.412651   -1.768955
  H     -1.157234   -0.796164   -3.409254
  H      1.299044   -0.056805   -2.558982
  H      0.612393   -0.365579   -0.979171

 Total Charge           Charge          ....    0
 Multiplicity           Mult            ....    1
 Number of Electrons    NEL             ....   80
 Basis Dimension        Dim             ....  326

ORBITAL ENERGIES
----------------

  NO   OCC          E(Eh)            E(eV)
   0   2.0000     -19.574783      -532.6569
   1   2.0000     -19.572877      -532.6051
   2   2.0000     -14.848267      -404.0419
   3   2.0000     -10.631616      -289.3010
   4   2.0000     -10.626007      -289.1483
   5   2.0000     -10.565949      -287.5141
   6   2.0000     -10.547964      -287.0247
   7   2.0000     -10.543364      -286.8995
   8   2.0000     -10.536494      -286.7126
   9   2.0000     -10.526495      -286.4405
  10   2.0000      -1.140528       -31.0353
  11   2.0000      -1.076342       -29.2888
  12   2.0000      -1.033522       -28.1236
  13   2.0000      -0.907608       -24.6973
  14   2.0000      -0.861989       -23.4559
  15   2.0000      -0.812284       -22.1034
  16   2.0000      -0.744079       -20.2474
  17   2.0000      -0.708605       -19.2821
  18   2.0000      -0.653177       -17.7739
  19   2.0000      -0.641945       -17.4682
  20   2.0000      -0.617342       -16.7987
  21   2.0000      -0.589808       -16.0495
  22   2.0000      -0.556576       -15.1452
  23   2.0000      -0.542307       -14.7569
  24   2.0000      -0.528143       -14.3715
  25   2.0000      -0.517853       -14.0915
  26   2.0000      -0.498056       -13.5528
  27   2.0000      -0.488872       -13.3029
  28   2.0000      -0.471839       -12.8394
  29   2.0000      -0.457709       -12.4549
  30   2.0000      -0.456709       -12.4277
  31   2.0000      -0.437324       -11.9002
  32   2.0000      -0.416575       -11.3356
  33   2.0000      -0.411724       -11.2036
  34   2.0000      -0.386302       -10.5118
  35   2.0000      -0.371357       -10.1051
  36   2.0000      -0.368144       -10.0177
  37   2.0000      -0.316243        -8.6054
  38   2.0000      -0.308743        -8.4013
  39   2.0000      -0.302259        -8.2249
  40   0.0000       0.010712         0.2915
  41   0.0000       0.043294         1.1781
  42   0.0000       0.052508         1.4288
  43   0.0000       0.054934         1.4948
  44   0.0000       0.067273         1.8306

MULLIKEN ATOMIC CHARGES
-----------------------
   0 C :    1.055228
   1 H :   -0.147687
   2 N :   -0.638532
   3 C :    0.095385
   4 H :   -0.166058
   5 C :    0.244172
   6 C :    0.381703
   7 H :   -0.084328
   8 H :    0.066081
   9 C :    0.073771
  10 H :   -0.245063
  11 H :    0.080768
  12 C :    0.318067
  13 C :    0.362026
  14 H :    0.006046
  15 H :   -0.057947
  16 H :    0.337769
  17 H :    0.254605
  18 H :    0.278702
  19 O :   -0.742735
  20 O :   -0.756403
  21 H :   -0.172891
  22 H :   -0.274630
  23 H :    0.001495
  24 H :   -0.269545
Sum of atomic charges:    0.0000000

LOEWDIN ATOMIC CHARGES
----------------------
   0 C :    0.090720
   1 H :    0.031145
   2 N :    0.301574
   3 C :    0.000525
   4 H :    0.036294
   5 C :   -0.011634
   6 C :   -0.021708
   7 H :    0.021758
   8 H :    0.024402
   9 C :   -0.022005
  10 H :    0.018388
  11 H :    0.011597
  12 C :    0.049281
  13 C :   -0.191440
  14 H :    0.032467
  15 H :    0.026739
  16 H :   -0.018364
  17 H :   -0.016563
  18 H :    0.104559
  19 O :   -0.267730
  20 O :   -0.258284
  21 H :    0.023646
  22 H :   -0.003771
  23 H :    0.010111
  24 H :    0.028293

  Mayer bond orders larger than 0.100000
B(  0-C ,  1-H ) :   0.7615 B(  0-C ,  2-N ) :   0.6687 B(  0-C ,  3-C ) :   1.1413
B(  0-C ,  4-H ) :   0.8074 B(  0-C , 22-H ) :  -0.1020 B(  1-H ,  2-N ) :   0.1033
B(  1-H ,  3-C ) :   0.2249 B(  1-H ,  4-H ) :  -0.1501 B(  2-N ,  4-H ) :   0.2244
B(  2-N , 13-C ) :   0.1357 B(  2-N , 16-H ) :   0.7480 B(  2-N , 17-H ) :   0.8786
B(  2-N , 18-H ) :   0.7718 B(  3-C ,  5-C ) :   1.1372 B(  3-C , 21-H ) :   0.2215
B(  3-C , 22-H ) :   0.1152 B(  3-C , 23-H ) :   0.8950 B(  3-C , 24-H ) :   0.9322
B(  5-C ,  6-C ) :   1.2439 B(  5-C ,  7-H ) :   0.1488 B(  5-C ,  8-H ) :   0.2154
B(  5-C , 21-H ) :   0.7994 B(  5-C , 22-H ) :   0.8606 B(  5-C , 24-H ) :   0.1705
B(  6-C ,  7-H ) :   0.8357 B(  6-C ,  8-H ) :   0.6683 B(  6-C ,  9-C ) :   1.2118
B(  6-C , 10-H ) :   0.1271 B(  7-H ,  8-H ) :  -0.1171 B(  7-H ,  9-C ) :   0.1463
B(  8-H ,  9-C ) :   0.1464 B(  9-C , 10-H ) :   0.9130 B(  9-C , 11-H ) :   0.8145
B(  9-C , 12-C ) :   1.2248 B(  9-C , 14-H ) :   0.1567 B(  9-C , 15-H ) :   0.1221
B( 10-H , 11-H ) :  -0.1593 B( 10-H , 12-C ) :   0.1088 B( 12-C , 13-C ) :   1.1441
B( 12-C , 14-H ) :   0.7254 B( 12-C , 15-H ) :   0.8387 B( 13-C , 14-H ) :   0.1828
B( 13-C , 15-H ) :   0.2647 B( 13-C , 19-O ) :   1.3386 B( 13-C , 20-O ) :   1.2594
B( 14-H , 15-H ) :  -0.1116 B( 16-H , 20-O ) :   0.1854 B( 17-H , 19-O ) :   0.2100
B( 22-H , 23-H ) :   0.1166

Dispersion correction           -0.001030543
FINAL SINGLE POINT ENERGY      -480.446363033988

DIPOLE MOMENT
-------------
                                X             Y             Z
Electronic contribution:      2.28728      -3.09650      -6.22005
Nuclear contribution   :     -2.02598       1.95876       8.24116
                        -----------------------------------------
Total Dipole Moment    :      0.26130      -1.13774       2.02111
                        -----------------------------------------
Magnitude (a.u.)       :      2.33401
Magnitude (Debye)      :      5.93259

Rotational constants in cm-1:     0.052900     0.041948     0.028766
Rotational constants in MHz :  1585.892512  1257.572595   862.390225

                             ****ORCA TERMINATED NORMALLY****
TOTAL RUN TIME: 0 days 0 hours 1 minutes 36 seconds 261 msec
