                         Program Version 5.0.0 -  RELEASE  -
|  1> !M062X D3Zero RIJCOSX def2-SVPD def2/J TightSCF
|  2> *xyz 0 1
|  3> C         -0.10608        1.76991       -4.08984
|  4> C         -0.25875        1.00432       -5.40983
|  5> C          0.39596       -0.37070       -5.33994
|  6> H          0.23915        1.56939       -6.20125
|  7> H         -1.30936        0.88869       -5.68245
|  8> F         -0.32633       -1.39040       -5.49128
|  9> O          1.61941       -0.40073       -5.03683
| 10> H         -0.57627        2.72718       -4.17630
| 11> H          0.93321        1.90140       -3.87192
| 12> H         -0.56868        1.21534       -3.30031
| 13> *
| 14> %MaxCore 64000
| 15>
| 16> %pal nprocs 4
| 17> end
| 18>
| 19> %scf
| 20>   MaxIter 150
| 21> end
| 22>
| 23>
| 24>                          ****END OF INPUT****

CARTESIAN COORDINATES (ANGSTROEM)
---------------------------------
  C     -0.106080    1.769910   -4.089840
  C     -0.258750    1.004320   -5.409830
  C      0.395960   -0.370700   -5.339940
  H      0.239150    1.569390   -6.201250
  H     -1.309360    0.888690   -5.682450
  F     -0.326330   -1.390400   -5.491280
  O      1.619410   -0.400730   -5.036830
  H     -0.576270    2.727180   -4.176300
  H      0.933210    1.901400   -3.871920
  H     -0.568680    1.215340   -3.300310

 Total Charge           Charge          ....    0
 Multiplicity           Mult            ....    1
 Number of Electrons    NEL             ....   40
 Basis Dimension        Dim             ....  146

ORBITAL ENERGIES
----------------

  NO   OCC          E(Eh)            E(eV)
   0   2.0000     -25.329431      -689.2488
   1   2.0000     -19.648824      -534.6717
   2   2.0000     -10.739821      -292.2454
   3   2.0000     -10.586155      -288.0639
   4   2.0000     -10.558824      -287.3202
   5   2.0000      -1.444402       -39.3042
   6   2.0000      -1.141844       -31.0712
   7   2.0000      -0.894395       -24.3377
   8   2.0000      -0.782098       -21.2820
   9   2.0000      -0.729635       -19.8544
  10   2.0000      -0.644570       -17.5396
  11   2.0000      -0.630627       -17.1602
  12   2.0000      -0.592521       -16.1233
  13   2.0000      -0.539665       -14.6850
  14   2.0000      -0.511735       -13.9250
  15   2.0000      -0.469975       -12.7887
  16   2.0000      -0.449466       -12.2306
  17   2.0000      -0.441466       -12.0129
  18   2.0000      -0.414184       -11.2705
  19   2.0000      -0.372391       -10.1333
  20   0.0000       0.007758         0.2111
  21   0.0000       0.029193         0.7944
  22   0.0000       0.059706         1.6247
  23   0.0000       0.068574         1.8660
  24   0.0000       0.091753         2.4967

MULLIKEN ATOMIC CHARGES
-----------------------
   0 C :    0.516123
   1 C :   -0.382673
   2 C :    0.817723
   3 H :    0.078637
   4 H :   -0.006663
   5 F :   -0.404263
   6 O :   -0.554882
   7 H :   -0.023741
   8 H :   -0.004335
   9 H :   -0.035926
Sum of atomic charges:    0.0000000

LOEWDIN ATOMIC CHARGES
----------------------
   0 C :    0.144961
   1 C :    0.004732
   2 C :    0.012729
   3 H :    0.040506
   4 H :    0.024736
   5 F :   -0.051899
   6 O :   -0.148243
   7 H :   -0.011834
   8 H :   -0.008093
   9 H :   -0.007594

  Mayer bond orders larger than 0.100000
B(  0-C ,  1-C ) :   1.3188 B(  0-C ,  7-H ) :   0.8634 B(  0-C ,  8-H ) :   0.8456
B(  0-C ,  9-H ) :   0.8636 B(  1-C ,  2-C ) :   1.0825 B(  1-C ,  3-H ) :   0.8865
B(  1-C ,  4-H ) :   0.9831 B(  1-C ,  7-H ) :   0.1416 B(  1-C ,  8-H ) :   0.1719
B(  1-C ,  9-H ) :   0.1502 B(  2-C ,  5-F ) :   0.6833 B(  2-C ,  6-O ) :   1.7745

Dispersion correction           -0.000088786
FINAL SINGLE POINT ENERGY      -292.064491147750

DIPOLE MOMENT
-------------
                                X             Y             Z
Electronic contribution:      0.83353      -8.13957      -2.56824
Nuclear contribution   :     -1.80992       8.85192       2.42184
                        -----------------------------------------
Total Dipole Moment    :     -0.97639       0.71235      -0.14639
                        -----------------------------------------
Magnitude (a.u.)       :      1.21747
Magnitude (Debye)      :      3.09455

Rotational constants in cm-1:     0.298360     0.128849     0.102271
Rotational constants in MHz :  8944.606599  3862.796179  3066.020510

                             ****ORCA TERMINATED NORMALLY****
TOTAL RUN TIME: 0 days 0 hours 0 minutes 19 seconds 529 msec
