                         Program Version 5.0.0 -  RELEASE  -
|  1> !M062X D3Zero RIJCOSX def2-SVPD def2/J TightSCF
|  2> *xyz 0 1
|  3> C          0.81607       -2.10149       -2.18655
|  4> H          1.69623       -2.36869       -1.60046
|  5> C          1.10055       -2.46749       -3.59927
|  6> C          0.51624       -0.61363       -2.03937
|  7> H         -0.02007       -2.71285       -1.84084
|  8> H          1.70061       -1.75723       -4.07838
|  9> H          0.29386       -2.35977       -4.25632
| 10> H          1.50132       -3.42848       -3.69491
| 11> H         -0.34841       -0.36504       -2.61858
| 12> H          1.35358       -0.04503       -2.38643
| 13> H          0.33317       -0.38682       -1.00984
| 14> *
| 15> %MaxCore 64000
| 16>
| 17> %pal nprocs 4
| 18> end
| 19>
| 20> %scf
| 21>   MaxIter 150
| 22> end
| 23>
| 24>
| 25>                          ****END OF INPUT****

CARTESIAN COORDINATES (ANGSTROEM)
---------------------------------
  C      0.816070   -2.101490   -2.186550
  H      1.696230   -2.368690   -1.600460
  C      1.100550   -2.467490   -3.599270
  C      0.516240   -0.613630   -2.039370
  H     -0.020070   -2.712850   -1.840840
  H      1.700610   -1.757230   -4.078380
  H      0.293860   -2.359770   -4.256320
  H      1.501320   -3.428480   -3.694910
  H     -0.348410   -0.365040   -2.618580
  H      1.353580   -0.045030   -2.386430
  H      0.333170   -0.386820   -1.009840

 Total Charge           Charge          ....    0
 Multiplicity           Mult            ....    1
 Number of Electrons    NEL             ....   26
 Basis Dimension        Dim             ....  124

ORBITAL ENERGIES
----------------

  NO   OCC          E(Eh)            E(eV)
   0   2.0000     -10.538728      -286.7734
   1   2.0000     -10.529773      -286.5297
   2   2.0000     -10.517522      -286.1963
   3   2.0000      -0.880917       -23.9710
   4   2.0000      -0.772425       -21.0188
   5   2.0000      -0.666675       -18.1412
   6   2.0000      -0.530852       -14.4452
   7   2.0000      -0.515167       -14.0184
   8   2.0000      -0.478513       -13.0210
   9   2.0000      -0.440518       -11.9871
  10   2.0000      -0.402360       -10.9488
  11   2.0000      -0.397037       -10.8039
  12   2.0000      -0.380890       -10.3645
  13   0.0000       0.045001         1.2245
  14   0.0000       0.069854         1.9008
  15   0.0000       0.078130         2.1260
  16   0.0000       0.113467         3.0876
  17   0.0000       0.129978         3.5369

MULLIKEN ATOMIC CHARGES
-----------------------
   0 C :   -0.561110
   1 H :   -0.066113
   2 C :    0.748409
   3 C :    0.576593
   4 H :   -0.093215
   5 H :   -0.174542
   6 H :   -0.156762
   7 H :   -0.147886
   8 H :   -0.025730
   9 H :   -0.015512
  10 H :   -0.084132
Sum of atomic charges:   -0.0000000

LOEWDIN ATOMIC CHARGES
----------------------
   0 C :   -0.122471
   1 H :    0.020812
   2 C :    0.099673
   3 C :    0.115255
   4 H :    0.021499
   5 H :   -0.030245
   6 H :   -0.027205
   7 H :   -0.023505
   8 H :   -0.015205
   9 H :   -0.016746
  10 H :   -0.021862

  Mayer bond orders larger than 0.100000
B(  0-C ,  1-H ) :   0.9488 B(  0-C ,  2-C ) :   1.2851 B(  0-C ,  3-C ) :   1.2757
B(  0-C ,  4-H ) :   0.9749 B(  0-C ,  5-H ) :   0.1711 B(  0-C ,  6-H ) :   0.1759
B(  0-C ,  7-H ) :   0.1771 B(  0-C ,  8-H ) :   0.1758 B(  0-C ,  9-H ) :   0.1613
B(  0-C , 10-H ) :   0.1771 B(  2-C ,  4-H ) :   0.1038 B(  2-C ,  5-H ) :   0.7435
B(  2-C ,  6-H ) :   0.7244 B(  2-C ,  7-H ) :   0.8167 B(  3-C ,  8-H ) :   0.8397
B(  3-C ,  9-H ) :   0.8445 B(  3-C , 10-H ) :   0.8550 B(  5-H ,  6-H ) :   0.2941

Dispersion correction           -0.000053119
FINAL SINGLE POINT ENERGY      -118.966241851436

DIPOLE MOMENT
-------------
                                X             Y             Z
Electronic contribution:     -0.01786      -0.30717       0.46186
Nuclear contribution   :      0.01737       0.30387      -0.47422
                        -----------------------------------------
Total Dipole Moment    :     -0.00048      -0.00330      -0.01236
                        -----------------------------------------
Magnitude (a.u.)       :      0.01280
Magnitude (Debye)      :      0.03253

Rotational constants in cm-1:     1.006891     0.295208     0.258491
Rotational constants in MHz : 30185.831813  8850.104914  7749.351732

                             ****ORCA TERMINATED NORMALLY****
TOTAL RUN TIME: 0 days 0 hours 0 minutes 17 seconds 441 msec
