                         Program Version 5.0.0 -  RELEASE  -
|  1> !M062X D3Zero RIJCOSX def2-SVPD def2/J TightSCF
|  2> *xyz 0 1
|  3> C         -0.10608        1.76991       -4.08984
|  4> C         -0.25875        1.00432       -5.40983
|  5> C          0.39596       -0.37070       -5.33994
|  6> H          0.23915        1.56939       -6.20125
|  7> H         -1.30936        0.88869       -5.68245
|  8> O         -0.32633       -1.39040       -5.49128
|  9> F          1.61941       -0.40073       -5.03683
| 10> H         -0.57627        2.72718       -4.17630
| 11> H          0.93321        1.90140       -3.87192
| 12> H         -0.56868        1.21534       -3.30031
| 13> *
| 14> %MaxCore 64000
| 15>
| 16> %pal nprocs 4
| 17> end
| 18>
| 19> %scf
| 20>   MaxIter 150
| 21> end
| 22>
| 23>
| 24>                          ****END OF INPUT****

CARTESIAN COORDINATES (ANGSTROEM)
---------------------------------
  C     -0.106080    1.769910   -4.089840
  C     -0.258750    1.004320   -5.409830
  C      0.395960   -0.370700   -5.339940
  H      0.239150    1.569390   -6.201250
  H     -1.309360    0.888690   -5.682450
  O     -0.326330   -1.390400   -5.491280
  F      1.619410   -0.400730   -5.036830
  H     -0.576270    2.727180   -4.176300
  H      0.933210    1.901400   -3.871920
  H     -0.568680    1.215340   -3.300310

 Total Charge           Charge          ....    0
 Multiplicity           Mult            ....    1
 Number of Electrons    NEL             ....   40
 Basis Dimension        Dim             ....  146

ORBITAL ENERGIES
----------------

  NO   OCC          E(Eh)            E(eV)
   0   2.0000     -25.328273      -689.2173
   1   2.0000     -19.649618      -534.6933
   2   2.0000     -10.738958      -292.2219
   3   2.0000     -10.586027      -288.0604
   4   2.0000     -10.563897      -287.4582
   5   2.0000      -1.442930       -39.2641
   6   2.0000      -1.142030       -31.0762
   7   2.0000      -0.899152       -24.4672
   8   2.0000      -0.778622       -21.1874
   9   2.0000      -0.733384       -19.9564
  10   2.0000      -0.645364       -17.5612
  11   2.0000      -0.634857       -17.2753
  12   2.0000      -0.584933       -15.9168
  13   2.0000      -0.540661       -14.7121
  14   2.0000      -0.512102       -13.9350
  15   2.0000      -0.474587       -12.9142
  16   2.0000      -0.456385       -12.4189
  17   2.0000      -0.444324       -12.0907
  18   2.0000      -0.419714       -11.4210
  19   2.0000      -0.368723       -10.0335
  20   0.0000       0.011611         0.3159
  21   0.0000       0.028438         0.7738
  22   0.0000       0.060466         1.6454
  23   0.0000       0.066809         1.8180
  24   0.0000       0.092225         2.5096

MULLIKEN ATOMIC CHARGES
-----------------------
   0 C :    0.497803
   1 C :   -0.359309
   2 C :    0.834489
   3 H :    0.069991
   4 H :   -0.023763
   5 O :   -0.533191
   6 F :   -0.424129
   7 H :   -0.020401
   8 H :   -0.008170
   9 H :   -0.033319
Sum of atomic charges:   -0.0000000

LOEWDIN ATOMIC CHARGES
----------------------
   0 C :    0.140047
   1 C :    0.009267
   2 C :    0.007011
   3 H :    0.035803
   4 H :    0.036449
   5 O :   -0.146207
   6 F :   -0.052727
   7 H :   -0.011147
   8 H :   -0.012587
   9 H :   -0.005909

  Mayer bond orders larger than 0.100000
B(  0-C ,  1-C ) :   1.2940 B(  0-C ,  7-H ) :   0.8717 B(  0-C ,  8-H ) :   0.8354
B(  0-C ,  9-H ) :   0.8775 B(  1-C ,  2-C ) :   1.0560 B(  1-C ,  3-H ) :   0.8854
B(  1-C ,  4-H ) :   1.0134 B(  1-C ,  7-H ) :   0.1416 B(  1-C ,  8-H ) :   0.1631
B(  1-C ,  9-H ) :   0.1465 B(  2-C ,  4-H ) :   0.1194 B(  2-C ,  5-O ) :   1.7639
B(  2-C ,  6-F ) :   0.6676

Dispersion correction           -0.000091821
FINAL SINGLE POINT ENERGY      -292.065816311871

DIPOLE MOMENT
-------------
                                X             Y             Z
Electronic contribution:      4.05529      -6.47094      -1.80830
Nuclear contribution   :     -3.93139       7.77287       1.92635
                        -----------------------------------------
Total Dipole Moment    :      0.12390       1.30193       0.11805
                        -----------------------------------------
Magnitude (a.u.)       :      1.31313
Magnitude (Debye)      :      3.33772

Rotational constants in cm-1:     0.286068     0.133630     0.103472
Rotational constants in MHz :  8576.109806  4006.118234  3102.010802

                             ****ORCA TERMINATED NORMALLY****
TOTAL RUN TIME: 0 days 0 hours 0 minutes 19 seconds 118 msec
