                         Program Version 5.0.0 -  RELEASE  -
|  1> !M062X D3Zero RIJCOSX def2-SVPD def2/J TightSCF xyzfile
|  2>
|  3> *xyzfile 0 1 D1.xyz
|  4>
|  5> %MaxCore 64000
|  6>
|  7> %pal nprocs 4
|  8> end
|  9>
| 10> %scf
| 11>   MaxIter 150
| 12> end
| 13>
| 14>
| 15>                          ****END OF INPUT****

CARTESIAN COORDINATES (ANGSTROEM)
---------------------------------
  C      0.816067   -2.101491   -2.186546
  H      1.696232   -2.368691   -1.600457
  C      1.100552   -2.467492   -3.599269
  C      0.516243   -0.613634   -2.039373
  H     -0.020066   -2.712849   -1.840844
  C     -0.868621   -0.193925   -2.546303
  C     -0.984801    1.284739   -2.928686
  H     -0.764939    1.904116   -2.051568
  H     -2.032613    1.478953   -3.178952
  C     -0.106085    1.769914   -4.089836
  H     -0.347744    2.822196   -4.262942
  H      0.949683    1.745875   -3.808781
  C     -0.258747    1.004323   -5.409829
  C      0.395958   -0.370696   -5.339939
  H      0.239150    1.569393   -6.201253
  H     -1.309360    0.888694   -5.682455
  H      1.700606   -1.757225   -4.078378
  H      0.293855   -2.359766   -4.256324
  H      1.501324   -3.428479   -3.694915
  F     -0.326329   -1.390398   -5.491279
  O      1.619412   -0.400726   -5.036827
  H     -1.607271   -0.412651   -1.768955
  H     -1.157234   -0.796164   -3.409254
  H      1.299044   -0.056805   -2.558982
  H      0.612393   -0.365579   -0.979171

 Total Charge           Charge          ....    0
 Multiplicity           Mult            ....    1
 Number of Electrons    NEL             ....   80
 Basis Dimension        Dim             ....  326

ORBITAL ENERGIES
----------------

  NO   OCC          E(Eh)            E(eV)
   0   2.0000     -25.337141      -689.4587
   1   2.0000     -19.655236      -534.8462
   2   2.0000     -10.747717      -292.4602
   3   2.0000     -10.586411      -288.0709
   4   2.0000     -10.566290      -287.5234
   5   2.0000     -10.554382      -287.1993
   6   2.0000     -10.546980      -286.9979
   7   2.0000     -10.532991      -286.6173
   8   2.0000     -10.523422      -286.3569
   9   2.0000     -10.475561      -285.0545
  10   2.0000      -1.456936       -39.6452
  11   2.0000      -1.156411       -31.4675
  12   2.0000      -0.919606       -25.0238
  13   2.0000      -0.886093       -24.1118
  14   2.0000      -0.834920       -22.7193
  15   2.0000      -0.797165       -21.6920
  16   2.0000      -0.758040       -20.6273
  17   2.0000      -0.721623       -19.6364
  18   2.0000      -0.685687       -18.6585
  19   2.0000      -0.654158       -17.8005
  20   2.0000      -0.634242       -17.2586
  21   2.0000      -0.630363       -17.1531
  22   2.0000      -0.607371       -16.5274
  23   2.0000      -0.553099       -15.0506
  24   2.0000      -0.532835       -14.4992
  25   2.0000      -0.513697       -13.9784
  26   2.0000      -0.509179       -13.8555
  27   2.0000      -0.496959       -13.5229
  28   2.0000      -0.482513       -13.1298
  29   2.0000      -0.469701       -12.7812
  30   2.0000      -0.452322       -12.3083
  31   2.0000      -0.432562       -11.7706
  32   2.0000      -0.429510       -11.6876
  33   2.0000      -0.413328       -11.2472
  34   2.0000      -0.398912       -10.8550
  35   2.0000      -0.391285       -10.6474
  36   2.0000      -0.380642       -10.3578
  37   2.0000      -0.367061        -9.9882
  38   2.0000      -0.358491        -9.7550
  39   2.0000      -0.331770        -9.0279
  40   0.0000      -0.002943        -0.0801
  41   0.0000       0.029851         0.8123
  42   0.0000       0.050547         1.3755
  43   0.0000       0.055440         1.5086
  44   0.0000       0.057890         1.5753

MULLIKEN ATOMIC CHARGES
-----------------------
   0 C :    0.161907
   1 H :   -0.102206
   2 C :    1.432542
   3 C :    0.235302
   4 H :   -0.183389
   5 C :    0.213944
   6 C :    0.376650
   7 H :   -0.075615
   8 H :    0.046511
   9 C :    0.088644
  10 H :   -0.225827
  11 H :    0.106470
  12 C :    0.241054
  13 C :    0.564788
  14 H :    0.016927
  15 H :   -0.025384
  16 H :   -0.284180
  17 H :   -0.388202
  18 H :   -0.290349
  19 F :   -0.508355
  20 O :   -0.593098
  21 H :   -0.150513
  22 H :   -0.325683
  23 H :   -0.021621
  24 H :   -0.310319
Sum of atomic charges:    0.0000000

LOEWDIN ATOMIC CHARGES
----------------------
   0 C :   -0.048332
   1 H :    0.022285
   2 C :    0.131197
   3 C :   -0.020383
   4 H :    0.022487
   5 C :   -0.014495
   6 C :   -0.024582
   7 H :    0.027499
   8 H :    0.021703
   9 C :   -0.012767
  10 H :    0.025229
  11 H :    0.018840
  12 C :    0.068695
  13 C :    0.046370
  14 H :    0.043329
  15 H :    0.032043
  16 H :   -0.098815
  17 H :   -0.075381
  18 H :   -0.013318
  19 F :   -0.065475
  20 O :   -0.135669
  21 H :    0.027609
  22 H :   -0.002447
  23 H :    0.005182
  24 H :    0.019192

  Mayer bond orders larger than 0.100000
B(  0-C ,  1-H ) :   0.8101 B(  0-C ,  2-C ) :   1.0231 B(  0-C ,  3-C ) :   1.1639
B(  0-C ,  4-H ) :   0.8225 B(  0-C , 16-H ) :   0.2976 B(  0-C , 17-H ) :   0.2359
B(  0-C , 18-H ) :   0.1709 B(  0-C , 23-H ) :   0.1482 B(  1-H ,  3-C ) :   0.1680
B(  1-H ,  4-H ) :  -0.1637 B(  2-C ,  3-C ) :   0.1891 B(  2-C ,  4-H ) :   0.1486
B(  2-C , 16-H ) :   0.4295 B(  2-C , 17-H ) :   0.2123 B(  2-C , 18-H ) :   0.6619
B(  2-C , 23-H ) :  -0.2284 B(  2-C , 24-H ) :   0.1341 B(  3-C ,  5-C ) :   1.1327
B(  3-C , 21-H ) :   0.2449 B(  3-C , 23-H ) :   0.8273 B(  3-C , 24-H ) :   0.9284
B(  5-C ,  6-C ) :   1.2309 B(  5-C ,  7-H ) :   0.1538 B(  5-C ,  8-H ) :   0.2109
B(  5-C , 21-H ) :   0.8032 B(  5-C , 22-H ) :   0.8673 B(  5-C , 23-H ) :   0.1009
B(  5-C , 24-H ) :   0.1964 B(  6-C ,  7-H ) :   0.8334 B(  6-C ,  8-H ) :   0.6747
B(  6-C ,  9-C ) :   1.2172 B(  6-C , 10-H ) :   0.1336 B(  7-H ,  8-H ) :  -0.1197
B(  7-H ,  9-C ) :   0.1393 B(  8-H ,  9-C ) :   0.1361 B(  9-C , 10-H ) :   0.9152
B(  9-C , 11-H ) :   0.8150 B(  9-C , 12-C ) :   1.2123 B(  9-C , 14-H ) :   0.1556
B(  9-C , 15-H ) :   0.1104 B( 10-H , 11-H ) :  -0.1505 B( 10-H , 12-C ) :   0.1191
B( 12-C , 13-C ) :   1.2285 B( 12-C , 14-H ) :   0.7236 B( 12-C , 15-H ) :   0.8742
B( 13-C , 14-H ) :   0.1995 B( 13-C , 15-H ) :   0.1681 B( 13-C , 16-H ) :   0.1240
B( 13-C , 17-H ) :   0.1425 B( 13-C , 19-F ) :   0.5677 B( 13-C , 20-O ) :   1.6624
B( 14-H , 15-H ) :  -0.1023 B( 16-H , 17-H ) :   0.3879 B( 16-H , 20-O ) :   0.1663
B( 16-H , 23-H ) :   0.2839 B( 16-H , 24-H ) :  -0.1918 B( 17-H , 19-F ) :   0.2130
B( 18-H , 23-H ) :  -0.1580 B( 23-H , 24-H ) :  -0.1077

Dispersion correction           -0.001010852
FINAL SINGLE POINT ENERGY      -488.340900891385

DIPOLE MOMENT
-------------
                                X             Y             Z
Electronic contribution:      0.33776      -1.96196     -10.55996
Nuclear contribution   :     -1.21560       2.80077      10.24180
                        -----------------------------------------
Total Dipole Moment    :     -0.87784       0.83881      -0.31815
                        -----------------------------------------
Magnitude (a.u.)       :      1.25516
Magnitude (Debye)      :      3.19037

Rotational constants in cm-1:     0.051255     0.042531     0.028894
Rotational constants in MHz :  1536.587743  1275.050721   866.218876

                             ****ORCA TERMINATED NORMALLY****
TOTAL RUN TIME: 0 days 0 hours 1 minutes 36 seconds 390 msec
