                         Program Version 5.0.0 -  RELEASE  -
|  1> !M062X D3Zero RIJCOSX def2-SVPD def2/J TightSCF xyzfile
|  2>
|  3> *xyzfile 0 1 D2.xyz
|  4>
|  5> %MaxCore 64000
|  6>
|  7> %pal nprocs 4
|  8> end
|  9>
| 10> %scf
| 11>   MaxIter 150
| 12> end
| 13>
| 14>
| 15>                          ****END OF INPUT****

CARTESIAN COORDINATES (ANGSTROEM)
---------------------------------
  C      0.816067   -2.101491   -2.186546
  H      1.696232   -2.368691   -1.600457
  C      1.100552   -2.467492   -3.599269
  C      0.516243   -0.613634   -2.039373
  H     -0.020066   -2.712849   -1.840844
  C     -0.868621   -0.193925   -2.546303
  C     -0.984801    1.284739   -2.928686
  H     -0.764939    1.904116   -2.051568
  H     -2.032613    1.478953   -3.178952
  C     -0.106085    1.769914   -4.089836
  H     -0.347744    2.822196   -4.262942
  H      0.949683    1.745875   -3.808781
  C     -0.258747    1.004323   -5.409829
  C      0.395958   -0.370696   -5.339939
  H      0.239150    1.569393   -6.201253
  H     -1.309360    0.888694   -5.682455
  H      1.700606   -1.757225   -4.078378
  H      0.293855   -2.359766   -4.256324
  H      1.501324   -3.428479   -3.694915
  O     -0.326329   -1.390398   -5.491279
  F      1.619412   -0.400726   -5.036827
  H     -1.607271   -0.412651   -1.768955
  H     -1.157234   -0.796164   -3.409254
  H      1.299044   -0.056805   -2.558982
  H      0.612393   -0.365579   -0.979171

 Total Charge           Charge          ....    0
 Multiplicity           Mult            ....    1
 Number of Electrons    NEL             ....   80
 Basis Dimension        Dim             ....  326

ORBITAL ENERGIES
----------------

  NO   OCC          E(Eh)            E(eV)
   0   2.0000     -25.337459      -689.4673
   1   2.0000     -19.654719      -534.8321
   2   2.0000     -10.746996      -292.4406
   3   2.0000     -10.586348      -288.0692
   4   2.0000     -10.570427      -287.6359
   5   2.0000     -10.554439      -287.2009
   6   2.0000     -10.541554      -286.8503
   7   2.0000     -10.537006      -286.7265
   8   2.0000     -10.524528      -286.3870
   9   2.0000     -10.476788      -285.0879
  10   2.0000      -1.456790       -39.6413
  11   2.0000      -1.155903       -31.4537
  12   2.0000      -0.922229       -25.0951
  13   2.0000      -0.887952       -24.1624
  14   2.0000      -0.835640       -22.7389
  15   2.0000      -0.796009       -21.6605
  16   2.0000      -0.758262       -20.6334
  17   2.0000      -0.721517       -19.6335
  18   2.0000      -0.686097       -18.6696
  19   2.0000      -0.656661       -17.8686
  20   2.0000      -0.645950       -17.5772
  21   2.0000      -0.628694       -17.1076
  22   2.0000      -0.593879       -16.1603
  23   2.0000      -0.553546       -15.0627
  24   2.0000      -0.531763       -14.4700
  25   2.0000      -0.514838       -14.0095
  26   2.0000      -0.511350       -13.9145
  27   2.0000      -0.499681       -13.5970
  28   2.0000      -0.489895       -13.3307
  29   2.0000      -0.461523       -12.5587
  30   2.0000      -0.451416       -12.2837
  31   2.0000      -0.445332       -12.1181
  32   2.0000      -0.432616       -11.7721
  33   2.0000      -0.412926       -11.2363
  34   2.0000      -0.396019       -10.7762
  35   2.0000      -0.393231       -10.7004
  36   2.0000      -0.378185       -10.2909
  37   2.0000      -0.364731        -9.9248
  38   2.0000      -0.362073        -9.8525
  39   2.0000      -0.332450        -9.0464
  40   0.0000      -0.001223        -0.0333
  41   0.0000       0.029448         0.8013
  42   0.0000       0.051650         1.4055
  43   0.0000       0.053723         1.4619
  44   0.0000       0.056850         1.5470

MULLIKEN ATOMIC CHARGES
-----------------------
   0 C :    0.164922
   1 H :   -0.098399
   2 C :    1.443192
   3 C :    0.208428
   4 H :   -0.174605
   5 C :    0.279533
   6 C :    0.366791
   7 H :   -0.086428
   8 H :    0.065210
   9 C :    0.087387
  10 H :   -0.242207
  11 H :    0.071583
  12 C :    0.255400
  13 C :    0.543852
  14 H :    0.022648
  15 H :   -0.018923
  16 H :   -0.360579
  17 H :   -0.319158
  18 H :   -0.281319
  19 O :   -0.603546
  20 F :   -0.489309
  21 H :   -0.139491
  22 H :   -0.354377
  23 H :   -0.047896
  24 H :   -0.292709
Sum of atomic charges:   -0.0000000

LOEWDIN ATOMIC CHARGES
----------------------
   0 C :   -0.049430
   1 H :    0.019849
   2 C :    0.134334
   3 C :   -0.022697
   4 H :    0.025759
   5 C :   -0.012012
   6 C :   -0.023283
   7 H :    0.025961
   8 H :    0.023945
   9 C :   -0.020367
  10 H :    0.024266
  11 H :    0.014299
  12 C :    0.073970
  13 C :    0.042103
  14 H :    0.039663
  15 H :    0.042974
  16 H :   -0.072386
  17 H :   -0.098943
  18 H :   -0.011993
  19 O :   -0.143226
  20 F :   -0.059363
  21 H :    0.027576
  22 H :   -0.002629
  23 H :    0.002391
  24 H :    0.019238

  Mayer bond orders larger than 0.100000
B(  0-C ,  1-H ) :   0.8036 B(  0-C ,  2-C ) :   1.0119 B(  0-C ,  3-C ) :   1.1554
B(  0-C ,  4-H ) :   0.8351 B(  0-C , 16-H ) :   0.3031 B(  0-C , 17-H ) :   0.2360
B(  0-C , 18-H ) :   0.1663 B(  0-C , 23-H ) :   0.1484 B(  1-H ,  3-C ) :   0.1738
B(  1-H ,  4-H ) :  -0.1634 B(  2-C ,  3-C ) :   0.1691 B(  2-C ,  4-H ) :   0.1371
B(  2-C , 16-H ) :   0.3259 B(  2-C , 17-H ) :   0.3104 B(  2-C , 18-H ) :   0.6649
B(  2-C , 23-H ) :  -0.2276 B(  2-C , 24-H ) :   0.1367 B(  3-C ,  5-C ) :   1.1052
B(  3-C , 21-H ) :   0.2384 B(  3-C , 22-H ) :   0.1029 B(  3-C , 23-H ) :   0.8059
B(  3-C , 24-H ) :   0.9596 B(  5-C ,  6-C ) :   1.2304 B(  5-C ,  7-H ) :   0.1592
B(  5-C ,  8-H ) :   0.2109 B(  5-C ,  9-C ) :   0.1021 B(  5-C , 21-H ) :   0.7772
B(  5-C , 22-H ) :   0.8792 B(  5-C , 24-H ) :   0.1964 B(  6-C ,  7-H ) :   0.8439
B(  6-C ,  8-H ) :   0.6704 B(  6-C ,  9-C ) :   1.2180 B(  6-C , 10-H ) :   0.1353
B(  7-H ,  8-H ) :  -0.1113 B(  7-H ,  9-C ) :   0.1361 B(  8-H ,  9-C ) :   0.1391
B(  9-C , 10-H ) :   0.9546 B(  9-C , 11-H ) :   0.8052 B(  9-C , 12-C ) :   1.1774
B(  9-C , 14-H ) :   0.1515 B( 10-H , 11-H ) :  -0.1612 B( 10-H , 12-C ) :   0.1013
B( 12-C , 13-C ) :   1.2054 B( 12-C , 14-H ) :   0.7357 B( 12-C , 15-H ) :   0.8753
B( 13-C , 14-H ) :   0.1794 B( 13-C , 15-H ) :   0.2142 B( 13-C , 16-H ) :   0.1463
B( 13-C , 17-H ) :   0.1152 B( 13-C , 19-O ) :   1.7108 B( 13-C , 20-F ) :   0.5542
B( 16-H , 17-H ) :   0.3909 B( 16-H , 20-F ) :   0.1707 B( 16-H , 23-H ) :   0.3017
B( 16-H , 24-H ) :  -0.2058 B( 17-H , 19-O ) :   0.1870 B( 18-H , 23-H ) :  -0.1642
B( 23-H , 24-H ) :  -0.1396

Dispersion correction           -0.001010224
FINAL SINGLE POINT ENERGY      -488.340374068899

DIPOLE MOMENT
-------------
                                X             Y             Z
Electronic contribution:      3.58120      -0.30441      -9.79229
Nuclear contribution   :     -3.57245       1.60200       9.69133
                        -----------------------------------------
Total Dipole Moment    :      0.00876       1.29759      -0.10096
                        -----------------------------------------
Magnitude (a.u.)       :      1.30154
Magnitude (Debye)      :      3.30825

Rotational constants in cm-1:     0.051520     0.042563     0.028962
Rotational constants in MHz :  1544.537298  1275.996546   868.258224

                             ****ORCA TERMINATED NORMALLY****
TOTAL RUN TIME: 0 days 0 hours 1 minutes 42 seconds 22 msec
