                         Program Version 5.0.0 -  RELEASE  -
|  1> !BLYP D3BJ RIJCOSX def2-SVPD def2/J TightSCF
|  2> *xyz -1 1
|  3> C          2.49556        1.81615       -2.13636
|  4> C          1.87218        0.42790       -2.07750
|  5> H          2.61427       -0.36583       -2.19889
|  6> H          1.38995        0.27309       -1.11236
|  7> S          0.57902        0.14047       -3.29794
|  8> O          0.22886       -1.24687       -3.12787
|  9> O         -0.43927        1.11897       -3.01455
| 10> O          1.24788        0.40347       -4.59565
| 11> H          2.96535        1.95613       -3.08747
| 12> H          3.22581        1.91242       -1.36024
| 13> H          1.73350        2.55528       -2.00274
| 14> *
| 15>
| 16> %MaxCore 64000
| 17>
| 18> %pal nprocs 4
| 19> end
| 20>
| 21> %scf
| 22>   MaxIter 150
| 23> end
| 24>
| 25>
| 26>                          ****END OF INPUT****

CARTESIAN COORDINATES (ANGSTROEM)
---------------------------------
  C      2.495560    1.816150   -2.136360
  C      1.872180    0.427900   -2.077500
  H      2.614270   -0.365830   -2.198890
  H      1.389950    0.273090   -1.112360
  S      0.579020    0.140470   -3.297940
  O      0.228860   -1.246870   -3.127870
  O     -0.439270    1.118970   -3.014550
  O      1.247880    0.403470   -4.595650
  H      2.965350    1.956130   -3.087470
  H      3.225810    1.912420   -1.360240
  H      1.733500    2.555280   -2.002740

 Total Charge           Charge          ....   -1
 Multiplicity           Mult            ....    1
 Number of Electrons    NEL             ....   58
 Basis Dimension        Dim             ....  176

ORBITAL ENERGIES
----------------

  NO   OCC          E(Eh)            E(eV)
   0   2.0000     -88.127485     -2398.0708
   1   2.0000     -18.572283      -505.3775
   2   2.0000     -18.572249      -505.3766
   3   2.0000     -18.558431      -505.0006
   4   2.0000      -9.780313      -266.1358
   5   2.0000      -9.777258      -266.0527
   6   2.0000      -7.664363      -208.5579
   7   2.0000      -5.699487      -155.0909
   8   2.0000      -5.699331      -155.0867
   9   2.0000      -5.698582      -155.0663
  10   2.0000      -0.836421       -22.7602
  11   2.0000      -0.704389       -19.1674
  12   2.0000      -0.678305       -18.4576
  13   2.0000      -0.547819       -14.9069
  14   2.0000      -0.431639       -11.7455
  15   2.0000      -0.317299        -8.6341
  16   2.0000      -0.263505        -7.1703
  17   2.0000      -0.258920        -7.0456
  18   2.0000      -0.223420        -6.0796
  19   2.0000      -0.208669        -5.6782
  20   2.0000      -0.203232        -5.5302
  21   2.0000      -0.183391        -4.9903
  22   2.0000      -0.165981        -4.5166
  23   2.0000      -0.101273        -2.7558
  24   2.0000      -0.100670        -2.7394
  25   2.0000      -0.069976        -1.9041
  26   2.0000      -0.063884        -1.7384
  27   2.0000      -0.052940        -1.4406
  28   2.0000      -0.017835        -0.4853
  29   0.0000       0.127166         3.4604
  30   0.0000       0.155431         4.2295
  31   0.0000       0.166395         4.5279
  32   0.0000       0.170855         4.6492
  33   0.0000       0.193505         5.2655

MULLIKEN ATOMIC CHARGES
-----------------------
   0 C :    1.171790
   1 C :   -0.055005
   2 H :   -0.237826
   3 H :   -0.196616
   4 S :    1.168049
   5 O :   -0.728942
   6 O :   -0.731811
   7 O :   -0.779601
   8 H :   -0.185754
   9 H :   -0.247962
  10 H :   -0.176323
Sum of atomic charges:   -1.0000000

LOEWDIN ATOMIC CHARGES
----------------------
   0 C :    0.112492
   1 C :   -0.133995
   2 H :   -0.002450
   3 H :   -0.007432
   4 S :    0.810436
   5 O :   -0.556353
   6 O :   -0.553252
   7 O :   -0.574478
   8 H :   -0.027621
   9 H :   -0.041871
  10 H :   -0.025478

  Mayer bond orders larger than 0.100000
B(  0-C ,  1-C ) :   1.2697 B(  0-C ,  2-H ) :   0.1094 B(  0-C ,  3-H ) :   0.1189
B(  0-C ,  8-H ) :   0.7292 B(  0-C ,  9-H ) :   0.6040 B(  0-C , 10-H ) :   0.7120
B(  1-C ,  2-H ) :   0.9323 B(  1-C ,  3-H ) :   0.9014 B(  1-C ,  4-S ) :   0.8822
B(  1-C ,  8-H ) :   0.2469 B(  1-C ,  9-H ) :   0.3042 B(  1-C , 10-H ) :   0.2564
B(  4-S ,  5-O ) :   1.3777 B(  4-S ,  6-O ) :   1.3399 B(  4-S ,  7-O ) :   1.3005

Dispersion correction           -0.020600005
FINAL SINGLE POINT ENERGY      -702.711038726565

DIPOLE MOMENT
-------------
                                X             Y             Z
Electronic contribution:     -5.68698      -3.59120      -4.09274
Nuclear contribution   :      6.89220       4.11756       5.35566
                        -----------------------------------------
Total Dipole Moment    :      1.20521       0.52636       1.26292
                        -----------------------------------------
Magnitude (a.u.)       :      1.82333
Magnitude (Debye)      :      4.63455

Rotational constants in cm-1:     0.162183     0.084017     0.082390
Rotational constants in MHz :  4862.117324  2518.774315  2469.980309

                             ****ORCA TERMINATED NORMALLY****
TOTAL RUN TIME: 0 days 0 hours 0 minutes 5 seconds 615 msec
