                         Program Version 5.0.0 -  RELEASE  -
|  1> !BLYP D3BJ RIJCOSX def2-SVPD def2/J TightSCF
|  2> *xyz 1 1
|  3> C          3.38093        2.08304       -3.35013
|  4> N          4.53592        1.18245       -3.42852
|  5> C          2.49556        1.81615       -2.13636
|  6> C          4.67196        0.12227       -4.22060
|  7> N          5.86602       -0.50785       -4.22428
|  8> N          3.69888       -0.31284       -4.98699
|  9> H          2.73141       -0.05009       -4.84900
| 10> H          3.89005       -1.05517       -5.64373
| 11> H          5.25193        1.30346       -2.72101
| 12> H          6.69516       -0.06232       -3.85160
| 13> H          5.97538       -1.39688       -4.69141
| 14> H          2.80646        1.98651       -4.26848
| 15> H          3.77871        3.09828       -3.30738
| 16> H          2.11090        0.81901       -2.18783
| 17> H          1.68276        2.51198       -2.12786
| 18> H          3.07216        1.93031       -1.24227
| 19> *
| 20>
| 21> %MaxCore 64000
| 22>
| 23> %pal nprocs 4
| 24> end
| 25>
| 26> %scf
| 27>   MaxIter 150
| 28> end
| 29>
| 30>
| 31>                          ****END OF INPUT****

CARTESIAN COORDINATES (ANGSTROEM)
---------------------------------
  C      3.380930    2.083040   -3.350130
  N      4.535920    1.182450   -3.428520
  C      2.495560    1.816150   -2.136360
  C      4.671960    0.122270   -4.220600
  N      5.866020   -0.507850   -4.224280
  N      3.698880   -0.312840   -4.986990
  H      2.731410   -0.050090   -4.849000
  H      3.890050   -1.055170   -5.643730
  H      5.251930    1.303460   -2.721010
  H      6.695160   -0.062320   -3.851600
  H      5.975380   -1.396880   -4.691410
  H      2.806460    1.986510   -4.268480
  H      3.778710    3.098280   -3.307380
  H      2.110900    0.819010   -2.187830
  H      1.682760    2.511980   -2.127860
  H      3.072160    1.930310   -1.242270

 Total Charge           Charge          ....    1
 Multiplicity           Mult            ....    1
 Number of Electrons    NEL             ....   48
 Basis Dimension        Dim             ....  200

ORBITAL ENERGIES
----------------

  NO   OCC          E(Eh)            E(eV)
   0   2.0000     -14.249339      -387.7442
   1   2.0000     -14.243725      -387.5915
   2   2.0000     -14.241569      -387.5328
   3   2.0000     -10.247823      -278.8574
   4   2.0000     -10.127609      -275.5863
   5   2.0000     -10.059728      -273.7391
   6   2.0000      -1.112480       -30.2721
   7   2.0000      -1.011294       -27.5187
   8   2.0000      -0.996832       -27.1252
   9   2.0000      -0.849192       -23.1077
  10   2.0000      -0.772119       -21.0104
  11   2.0000      -0.735457       -20.0128
  12   2.0000      -0.727270       -19.7900
  13   2.0000      -0.682875       -18.5820
  14   2.0000      -0.643490       -17.5102
  15   2.0000      -0.640385       -17.4258
  16   2.0000      -0.591498       -16.0955
  17   2.0000      -0.576668       -15.6919
  18   2.0000      -0.552917       -15.0456
  19   2.0000      -0.510121       -13.8811
  20   2.0000      -0.484004       -13.1704
  21   2.0000      -0.469226       -12.7683
  22   2.0000      -0.433159       -11.7869
  23   2.0000      -0.406058       -11.0494
  24   0.0000      -0.198558        -5.4030
  25   0.0000      -0.176386        -4.7997
  26   0.0000      -0.144613        -3.9351
  27   0.0000      -0.135522        -3.6877
  28   0.0000      -0.118999        -3.2381

MULLIKEN ATOMIC CHARGES
-----------------------
   0 C :    0.619884
   1 N :   -0.265448
   2 C :    1.056424
   3 C :    1.112120
   4 N :    0.208875
   5 N :    0.250858
   6 H :   -0.144231
   7 H :   -0.158988
   8 H :   -0.311540
   9 H :   -0.154830
  10 H :   -0.103706
  11 H :   -0.266613
  12 H :   -0.365267
  13 H :   -0.202694
  14 H :   -0.101810
  15 H :   -0.173035
Sum of atomic charges:    1.0000000

LOEWDIN ATOMIC CHARGES
----------------------
   0 C :    0.049234
   1 N :    0.060997
   2 C :    0.174079
   3 C :   -0.060952
   4 N :    0.278712
   5 N :    0.296147
   6 H :    0.027949
   7 H :    0.037038
   8 H :    0.055775
   9 H :    0.030498
  10 H :    0.027415
  11 H :    0.016558
  12 H :    0.036146
  13 H :   -0.017816
  14 H :   -0.000927
  15 H :   -0.010853

  Mayer bond orders larger than 0.100000
B(  0-C ,  1-N ) :   0.9955 B(  0-C ,  2-C ) :   1.2611 B(  0-C ,  8-H ) :  -0.2275
B(  0-C , 11-H ) :   0.7740 B(  0-C , 12-H ) :   0.7632 B(  0-C , 13-H ) :   0.2486
B(  0-C , 14-H ) :   0.2206 B(  0-C , 15-H ) :   0.2784 B(  1-N ,  3-C ) :   1.0544
B(  1-N ,  4-N ) :   0.2614 B(  1-N ,  5-N ) :   0.2743 B(  1-N ,  8-H ) :   1.3087
B(  1-N , 11-H ) :   0.1772 B(  1-N , 12-H ) :   0.2015 B(  2-C , 13-H ) :   0.7289
B(  2-C , 14-H ) :   0.7156 B(  2-C , 15-H ) :   0.7043 B(  3-C ,  4-N ) :   0.9001
B(  3-C ,  5-N ) :   1.0365 B(  3-C ,  6-H ) :  -0.2024 B(  3-C ,  7-H ) :  -0.1622
B(  3-C ,  8-H ) :  -0.2824 B(  3-C ,  9-H ) :  -0.1961 B(  3-C , 10-H ) :  -0.1114
B(  4-N ,  5-N ) :   0.1842 B(  4-N ,  9-H ) :   1.2209 B(  4-N , 10-H ) :   1.1833
B(  5-N ,  6-H ) :   1.1959 B(  5-N ,  7-H ) :   1.2435 B(  6-H ,  7-H ) :  -0.2135
B(  9-H , 10-H ) :  -0.1893 B( 11-H , 12-H ) :  -0.1121

Dispersion correction           -0.024502283
FINAL SINGLE POINT ENERGY      -284.108847677279

DIPOLE MOMENT
-------------
                                X             Y             Z
Electronic contribution:      3.55342      -2.63375      -2.81122
Nuclear contribution   :     -2.93277       1.85779       2.25966
                        -----------------------------------------
Total Dipole Moment    :      0.62065      -0.77596      -0.55156
                        -----------------------------------------
Magnitude (a.u.)       :      1.13646
Magnitude (Debye)      :      2.88864

Rotational constants in cm-1:     0.245511     0.068839     0.059711
Rotational constants in MHz :  7360.233487  2063.743353  1790.088408

                             ****ORCA TERMINATED NORMALLY****
TOTAL RUN TIME: 0 days 0 hours 0 minutes 8 seconds 56 msec
