                         Program Version 5.0.0 -  RELEASE  -
|  1> !BLYP D3BJ RIJCOSX def2-SVPD def2/J TightSCF
|  2> *xyz 0 1
|  3> C          2.49556        1.81615       -2.13636
|  4> C          1.87218        0.42790       -2.07750
|  5> H          2.61427       -0.36583       -2.19889
|  6> H          1.38995        0.27309       -1.11236
|  7> S          0.57902        0.14047       -3.29794
|  8> F          0.22886       -1.24687       -3.12787
|  9> O         -0.43927        1.11897       -3.01455
| 10> O          1.24788        0.40347       -4.59565
| 11> H          2.96535        1.95613       -3.08747
| 12> H          3.22581        1.91242       -1.36024
| 13> H          1.73350        2.55528       -2.00274
| 14> *
| 15>
| 16> %MaxCore 64000
| 17>
| 18> %pal nprocs 4
| 19> end
| 20>
| 21> %scf
| 22>   MaxIter 150
| 23> end
| 24>
| 25>
| 26>                          ****END OF INPUT****

CARTESIAN COORDINATES (ANGSTROEM)
---------------------------------
  C      2.495560    1.816150   -2.136360
  C      1.872180    0.427900   -2.077500
  H      2.614270   -0.365830   -2.198890
  H      1.389950    0.273090   -1.112360
  S      0.579020    0.140470   -3.297940
  F      0.228860   -1.246870   -3.127870
  O     -0.439270    1.118970   -3.014550
  O      1.247880    0.403470   -4.595650
  H      2.965350    1.956130   -3.087470
  H      3.225810    1.912420   -1.360240
  H      1.733500    2.555280   -2.002740

 Total Charge           Charge          ....    0
 Multiplicity           Mult            ....    1
 Number of Electrons    NEL             ....   58
 Basis Dimension        Dim             ....  176

ORBITAL ENERGIES
----------------

  NO   OCC          E(Eh)            E(eV)
   0   2.0000     -88.382763     -2405.0173
   1   2.0000     -24.420098      -664.5047
   2   2.0000     -18.804058      -511.6844
   3   2.0000     -18.789738      -511.2948
   4   2.0000      -9.981868      -271.6204
   5   2.0000      -9.941517      -270.5224
   6   2.0000      -7.920672      -215.5324
   7   2.0000      -5.960021      -162.1804
   8   2.0000      -5.953542      -162.0041
   9   2.0000      -5.951782      -161.9562
  10   2.0000      -1.267024       -34.4775
  11   2.0000      -1.014063       -27.5940
  12   2.0000      -0.911754       -24.8101
  13   2.0000      -0.739220       -20.1152
  14   2.0000      -0.664952       -18.0943
  15   2.0000      -0.606409       -16.5012
  16   2.0000      -0.523151       -14.2356
  17   2.0000      -0.521016       -14.1776
  18   2.0000      -0.494122       -13.4458
  19   2.0000      -0.441259       -12.0073
  20   2.0000      -0.429117       -11.6769
  21   2.0000      -0.391877       -10.6635
  22   2.0000      -0.382740       -10.4149
  23   2.0000      -0.363232        -9.8841
  24   2.0000      -0.342544        -9.3211
  25   2.0000      -0.335797        -9.1375
  26   2.0000      -0.288482        -7.8500
  27   2.0000      -0.275234        -7.4895
  28   2.0000      -0.256930        -6.9914
  29   0.0000      -0.029138        -0.7929
  30   0.0000      -0.003039        -0.0827
  31   0.0000       0.015381         0.4185
  32   0.0000       0.024582         0.6689
  33   0.0000       0.026504         0.7212

MULLIKEN ATOMIC CHARGES
-----------------------
   0 C :    1.173526
   1 C :   -0.094671
   2 H :   -0.180315
   3 H :   -0.136878
   4 S :    1.359403
   5 F :   -0.370107
   6 O :   -0.585941
   7 O :   -0.629115
   8 H :   -0.165427
   9 H :   -0.213300
  10 H :   -0.157174
Sum of atomic charges:    0.0000000

LOEWDIN ATOMIC CHARGES
----------------------
   0 C :    0.157736
   1 C :   -0.098806
   2 H :    0.017097
   3 H :    0.012413
   4 S :    1.077705
   5 F :   -0.242860
   6 O :   -0.440177
   7 O :   -0.460151
   8 H :   -0.008230
   9 H :   -0.008113
  10 H :   -0.006615

  Mayer bond orders larger than 0.100000
B(  0-C ,  1-C ) :   1.3459 B(  0-C ,  2-H ) :   0.1087 B(  0-C ,  3-H ) :   0.1148
B(  0-C ,  8-H ) :   0.7280 B(  0-C ,  9-H ) :   0.6155 B(  0-C , 10-H ) :   0.7104
B(  1-C ,  2-H ) :   0.9230 B(  1-C ,  3-H ) :   0.8927 B(  1-C ,  4-S ) :   0.9272
B(  1-C ,  8-H ) :   0.2411 B(  1-C ,  9-H ) :   0.2906 B(  1-C , 10-H ) :   0.2489
B(  4-S ,  5-F ) :   0.7427 B(  4-S ,  6-O ) :   1.5420 B(  4-S ,  7-O ) :   1.5007
B(  6-O ,  7-O ) :   0.1070 B(  8-H , 10-H ) :   0.1004

Dispersion correction           -0.019692846
FINAL SINGLE POINT ENERGY      -727.202358961479

DIPOLE MOMENT
-------------
                                X             Y             Z
Electronic contribution:     -6.80951      -6.36368      -4.10553
Nuclear contribution   :      7.60530       5.82028       5.38743
                        -----------------------------------------
Total Dipole Moment    :      0.79579      -0.54340       1.28191
                        -----------------------------------------
Magnitude (a.u.)       :      1.60370
Magnitude (Debye)      :      4.07628

Rotational constants in cm-1:     0.157861     0.081452     0.078859
Rotational constants in MHz :  4732.562506  2441.865430  2364.129821

                             ****ORCA TERMINATED NORMALLY****
TOTAL RUN TIME: 0 days 0 hours 0 minutes 6 seconds 416 msec
