                         Program Version 5.0.0 -  RELEASE  -
|  1> !BLYP D3BJ RIJCOSX def2-SVPD def2/J TightSCF
|  2> *xyz 0 1
|  3> C          3.38093        2.08304       -3.35013
|  4> C          4.53592        1.18245       -3.42852
|  5> C          2.49556        1.81615       -2.13636
|  6> C          4.67196        0.12227       -4.22060
|  7> N          5.86602       -0.50785       -4.22428
|  8> N          3.69888       -0.31284       -4.98699
|  9> H          2.73141       -0.05009       -4.84900
| 10> H          3.89005       -1.05517       -5.64373
| 11> H          5.25193        1.30346       -2.72101
| 12> H          6.69516       -0.06232       -3.85160
| 13> H          5.97538       -1.39688       -4.69141
| 14> H          2.80646        1.98651       -4.26848
| 15> H          3.77871        3.09828       -3.30738
| 16> H          2.11090        0.81901       -2.18783
| 17> H          1.68276        2.51198       -2.12786
| 18> H          3.07216        1.93031       -1.24227
| 19> *
| 20>
| 21> %MaxCore 64000
| 22>
| 23> %pal nprocs 4
| 24> end
| 25>
| 26> %scf
| 27>   MaxIter 150
| 28> end
| 29>
| 30>
| 31>                          ****END OF INPUT****

CARTESIAN COORDINATES (ANGSTROEM)
---------------------------------
  C      3.380930    2.083040   -3.350130
  C      4.535920    1.182450   -3.428520
  C      2.495560    1.816150   -2.136360
  C      4.671960    0.122270   -4.220600
  N      5.866020   -0.507850   -4.224280
  N      3.698880   -0.312840   -4.986990
  H      2.731410   -0.050090   -4.849000
  H      3.890050   -1.055170   -5.643730
  H      5.251930    1.303460   -2.721010
  H      6.695160   -0.062320   -3.851600
  H      5.975380   -1.396880   -4.691410
  H      2.806460    1.986510   -4.268480
  H      3.778710    3.098280   -3.307380
  H      2.110900    0.819010   -2.187830
  H      1.682760    2.511980   -2.127860
  H      3.072160    1.930310   -1.242270

 Total Charge           Charge          ....    0
 Multiplicity           Mult            ....    1
 Number of Electrons    NEL             ....   48
 Basis Dimension        Dim             ....  200

ORBITAL ENERGIES
----------------

  NO   OCC          E(Eh)            E(eV)
   0   2.0000     -14.028497      -381.7348
   1   2.0000     -14.020875      -381.5274
   2   2.0000      -9.960281      -271.0330
   3   2.0000      -9.895629      -269.2738
   4   2.0000      -9.888488      -269.0794
   5   2.0000      -9.845179      -267.9009
   6   2.0000      -0.863536       -23.4980
   7   2.0000      -0.778315       -21.1790
   8   2.0000      -0.684401       -18.6235
   9   2.0000      -0.614772       -16.7288
  10   2.0000      -0.547319       -14.8933
  11   2.0000      -0.514484       -13.9998
  12   2.0000      -0.487791       -13.2735
  13   2.0000      -0.448448       -12.2029
  14   2.0000      -0.429359       -11.6834
  15   2.0000      -0.389253       -10.5921
  16   2.0000      -0.363851        -9.9009
  17   2.0000      -0.341395        -9.2898
  18   2.0000      -0.328176        -8.9301
  19   2.0000      -0.303753        -8.2655
  20   2.0000      -0.281565        -7.6618
  21   2.0000      -0.275875        -7.5069
  22   2.0000      -0.218771        -5.9531
  23   2.0000      -0.124376        -3.3844
  24   0.0000      -0.008641        -0.2351
  25   0.0000       0.016252         0.4422
  26   0.0000       0.031540         0.8583
  27   0.0000       0.041313         1.1242
  28   0.0000       0.056051         1.5252

MULLIKEN ATOMIC CHARGES
-----------------------
   0 C :    0.202683
   1 C :   -0.289145
   2 C :    1.006530
   3 C :    0.840986
   4 N :    0.253753
   5 N :    0.312176
   6 H :   -0.171369
   7 H :   -0.319867
   8 H :   -0.459253
   9 H :   -0.164833
  10 H :   -0.222969
  11 H :   -0.278602
  12 H :   -0.199769
  13 H :   -0.218348
  14 H :   -0.134556
  15 H :   -0.157417
Sum of atomic charges:   -0.0000000

LOEWDIN ATOMIC CHARGES
----------------------
   0 C :   -0.087904
   1 C :   -0.025951
   2 C :    0.127641
   3 C :   -0.235790
   4 N :    0.199715
   5 N :    0.214238
   6 H :   -0.004501
   7 H :   -0.014576
   8 H :   -0.053737
   9 H :   -0.004376
  10 H :   -0.025871
  11 H :   -0.006595
  12 H :    0.006450
  13 H :   -0.029978
  14 H :   -0.033297
  15 H :   -0.025469

  Mayer bond orders larger than 0.100000
B(  0-C ,  1-C ) :   1.1734 B(  0-C ,  2-C ) :   1.2070 B(  0-C ,  8-H ) :   0.3173
B(  0-C , 11-H ) :   0.7431 B(  0-C , 12-H ) :   0.7334 B(  0-C , 13-H ) :   0.2484
B(  0-C , 14-H ) :   0.2198 B(  0-C , 15-H ) :   0.2692 B(  1-C ,  2-C ) :   0.1176
B(  1-C ,  3-C ) :   1.4651 B(  1-C ,  4-N ) :   0.4989 B(  1-C ,  5-N ) :   0.3308
B(  1-C ,  8-H ) :   0.7206 B(  1-C , 11-H ) :   0.3559 B(  1-C , 12-H ) :   0.2028
B(  2-C , 13-H ) :   0.7555 B(  2-C , 14-H ) :   0.7304 B(  2-C , 15-H ) :   0.7126
B(  3-C ,  4-N ) :   0.7810 B(  3-C ,  5-N ) :   1.0835 B(  3-C ,  7-H ) :  -0.1811
B(  3-C ,  8-H ) :   0.1255 B(  3-C ,  9-H ) :  -0.1576 B(  3-C , 11-H ) :  -0.1416
B(  4-N ,  5-N ) :   0.1160 B(  4-N ,  9-H ) :   1.2264 B(  4-N , 10-H ) :   1.1520
B(  5-N ,  6-H ) :   1.1692 B(  5-N ,  7-H ) :   1.3052 B(  6-H ,  7-H ) :  -0.2031
B(  9-H , 10-H ) :  -0.1767

Dispersion correction           -0.025631351
FINAL SINGLE POINT ENERGY      -267.627177958703

DIPOLE MOMENT
-------------
                                X             Y             Z
Electronic contribution:      3.01415      -2.78379      -2.89541
Nuclear contribution   :     -2.84307       1.95814       2.32378
                        -----------------------------------------
Total Dipole Moment    :      0.17107      -0.82565      -0.57163
                        -----------------------------------------
Magnitude (a.u.)       :      1.01869
Magnitude (Debye)      :      2.58930

Rotational constants in cm-1:     0.248902     0.068887     0.059904
Rotational constants in MHz :  7461.898926  2065.183281  1795.882140

                             ****ORCA TERMINATED NORMALLY****
TOTAL RUN TIME: 0 days 0 hours 0 minutes 8 seconds 396 msec
