                         Program Version 5.0.0 -  RELEASE  -
|  1> !BLYP D3BJ RIJCOSX def2-SVPD def2/J TightSCF
|  2> *xyz 0 1
|  3> C          2.49556        1.81615       -2.13636
|  4> C          1.87218        0.42790       -2.07750
|  5> H          2.61427       -0.36583       -2.19889
|  6> H          1.38995        0.27309       -1.11236
|  7> S          0.57902        0.14047       -3.29794
|  8> O          0.22886       -1.24687       -3.12787
|  9> F         -0.43927        1.11897       -3.01455
| 10> O          1.24788        0.40347       -4.59565
| 11> H          2.96535        1.95613       -3.08747
| 12> H          3.22581        1.91242       -1.36024
| 13> H          1.73350        2.55528       -2.00274
| 14> *
| 15>
| 16> %MaxCore 64000
| 17>
| 18> %pal nprocs 4
| 19> end
| 20>
| 21> %scf
| 22>   MaxIter 150
| 23> end
| 24>
| 25>
| 26>                          ****END OF INPUT****

CARTESIAN COORDINATES (ANGSTROEM)
---------------------------------
  C      2.495560    1.816150   -2.136360
  C      1.872180    0.427900   -2.077500
  H      2.614270   -0.365830   -2.198890
  H      1.389950    0.273090   -1.112360
  S      0.579020    0.140470   -3.297940
  O      0.228860   -1.246870   -3.127870
  F     -0.439270    1.118970   -3.014550
  O      1.247880    0.403470   -4.595650
  H      2.965350    1.956130   -3.087470
  H      3.225810    1.912420   -1.360240
  H      1.733500    2.555280   -2.002740

 Total Charge           Charge          ....    0
 Multiplicity           Mult            ....    1
 Number of Electrons    NEL             ....   58
 Basis Dimension        Dim             ....  176

ORBITAL ENERGIES
----------------

  NO   OCC          E(Eh)            E(eV)
   0   2.0000     -88.382967     -2405.0228
   1   2.0000     -24.420330      -664.5110
   2   2.0000     -18.804290      -511.6907
   3   2.0000     -18.790409      -511.3130
   4   2.0000      -9.981843      -271.6198
   5   2.0000      -9.944210      -270.5957
   6   2.0000      -7.920844      -215.5371
   7   2.0000      -5.960292      -162.1878
   8   2.0000      -5.953647      -162.0070
   9   2.0000      -5.951942      -161.9606
  10   2.0000      -1.267745       -34.4971
  11   2.0000      -1.013470       -27.5779
  12   2.0000      -0.912789       -24.8383
  13   2.0000      -0.741872       -20.1874
  14   2.0000      -0.661808       -18.0087
  15   2.0000      -0.609904       -16.5963
  16   2.0000      -0.533150       -14.5078
  17   2.0000      -0.520199       -14.1553
  18   2.0000      -0.488015       -13.2796
  19   2.0000      -0.441389       -12.0108
  20   2.0000      -0.426233       -11.5984
  21   2.0000      -0.401328       -10.9207
  22   2.0000      -0.384951       -10.4750
  23   2.0000      -0.362400        -9.8614
  24   2.0000      -0.351543        -9.5660
  25   2.0000      -0.330869        -9.0034
  26   2.0000      -0.287786        -7.8311
  27   2.0000      -0.275412        -7.4944
  28   2.0000      -0.258882        -7.0445
  29   0.0000      -0.033009        -0.8982
  30   0.0000       0.001976         0.0538
  31   0.0000       0.015427         0.4198
  32   0.0000       0.019580         0.5328
  33   0.0000       0.024854         0.6763

MULLIKEN ATOMIC CHARGES
-----------------------
   0 C :    1.200693
   1 C :   -0.071052
   2 H :   -0.186483
   3 H :   -0.152741
   4 S :    1.330026
   5 O :   -0.577359
   6 F :   -0.357583
   7 O :   -0.632146
   8 H :   -0.161574
   9 H :   -0.213781
  10 H :   -0.177999
Sum of atomic charges:   -0.0000000

LOEWDIN ATOMIC CHARGES
----------------------
   0 C :    0.143128
   1 C :   -0.087641
   2 H :    0.031641
   3 H :    0.012759
   4 S :    1.075398
   5 O :   -0.440518
   6 F :   -0.241088
   7 O :   -0.457850
   8 H :   -0.010812
   9 H :   -0.010644
  10 H :   -0.014373

  Mayer bond orders larger than 0.100000
B(  0-C ,  1-C ) :   1.3036 B(  0-C ,  3-H ) :   0.1105 B(  0-C ,  8-H ) :   0.7352
B(  0-C ,  9-H ) :   0.6059 B(  0-C , 10-H ) :   0.7021 B(  1-C ,  2-H ) :   0.9362
B(  1-C ,  3-H ) :   0.9033 B(  1-C ,  4-S ) :   0.9507 B(  1-C ,  8-H ) :   0.2433
B(  1-C ,  9-H ) :   0.2889 B(  1-C , 10-H ) :   0.2471 B(  4-S ,  5-O ) :   1.5864
B(  4-S ,  6-F ) :   0.7239 B(  4-S ,  7-O ) :   1.5159 B(  5-O ,  7-O ) :   0.1097

Dispersion correction           -0.019592196
FINAL SINGLE POINT ENERGY      -727.202160099734

DIPOLE MOMENT
-------------
                                X             Y             Z
Electronic contribution:     -7.91037      -2.43127      -3.91313
Nuclear contribution   :      8.30151       3.35500       5.26935
                        -----------------------------------------
Total Dipole Moment    :      0.39114       0.92373       1.35623
                        -----------------------------------------
Magnitude (a.u.)       :      1.68690
Magnitude (Debye)      :      4.28775

Rotational constants in cm-1:     0.152913     0.083043     0.080351
Rotational constants in MHz :  4584.227971  2489.580280  2408.872860

                             ****ORCA TERMINATED NORMALLY****
TOTAL RUN TIME: 0 days 0 hours 0 minutes 6 seconds 145 msec
