                         Program Version 5.0.0 -  RELEASE  -
|  1> !BLYP D3BJ RIJCOSX def2-SVPD def2/J TightSCF
|  2> *xyz 0 1
|  3> C          3.38093        2.08304       -3.35013
|  4> N          4.53592        1.18245       -3.42852
|  5> C          2.49556        1.81615       -2.13636
|  6> C          4.67196        0.12227       -4.22060
|  7> C          5.86602       -0.50785       -4.22428
|  8> N          3.69888       -0.31284       -4.98699
|  9> H          2.73141       -0.05009       -4.84900
| 10> H          3.89005       -1.05517       -5.64373
| 11> H          5.25193        1.30346       -2.72101
| 12> H          6.69516       -0.06232       -3.85160
| 13> H          5.97538       -1.39688       -4.69141
| 14> H          2.80646        1.98651       -4.26848
| 15> H          3.77871        3.09828       -3.30738
| 16> H          2.11090        0.81901       -2.18783
| 17> H          1.68276        2.51198       -2.12786
| 18> H          3.07216        1.93031       -1.24227
| 19> *
| 20>
| 21> %MaxCore 64000
| 22>
| 23> %pal nprocs 4
| 24> end
| 25>
| 26> %scf
| 27>   MaxIter 150
| 28> end
| 29>
| 30>
| 31>                          ****END OF INPUT****

CARTESIAN COORDINATES (ANGSTROEM)
---------------------------------
  C      3.380930    2.083040   -3.350130
  N      4.535920    1.182450   -3.428520
  C      2.495560    1.816150   -2.136360
  C      4.671960    0.122270   -4.220600
  C      5.866020   -0.507850   -4.224280
  N      3.698880   -0.312840   -4.986990
  H      2.731410   -0.050090   -4.849000
  H      3.890050   -1.055170   -5.643730
  H      5.251930    1.303460   -2.721010
  H      6.695160   -0.062320   -3.851600
  H      5.975380   -1.396880   -4.691410
  H      2.806460    1.986510   -4.268480
  H      3.778710    3.098280   -3.307380
  H      2.110900    0.819010   -2.187830
  H      1.682760    2.511980   -2.127860
  H      3.072160    1.930310   -1.242270

 Total Charge           Charge          ....    0
 Multiplicity           Mult            ....    1
 Number of Electrons    NEL             ....   48
 Basis Dimension        Dim             ....  200

ORBITAL ENERGIES
----------------

  NO   OCC          E(Eh)            E(eV)
   0   2.0000     -14.027110      -381.6971
   1   2.0000     -14.022708      -381.5773
   2   2.0000      -9.962895      -271.1042
   3   2.0000      -9.961060      -271.0542
   4   2.0000      -9.916800      -269.8498
   5   2.0000      -9.832584      -267.5582
   6   2.0000      -0.869692       -23.6655
   7   2.0000      -0.795201       -21.6385
   8   2.0000      -0.687962       -18.7204
   9   2.0000      -0.616921       -16.7873
  10   2.0000      -0.555753       -15.1228
  11   2.0000      -0.539727       -14.6867
  12   2.0000      -0.486191       -13.2299
  13   2.0000      -0.443147       -12.0586
  14   2.0000      -0.428664       -11.6645
  15   2.0000      -0.394797       -10.7430
  16   2.0000      -0.376587       -10.2475
  17   2.0000      -0.352065        -9.5802
  18   2.0000      -0.338497        -9.2110
  19   2.0000      -0.322836        -8.7848
  20   2.0000      -0.317392        -8.6367
  21   2.0000      -0.304167        -8.2768
  22   2.0000      -0.209634        -5.7044
  23   2.0000      -0.122419        -3.3312
  24   0.0000      -0.010165        -0.2766
  25   0.0000       0.019195         0.5223
  26   0.0000       0.024864         0.6766
  27   0.0000       0.034492         0.9386
  28   0.0000       0.050475         1.3735

MULLIKEN ATOMIC CHARGES
-----------------------
   0 C :    0.609963
   1 N :   -0.125953
   2 C :    1.052207
   3 C :    0.587327
   4 C :    0.689843
   5 N :    0.379463
   6 H :   -0.268664
   7 H :   -0.177900
   8 H :   -0.361515
   9 H :   -0.559831
  10 H :   -0.541707
  11 H :   -0.301463
  12 H :   -0.432540
  13 H :   -0.224899
  14 H :   -0.124941
  15 H :   -0.199390
Sum of atomic charges:   -0.0000000

LOEWDIN ATOMIC CHARGES
----------------------
   0 C :    0.017525
   1 N :    0.008031
   2 C :    0.143551
   3 C :   -0.251456
   4 C :    0.156016
   5 N :    0.212681
   6 H :   -0.021285
   7 H :    0.004945
   8 H :    0.030096
   9 H :   -0.114925
  10 H :   -0.118861
  11 H :    0.001133
  12 H :    0.009317
  13 H :   -0.026387
  14 H :   -0.025374
  15 H :   -0.025006

  Mayer bond orders larger than 0.100000
B(  0-C ,  1-N ) :   0.9734 B(  0-C ,  2-C ) :   1.2268 B(  0-C ,  8-H ) :  -0.2389
B(  0-C , 11-H ) :   0.7863 B(  0-C , 12-H ) :   0.7520 B(  0-C , 13-H ) :   0.2662
B(  0-C , 14-H ) :   0.2424 B(  0-C , 15-H ) :   0.2937 B(  1-N ,  3-C ) :   1.0715
B(  1-N ,  4-C ) :   0.2473 B(  1-N ,  5-N ) :   0.2070 B(  1-N ,  8-H ) :   1.2511
B(  1-N , 11-H ) :   0.1929 B(  1-N , 12-H ) :   0.2025 B(  2-C , 13-H ) :   0.7346
B(  2-C , 14-H ) :   0.7029 B(  2-C , 15-H ) :   0.6971 B(  3-C ,  4-C ) :   1.1820
B(  3-C ,  5-N ) :   1.1107 B(  3-C ,  6-H ) :  -0.1214 B(  3-C ,  8-H ) :  -0.2521
B(  3-C , 10-H ) :   0.2456 B(  4-C ,  5-N ) :   0.2365 B(  4-C ,  9-H ) :   0.7587
B(  4-C , 10-H ) :   0.6026 B(  5-N ,  6-H ) :   1.1823 B(  5-N ,  7-H ) :   1.2021
B(  6-H ,  7-H ) :  -0.2031 B( 11-H , 12-H ) :  -0.1125

Dispersion correction           -0.025310934
FINAL SINGLE POINT ENERGY      -267.616995258642

DIPOLE MOMENT
-------------
                                X             Y             Z
Electronic contribution:      1.54635      -1.11702      -2.05402
Nuclear contribution   :     -2.56090       1.59955       2.15496
                        -----------------------------------------
Total Dipole Moment    :     -1.01455       0.48253       0.10094
                        -----------------------------------------
Magnitude (a.u.)       :      1.12798
Magnitude (Debye)      :      2.86709

Rotational constants in cm-1:     0.249834     0.071381     0.061833
Rotational constants in MHz :  7489.842787  2139.945635  1853.706310

                             ****ORCA TERMINATED NORMALLY****
TOTAL RUN TIME: 0 days 0 hours 0 minutes 8 seconds 545 msec
