                         Program Version 5.0.0 -  RELEASE  -
|  1> !BLYP D3BJ RIJCOSX def2-SVPD def2/J TightSCF
|  2> *xyz 0 1
|  3> C          2.49556        1.81615       -2.13636
|  4> C          1.87218        0.42790       -2.07750
|  5> H          2.61427       -0.36583       -2.19889
|  6> H          1.38995        0.27309       -1.11236
|  7> S          0.57902        0.14047       -3.29794
|  8> O          0.22886       -1.24687       -3.12787
|  9> O         -0.43927        1.11897       -3.01455
| 10> F          1.24788        0.40347       -4.59565
| 11> H          2.96535        1.95613       -3.08747
| 12> H          3.22581        1.91242       -1.36024
| 13> H          1.73350        2.55528       -2.00274
| 14> *
| 15>
| 16> %MaxCore 64000
| 17>
| 18> %pal nprocs 4
| 19> end
| 20>
| 21> %scf
| 22>   MaxIter 150
| 23> end
| 24>
| 25>
| 26>                          ****END OF INPUT****

CARTESIAN COORDINATES (ANGSTROEM)
---------------------------------
  C      2.495560    1.816150   -2.136360
  C      1.872180    0.427900   -2.077500
  H      2.614270   -0.365830   -2.198890
  H      1.389950    0.273090   -1.112360
  S      0.579020    0.140470   -3.297940
  O      0.228860   -1.246870   -3.127870
  O     -0.439270    1.118970   -3.014550
  F      1.247880    0.403470   -4.595650
  H      2.965350    1.956130   -3.087470
  H      3.225810    1.912420   -1.360240
  H      1.733500    2.555280   -2.002740

 Total Charge           Charge          ....    0
 Multiplicity           Mult            ....    1
 Number of Electrons    NEL             ....   58
 Basis Dimension        Dim             ....  176

ORBITAL ENERGIES
----------------

  NO   OCC          E(Eh)            E(eV)
   0   2.0000     -88.380605     -2404.9585
   1   2.0000     -24.399077      -663.9326
   2   2.0000     -18.804176      -511.6877
   3   2.0000     -18.803777      -511.6768
   4   2.0000      -9.980605      -271.5861
   5   2.0000      -9.944633      -270.6072
   6   2.0000      -7.918487      -215.4730
   7   2.0000      -5.957660      -162.1162
   8   2.0000      -5.951568      -161.9504
   9   2.0000      -5.949781      -161.9018
  10   2.0000      -1.232104       -33.5273
  11   2.0000      -1.023284       -27.8450
  12   2.0000      -0.933543       -25.4030
  13   2.0000      -0.740972       -20.1629
  14   2.0000      -0.648211       -17.6387
  15   2.0000      -0.603654       -16.4263
  16   2.0000      -0.518416       -14.1068
  17   2.0000      -0.496240       -13.5034
  18   2.0000      -0.484429       -13.1820
  19   2.0000      -0.442019       -12.0279
  20   2.0000      -0.422582       -11.4991
  21   2.0000      -0.403533       -10.9807
  22   2.0000      -0.388471       -10.5708
  23   2.0000      -0.362748        -9.8709
  24   2.0000      -0.355865        -9.6836
  25   2.0000      -0.334299        -9.0967
  26   2.0000      -0.294123        -8.0035
  27   2.0000      -0.286877        -7.8063
  28   2.0000      -0.273686        -7.4474
  29   0.0000      -0.030848        -0.8394
  30   0.0000       0.004962         0.1350
  31   0.0000       0.017329         0.4716
  32   0.0000       0.021337         0.5806
  33   0.0000       0.027435         0.7466

MULLIKEN ATOMIC CHARGES
-----------------------
   0 C :    1.196015
   1 C :   -0.069725
   2 H :   -0.194633
   3 H :   -0.142937
   4 S :    1.335342
   5 O :   -0.589745
   6 O :   -0.601902
   7 F :   -0.379398
   8 H :   -0.185706
   9 H :   -0.215558
  10 H :   -0.151754
Sum of atomic charges:    0.0000000

LOEWDIN ATOMIC CHARGES
----------------------
   0 C :    0.142939
   1 C :   -0.086960
   2 H :    0.018993
   3 H :    0.026722
   4 S :    1.073105
   5 O :   -0.440910
   6 O :   -0.438723
   7 F :   -0.259015
   8 H :   -0.015419
   9 H :   -0.010640
  10 H :   -0.010092

  Mayer bond orders larger than 0.100000
B(  0-C ,  1-C ) :   1.3028 B(  0-C ,  2-H ) :   0.1022 B(  0-C ,  3-H ) :   0.1095
B(  0-C ,  8-H ) :   0.7200 B(  0-C ,  9-H ) :   0.6066 B(  0-C , 10-H ) :   0.7190
B(  1-C ,  2-H ) :   0.9384 B(  1-C ,  3-H ) :   0.9031 B(  1-C ,  4-S ) :   0.9507
B(  1-C ,  8-H ) :   0.2360 B(  1-C ,  9-H ) :   0.2906 B(  1-C , 10-H ) :   0.2505
B(  4-S ,  5-O ) :   1.5825 B(  4-S ,  6-O ) :   1.5511 B(  4-S ,  7-F ) :   0.6733
B(  5-O ,  6-O ) :   0.1263

Dispersion correction           -0.019586486
FINAL SINGLE POINT ENERGY      -727.220504965281

DIPOLE MOMENT
-------------
                                X             Y             Z
Electronic contribution:     -5.09834      -3.61330      -6.55514
Nuclear contribution   :      6.54345       4.10057       6.91691
                        -----------------------------------------
Total Dipole Moment    :      1.44511       0.48727       0.36176
                        -----------------------------------------
Magnitude (a.u.)       :      1.56737
Magnitude (Debye)      :      3.98393

Rotational constants in cm-1:     0.152835     0.082826     0.080611
Rotational constants in MHz :  4581.878371  2483.049050  2416.647141

                             ****ORCA TERMINATED NORMALLY****
TOTAL RUN TIME: 0 days 0 hours 0 minutes 6 seconds 467 msec
