                         Program Version 5.0.0 -  RELEASE  -
|  1> !BLYP D3BJ RIJCOSX def2-SVPD def2/J TightSCF
|  2> *xyz 0 1
|  3> C          3.38093        2.08304       -3.35013
|  4> N          4.53592        1.18245       -3.42852
|  5> C          2.49556        1.81615       -2.13636
|  6> C          4.67196        0.12227       -4.22060
|  7> N          5.86602       -0.50785       -4.22428
|  8> C          3.69888       -0.31284       -4.98699
|  9> H          2.73141       -0.05009       -4.84900
| 10> H          3.89005       -1.05517       -5.64373
| 11> H          5.25193        1.30346       -2.72101
| 12> H          6.69516       -0.06232       -3.85160
| 13> H          5.97538       -1.39688       -4.69141
| 14> H          2.80646        1.98651       -4.26848
| 15> H          3.77871        3.09828       -3.30738
| 16> H          2.11090        0.81901       -2.18783
| 17> H          1.68276        2.51198       -2.12786
| 18> H          3.07216        1.93031       -1.24227
| 19> *
| 20>
| 21> %MaxCore 64000
| 22>
| 23> %pal nprocs 4
| 24> end
| 25>
| 26> %scf
| 27>   MaxIter 150
| 28> end
| 29>
| 30>
| 31>                          ****END OF INPUT****

CARTESIAN COORDINATES (ANGSTROEM)
---------------------------------
  C      3.380930    2.083040   -3.350130
  N      4.535920    1.182450   -3.428520
  C      2.495560    1.816150   -2.136360
  C      4.671960    0.122270   -4.220600
  N      5.866020   -0.507850   -4.224280
  C      3.698880   -0.312840   -4.986990
  H      2.731410   -0.050090   -4.849000
  H      3.890050   -1.055170   -5.643730
  H      5.251930    1.303460   -2.721010
  H      6.695160   -0.062320   -3.851600
  H      5.975380   -1.396880   -4.691410
  H      2.806460    1.986510   -4.268480
  H      3.778710    3.098280   -3.307380
  H      2.110900    0.819010   -2.187830
  H      1.682760    2.511980   -2.127860
  H      3.072160    1.930310   -1.242270

 Total Charge           Charge          ....    0
 Multiplicity           Mult            ....    1
 Number of Electrons    NEL             ....   48
 Basis Dimension        Dim             ....  200

ORBITAL ENERGIES
----------------

  NO   OCC          E(Eh)            E(eV)
   0   2.0000     -14.023321      -381.5940
   1   2.0000     -14.020723      -381.5233
   2   2.0000      -9.960931      -271.0507
   3   2.0000      -9.953263      -270.8420
   4   2.0000      -9.909842      -269.6605
   5   2.0000      -9.837002      -267.6784
   6   2.0000      -0.863725       -23.5032
   7   2.0000      -0.786473       -21.4010
   8   2.0000      -0.674127       -18.3439
   9   2.0000      -0.630355       -17.1528
  10   2.0000      -0.567951       -15.4547
  11   2.0000      -0.501902       -13.6574
  12   2.0000      -0.486887       -13.2489
  13   2.0000      -0.457948       -12.4614
  14   2.0000      -0.408017       -11.1027
  15   2.0000      -0.396270       -10.7831
  16   2.0000      -0.368089       -10.0162
  17   2.0000      -0.352689        -9.5972
  18   2.0000      -0.331260        -9.0140
  19   2.0000      -0.328899        -8.9498
  20   2.0000      -0.308108        -8.3840
  21   2.0000      -0.301496        -8.2041
  22   2.0000      -0.202329        -5.5056
  23   2.0000      -0.134202        -3.6518
  24   0.0000      -0.004560        -0.1241
  25   0.0000       0.016265         0.4426
  26   0.0000       0.030481         0.8294
  27   0.0000       0.037690         1.0256
  28   0.0000       0.055614         1.5133

MULLIKEN ATOMIC CHARGES
-----------------------
   0 C :    0.584928
   1 N :   -0.202306
   2 C :    1.033868
   3 C :    0.806775
   4 N :    0.315863
   5 C :    0.387924
   6 H :   -0.350168
   7 H :   -0.587766
   8 H :   -0.439500
   9 H :   -0.288914
  10 H :   -0.111160
  11 H :   -0.185266
  12 H :   -0.423047
  13 H :   -0.217467
  14 H :   -0.136832
  15 H :   -0.186934
Sum of atomic charges:    0.0000000

LOEWDIN ATOMIC CHARGES
----------------------
   0 C :    0.026663
   1 N :   -0.001775
   2 C :    0.147195
   3 C :   -0.250778
   4 N :    0.202116
   5 C :    0.163644
   6 H :   -0.109075
   7 H :   -0.105464
   8 H :    0.014194
   9 H :   -0.022692
  10 H :   -0.006109
  11 H :    0.007719
  12 H :    0.009949
  13 H :   -0.022639
  14 H :   -0.024538
  15 H :   -0.028412

  Mayer bond orders larger than 0.100000
B(  0-C ,  1-N ) :   0.9673 B(  0-C ,  2-C ) :   1.2298 B(  0-C ,  5-C ) :   0.1010
B(  0-C ,  8-H ) :  -0.2133 B(  0-C , 11-H ) :   0.8003 B(  0-C , 12-H ) :   0.7673
B(  0-C , 13-H ) :   0.2528 B(  0-C , 14-H ) :   0.2403 B(  0-C , 15-H ) :   0.2671
B(  1-N ,  3-C ) :   0.9731 B(  1-N ,  4-N ) :   0.1709 B(  1-N ,  5-C ) :   0.4296
B(  1-N ,  8-H ) :   1.3249 B(  1-N , 11-H ) :   0.1559 B(  1-N , 12-H ) :   0.1972
B(  2-C , 13-H ) :   0.7522 B(  2-C , 14-H ) :   0.7085 B(  2-C , 15-H ) :   0.7174
B(  3-C ,  4-N ) :   0.9779 B(  3-C ,  5-C ) :   1.2877 B(  3-C ,  6-H ) :   0.1439
B(  3-C ,  7-H ) :   0.1962 B(  3-C ,  8-H ) :  -0.3012 B(  3-C ,  9-H ) :  -0.1341
B(  4-N ,  5-C ) :   0.3261 B(  4-N ,  9-H ) :   1.2207 B(  4-N , 10-H ) :   1.1480
B(  5-C ,  6-H ) :   0.6167 B(  5-C ,  7-H ) :   0.7534 B(  9-H , 10-H ) :  -0.1863
B( 11-H , 12-H ) :  -0.1194

Dispersion correction           -0.025469260
FINAL SINGLE POINT ENERGY      -267.621548376917

DIPOLE MOMENT
-------------
                                X             Y             Z
Electronic contribution:      3.65511      -1.33174      -1.37180
Nuclear contribution   :     -3.02065       1.64092       1.99316
                        -----------------------------------------
Total Dipole Moment    :      0.63446       0.30918       0.62136
                        -----------------------------------------
Magnitude (a.u.)       :      0.94033
Magnitude (Debye)      :      2.39014

Rotational constants in cm-1:     0.259304     0.069422     0.060943
Rotational constants in MHz :  7773.747720  2081.225169  1827.013389

                             ****ORCA TERMINATED NORMALLY****
TOTAL RUN TIME: 0 days 0 hours 0 minutes 8 seconds 321 msec
