                         Program Version 5.0.0 -  RELEASE  -
|  1> !BLYP D3BJ RIJCOSX def2-SVPD def2/J TightSCF xyzfile
|  2>
|  3> *xyzfile 0 1 D1.xyz
|  4>
|  5> %MaxCore 64000
|  6>
|  7> %pal nprocs 4
|  8> end
|  9>
| 10> %scf
| 11>   MaxIter 150
| 12> end
| 13>
| 14>
| 15>                          ****END OF INPUT****

CARTESIAN COORDINATES (ANGSTROEM)
---------------------------------
  C      3.380928    2.083045   -3.350127
  C      4.535924    1.182447   -3.428518
  C      2.495557    1.816150   -2.136364
  C      1.872181    0.427903   -2.077497
  H      2.614270   -0.365825   -2.198894
  H      1.389953    0.273087   -1.112360
  S      0.579024    0.140472   -3.297943
  C      4.671956    0.122273   -4.220598
  N      5.866023   -0.507849   -4.224284
  N      3.698881   -0.312844   -4.986988
  H      2.731405   -0.050091   -4.849000
  H      3.890046   -1.055172   -5.643730
  H      5.251933    1.303459   -2.721014
  H      6.695165   -0.062322   -3.851596
  H      5.975383   -1.396884   -4.691414
  F      0.228860   -1.246868   -3.127871
  O     -0.439269    1.118966   -3.014550
  O      1.247881    0.403474   -4.595647
  H      1.697003    2.561969   -2.141109
  H      3.080787    1.987436   -1.225838
  H      2.806463    1.986511   -4.268484
  H      3.778714    3.098282   -3.307383

 Total Charge           Charge          ....    0
 Multiplicity           Mult            ....    1
 Number of Electrons    NEL             ....   96
 Basis Dimension        Dim             ....  324

ORBITAL ENERGIES
----------------

  NO   OCC          E(Eh)            E(eV)
   0   2.0000     -88.392596     -2405.2848
   1   2.0000     -24.426521      -664.6794
   2   2.0000     -18.811060      -511.8750
   3   2.0000     -18.805736      -511.7301
   4   2.0000     -14.018690      -381.4679
   5   2.0000     -14.001995      -381.0136
   6   2.0000      -9.973379      -271.3894
   7   2.0000      -9.957731      -270.9636
   8   2.0000      -9.931939      -270.2618
   9   2.0000      -9.899270      -269.3728
  10   2.0000      -9.845165      -267.9006
  11   2.0000      -7.929800      -215.7808
  12   2.0000      -5.969184      -162.4298
  13   2.0000      -5.963049      -162.2628
  14   2.0000      -5.960602      -162.1962
  15   2.0000      -1.273391       -34.6507
  16   2.0000      -1.025069       -27.8935
  17   2.0000      -0.929478       -25.2924
  18   2.0000      -0.854850       -23.2616
  19   2.0000      -0.769497       -20.9391
  20   2.0000      -0.741350       -20.1732
  21   2.0000      -0.685760       -18.6605
  22   2.0000      -0.651347       -17.7241
  23   2.0000      -0.608575       -16.5602
  24   2.0000      -0.560330       -15.2474
  25   2.0000      -0.533602       -14.5201
  26   2.0000      -0.524733       -14.2787
  27   2.0000      -0.513716       -13.9789
  28   2.0000      -0.492551       -13.4030
  29   2.0000      -0.478696       -13.0260
  30   2.0000      -0.458819       -12.4851
  31   2.0000      -0.437414       -11.9026
  32   2.0000      -0.430794       -11.7225
  33   2.0000      -0.415803       -11.3146
  34   2.0000      -0.400590       -10.9006
  35   2.0000      -0.387341       -10.5401
  36   2.0000      -0.360969        -9.8225
  37   2.0000      -0.352128        -9.5819
  38   2.0000      -0.343614        -9.3502
  39   2.0000      -0.332479        -9.0472
  40   2.0000      -0.311384        -8.4732
  41   2.0000      -0.304178        -8.2771
  42   2.0000      -0.292307        -7.9541
  43   2.0000      -0.291084        -7.9208
  44   2.0000      -0.271086        -7.3766
  45   2.0000      -0.268060        -7.2943
  46   2.0000      -0.209955        -5.7132
  47   2.0000      -0.125349        -3.4109
  48   0.0000      -0.032188        -0.8759
  49   0.0000      -0.002882        -0.0784
  50   0.0000       0.005140         0.1399
  51   0.0000       0.015717         0.4277
  52   0.0000       0.023296         0.6339

MULLIKEN ATOMIC CHARGES
-----------------------
   0 C :    0.766995
   1 C :   -0.083016
   2 C :    0.468847
   3 C :    0.378433
   4 H :   -0.063583
   5 H :   -0.264192
   6 S :    1.420720
   7 C :    0.707774
   8 N :    0.250704
   9 N :    0.826194
  10 H :   -0.486254
  11 H :   -0.359039
  12 H :   -0.516130
  13 H :   -0.188678
  14 H :   -0.212956
  15 F :   -0.376505
  16 O :   -0.620085
  17 O :   -0.770915
  18 H :   -0.144649
  19 H :   -0.155126
  20 H :   -0.279503
  21 H :   -0.299037
Sum of atomic charges:   -0.0000000

LOEWDIN ATOMIC CHARGES
----------------------
   0 C :   -0.027969
   1 C :   -0.018659
   2 C :   -0.009629
   3 C :   -0.039327
   4 H :    0.011999
   5 H :    0.013235
   6 S :    1.128432
   7 C :   -0.227830
   8 N :    0.200767
   9 N :    0.247477
  10 H :   -0.151111
  11 H :   -0.009315
  12 H :   -0.057195
  13 H :   -0.006826
  14 H :   -0.025403
  15 F :   -0.233675
  16 O :   -0.423344
  17 O :   -0.432866
  18 H :    0.021512
  19 H :    0.033163
  20 H :   -0.007366
  21 H :    0.013929

  Mayer bond orders larger than 0.100000
B(  0-C ,  1-C ) :   1.0478 B(  0-C ,  2-C ) :   1.0798 B(  0-C ,  3-C ) :   0.1086
B(  0-C ,  7-C ) :   0.1296 B(  0-C , 12-H ) :   0.2807 B(  0-C , 18-H ) :   0.2108
B(  0-C , 19-H ) :   0.1969 B(  0-C , 20-H ) :   0.6386 B(  0-C , 21-H ) :   0.5728
B(  1-C ,  2-C ) :   0.1950 B(  1-C ,  7-C ) :   1.4565 B(  1-C ,  8-N ) :   0.4366
B(  1-C ,  9-N ) :   0.2587 B(  1-C , 10-H ) :  -0.1393 B(  1-C , 12-H ) :   0.6516
B(  1-C , 20-H ) :   0.3907 B(  1-C , 21-H ) :   0.1650 B(  2-C ,  3-C ) :   1.2762
B(  2-C ,  4-H ) :   0.1919 B(  2-C ,  5-H ) :   0.2195 B(  2-C , 18-H ) :   0.6969
B(  2-C , 19-H ) :   0.6233 B(  2-C , 20-H ) :   0.2065 B(  2-C , 21-H ) :   0.1512
B(  3-C ,  4-H ) :   0.8918 B(  3-C ,  5-H ) :   0.6298 B(  3-C ,  6-S ) :   0.8959
B(  3-C , 17-O ) :   0.1696 B(  3-C , 18-H ) :   0.1984 B(  3-C , 19-H ) :   0.1996
B(  5-H ,  6-S ) :   0.1178 B(  6-S , 15-F ) :   0.7005 B(  6-S , 16-O ) :   1.5628
B(  6-S , 17-O ) :   1.3960 B(  7-C ,  8-N ) :   0.8184 B(  7-C ,  9-N ) :   1.1272
B(  7-C , 10-H ) :  -0.1432 B(  7-C , 11-H ) :  -0.1991 B(  7-C , 12-H ) :   0.1436
B(  7-C , 13-H ) :  -0.1910 B(  7-C , 20-H ) :  -0.1861 B(  8-N ,  9-N ) :   0.1143
B(  8-N , 12-H ) :   0.1301 B(  8-N , 13-H ) :   1.2537 B(  8-N , 14-H ) :   1.1497
B(  9-N , 10-H ) :   1.0422 B(  9-N , 11-H ) :   1.1642 B( 10-H , 11-H ) :  -0.2172
B( 10-H , 17-O ) :   0.1668 B( 13-H , 14-H ) :  -0.1779 B( 18-H , 19-H ) :  -0.1262

Dispersion correction           -0.051896183
FINAL SINGLE POINT ENERGY      -954.388082841786

DIPOLE MOMENT
-------------
                                X             Y             Z
Electronic contribution:    -15.26476      -6.64757      -1.16911
Nuclear contribution   :     15.92508       5.34175       1.81950
                        -----------------------------------------
Total Dipole Moment    :      0.66032      -1.30581       0.65038
                        -----------------------------------------
Magnitude (a.u.)       :      1.60130
Magnitude (Debye)      :      4.07019

Rotational constants in cm-1:     0.058561     0.020662     0.017762
Rotational constants in MHz :  1755.621534   619.433801   532.501507

                             ****ORCA TERMINATED NORMALLY****
TOTAL RUN TIME: 0 days 0 hours 0 minutes 23 seconds 675 msec
