                         Program Version 5.0.0 -  RELEASE  -
|  1> !BLYP D3BJ RIJCOSX def2-SVPD def2/J TightSCF xyzfile
|  2>
|  3> *xyzfile 0 1 D3.xyz
|  4>
|  5> %MaxCore 64000
|  6>
|  7> %pal nprocs 4
|  8> end
|  9>
| 10> %scf
| 11>   MaxIter 150
| 12> end
| 13>
| 14>
| 15>                          ****END OF INPUT****

CARTESIAN COORDINATES (ANGSTROEM)
---------------------------------
  C      3.380928    2.083045   -3.350127
  N      4.535924    1.182447   -3.428518
  C      2.495557    1.816150   -2.136364
  C      1.872181    0.427903   -2.077497
  H      2.614270   -0.365825   -2.198894
  H      1.389953    0.273087   -1.112360
  S      0.579024    0.140472   -3.297943
  C      4.671956    0.122273   -4.220598
  N      5.866023   -0.507849   -4.224284
  C      3.698881   -0.312844   -4.986988
  H      2.731405   -0.050091   -4.849000
  H      3.890046   -1.055172   -5.643730
  H      5.251933    1.303459   -2.721014
  H      6.695165   -0.062322   -3.851596
  H      5.975383   -1.396884   -4.691414
  F      0.228860   -1.246868   -3.127871
  O     -0.439269    1.118966   -3.014550
  O      1.247881    0.403474   -4.595647
  H      1.697003    2.561969   -2.141109
  H      3.080787    1.987436   -1.225838
  H      2.806463    1.986511   -4.268484
  H      3.778714    3.098282   -3.307383

 Total Charge           Charge          ....    0
 Multiplicity           Mult            ....    1
 Number of Electrons    NEL             ....   96
 Basis Dimension        Dim             ....  324

ORBITAL ENERGIES
----------------

  NO   OCC          E(Eh)            E(eV)
   0   2.0000     -88.384257     -2405.0579
   1   2.0000     -24.418997      -664.4747
   2   2.0000     -18.803619      -511.6725
   3   2.0000     -18.788617      -511.2643
   4   2.0000     -14.026193      -381.6721
   5   2.0000     -14.017529      -381.4364
   6   2.0000      -9.977500      -271.5016
   7   2.0000      -9.958326      -270.9798
   8   2.0000      -9.955055      -270.8908
   9   2.0000      -9.950939      -270.7788
  10   2.0000      -9.816271      -267.1143
  11   2.0000      -7.921254      -215.5483
  12   2.0000      -5.960633      -162.1971
  13   2.0000      -5.954365      -162.0265
  14   2.0000      -5.952279      -161.9697
  15   2.0000      -1.265513       -34.4364
  16   2.0000      -1.015442       -27.6316
  17   2.0000      -0.916635       -24.9429
  18   2.0000      -0.864176       -23.5154
  19   2.0000      -0.788796       -21.4642
  20   2.0000      -0.739962       -20.1354
  21   2.0000      -0.677253       -18.4290
  22   2.0000      -0.641177       -17.4473
  23   2.0000      -0.619534       -16.8584
  24   2.0000      -0.576097       -15.6764
  25   2.0000      -0.523122       -14.2349
  26   2.0000      -0.520628       -14.1670
  27   2.0000      -0.507672       -13.8144
  28   2.0000      -0.495841       -13.4925
  29   2.0000      -0.479673       -13.0526
  30   2.0000      -0.459693       -12.5089
  31   2.0000      -0.440163       -11.9774
  32   2.0000      -0.436636       -11.8815
  33   2.0000      -0.404564       -11.0088
  34   2.0000      -0.401584       -10.9277
  35   2.0000      -0.396621       -10.7926
  36   2.0000      -0.358354        -9.7513
  37   2.0000      -0.347756        -9.4629
  38   2.0000      -0.341885        -9.3032
  39   2.0000      -0.335095        -9.1184
  40   2.0000      -0.330211        -8.9855
  41   2.0000      -0.322501        -8.7757
  42   2.0000      -0.301492        -8.2040
  43   2.0000      -0.287975        -7.8362
  44   2.0000      -0.271956        -7.4003
  45   2.0000      -0.234911        -6.3923
  46   2.0000      -0.204236        -5.5575
  47   2.0000      -0.129114        -3.5134
  48   0.0000      -0.025252        -0.6871
  49   0.0000      -0.013164        -0.3582
  50   0.0000       0.005459         0.1486
  51   0.0000       0.014551         0.3959
  52   0.0000       0.025440         0.6923

MULLIKEN ATOMIC CHARGES
-----------------------
   0 C :    1.256913
   1 N :   -0.358716
   2 C :    0.431774
   3 C :    0.467241
   4 H :   -0.050986
   5 H :   -0.323212
   6 S :    1.394125
   7 C :    0.802360
   8 N :    0.324625
   9 C :    1.000186
  10 H :   -0.969997
  11 H :   -0.532325
  12 H :   -0.369144
  13 H :   -0.248110
  14 H :   -0.097783
  15 F :   -0.374775
  16 O :   -0.627875
  17 O :   -0.771816
  18 H :   -0.163655
  19 H :   -0.183828
  20 H :   -0.098140
  21 H :   -0.506862
Sum of atomic charges:   -0.0000000

LOEWDIN ATOMIC CHARGES
----------------------
   0 C :    0.086749
   1 N :    0.005259
   2 C :    0.000959
   3 C :   -0.037887
   4 H :    0.012397
   5 H :    0.012525
   6 S :    1.122269
   7 C :   -0.244233
   8 N :    0.199041
   9 C :    0.197752
  10 H :   -0.217322
  11 H :   -0.091537
  12 H :    0.013344
  13 H :   -0.026362
  14 H :   -0.007211
  15 F :   -0.232020
  16 O :   -0.433552
  17 O :   -0.440740
  18 H :    0.026638
  19 H :    0.028145
  20 H :    0.006613
  21 H :    0.019176

  Mayer bond orders larger than 0.100000
B(  0-C ,  1-N ) :   0.9412 B(  0-C ,  2-C ) :   1.0289 B(  0-C ,  3-C ) :   0.1115
B(  0-C , 12-H ) :  -0.1863 B(  0-C , 18-H ) :   0.1744 B(  0-C , 19-H ) :   0.1492
B(  0-C , 20-H ) :   0.6189 B(  0-C , 21-H ) :   0.6581 B(  1-N ,  2-C ) :   0.1250
B(  1-N ,  7-C ) :   0.9577 B(  1-N ,  8-N ) :   0.1921 B(  1-N ,  9-C ) :   0.3439
B(  1-N , 12-H ) :   1.3558 B(  1-N , 20-H ) :   0.2119 B(  1-N , 21-H ) :   0.1822
B(  2-C ,  3-C ) :   1.2547 B(  2-C ,  4-H ) :   0.1858 B(  2-C ,  5-H ) :   0.2324
B(  2-C , 18-H ) :   0.7529 B(  2-C , 19-H ) :   0.6666 B(  2-C , 20-H ) :   0.1773
B(  2-C , 21-H ) :   0.1293 B(  3-C ,  4-H ) :   0.8989 B(  3-C ,  5-H ) :   0.5874
B(  3-C ,  6-S ) :   0.9114 B(  3-C , 17-O ) :   0.1687 B(  3-C , 18-H ) :   0.1714
B(  3-C , 19-H ) :   0.1819 B(  5-H ,  6-S ) :   0.1047 B(  6-S , 15-F ) :   0.6933
B(  6-S , 16-O ) :   1.5419 B(  6-S , 17-O ) :   1.4448 B(  7-C ,  8-N ) :   0.9659
B(  7-C ,  9-C ) :   1.5999 B(  7-C , 10-H ) :  -0.1623 B(  7-C , 11-H ) :   0.4553
B(  7-C , 12-H ) :  -0.3033 B(  7-C , 20-H ) :  -0.1241 B(  8-N ,  9-C ) :   0.4159
B(  8-N , 11-H ) :   0.1345 B(  8-N , 13-H ) :   1.1659 B(  8-N , 14-H ) :   1.1468
B(  9-C , 10-H ) :  -0.1968 B(  9-C , 11-H ) :   0.5278 B(  9-C , 20-H ) :   0.1104
B( 10-H , 11-H ) :  -0.1008 B( 10-H , 17-O ) :   0.1951 B( 10-H , 20-H ) :   0.1158
B( 13-H , 14-H ) :  -0.1895 B( 16-O , 17-O ) :   0.1044 B( 17-O , 20-H ) :   0.1103
B( 20-H , 21-H ) :  -0.2357

Dispersion correction           -0.051849334
FINAL SINGLE POINT ENERGY      -954.356335370629

DIPOLE MOMENT
-------------
                                X             Y             Z
Electronic contribution:    -14.67030      -5.45368      -0.00422
Nuclear contribution   :     15.84345       5.19593       1.66752
                        -----------------------------------------
Total Dipole Moment    :      1.17315      -0.25774       1.66329
                        -----------------------------------------
Magnitude (a.u.)       :      2.05165
Magnitude (Debye)      :      5.21487

Rotational constants in cm-1:     0.059060     0.020573     0.017713
Rotational constants in MHz :  1770.576058   616.749938   531.036486

                             ****ORCA TERMINATED NORMALLY****
TOTAL RUN TIME: 0 days 0 hours 0 minutes 24 seconds 296 msec
