                         Program Version 5.0.0 -  RELEASE  -
|  1> !BLYP D3BJ RIJCOSX def2-SVPD def2/J TightSCF xyzfile
|  2>
|  3> *xyzfile 0 1 D8.xyz
|  4>
|  5> %MaxCore 64000
|  6>
|  7> %pal nprocs 4
|  8> end
|  9>
| 10> %scf
| 11>   MaxIter 150
| 12> end
| 13>
| 14>
| 15>                          ****END OF INPUT****

CARTESIAN COORDINATES (ANGSTROEM)
---------------------------------
  C      3.380928    2.083045   -3.350127
  N      4.535924    1.182447   -3.428518
  C      2.495557    1.816150   -2.136364
  C      1.872181    0.427903   -2.077497
  H      2.614270   -0.365825   -2.198894
  H      1.389953    0.273087   -1.112360
  S      0.579024    0.140472   -3.297943
  C      4.671956    0.122273   -4.220598
  C      5.866023   -0.507849   -4.224284
  N      3.698881   -0.312844   -4.986988
  H      2.731405   -0.050091   -4.849000
  H      3.890046   -1.055172   -5.643730
  H      5.251933    1.303459   -2.721014
  H      6.695165   -0.062322   -3.851596
  H      5.975383   -1.396884   -4.691414
  O      0.228860   -1.246868   -3.127871
  O     -0.439269    1.118966   -3.014550
  F      1.247881    0.403474   -4.595647
  H      1.697003    2.561969   -2.141109
  H      3.080787    1.987436   -1.225838
  H      2.806463    1.986511   -4.268484
  H      3.778714    3.098282   -3.307383

 Total Charge           Charge          ....    0
 Multiplicity           Mult            ....    1
 Number of Electrons    NEL             ....   96
 Basis Dimension        Dim             ....  324

ORBITAL ENERGIES
----------------

  NO   OCC          E(Eh)            E(eV)
   0   2.0000     -88.395641     -2405.3677
   1   2.0000     -24.426057      -664.6668
   2   2.0000     -18.818094      -512.0664
   3   2.0000     -18.817106      -512.0395
   4   2.0000     -14.037338      -381.9754
   5   2.0000     -14.026642      -381.6843
   6   2.0000      -9.987354      -271.7697
   7   2.0000      -9.979194      -271.5477
   8   2.0000      -9.971558      -271.3399
   9   2.0000      -9.959683      -271.0167
  10   2.0000      -9.840860      -267.7834
  11   2.0000      -7.933108      -215.8708
  12   2.0000      -5.972682      -162.5249
  13   2.0000      -5.966024      -162.3438
  14   2.0000      -5.964116      -162.2918
  15   2.0000      -1.262383       -34.3512
  16   2.0000      -1.038456       -28.2578
  17   2.0000      -0.946667       -25.7601
  18   2.0000      -0.881756       -23.9938
  19   2.0000      -0.807890       -21.9838
  20   2.0000      -0.755099       -20.5473
  21   2.0000      -0.695639       -18.9293
  22   2.0000      -0.654805       -17.8182
  23   2.0000      -0.627510       -17.0754
  24   2.0000      -0.574803       -15.6412
  25   2.0000      -0.552184       -15.0257
  26   2.0000      -0.543492       -14.7892
  27   2.0000      -0.527229       -14.3466
  28   2.0000      -0.501567       -13.6483
  29   2.0000      -0.480836       -13.0842
  30   2.0000      -0.461130       -12.5480
  31   2.0000      -0.446138       -12.1400
  32   2.0000      -0.439098       -11.9485
  33   2.0000      -0.432181       -11.7602
  34   2.0000      -0.417845       -11.3701
  35   2.0000      -0.408810       -11.1243
  36   2.0000      -0.378371       -10.2960
  37   2.0000      -0.362687        -9.8692
  38   2.0000      -0.356657        -9.7051
  39   2.0000      -0.347960        -9.4685
  40   2.0000      -0.340452        -9.2642
  41   2.0000      -0.333932        -9.0868
  42   2.0000      -0.314825        -8.5668
  43   2.0000      -0.305797        -8.3212
  44   2.0000      -0.297527        -8.0961
  45   2.0000      -0.286344        -7.7918
  46   2.0000      -0.221524        -6.0280
  47   2.0000      -0.132076        -3.5940
  48   0.0000      -0.038284        -1.0418
  49   0.0000      -0.012659        -0.3445
  50   0.0000       0.001930         0.0525
  51   0.0000       0.008877         0.2415
  52   0.0000       0.014121         0.3843

MULLIKEN ATOMIC CHARGES
-----------------------
   0 C :    1.240652
   1 N :   -0.135281
   2 C :    0.484676
   3 C :    0.495083
   4 H :   -0.033256
   5 H :   -0.335909
   6 S :    1.284356
   7 C :    0.373397
   8 C :    0.628910
   9 N :    0.956769
  10 H :   -0.559478
  11 H :   -0.251336
  12 H :   -0.310379
  13 H :   -0.534200
  14 H :   -0.429751
  15 O :   -0.592263
  16 O :   -0.629825
  17 F :   -0.534518
  18 H :   -0.130489
  19 H :   -0.185464
  20 H :   -0.272491
  21 H :   -0.529203
Sum of atomic charges:   -0.0000000

LOEWDIN ATOMIC CHARGES
----------------------
   0 C :    0.072971
   1 N :    0.016839
   2 C :   -0.014359
   3 C :   -0.029909
   4 H :    0.018511
   5 H :    0.029199
   6 S :    1.088493
   7 C :   -0.249646
   8 C :    0.160625
   9 N :    0.244921
  10 H :   -0.115058
  11 H :    0.015401
  12 H :    0.033263
  13 H :   -0.113312
  14 H :   -0.113796
  15 O :   -0.424301
  16 O :   -0.424549
  17 F :   -0.267021
  18 H :    0.023836
  19 H :    0.029646
  20 H :   -0.001394
  21 H :    0.019638

  Mayer bond orders larger than 0.100000
B(  0-C ,  1-N ) :   0.9850 B(  0-C ,  2-C ) :   1.0561 B(  0-C ,  3-C ) :   0.1016
B(  0-C , 12-H ) :  -0.2145 B(  0-C , 18-H ) :   0.1848 B(  0-C , 19-H ) :   0.1798
B(  0-C , 20-H ) :   0.6141 B(  0-C , 21-H ) :   0.6314 B(  1-N ,  7-C ) :   1.0666
B(  1-N ,  8-C ) :   0.2290 B(  1-N ,  9-N ) :   0.1489 B(  1-N , 12-H ) :   1.1955
B(  1-N , 20-H ) :   0.2862 B(  1-N , 21-H ) :   0.1939 B(  2-C ,  3-C ) :   1.2244
B(  2-C ,  4-H ) :   0.1835 B(  2-C ,  5-H ) :   0.2158 B(  2-C , 18-H ) :   0.7456
B(  2-C , 19-H ) :   0.6385 B(  2-C , 20-H ) :   0.1773 B(  2-C , 21-H ) :   0.1261
B(  3-C ,  4-H ) :   0.8875 B(  3-C ,  5-H ) :   0.5987 B(  3-C ,  6-S ) :   0.9444
B(  3-C , 17-F ) :   0.1095 B(  3-C , 18-H ) :   0.1689 B(  3-C , 19-H ) :   0.1815
B(  5-H ,  6-S ) :   0.1459 B(  6-S , 15-O ) :   1.5641 B(  6-S , 16-O ) :   1.5510
B(  6-S , 17-F ) :   0.6656 B(  7-C ,  8-C ) :   1.1880 B(  7-C ,  9-N ) :   1.1378
B(  7-C , 11-H ) :  -0.1050 B(  7-C , 12-H ) :  -0.2184 B(  7-C , 13-H ) :   0.1476
B(  7-C , 14-H ) :   0.2459 B(  7-C , 20-H ) :  -0.1105 B(  8-C ,  9-N ) :   0.1723
B(  8-C , 13-H ) :   0.6109 B(  8-C , 14-H ) :   0.6497 B(  9-N , 10-H ) :   0.8061
B(  9-N , 11-H ) :   1.1126 B(  9-N , 20-H ) :   0.1340 B( 10-H , 11-H ) :  -0.2046
B( 10-H , 17-F ) :   0.1472 B( 13-H , 14-H ) :   0.1584 B( 15-O , 16-O ) :   0.1325
B( 20-H , 21-H ) :  -0.2025

Dispersion correction           -0.050796567
FINAL SINGLE POINT ENERGY      -954.378414616790

DIPOLE MOMENT
-------------
                                X             Y             Z
Electronic contribution:    -14.63973      -2.44437      -2.89245
Nuclear contribution   :     14.93782       3.36795       3.35075
                        -----------------------------------------
Total Dipole Moment    :      0.29809       0.92358       0.45831
                        -----------------------------------------
Magnitude (a.u.)       :      1.07327
Magnitude (Debye)      :      2.72803

Rotational constants in cm-1:     0.059219     0.021387     0.018380
Rotational constants in MHz :  1775.354399   641.172207   551.019443

                             ****ORCA TERMINATED NORMALLY****
TOTAL RUN TIME: 0 days 0 hours 0 minutes 23 seconds 948 msec
