                         Program Version 5.0.0 -  RELEASE  -
|  1> !PBE0 D3BJ RIJCOSX def2-SVPD def2/J TightSCF
|  2> *xyz -1 1
|  3> C         -2.12050        0.88520        1.78951
|  4> C         -0.77894        0.17197        1.80496
|  5> H          0.01569        0.91077        1.93915
|  6> H         -0.74355       -0.50683        2.66542
|  7> C         -0.60249       -0.63071        0.49224
|  8> H          0.31389       -1.24035        0.60350
|  9> H         -0.36383        0.11332       -0.30117
| 10> O         -1.71206       -1.37684        0.20253
| 11> H         -2.16160        1.54956        0.95175
| 12> H         -2.23761        1.44436        2.69423
| 13> H         -2.90702        0.16393        1.71165
| 14> *
| 15> %MaxCore 64000
| 16>
| 17> %pal nprocs 4
| 18> end
| 19> %scf
| 20>   MaxIter 150
| 21> end
| 22>
| 23>                          ****END OF INPUT****

CARTESIAN COORDINATES (ANGSTROEM)
---------------------------------
  C     -2.120500    0.885200    1.789510
  C     -0.778940    0.171970    1.804960
  H      0.015690    0.910770    1.939150
  H     -0.743550   -0.506830    2.665420
  C     -0.602490   -0.630710    0.492240
  H      0.313890   -1.240350    0.603500
  H     -0.363830    0.113320   -0.301170
  O     -1.712060   -1.376840    0.202530
  H     -2.161600    1.549560    0.951750
  H     -2.237610    1.444360    2.694230
  H     -2.907020    0.163930    1.711650

 Total Charge           Charge          ....   -1
 Multiplicity           Mult            ....    1
 Number of Electrons    NEL             ....   34
 Basis Dimension        Dim             ....  139

ORBITAL ENERGIES
----------------

  NO   OCC          E(Eh)            E(eV)
   0   2.0000     -18.888047      -513.9699
   1   2.0000     -10.048054      -273.4214
   2   2.0000     -10.041105      -273.2324
   3   2.0000     -10.039146      -273.1790
   4   2.0000      -0.703347       -19.1390
   5   2.0000      -0.595300       -16.1989
   6   2.0000      -0.475823       -12.9478
   7   2.0000      -0.376331       -10.2405
   8   2.0000      -0.286909        -7.8072
   9   2.0000      -0.276679        -7.5288
  10   2.0000      -0.224701        -6.1144
  11   2.0000      -0.196896        -5.3578
  12   2.0000      -0.167819        -4.5666
  13   2.0000      -0.162828        -4.4308
  14   2.0000      -0.127195        -3.4612
  15   2.0000       0.014297         0.3890
  16   2.0000       0.017035         0.4635
  17   0.0000       0.174630         4.7519
  18   0.0000       0.198289         5.3957
  19   0.0000       0.214035         5.8242
  20   0.0000       0.239288         6.5114
  21   0.0000       0.260080         7.0771

MULLIKEN ATOMIC CHARGES
-----------------------
   0 C :    0.433075
   1 C :   -0.623768
   2 H :   -0.034062
   3 H :   -0.010240
   4 C :    0.415902
   5 H :   -0.129301
   6 H :   -0.051677
   7 O :   -0.938333
   8 H :   -0.024501
   9 H :   -0.068957
  10 H :    0.031862
Sum of atomic charges:   -1.0000000

LOEWDIN ATOMIC CHARGES
----------------------
   0 C :    0.069383
   1 C :   -0.120033
   2 H :   -0.013735
   3 H :    0.001726
   4 C :   -0.208352
   5 H :   -0.034042
   6 H :   -0.026904
   7 O :   -0.555216
   8 H :   -0.027939
   9 H :   -0.049376
  10 H :   -0.035511

  Mayer bond orders larger than 0.100000
B(  0-C ,  1-C ) :   1.2850 B(  0-C ,  8-H ) :   0.8491 B(  0-C ,  9-H ) :   0.8506
B(  0-C , 10-H ) :   0.8495 B(  1-C ,  2-H ) :   1.0163 B(  1-C ,  3-H ) :   0.9961
B(  1-C ,  4-C ) :   1.0337 B(  1-C ,  5-H ) :   0.1254 B(  1-C ,  6-H ) :   0.1284
B(  1-C ,  7-O ) :   0.1167 B(  1-C ,  8-H ) :   0.1805 B(  1-C ,  9-H ) :   0.1666
B(  1-C , 10-H ) :   0.1817 B(  4-C ,  5-H ) :   0.9930 B(  4-C ,  6-H ) :   0.9455
B(  4-C ,  7-O ) :   1.0855

Dispersion correction           -0.005527019
FINAL SINGLE POINT ENERGY      -193.384092682869

DIPOLE MOMENT
-------------
                                X             Y             Z
Electronic contribution:     -0.60705      -2.40017      -1.50260
Nuclear contribution   :      1.03476       3.87369       2.65163
                        -----------------------------------------
Total Dipole Moment    :      0.42771       1.47352       1.14903
                        -----------------------------------------
Magnitude (a.u.)       :      1.91689
Magnitude (Debye)      :      4.87234

Rotational constants in cm-1:     0.475803     0.193433     0.155403
Rotational constants in MHz : 14264.216647  5798.988361  4658.874800

                             ****ORCA TERMINATED NORMALLY****
TOTAL RUN TIME: 0 days 0 hours 0 minutes 10 seconds 229 msec
