                         Program Version 5.0.0 -  RELEASE  -
|  1> !PBE0 D3BJ RIJCOSX def2-SVPD def2/J TightSCF
|  2> *xyz 1 1
|  3> C         -2.12050        0.88520        1.78951
|  4> C         -0.77894        0.17197        1.80496
|  5> H         -2.32419        1.47265        2.68608
|  6> H         -2.18770        1.54127        0.91948
|  7> N         -3.17690       -0.15948        1.61070
|  8> H          0.01569        0.91077        1.93915
|  9> H         -0.74355       -0.50683        2.66542
| 10> C         -0.60249       -0.63071        0.49224
| 11> H         -4.06474        0.23127        1.28675
| 12> H         -3.34407       -0.67151        2.48493
| 13> H         -2.71686       -0.78189        0.93588
| 14> H         -0.63812        0.03805       -0.34226
| 15> H         -1.38918       -1.35085        0.40604
| 16> H          0.34172       -1.13388        0.50602
| 17> *
| 18> %MaxCore 64000
| 19>
| 20> %pal nprocs 4
| 21> end
| 22>
| 23> %scf
| 24>   MaxIter 150
| 25> end
| 26>
| 27>
| 28>                          ****END OF INPUT****

CARTESIAN COORDINATES (ANGSTROEM)
---------------------------------
  C     -2.120500    0.885200    1.789510
  C     -0.778940    0.171970    1.804960
  H     -2.324190    1.472650    2.686080
  H     -2.187700    1.541270    0.919480
  N     -3.176900   -0.159480    1.610700
  H      0.015690    0.910770    1.939150
  H     -0.743550   -0.506830    2.665420
  C     -0.602490   -0.630710    0.492240
  H     -4.064740    0.231270    1.286750
  H     -3.344070   -0.671510    2.484930
  H     -2.716860   -0.781890    0.935880
  H     -0.638120    0.038050   -0.342260
  H     -1.389180   -1.350850    0.406040
  H      0.341720   -1.133880    0.506020

 Total Charge           Charge          ....    1
 Multiplicity           Mult            ....    1
 Number of Electrons    NEL             ....   34
 Basis Dimension        Dim             ....  160

ORBITAL ENERGIES
----------------

  NO   OCC          E(Eh)            E(eV)
   0   2.0000     -14.716745      -400.4630
   1   2.0000     -10.480557      -285.1904
   2   2.0000     -10.420512      -283.5566
   3   2.0000     -10.398444      -282.9561
   4   2.0000      -1.225594       -33.3501
   5   2.0000      -0.995583       -27.0912
   6   2.0000      -0.904701       -24.6182
   7   2.0000      -0.819193       -22.2914
   8   2.0000      -0.814859       -22.1734
   9   2.0000      -0.784483       -21.3469
  10   2.0000      -0.700089       -19.0504
  11   2.0000      -0.654663       -17.8143
  12   2.0000      -0.626986       -17.0611
  13   2.0000      -0.602189       -16.3864
  14   2.0000      -0.554644       -15.0926
  15   2.0000      -0.545437       -14.8421
  16   2.0000      -0.537557       -14.6277
  17   0.0000      -0.172772        -4.7014
  18   0.0000      -0.120360        -3.2752
  19   0.0000      -0.115447        -3.1415
  20   0.0000      -0.105877        -2.8810
  21   0.0000      -0.081453        -2.2164

MULLIKEN ATOMIC CHARGES
-----------------------
   0 C :    0.536851
   1 C :   -0.346287
   2 H :   -0.091727
   3 H :    0.074569
   4 N :   -0.669416
   5 H :   -0.017478
   6 H :    0.080022
   7 C :    0.517956
   8 H :    0.331717
   9 H :    0.407229
  10 H :    0.191744
  11 H :    0.062216
  12 H :   -0.089319
  13 H :    0.011923
Sum of atomic charges:    1.0000000

LOEWDIN ATOMIC CHARGES
----------------------
   0 C :    0.088662
   1 C :   -0.027462
   2 H :    0.053442
   3 H :    0.056996
   4 N :    0.337391
   5 H :    0.050175
   6 H :    0.040735
   7 C :    0.161729
   8 H :    0.109075
   9 H :    0.113025
  10 H :    0.021640
  11 H :    0.010870
  12 H :   -0.031503
  13 H :    0.015225

  Mayer bond orders larger than 0.100000
B(  0-C ,  1-C ) :   1.1425 B(  0-C ,  2-H ) :   0.9617 B(  0-C ,  3-H ) :   0.9028
B(  0-C ,  4-N ) :   0.7708 B(  1-C ,  5-H ) :   0.9947 B(  1-C ,  6-H ) :   0.9363
B(  1-C ,  7-C ) :   1.2516 B(  1-C , 11-H ) :   0.1462 B(  1-C , 12-H ) :   0.1107
B(  1-C , 13-H ) :   0.1449 B(  2-H ,  4-N ) :   0.1291 B(  4-N ,  8-H ) :   0.7824
B(  4-N ,  9-H ) :   0.7760 B(  4-N , 10-H ) :   0.8435 B(  7-C , 11-H ) :   0.8057
B(  7-C , 12-H ) :   0.8677 B(  7-C , 13-H ) :   0.8572 B( 10-H , 12-H ) :   0.2555

Dispersion correction           -0.007997235
FINAL SINGLE POINT ENERGY      -174.522810288268

DIPOLE MOMENT
-------------
                                X             Y             Z
Electronic contribution:     -1.84378       0.50388       0.93189
Nuclear contribution   :      0.18509      -0.64781      -0.64735
                        -----------------------------------------
Total Dipole Moment    :     -1.65868      -0.14393       0.28454
                        -----------------------------------------
Magnitude (a.u.)       :      1.68906
Magnitude (Debye)      :      4.29324

Rotational constants in cm-1:     0.411855     0.178330     0.145265
Rotational constants in MHz : 12347.103052  5346.196801  4354.936890

                             ****ORCA TERMINATED NORMALLY****
TOTAL RUN TIME: 0 days 0 hours 0 minutes 12 seconds 52 msec
