                         Program Version 5.0.0 -  RELEASE  -
|  1> !PBE0 D3BJ RIJCOSX def2-SVPD def2/J TightSCF
|  2> *xyz 0 1
|  3> C         -2.12050        0.88520        1.78951
|  4> C         -0.77894        0.17197        1.80496
|  5> H          0.01569        0.91077        1.93915
|  6> H         -0.74355       -0.50683        2.66542
|  7> C         -0.60249       -0.63071        0.49224
|  8> H          0.31389       -1.24035        0.60350
|  9> H         -0.36383        0.11332       -0.30117
| 10> F         -1.71206       -1.37684        0.20253
| 11> H         -2.16160        1.54956        0.95175
| 12> H         -2.23761        1.44436        2.69423
| 13> H         -2.90702        0.16393        1.71165
| 14> *
| 15> %MaxCore 64000
| 16>
| 17> %pal nprocs 4
| 18> end
| 19> %scf
| 20>   MaxIter 150
| 21> end
| 22>
| 23>                          ****END OF INPUT****

CARTESIAN COORDINATES (ANGSTROEM)
---------------------------------
  C     -2.120500    0.885200    1.789510
  C     -0.778940    0.171970    1.804960
  H      0.015690    0.910770    1.939150
  H     -0.743550   -0.506830    2.665420
  C     -0.602490   -0.630710    0.492240
  H      0.313890   -1.240350    0.603500
  H     -0.363830    0.113320   -0.301170
  F     -1.712060   -1.376840    0.202530
  H     -2.161600    1.549560    0.951750
  H     -2.237610    1.444360    2.694230
  H     -2.907020    0.163930    1.711650

 Total Charge           Charge          ....    0
 Multiplicity           Mult            ....    1
 Number of Electrons    NEL             ....   34
 Basis Dimension        Dim             ....  139

ORBITAL ENERGIES
----------------

  NO   OCC          E(Eh)            E(eV)
   0   2.0000     -24.775108      -674.1650
   1   2.0000     -10.311860      -280.6000
   2   2.0000     -10.238773      -278.6112
   3   2.0000     -10.216274      -277.9990
   4   2.0000      -1.218860       -33.1669
   5   2.0000      -0.806786       -21.9538
   6   2.0000      -0.703975       -19.1561
   7   2.0000      -0.610105       -16.6018
   8   2.0000      -0.528392       -14.3783
   9   2.0000      -0.512572       -13.9478
  10   2.0000      -0.492608       -13.4046
  11   2.0000      -0.451401       -12.2833
  12   2.0000      -0.410819       -11.1789
  13   2.0000      -0.388726       -10.5778
  14   2.0000      -0.366232        -9.9657
  15   2.0000      -0.340391        -9.2625
  16   2.0000      -0.337867        -9.1938
  17   0.0000       0.028950         0.7878
  18   0.0000       0.054121         1.4727
  19   0.0000       0.064117         1.7447
  20   0.0000       0.077536         2.1099
  21   0.0000       0.099014         2.6943

MULLIKEN ATOMIC CHARGES
-----------------------
   0 C :    0.438938
   1 C :   -0.592483
   2 H :   -0.018777
   3 H :   -0.008573
   4 C :    0.689410
   5 H :   -0.042997
   6 H :    0.031908
   7 F :   -0.478511
   8 H :   -0.007213
   9 H :   -0.043906
  10 H :    0.032204
Sum of atomic charges:    0.0000000

LOEWDIN ATOMIC CHARGES
----------------------
   0 C :    0.107471
   1 C :   -0.069947
   2 H :    0.025986
   3 H :    0.024726
   4 C :    0.104871
   5 H :    0.029327
   6 H :    0.037162
   7 F :   -0.214407
   8 H :   -0.011689
   9 H :   -0.017067
  10 H :   -0.016434

  Mayer bond orders larger than 0.100000
B(  0-C ,  1-C ) :   1.3098 B(  0-C ,  8-H ) :   0.8476 B(  0-C ,  9-H ) :   0.8715
B(  0-C , 10-H ) :   0.8543 B(  1-C ,  2-H ) :   0.9833 B(  1-C ,  3-H ) :   0.9809
B(  1-C ,  4-C ) :   1.1553 B(  1-C ,  8-H ) :   0.1575 B(  1-C ,  9-H ) :   0.1534
B(  1-C , 10-H ) :   0.1507 B(  4-C ,  5-H ) :   0.9506 B(  4-C ,  6-H ) :   0.9054
B(  4-C ,  7-F ) :   0.6750

Dispersion correction           -0.005204634
FINAL SINGLE POINT ENERGY      -217.981538089405

DIPOLE MOMENT
-------------
                                X             Y             Z
Electronic contribution:     -1.00973      -4.83112      -3.46073
Nuclear contribution   :      1.51874       5.24801       3.69322
                        -----------------------------------------
Total Dipole Moment    :      0.50901       0.41690       0.23249
                        -----------------------------------------
Magnitude (a.u.)       :      0.69782
Magnitude (Debye)      :      1.77371

Rotational constants in cm-1:     0.461913     0.182549     0.147043
Rotational constants in MHz : 13847.794369  5472.673442  4408.246847

                             ****ORCA TERMINATED NORMALLY****
TOTAL RUN TIME: 0 days 0 hours 0 minutes 8 seconds 396 msec
