                         Program Version 5.0.0 -  RELEASE  -
|  1> !PBE0 D3BJ RIJCOSX def2-SVPD def2/J TightSCF
|  2> *xyz 0 1
|  3> C         -2.12050        0.88520        1.78951
|  4> C         -0.77894        0.17197        1.80496
|  5> H         -2.32419        1.47265        2.68608
|  6> H         -2.18770        1.54127        0.91948
|  7> C         -3.17690       -0.15948        1.61070
|  8> H          0.01569        0.91077        1.93915
|  9> H         -0.74355       -0.50683        2.66542
| 10> C         -0.60249       -0.63071        0.49224
| 11> H         -4.06474        0.23127        1.28675
| 12> H         -3.34407       -0.67151        2.48493
| 13> H         -2.71686       -0.78189        0.93588
| 14> H         -0.63812        0.03805       -0.34226
| 15> H         -1.38918       -1.35085        0.40604
| 16> H          0.34172       -1.13388        0.50602
| 17> *
| 18> %MaxCore 64000
| 19>
| 20> %pal nprocs 4
| 21> end
| 22>
| 23> %scf
| 24>   MaxIter 150
| 25> end
| 26>
| 27>
| 28>                          ****END OF INPUT****

CARTESIAN COORDINATES (ANGSTROEM)
---------------------------------
  C     -2.120500    0.885200    1.789510
  C     -0.778940    0.171970    1.804960
  H     -2.324190    1.472650    2.686080
  H     -2.187700    1.541270    0.919480
  C     -3.176900   -0.159480    1.610700
  H      0.015690    0.910770    1.939150
  H     -0.743550   -0.506830    2.665420
  C     -0.602490   -0.630710    0.492240
  H     -4.064740    0.231270    1.286750
  H     -3.344070   -0.671510    2.484930
  H     -2.716860   -0.781890    0.935880
  H     -0.638120    0.038050   -0.342260
  H     -1.389180   -1.350850    0.406040
  H      0.341720   -1.133880    0.506020

 Total Charge           Charge          ....    0
 Multiplicity           Mult            ....    1
 Number of Electrons    NEL             ....   34
 Basis Dimension        Dim             ....  160

ORBITAL ENERGIES
----------------

  NO   OCC          E(Eh)            E(eV)
   0   2.0000     -10.225865      -278.2599
   1   2.0000     -10.217738      -278.0388
   2   2.0000     -10.214981      -277.9638
   3   2.0000     -10.187632      -277.2196
   4   2.0000      -0.827492       -22.5172
   5   2.0000      -0.735940       -20.0259
   6   2.0000      -0.661688       -18.0054
   7   2.0000      -0.578504       -15.7419
   8   2.0000      -0.496209       -13.5025
   9   2.0000      -0.475478       -12.9384
  10   2.0000      -0.435967       -11.8633
  11   2.0000      -0.404652       -11.0111
  12   2.0000      -0.388162       -10.5624
  13   2.0000      -0.372336       -10.1318
  14   2.0000      -0.340042        -9.2530
  15   2.0000      -0.334942        -9.1142
  16   2.0000      -0.324242        -8.8231
  17   0.0000       0.035611         0.9690
  18   0.0000       0.056999         1.5510
  19   0.0000       0.061852         1.6831
  20   0.0000       0.068190         1.8555
  21   0.0000       0.103745         2.8230

MULLIKEN ATOMIC CHARGES
-----------------------
   0 C :   -0.379638
   1 C :   -0.299826
   2 H :   -0.173304
   3 H :    0.079552
   4 C :    1.365605
   5 H :   -0.095352
   6 H :    0.044633
   7 C :    0.481511
   8 H :   -0.092702
   9 H :   -0.026357
  10 H :   -0.898964
  11 H :    0.046187
  12 H :   -0.038415
  13 H :   -0.012928
Sum of atomic charges:   -0.0000000

LOEWDIN ATOMIC CHARGES
----------------------
   0 C :   -0.081288
   1 C :   -0.067878
   2 H :    0.020551
   3 H :    0.026238
   4 C :    0.131781
   5 H :    0.016563
   6 H :    0.027234
   7 C :    0.126636
   8 H :   -0.026674
   9 H :   -0.019367
  10 H :   -0.090224
  11 H :   -0.006305
  12 H :   -0.041019
  13 H :   -0.016247

  Mayer bond orders larger than 0.100000
B(  0-C ,  1-C ) :   1.1080 B(  0-C ,  2-H ) :   1.0663 B(  0-C ,  3-H ) :   0.8970
B(  0-C ,  4-C ) :   1.1104 B(  0-C ,  6-H ) :   0.1050 B(  0-C ,  8-H ) :   0.1271
B(  0-C ,  9-H ) :   0.2086 B(  0-C , 10-H ) :   0.3649 B(  1-C ,  5-H ) :   1.0210
B(  1-C ,  6-H ) :   0.9276 B(  1-C ,  7-C ) :   1.2435 B(  1-C , 11-H ) :   0.1735
B(  1-C , 12-H ) :   0.1260 B(  1-C , 13-H ) :   0.1430 B(  4-C ,  8-H ) :   0.5790
B(  4-C ,  9-H ) :   0.5449 B(  4-C , 10-H ) :   0.3938 B(  7-C , 10-H ) :   0.1296
B(  7-C , 11-H ) :   0.7992 B(  7-C , 12-H ) :   0.8250 B(  7-C , 13-H ) :   0.8286
B(  8-H , 10-H ) :   0.2446 B(  9-H , 10-H ) :   0.2465 B( 10-H , 12-H ) :   0.3524

Dispersion correction           -0.008026497
FINAL SINGLE POINT ENERGY      -158.124664411106

DIPOLE MOMENT
-------------
                                X             Y             Z
Electronic contribution:      0.31090       0.71300       0.58665
Nuclear contribution   :     -0.27446      -0.71220      -0.58629
                        -----------------------------------------
Total Dipole Moment    :      0.03644       0.00080       0.00036
                        -----------------------------------------
Magnitude (a.u.)       :      0.03645
Magnitude (Debye)      :      0.09265

Rotational constants in cm-1:     0.419751     0.185753     0.151088
Rotational constants in MHz : 12583.819928  5568.732483  4529.512437

                             ****ORCA TERMINATED NORMALLY****
TOTAL RUN TIME: 0 days 0 hours 0 minutes 11 seconds 473 msec
