                         Program Version 5.0.0 -  RELEASE  -
|  1> !PBE D3BJ RIJCOSX def2-SVPD def2/J TightSCF
|  2> *xyz -1 1
|  3> C          1.22302        2.46987       -3.75691
|  4> O          2.35381        1.71203       -3.93448
|  5> H          1.26998        3.33359       -4.38673
|  6> H          1.15671        2.77738       -2.73420
|  7> H          0.36099        1.88932       -4.01140
|  8> *
|  9>
| 10> %MaxCore 64000
| 11>
| 12> %pal nprocs 4
| 13> end
| 14>
| 15> %scf
| 16>   MaxIter 150
| 17> end
| 18>
| 19>
| 20>                          ****END OF INPUT****

CARTESIAN COORDINATES (ANGSTROEM)
---------------------------------
  C      1.223020    2.469870   -3.756910
  O      2.353810    1.712030   -3.934480
  H      1.269980    3.333590   -4.386730
  H      1.156710    2.777380   -2.734200
  H      0.360990    1.889320   -4.011400

 Total Charge           Charge          ....   -1
 Multiplicity           Mult            ....    1
 Number of Electrons    NEL             ....   18
 Basis Dimension        Dim             ....   67

ORBITAL ENERGIES
----------------

  NO   OCC          E(Eh)            E(eV)
   0   2.0000     -18.417615      -501.1688
   1   2.0000      -9.680932      -263.4315
   2   2.0000      -0.568895       -15.4804
   3   2.0000      -0.327731        -8.9180
   4   2.0000      -0.148493        -4.0407
   5   2.0000      -0.148492        -4.0407
   6   2.0000      -0.056020        -1.5244
   7   2.0000       0.092085         2.5057
   8   2.0000       0.092086         2.5058
   9   0.0000       0.182461         4.9650
  10   0.0000       0.251665         6.8482
  11   0.0000       0.251666         6.8482
  12   0.0000       0.258636         7.0378
  13   0.0000       0.294958         8.0262

MULLIKEN ATOMIC CHARGES
-----------------------
   0 C :    0.827450
   1 O :   -1.013445
   2 H :   -0.271387
   3 H :   -0.271299
   4 H :   -0.271319
Sum of atomic charges:   -1.0000000

LOEWDIN ATOMIC CHARGES
----------------------
   0 C :   -0.125435
   1 O :   -0.622827
   2 H :   -0.083915
   3 H :   -0.083911
   4 H :   -0.083912

  Mayer bond orders larger than 0.100000
B(  0-C ,  1-O ) :   1.1423 B(  0-C ,  2-H ) :   0.9134 B(  0-C ,  3-H ) :   0.9134
B(  0-C ,  4-H ) :   0.9134

Dispersion correction           -0.001470826
FINAL SINGLE POINT ENERGY      -114.883157167902

DIPOLE MOMENT
-------------
                                X             Y             Z
Electronic contribution:      1.58759      -1.06397      -0.24930
Nuclear contribution   :     -2.37854       1.59406       0.37350
                        -----------------------------------------
Total Dipole Moment    :     -0.79095       0.53009       0.12420
                        -----------------------------------------
Magnitude (a.u.)       :      0.96022
Magnitude (Debye)      :      2.44069

Rotational constants in cm-1:     5.477743     0.935515     0.935515
Rotational constants in MHz : 164218.600605 28046.042741 28046.034116

                             ****ORCA TERMINATED NORMALLY****
TOTAL RUN TIME: 0 days 0 hours 0 minutes 2 seconds 303 msec
