                         Program Version 5.0.0 -  RELEASE  -
|  1> !PBE D3BJ RIJCOSX def2-SVPD def2/J TightSCF
|  2> *xyz 1 1
|  3> C          1.63556       -1.67040       -5.29211
|  4> N          2.48451       -0.50741       -5.14039
|  5> C          3.45115       -0.14953       -5.95259
|  6> N          3.92267        1.08956       -5.85071
|  7> N          3.96616       -1.00618       -6.86788
|  8> H          3.52139       -1.90647       -6.99527
|  9> H          4.44482       -0.62347       -7.67035
| 10> H          2.25200        0.24080       -4.49879
| 11> H          3.46428        1.64078       -5.13639
| 12> H          4.83447        1.31375       -6.22465
| 13> H          2.06372       -2.33262       -6.01532
| 14> H          0.66479       -1.36293       -5.62068
| 15> H          1.55078       -2.17513       -4.35245
| 16> *
| 17>
| 18> %MaxCore 64000
| 19>
| 20> %pal nprocs 4
| 21> end
| 22>
| 23> %scf
| 24>   MaxIter 150
| 25> end
| 26>
| 27>
| 28>                          ****END OF INPUT****

CARTESIAN COORDINATES (ANGSTROEM)
---------------------------------
  C      1.635560   -1.670400   -5.292110
  N      2.484510   -0.507410   -5.140390
  C      3.451150   -0.149530   -5.952590
  N      3.922670    1.089560   -5.850710
  N      3.966160   -1.006180   -6.867880
  H      3.521390   -1.906470   -6.995270
  H      4.444820   -0.623470   -7.670350
  H      2.252000    0.240800   -4.498790
  H      3.464280    1.640780   -5.136390
  H      4.834470    1.313750   -6.224650
  H      2.063720   -2.332620   -6.015320
  H      0.664790   -1.362930   -5.620680
  H      1.550780   -2.175130   -4.352450

 Total Charge           Charge          ....    1
 Multiplicity           Mult            ....    1
 Number of Electrons    NEL             ....   40
 Basis Dimension        Dim             ....  164

ORBITAL ENERGIES
----------------

  NO   OCC          E(Eh)            E(eV)
   0   2.0000     -14.236732      -387.4012
   1   2.0000     -14.226868      -387.1328
   2   2.0000     -14.224065      -387.0565
   3   2.0000     -10.222516      -278.1688
   4   2.0000     -10.106680      -275.0168
   5   2.0000      -1.133142       -30.8344
   6   2.0000      -1.026668       -27.9371
   7   2.0000      -1.013380       -27.5755
   8   2.0000      -0.846335       -23.0299
   9   2.0000      -0.771184       -20.9850
  10   2.0000      -0.733960       -19.9721
  11   2.0000      -0.708799       -19.2874
  12   2.0000      -0.648266       -17.6402
  13   2.0000      -0.644123       -17.5275
  14   2.0000      -0.615554       -16.7501
  15   2.0000      -0.602660       -16.3992
  16   2.0000      -0.550285       -14.9740
  17   2.0000      -0.543773       -14.7968
  18   2.0000      -0.441502       -12.0139
  19   2.0000      -0.424052       -11.5390
  20   0.0000      -0.208560        -5.6752
  21   0.0000      -0.183892        -5.0040
  22   0.0000      -0.152722        -4.1558
  23   0.0000      -0.134605        -3.6628
  24   0.0000      -0.111030        -3.0213

MULLIKEN ATOMIC CHARGES
-----------------------
   0 C :    1.359795
   1 N :   -0.624147
   2 C :    1.254708
   3 N :    0.009556
   4 N :    0.052784
   5 H :   -0.073751
   6 H :   -0.097743
   7 H :   -0.262486
   8 H :    0.015162
   9 H :   -0.100180
  10 H :   -0.310376
  11 H :   -0.108771
  12 H :   -0.114550
Sum of atomic charges:    1.0000000

LOEWDIN ATOMIC CHARGES
----------------------
   0 C :    0.277122
   1 N :    0.025145
   2 C :   -0.056556
   3 N :    0.276653
   4 N :    0.290891
   5 H :    0.002319
   6 H :    0.035275
   7 H :    0.055856
   8 H :    0.031715
   9 H :    0.043103
  10 H :   -0.015587
  11 H :    0.016799
  12 H :    0.017265

  Mayer bond orders larger than 0.100000
B(  0-C ,  1-N ) :   0.9745 B(  0-C ,  7-H ) :  -0.1889 B(  0-C , 10-H ) :   0.7952
B(  0-C , 11-H ) :   0.7356 B(  0-C , 12-H ) :   0.7027 B(  1-N ,  2-C ) :   0.9724
B(  1-N ,  3-N ) :   0.3157 B(  1-N ,  4-N ) :   0.2001 B(  1-N ,  7-H ) :   1.3533
B(  1-N , 10-H ) :   0.2413 B(  1-N , 11-H ) :   0.1907 B(  1-N , 12-H ) :   0.2269
B(  2-C ,  3-N ) :   0.9217 B(  2-C ,  4-N ) :   1.0027 B(  2-C ,  5-H ) :  -0.1035
B(  2-C ,  6-H ) :  -0.1403 B(  2-C ,  7-H ) :  -0.2623 B(  2-C ,  9-H ) :  -0.1182
B(  3-N ,  4-N ) :   0.1908 B(  3-N ,  8-H ) :   1.0619 B(  3-N ,  9-H ) :   1.2170
B(  4-N ,  5-H ) :   1.0353 B(  4-N ,  6-H ) :   1.2058 B(  5-H ,  6-H ) :  -0.1602
B(  5-H , 10-H ) :   0.1119 B(  8-H ,  9-H ) :  -0.1480

Dispersion correction           -0.009128602
FINAL SINGLE POINT ENERGY      -244.622459517412

DIPOLE MOMENT
-------------
                                X             Y             Z
Electronic contribution:      1.95651       1.90466      -0.25557
Nuclear contribution   :     -1.83770      -1.53167       0.12165
                        -----------------------------------------
Total Dipole Moment    :      0.11881       0.37299      -0.13392
                        -----------------------------------------
Magnitude (a.u.)       :      0.41373
Magnitude (Debye)      :      1.05162

Rotational constants in cm-1:     0.307545     0.135665     0.096412
Rotational constants in MHz :  9219.967860  4067.145400  2890.348280

                             ****ORCA TERMINATED NORMALLY****
TOTAL RUN TIME: 0 days 0 hours 0 minutes 6 seconds 387 msec
