                         Program Version 5.0.0 -  RELEASE  -
|  1> !PBE D3BJ RIJCOSX def2-SVPD def2/J TightSCF
|  2> *xyz 0 1
|  3> C          1.22302        2.46987       -3.75691
|  4> F          2.35381        1.71203       -3.93448
|  5> H          1.26998        3.33359       -4.38673
|  6> H          1.15671        2.77738       -2.73420
|  7> H          0.36099        1.88932       -4.01140
|  8> *
|  9>
| 10> %MaxCore 64000
| 11>
| 12> %pal nprocs 4
| 13> end
| 14>
| 15> %scf
| 16>   MaxIter 150
| 17> end
| 18>
| 19>
| 20>                          ****END OF INPUT****

CARTESIAN COORDINATES (ANGSTROEM)
---------------------------------
  C      1.223020    2.469870   -3.756910
  F      2.353810    1.712030   -3.934480
  H      1.269980    3.333590   -4.386730
  H      1.156710    2.777380   -2.734200
  H      0.360990    1.889320   -4.011400

 Total Charge           Charge          ....    0
 Multiplicity           Mult            ....    1
 Number of Electrons    NEL             ....   18
 Basis Dimension        Dim             ....   67

ORBITAL ENERGIES
----------------

  NO   OCC          E(Eh)            E(eV)
   0   2.0000     -24.260515      -660.1622
   1   2.0000      -9.963877      -271.1309
   2   2.0000      -1.083059       -29.4715
   3   2.0000      -0.634441       -17.2640
   4   2.0000      -0.447877       -12.1874
   5   2.0000      -0.434138       -11.8135
   6   2.0000      -0.434138       -11.8135
   7   2.0000      -0.298199        -8.1144
   8   2.0000      -0.298198        -8.1144
   9   0.0000       0.009251         0.2517
  10   0.0000       0.033348         0.9074
  11   0.0000       0.082303         2.2396
  12   0.0000       0.082303         2.2396
  13   0.0000       0.128261         3.4901

MULLIKEN ATOMIC CHARGES
-----------------------
   0 C :    0.900888
   1 F :   -0.457139
   2 H :   -0.147965
   3 H :   -0.147881
   4 H :   -0.147904
Sum of atomic charges:   -0.0000000

LOEWDIN ATOMIC CHARGES
----------------------
   0 C :    0.255374
   1 F :   -0.232148
   2 H :   -0.007745
   3 H :   -0.007741
   4 H :   -0.007741

  Mayer bond orders larger than 0.100000
B(  0-C ,  1-F ) :   0.8876 B(  0-C ,  2-H ) :   0.9345 B(  0-C ,  3-H ) :   0.9345
B(  0-C ,  4-H ) :   0.9345

Dispersion correction           -0.001294372
FINAL SINGLE POINT ENERGY      -139.489772065725

DIPOLE MOMENT
-------------
                                X             Y             Z
Electronic contribution:      2.44844      -1.64091      -0.38447
Nuclear contribution   :     -3.01708       2.02200       0.47377
                        -----------------------------------------
Total Dipole Moment    :     -0.56864       0.38109       0.08930
                        -----------------------------------------
Magnitude (a.u.)       :      0.69033
Magnitude (Debye)      :      1.75467

Rotational constants in cm-1:     5.477743     0.870792     0.870792
Rotational constants in MHz : 164218.600605 26105.683059 26105.675587

                             ****ORCA TERMINATED NORMALLY****
TOTAL RUN TIME: 0 days 0 hours 0 minutes 2 seconds 163 msec
