                         Program Version 5.0.0 -  RELEASE  -
|  1> !PBE D3BJ RIJCOSX def2-SVPD def2/J TightSCF
|  2> *xyz 0 1
|  3> C          1.63556       -1.67040       -5.29211
|  4> C          2.48451       -0.50741       -5.14039
|  5> C          3.45115       -0.14953       -5.95259
|  6> N          3.92267        1.08956       -5.85071
|  7> N          3.96616       -1.00618       -6.86788
|  8> H          3.52139       -1.90647       -6.99527
|  9> H          4.44482       -0.62347       -7.67035
| 10> H          2.25200        0.24080       -4.49879
| 11> H          3.46428        1.64078       -5.13639
| 12> H          4.83447        1.31375       -6.22465
| 13> H          2.06372       -2.33262       -6.01532
| 14> H          0.66479       -1.36293       -5.62068
| 15> H          1.55078       -2.17513       -4.35245
| 16> *
| 17>
| 18> %MaxCore 64000
| 19>
| 20> %pal nprocs 4
| 21> end
| 22>
| 23> %scf
| 24>   MaxIter 150
| 25> end
| 26>
| 27>
| 28>                          ****END OF INPUT****

CARTESIAN COORDINATES (ANGSTROEM)
---------------------------------
  C      1.635560   -1.670400   -5.292110
  C      2.484510   -0.507410   -5.140390
  C      3.451150   -0.149530   -5.952590
  N      3.922670    1.089560   -5.850710
  N      3.966160   -1.006180   -6.867880
  H      3.521390   -1.906470   -6.995270
  H      4.444820   -0.623470   -7.670350
  H      2.252000    0.240800   -4.498790
  H      3.464280    1.640780   -5.136390
  H      4.834470    1.313750   -6.224650
  H      2.063720   -2.332620   -6.015320
  H      0.664790   -1.362930   -5.620680
  H      1.550780   -2.175130   -4.352450

 Total Charge           Charge          ....    0
 Multiplicity           Mult            ....    1
 Number of Electrons    NEL             ....   40
 Basis Dimension        Dim             ....  164

ORBITAL ENERGIES
----------------

  NO   OCC          E(Eh)            E(eV)
   0   2.0000     -13.998128      -380.9084
   1   2.0000     -13.995679      -380.8418
   2   2.0000      -9.927127      -270.1309
   3   2.0000      -9.865221      -268.4463
   4   2.0000      -9.822612      -267.2869
   5   2.0000      -0.866929       -23.5903
   6   2.0000      -0.785072       -21.3629
   7   2.0000      -0.678816       -18.4715
   8   2.0000      -0.589651       -16.0452
   9   2.0000      -0.527254       -14.3473
  10   2.0000      -0.487005       -13.2521
  11   2.0000      -0.456920       -12.4334
  12   2.0000      -0.420695       -11.4477
  13   2.0000      -0.378286       -10.2937
  14   2.0000      -0.362148        -9.8546
  15   2.0000      -0.335949        -9.1416
  16   2.0000      -0.315723        -8.5912
  17   2.0000      -0.303805        -8.2670
  18   2.0000      -0.220375        -5.9967
  19   2.0000      -0.131265        -3.5719
  20   0.0000      -0.002811        -0.0765
  21   0.0000       0.022979         0.6253
  22   0.0000       0.035033         0.9533
  23   0.0000       0.048215         1.3120
  24   0.0000       0.065323         1.7775

MULLIKEN ATOMIC CHARGES
-----------------------
   0 C :    0.993818
   1 C :   -0.687307
   2 C :    0.686639
   3 N :    0.045436
   4 N :    0.048734
   5 H :   -0.067509
   6 H :   -0.187232
   7 H :   -0.283958
   8 H :    0.033485
   9 H :   -0.203425
  10 H :   -0.376672
  11 H :   -0.038444
  12 H :    0.036435
Sum of atomic charges:    0.0000000

LOEWDIN ATOMIC CHARGES
----------------------
   0 C :    0.109986
   1 C :   -0.067469
   2 C :   -0.242119
   3 N :    0.185388
   4 N :    0.208095
   5 H :   -0.030605
   6 H :   -0.017951
   7 H :   -0.050062
   8 H :   -0.003087
   9 H :   -0.012857
  10 H :   -0.045122
  11 H :   -0.016561
  12 H :   -0.017636

  Mayer bond orders larger than 0.100000
B(  0-C ,  1-C ) :   1.1804 B(  0-C ,  7-H ) :   0.1811 B(  0-C , 10-H ) :   0.7853
B(  0-C , 11-H ) :   0.7652 B(  0-C , 12-H ) :   0.5511 B(  1-C ,  2-C ) :   1.6146
B(  1-C ,  3-N ) :   0.3675 B(  1-C ,  4-N ) :   0.1829 B(  1-C ,  7-H ) :   0.9128
B(  1-C , 10-H ) :   0.3923 B(  1-C , 11-H ) :   0.1234 B(  1-C , 12-H ) :   0.3123
B(  2-C ,  3-N ) :   0.9566 B(  2-C ,  4-N ) :   1.0712 B(  2-C ,  7-H ) :   0.2931
B(  3-N ,  4-N ) :   0.1475 B(  3-N ,  8-H ) :   1.0474 B(  3-N ,  9-H ) :   1.2150
B(  4-N ,  5-H ) :   1.0208 B(  4-N ,  6-H ) :   1.1867 B(  5-H ,  6-H ) :  -0.1329
B(  8-H ,  9-H ) :  -0.1458 B( 10-H , 12-H ) :   0.2217

Dispersion correction           -0.009515015
FINAL SINGLE POINT ENERGY      -228.163949937763

DIPOLE MOMENT
-------------
                                X             Y             Z
Electronic contribution:      2.40248       1.86335      -0.76393
Nuclear contribution   :     -1.96139      -1.54412       0.26148
                        -----------------------------------------
Total Dipole Moment    :      0.44109       0.31923      -0.50245
                        -----------------------------------------
Magnitude (a.u.)       :      0.74090
Magnitude (Debye)      :      1.88321

Rotational constants in cm-1:     0.312277     0.136708     0.097371
Rotational constants in MHz :  9361.815989  4098.393303  2919.105491

                             ****ORCA TERMINATED NORMALLY****
TOTAL RUN TIME: 0 days 0 hours 0 minutes 5 seconds 996 msec
