                         Program Version 5.0.0 -  RELEASE  -
|  1> !PBE D3BJ RIJCOSX def2-SVPD def2/J TightSCF
|  2> *xyz 0 1
|  3> C          1.63556       -1.67040       -5.29211
|  4> N          2.48451       -0.50741       -5.14039
|  5> C          3.45115       -0.14953       -5.95259
|  6> C          3.92267        1.08956       -5.85071
|  7> N          3.96616       -1.00618       -6.86788
|  8> H          3.52139       -1.90647       -6.99527
|  9> H          4.44482       -0.62347       -7.67035
| 10> H          2.25200        0.24080       -4.49879
| 11> H          3.46428        1.64078       -5.13639
| 12> H          4.83447        1.31375       -6.22465
| 13> H          2.06372       -2.33262       -6.01532
| 14> H          0.66479       -1.36293       -5.62068
| 15> H          1.55078       -2.17513       -4.35245
| 16> *
| 17>
| 18> %MaxCore 64000
| 19>
| 20> %pal nprocs 4
| 21> end
| 22>
| 23> %scf
| 24>   MaxIter 150
| 25> end
| 26>
| 27>
| 28>                          ****END OF INPUT****

CARTESIAN COORDINATES (ANGSTROEM)
---------------------------------
  C      1.635560   -1.670400   -5.292110
  N      2.484510   -0.507410   -5.140390
  C      3.451150   -0.149530   -5.952590
  C      3.922670    1.089560   -5.850710
  N      3.966160   -1.006180   -6.867880
  H      3.521390   -1.906470   -6.995270
  H      4.444820   -0.623470   -7.670350
  H      2.252000    0.240800   -4.498790
  H      3.464280    1.640780   -5.136390
  H      4.834470    1.313750   -6.224650
  H      2.063720   -2.332620   -6.015320
  H      0.664790   -1.362930   -5.620680
  H      1.550780   -2.175130   -4.352450

 Total Charge           Charge          ....    0
 Multiplicity           Mult            ....    1
 Number of Electrons    NEL             ....   40
 Basis Dimension        Dim             ....  164

ORBITAL ENERGIES
----------------

  NO   OCC          E(Eh)            E(eV)
   0   2.0000     -14.004958      -381.0943
   1   2.0000     -14.000378      -380.9697
   2   2.0000      -9.933071      -270.2926
   3   2.0000      -9.930158      -270.2133
   4   2.0000      -9.807335      -266.8712
   5   2.0000      -0.881399       -23.9841
   6   2.0000      -0.798218       -21.7206
   7   2.0000      -0.677460       -18.4346
   8   2.0000      -0.595737       -16.2108
   9   2.0000      -0.543060       -14.7774
  10   2.0000      -0.486288       -13.2326
  11   2.0000      -0.444350       -12.0914
  12   2.0000      -0.430144       -11.7048
  13   2.0000      -0.407120       -11.0783
  14   2.0000      -0.366231        -9.9656
  15   2.0000      -0.345370        -9.3980
  16   2.0000      -0.335534        -9.1304
  17   2.0000      -0.317099        -8.6287
  18   2.0000      -0.215633        -5.8677
  19   2.0000      -0.131906        -3.5894
  20   0.0000      -0.007540        -0.2052
  21   0.0000       0.022474         0.6116
  22   0.0000       0.028097         0.7646
  23   0.0000       0.046503         1.2654
  24   0.0000       0.067408         1.8343

MULLIKEN ATOMIC CHARGES
-----------------------
   0 C :    1.360130
   1 N :   -0.552351
   2 C :    0.545917
   3 C :    0.484596
   4 N :    0.111237
   5 H :   -0.202823
   6 H :   -0.100845
   7 H :   -0.281068
   8 H :   -0.216875
   9 H :   -0.460686
  10 H :   -0.352613
  11 H :   -0.160883
  12 H :   -0.173735
Sum of atomic charges:    0.0000000

LOEWDIN ATOMIC CHARGES
----------------------
   0 C :    0.221443
   1 N :   -0.037552
   2 C :   -0.249522
   3 C :    0.139366
   4 N :    0.210795
   5 H :   -0.044116
   6 H :    0.001721
   7 H :    0.028675
   8 H :   -0.105402
   9 H :   -0.099624
  10 H :   -0.035479
  11 H :   -0.016166
  12 H :   -0.014138

  Mayer bond orders larger than 0.100000
B(  0-C ,  1-N ) :   0.9458 B(  0-C ,  7-H ) :  -0.1883 B(  0-C , 10-H ) :   0.7925
B(  0-C , 11-H ) :   0.7473 B(  0-C , 12-H ) :   0.7023 B(  1-N ,  2-C ) :   1.0383
B(  1-N ,  3-C ) :   0.3021 B(  1-N ,  4-N ) :   0.1229 B(  1-N ,  7-H ) :   1.3025
B(  1-N , 10-H ) :   0.2664 B(  1-N , 11-H ) :   0.1793 B(  1-N , 12-H ) :   0.2462
B(  2-C ,  3-C ) :   1.5712 B(  2-C ,  4-N ) :   0.9963 B(  2-C ,  6-H ) :  -0.1079
B(  2-C ,  7-H ) :  -0.2024 B(  2-C ,  8-H ) :   0.2450 B(  2-C ,  9-H ) :   0.2467
B(  3-C ,  4-N ) :   0.2518 B(  3-C ,  8-H ) :   0.7904 B(  3-C ,  9-H ) :   0.6977
B(  4-N ,  5-H ) :   1.0475 B(  4-N ,  6-H ) :   1.1725 B(  5-H ,  6-H ) :  -0.1529
B(  5-H , 10-H ) :   0.1147

Dispersion correction           -0.009457698
FINAL SINGLE POINT ENERGY      -228.149009716200

DIPOLE MOMENT
-------------
                                X             Y             Z
Electronic contribution:      1.02318       0.30314      -0.21346
Nuclear contribution   :     -1.67010      -1.22066       0.11760
                        -----------------------------------------
Total Dipole Moment    :     -0.64692      -0.91753      -0.09586
                        -----------------------------------------
Magnitude (a.u.)       :      1.12674
Magnitude (Debye)      :      2.86394

Rotational constants in cm-1:     0.314526     0.141398     0.099973
Rotational constants in MHz :  9429.255015  4239.015262  2997.111162

                             ****ORCA TERMINATED NORMALLY****
TOTAL RUN TIME: 0 days 0 hours 0 minutes 6 seconds 317 msec
