                         Program Version 5.0.0 -  RELEASE  -
|  1> !PBE D3BJ RIJCOSX def2-SVPD def2/J TightSCF
|  2> *xyz 0 1
|  3> C          1.63556       -1.67040       -5.29211
|  4> N          2.48451       -0.50741       -5.14039
|  5> C          3.45115       -0.14953       -5.95259
|  6> N          3.92267        1.08956       -5.85071
|  7> C          3.96616       -1.00618       -6.86788
|  8> H          3.52139       -1.90647       -6.99527
|  9> H          4.44482       -0.62347       -7.67035
| 10> H          2.25200        0.24080       -4.49879
| 11> H          3.46428        1.64078       -5.13639
| 12> H          4.83447        1.31375       -6.22465
| 13> H          2.06372       -2.33262       -6.01532
| 14> H          0.66479       -1.36293       -5.62068
| 15> H          1.55078       -2.17513       -4.35245
| 16> *
| 17>
| 18> %MaxCore 64000
| 19>
| 20> %pal nprocs 4
| 21> end
| 22>
| 23> %scf
| 24>   MaxIter 150
| 25> end
| 26>
| 27>
| 28>                          ****END OF INPUT****

CARTESIAN COORDINATES (ANGSTROEM)
---------------------------------
  C      1.635560   -1.670400   -5.292110
  N      2.484510   -0.507410   -5.140390
  C      3.451150   -0.149530   -5.952590
  N      3.922670    1.089560   -5.850710
  C      3.966160   -1.006180   -6.867880
  H      3.521390   -1.906470   -6.995270
  H      4.444820   -0.623470   -7.670350
  H      2.252000    0.240800   -4.498790
  H      3.464280    1.640780   -5.136390
  H      4.834470    1.313750   -6.224650
  H      2.063720   -2.332620   -6.015320
  H      0.664790   -1.362930   -5.620680
  H      1.550780   -2.175130   -4.352450

 Total Charge           Charge          ....    0
 Multiplicity           Mult            ....    1
 Number of Electrons    NEL             ....   40
 Basis Dimension        Dim             ....  164

ORBITAL ENERGIES
----------------

  NO   OCC          E(Eh)            E(eV)
   0   2.0000     -14.009743      -381.2245
   1   2.0000     -14.003130      -381.0445
   2   2.0000      -9.934913      -270.3427
   3   2.0000      -9.921737      -269.9842
   4   2.0000      -9.808078      -266.8914
   5   2.0000      -0.889142       -24.1948
   6   2.0000      -0.802738       -21.8436
   7   2.0000      -0.648229       -17.6392
   8   2.0000      -0.629125       -17.1194
   9   2.0000      -0.510194       -13.8831
  10   2.0000      -0.493834       -13.4379
  11   2.0000      -0.477527       -12.9942
  12   2.0000      -0.414927       -11.2907
  13   2.0000      -0.402751       -10.9594
  14   2.0000      -0.370343       -10.0776
  15   2.0000      -0.339134        -9.2283
  16   2.0000      -0.326312        -8.8794
  17   2.0000      -0.316036        -8.5998
  18   2.0000      -0.213675        -5.8144
  19   2.0000      -0.133469        -3.6319
  20   0.0000      -0.010040        -0.2732
  21   0.0000       0.020880         0.5682
  22   0.0000       0.032152         0.8749
  23   0.0000       0.043068         1.1719
  24   0.0000       0.069327         1.8865

MULLIKEN ATOMIC CHARGES
-----------------------
   0 C :    1.384214
   1 N :   -0.497904
   2 C :    0.527136
   3 N :    0.094063
   4 C :    0.405361
   5 H :   -0.313264
   6 H :   -0.317512
   7 H :   -0.395182
   8 H :   -0.142855
   9 H :   -0.097856
  10 H :   -0.339225
  11 H :   -0.158433
  12 H :   -0.148543
Sum of atomic charges:    0.0000000

LOEWDIN ATOMIC CHARGES
----------------------
   0 C :    0.230954
   1 N :   -0.040886
   2 C :   -0.256435
   3 N :    0.198444
   4 C :    0.158285
   5 H :   -0.132784
   6 H :   -0.106573
   7 H :    0.014182
   8 H :   -0.017986
   9 H :    0.009176
  10 H :   -0.031037
  11 H :   -0.012701
  12 H :   -0.012638

  Mayer bond orders larger than 0.100000
B(  0-C ,  1-N ) :   0.9415 B(  0-C ,  7-H ) :  -0.1700 B(  0-C , 10-H ) :   0.7826
B(  0-C , 11-H ) :   0.7157 B(  0-C , 12-H ) :   0.6751 B(  1-N ,  2-C ) :   1.0322
B(  1-N ,  3-N ) :   0.2082 B(  1-N ,  4-C ) :   0.3210 B(  1-N ,  7-H ) :   1.3358
B(  1-N , 10-H ) :   0.2316 B(  1-N , 11-H ) :   0.2097 B(  1-N , 12-H ) :   0.2460
B(  2-C ,  3-N ) :   0.9220 B(  2-C ,  4-C ) :   1.7516 B(  2-C ,  5-H ) :   0.2439
B(  2-C ,  6-H ) :   0.2406 B(  2-C ,  7-H ) :  -0.2320 B(  3-N ,  4-C ) :   0.2981
B(  3-N ,  8-H ) :   1.0987 B(  3-N ,  9-H ) :   1.1926 B(  4-C ,  5-H ) :   0.6651
B(  4-C ,  6-H ) :   0.7578 B(  5-H ,  6-H ) :   0.2726 B(  5-H , 10-H ) :   0.1578
B(  8-H ,  9-H ) :  -0.1374

Dispersion correction           -0.009497163
FINAL SINGLE POINT ENERGY      -228.148448117754

DIPOLE MOMENT
-------------
                                X             Y             Z
Electronic contribution:      1.06188       2.33198       0.85049
Nuclear contribution   :     -1.66129      -1.64514      -0.08842
                        -----------------------------------------
Total Dipole Moment    :     -0.59941       0.68684       0.76208
                        -----------------------------------------
Magnitude (a.u.)       :      1.18819
Magnitude (Debye)      :      3.02014

Rotational constants in cm-1:     0.330436     0.136339     0.098902
Rotational constants in MHz :  9906.231858  4087.333233  2964.994979

                             ****ORCA TERMINATED NORMALLY****
TOTAL RUN TIME: 0 days 0 hours 0 minutes 6 seconds 398 msec
