                         Program Version 5.0.0 -  RELEASE  -
|  1> !wB97X-D3 RIJCOSX def2-SVP def2/J TightSCF
|  2> *xyz -1 1
|  3> C          4.90646       -3.10282       -5.95484
|  4> C          3.51177       -2.80621       -6.49228
|  5> H          2.73604       -3.37345       -5.97374
|  6> H          3.44490       -3.04083       -7.55528
|  7> S          3.00462       -1.09621       -6.38926
|  8> O          4.12886       -0.32965       -6.95372
|  9> O          1.78128       -1.00078       -7.13640
| 10> O          2.85155       -0.78368       -4.95679
| 11> H          5.62703       -2.52424       -6.49422
| 12> H          5.12164       -4.14387       -6.07654
| 13> H          4.95004       -2.84862       -4.91639
| 14> *
| 15>
| 16> %MaxCore 64000
| 17>
| 18> %pal nprocs 4
| 19> end
| 20>
| 21> %scf
| 22>   MaxIter 150
| 23> end
| 24>
| 25>
| 26>                          ****END OF INPUT****

CARTESIAN COORDINATES (ANGSTROEM)
---------------------------------
  C      4.906460   -3.102820   -5.954840
  C      3.511770   -2.806210   -6.492280
  H      2.736040   -3.373450   -5.973740
  H      3.444900   -3.040830   -7.555280
  S      3.004620   -1.096210   -6.389260
  O      4.128860   -0.329650   -6.953720
  O      1.781280   -1.000780   -7.136400
  O      2.851550   -0.783680   -4.956790
  H      5.627030   -2.524240   -6.494220
  H      5.121640   -4.143870   -6.076540
  H      4.950040   -2.848620   -4.916390

 Total Charge           Charge          ....   -1
 Multiplicity           Mult            ....    1
 Number of Electrons    NEL             ....   58
 Basis Dimension        Dim             ....  113

ORBITAL ENERGIES
----------------

  NO   OCC          E(Eh)            E(eV)
   0   2.0000     -88.936911     -2420.0964
   1   2.0000     -18.992628      -516.8157
   2   2.0000     -18.979558      -516.4600
   3   2.0000     -18.978317      -516.4263
   4   2.0000     -10.141421      -275.9621
   5   2.0000     -10.139147      -275.9002
   6   2.0000      -8.017646      -218.1712
   7   2.0000      -5.976558      -162.6304
   8   2.0000      -5.976519      -162.6294
   9   2.0000      -5.976402      -162.6262
  10   2.0000      -1.017791       -27.6955
  11   2.0000      -0.872375       -23.7385
  12   2.0000      -0.850332       -23.1387
  13   2.0000      -0.737788       -20.0762
  14   2.0000      -0.609081       -16.5739
  15   2.0000      -0.469139       -12.7659
  16   2.0000      -0.414177       -11.2703
  17   2.0000      -0.400002       -10.8846
  18   2.0000      -0.363459        -9.8902
  19   2.0000      -0.342602        -9.3227
  20   2.0000      -0.337311        -9.1787
  21   2.0000      -0.314745        -8.5646
  22   2.0000      -0.298913        -8.1338
  23   2.0000      -0.218625        -5.9491
  24   2.0000      -0.217394        -5.9156
  25   2.0000      -0.182090        -4.9549
  26   2.0000      -0.173273        -4.7150
  27   2.0000      -0.167431        -4.5560
  28   2.0000      -0.127756        -3.4764
  29   0.0000       0.287662         7.8277
  30   0.0000       0.339186         9.2297
  31   0.0000       0.344687         9.3794
  32   0.0000       0.352999         9.6056
  33   0.0000       0.381602        10.3839

MULLIKEN ATOMIC CHARGES
-----------------------
   0 C :   -0.003434
   1 C :   -0.133452
   2 H :    0.016928
   3 H :    0.016778
   4 S :    0.878888
   5 O :   -0.615221
   6 O :   -0.573623
   7 O :   -0.616787
   8 H :    0.025661
   9 H :   -0.017602
  10 H :    0.021864
Sum of atomic charges:   -1.0000000

LOEWDIN ATOMIC CHARGES
----------------------
   0 C :   -0.074032
   1 C :   -0.188859
   2 H :    0.009623
   3 H :    0.009757
   4 S :    1.106453
   5 O :   -0.647518
   6 O :   -0.607591
   7 O :   -0.651154
   8 H :    0.020187
   9 H :    0.003665
  10 H :    0.019469

  Mayer bond orders larger than 0.100000
B(  0-C ,  1-C ) :   1.0474 B(  0-C ,  8-H ) :   0.9687 B(  0-C ,  9-H ) :   0.9681
B(  0-C , 10-H ) :   0.9709 B(  1-C ,  2-H ) :   0.9469 B(  1-C ,  3-H ) :   0.9467
B(  1-C ,  4-S ) :   0.8999 B(  4-S ,  5-O ) :   1.5927 B(  4-S ,  6-O ) :   1.6477
B(  4-S ,  7-O ) :   1.5988

Dispersion correction           -0.002914523
FINAL SINGLE POINT ENERGY      -702.638030677234

DIPOLE MOMENT
-------------
                                X             Y             Z
Electronic contribution:     -4.40381       6.45604      -0.66914
Nuclear contribution   :      5.05690      -8.21735       0.57889
                        -----------------------------------------
Total Dipole Moment    :      0.65309      -1.76131      -0.09024
                        -----------------------------------------
Magnitude (a.u.)       :      1.88066
Magnitude (Debye)      :      4.78027

Rotational constants in cm-1:     0.162547     0.083494     0.081672
Rotational constants in MHz :  4873.033504  2503.090885  2448.458543

                             ****ORCA TERMINATED NORMALLY****
TOTAL RUN TIME: 0 days 0 hours 0 minutes 17 seconds 956 msec
