                         Program Version 5.0.0 -  RELEASE  -
|  1> !wB97X-D3 RIJCOSX def2-SVP def2/J TightSCF
|  2> *xyz 1 1
|  3> C          4.49059        1.15590       -2.46929
|  4> N          4.30539        1.22276       -3.90832
|  5> C          4.63192        2.24637       -4.67096
|  6> N          4.54169        2.14399       -5.98714
|  7> N          5.08409        3.39358       -4.11855
|  8> H          4.92067        3.57050       -3.13587
|  9> H          5.25465        4.19739       -4.70696
| 10> H          3.82453        0.44911       -4.35093
| 11> H          4.34337        1.24932       -6.41665
| 12> H          4.67671        2.95662       -6.57411
| 13> C          5.94213        0.93950       -2.03689
| 14> H          3.86431        0.32853       -2.13661
| 15> H          4.07623        2.04999       -1.98901
| 16> H          6.32982        0.06401       -2.51451
| 17> H          5.98308        0.81426       -0.97504
| 18> H          6.52865        1.78889       -2.31873
| 19> *
| 20>
| 21> %MaxCore 64000
| 22>
| 23> %pal nprocs 4
| 24> end
| 25>
| 26> %scf
| 27>   MaxIter 150
| 28> end
| 29>
| 30>
| 31>                          ****END OF INPUT****

CARTESIAN COORDINATES (ANGSTROEM)
---------------------------------
  C      4.490590    1.155900   -2.469290
  N      4.305390    1.222760   -3.908320
  C      4.631920    2.246370   -4.670960
  N      4.541690    2.143990   -5.987140
  N      5.084090    3.393580   -4.118550
  H      4.920670    3.570500   -3.135870
  H      5.254650    4.197390   -4.706960
  H      3.824530    0.449110   -4.350930
  H      4.343370    1.249320   -6.416650
  H      4.676710    2.956620   -6.574110
  C      5.942130    0.939500   -2.036890
  H      3.864310    0.328530   -2.136610
  H      4.076230    2.049990   -1.989010
  H      6.329820    0.064010   -2.514510
  H      5.983080    0.814260   -0.975040
  H      6.528650    1.788890   -2.318730

 Total Charge           Charge          ....    1
 Multiplicity           Mult            ....    1
 Number of Electrons    NEL             ....   48
 Basis Dimension        Dim             ....  134

ORBITAL ENERGIES
----------------

  NO   OCC          E(Eh)            E(eV)
   0   2.0000     -14.660124      -398.9223
   1   2.0000     -14.659010      -398.8919
   2   2.0000     -14.656838      -398.8328
   3   2.0000     -10.627159      -289.1797
   4   2.0000     -10.495285      -285.5912
   5   2.0000     -10.422048      -283.5983
   6   2.0000      -1.326975       -36.1088
   7   2.0000      -1.214052       -33.0360
   8   2.0000      -1.197132       -32.5756
   9   2.0000      -1.038435       -28.2573
  10   2.0000      -0.949411       -25.8348
  11   2.0000      -0.905632       -24.6435
  12   2.0000      -0.890677       -24.2366
  13   2.0000      -0.844966       -22.9927
  14   2.0000      -0.792575       -21.5671
  15   2.0000      -0.789070       -21.4717
  16   2.0000      -0.761280       -20.7155
  17   2.0000      -0.726627       -19.7725
  18   2.0000      -0.701841       -19.0981
  19   2.0000      -0.654651       -17.8139
  20   2.0000      -0.624849       -17.0030
  21   2.0000      -0.604200       -16.4411
  22   2.0000      -0.569461       -15.4958
  23   2.0000      -0.541314       -14.7299
  24   0.0000      -0.074069        -2.0155
  25   0.0000      -0.048864        -1.3297
  26   0.0000      -0.014182        -0.3859
  27   0.0000      -0.007072        -0.1924
  28   0.0000       0.013036         0.3547

MULLIKEN ATOMIC CHARGES
-----------------------
   0 C :   -0.027973
   1 N :   -0.162092
   2 C :    0.110047
   3 N :   -0.061076
   4 N :   -0.095163
   5 H :    0.182263
   6 H :    0.179800
   7 H :    0.180778
   8 H :    0.185571
   9 H :    0.185782
  10 C :   -0.021866
  11 H :    0.085557
  12 H :    0.072242
  13 H :    0.062353
  14 H :    0.083618
  15 H :    0.040158
Sum of atomic charges:    1.0000000

LOEWDIN ATOMIC CHARGES
----------------------
   0 C :    0.034185
   1 N :    0.024026
   2 C :    0.160614
   3 N :    0.043497
   4 N :    0.029523
   5 H :    0.108056
   6 H :    0.111226
   7 H :    0.111228
   8 H :    0.114810
   9 H :    0.114424
  10 C :   -0.049819
  11 H :    0.051610
  12 H :    0.032334
  13 H :    0.038040
  14 H :    0.050129
  15 H :    0.026118

  Mayer bond orders larger than 0.100000
B(  0-C ,  1-N ) :   0.9188 B(  0-C , 10-C ) :   1.0773 B(  0-C , 11-H ) :   0.9520
B(  0-C , 12-H ) :   0.9598 B(  1-N ,  2-C ) :   1.3806 B(  1-N ,  7-H ) :   0.9126
B(  2-C ,  3-N ) :   1.4050 B(  2-C ,  4-N ) :   1.3719 B(  3-N ,  8-H ) :   0.9231
B(  3-N ,  9-H ) :   0.9243 B(  4-N ,  5-H ) :   0.9206 B(  4-N ,  6-H ) :   0.9267
B( 10-C , 13-H ) :   0.9693 B( 10-C , 14-H ) :   0.9678 B( 10-C , 15-H ) :   0.9711

Dispersion correction           -0.003828055
FINAL SINGLE POINT ENERGY      -284.120750948429

DIPOLE MOMENT
-------------
                                X             Y             Z
Electronic contribution:     -1.84306       1.62325      -4.54588
Nuclear contribution   :      1.34333      -1.11039       3.43667
                        -----------------------------------------
Total Dipole Moment    :     -0.49973       0.51285      -1.10921
                        -----------------------------------------
Magnitude (a.u.)       :      1.32027
Magnitude (Debye)      :      3.35585

Rotational constants in cm-1:     0.227161     0.075356     0.065003
Rotational constants in MHz :  6810.114531  2259.122204  1948.738523

                             ****ORCA TERMINATED NORMALLY****
TOTAL RUN TIME: 0 days 0 hours 0 minutes 24 seconds 995 msec
