                         Program Version 5.0.0 -  RELEASE  -
|  1> !wB97X-D3 RIJCOSX def2-SVP def2/J TightSCF xyzfile
|  2>
|  3> *xyzfile 0 1 B.xyz
|  4>
|  5> %MaxCore 64000
|  6>
|  7> %pal nprocs 18
|  8> end
|  9>
| 10> %scf
| 11>   MaxIter 150
| 12> end
| 13>
| 14>
| 15>                          ****END OF INPUT****

CARTESIAN COORDINATES (ANGSTROEM)
---------------------------------
  C      4.490588    1.155899   -2.469290
  N      4.305394    1.222762   -3.908317
  C      4.906458   -3.102816   -5.954844
  C      3.511771   -2.806215   -6.492283
  H      2.736044   -3.373445   -5.973736
  H      3.444904   -3.040831   -7.555281
  S      3.004618   -1.096206   -6.389259
  C      4.631918    2.246365   -4.670958
  N      4.541686    2.143990   -5.987139
  N      5.084086    3.393584   -4.118545
  H      4.920675    3.570501   -3.135870
  H      5.254652    4.197390   -4.706956
  H      3.824530    0.449113   -4.350926
  H      4.343373    1.249318   -6.416646
  H      4.676712    2.956624   -6.574113
  O      4.128856   -0.329647   -6.953717
  O      1.781285   -1.000779   -7.136399
  C      5.942129    0.939500   -2.036893
  H      3.864305    0.328532   -2.136611
  H      4.076233    2.049994   -1.989010
  C      6.462677   -3.117775   -3.944671
  C      5.024977   -3.025679   -4.437625
  H      4.423321   -3.818693   -3.977648
  H      4.579350   -2.087131   -4.108727
  H      5.201533   -4.100207   -6.296905
  H      5.605922   -2.397822   -6.413368
  C      6.559957   -0.356290   -2.559086
  H      5.967976    0.952567   -0.942444
  H      6.547184    1.788331   -2.368849
  C      6.006283   -1.615917   -1.899301
  H      7.642360   -0.318000   -2.402059
  H      6.414855   -0.403433   -3.642587
  C      6.608718   -2.917014   -2.435655
  H      6.190324   -1.561115   -0.820948
  H      4.919250   -1.651245   -2.016586
  H      7.066975   -2.374258   -4.475514
  H      6.887808   -4.089747   -4.215332
  H      6.135197   -3.755573   -1.915159
  H      7.671142   -2.955503   -2.172291
  O      2.851546   -0.783683   -4.956789

 Total Charge           Charge          ....    0
 Multiplicity           Mult            ....    1
 Number of Electrons    NEL             ....  144
 Basis Dimension        Dim             ....  357

ORBITAL ENERGIES
----------------

  NO   OCC          E(Eh)            E(eV)
   0   2.0000     -89.106534     -2424.7121
   1   2.0000     -19.165709      -521.5254
   2   2.0000     -19.165491      -521.5195
   3   2.0000     -19.148491      -521.0569
   4   2.0000     -14.511649      -394.8820
   5   2.0000     -14.476394      -393.9227
   6   2.0000     -14.475141      -393.8886
   7   2.0000     -10.461566      -284.6737
   8   2.0000     -10.354129      -281.7502
   9   2.0000     -10.308349      -280.5044
  10   2.0000     -10.291601      -280.0487
  11   2.0000     -10.284478      -279.8549
  12   2.0000     -10.279203      -279.7113
  13   2.0000     -10.273494      -279.5560
  14   2.0000     -10.271934      -279.5135
  15   2.0000     -10.269335      -279.4428
  16   2.0000     -10.261724      -279.2357
  17   2.0000      -8.187869      -222.8032
  18   2.0000      -6.147656      -167.2862
  19   2.0000      -6.146708      -167.2604
  20   2.0000      -6.145534      -167.2285
  21   2.0000      -1.193134       -32.4668
  22   2.0000      -1.161769       -31.6133
  23   2.0000      -1.052049       -28.6277
  24   2.0000      -1.044161       -28.4131
  25   2.0000      -1.038952       -28.2713
  26   2.0000      -1.031755       -28.0755
  27   2.0000      -0.934033       -25.4163
  28   2.0000      -0.907424       -24.6923
  29   2.0000      -0.880147       -23.9500
  30   2.0000      -0.842205       -22.9176
  31   2.0000      -0.805768       -21.9261
  32   2.0000      -0.779961       -21.2238
  33   2.0000      -0.751712       -20.4551
  34   2.0000      -0.730985       -19.8911
  35   2.0000      -0.719225       -19.5711
  36   2.0000      -0.696867       -18.9627
  37   2.0000      -0.677911       -18.4469
  38   2.0000      -0.652257       -17.7488
  39   2.0000      -0.643065       -17.4987
  40   2.0000      -0.638099       -17.3636
  41   2.0000      -0.614619       -16.7246
  42   2.0000      -0.601405       -16.3651
  43   2.0000      -0.585049       -15.9200
  44   2.0000      -0.579506       -15.7692
  45   2.0000      -0.565407       -15.3855
  46   2.0000      -0.556889       -15.1537
  47   2.0000      -0.548676       -14.9302
  48   2.0000      -0.531336       -14.4584
  49   2.0000      -0.527755       -14.3610
  50   2.0000      -0.519504       -14.1364
  51   2.0000      -0.512293       -13.9402
  52   2.0000      -0.499533       -13.5930
  53   2.0000      -0.491947       -13.3866
  54   2.0000      -0.481976       -13.1152
  55   2.0000      -0.473969       -12.8974
  56   2.0000      -0.458467       -12.4755
  57   2.0000      -0.450485       -12.2583
  58   2.0000      -0.440100       -11.9757
  59   2.0000      -0.425872       -11.5886
  60   2.0000      -0.417042       -11.3483
  61   2.0000      -0.412991       -11.2380
  62   2.0000      -0.404602       -11.0098
  63   2.0000      -0.400538       -10.8992
  64   2.0000      -0.398769       -10.8511
  65   2.0000      -0.393270       -10.7014
  66   2.0000      -0.387157       -10.5351
  67   2.0000      -0.374643       -10.1946
  68   2.0000      -0.351784        -9.5725
  69   2.0000      -0.344266        -9.3679
  70   2.0000      -0.333952        -9.0873
  71   2.0000      -0.307653        -8.3717
  72   0.0000       0.085233         2.3193
  73   0.0000       0.089018         2.4223
  74   0.0000       0.122123         3.3231
  75   0.0000       0.143487         3.9045
  76   0.0000       0.152183         4.1411

MULLIKEN ATOMIC CHARGES
-----------------------
   0 C :    0.062387
   1 N :   -0.161399
   2 C :   -0.027929
   3 C :   -0.076926
   4 H :    0.053873
   5 H :    0.060759
   6 S :    0.923146
   7 C :    0.074415
   8 N :   -0.047258
   9 N :   -0.114880
  10 H :    0.156320
  11 H :    0.151229
  12 H :    0.170084
  13 H :    0.153635
  14 H :    0.142974
  15 O :   -0.590863
  16 O :   -0.509929
  17 C :   -0.018315
  18 H :    0.066301
  19 H :    0.030807
  20 C :   -0.042147
  21 C :   -0.062122
  22 H :    0.010311
  23 H :    0.011679
  24 H :    0.020265
  25 H :    0.029961
  26 C :   -0.050067
  27 H :    0.030036
  28 H :    0.013178
  29 C :   -0.070697
  30 H :    0.024592
  31 H :    0.034580
  32 C :    0.018736
  33 H :    0.013980
  34 H :    0.032069
  35 H :    0.015049
  36 H :    0.015526
  37 H :    0.018794
  38 H :    0.014105
  39 O :   -0.576257
Sum of atomic charges:   -0.0000000

LOEWDIN ATOMIC CHARGES
----------------------
   0 C :    0.038262
   1 N :    0.027691
   2 C :   -0.050722
   3 C :   -0.162169
   4 H :    0.028686
   5 H :    0.032128
   6 S :    1.139445
   7 C :    0.146520
   8 N :    0.038956
   9 N :   -0.004058
  10 H :    0.091414
  11 H :    0.093143
  12 H :    0.045459
  13 H :    0.046263
  14 H :    0.090217
  15 O :   -0.577658
  16 O :   -0.552895
  17 C :   -0.048189
  18 H :    0.044050
  19 H :    0.016468
  20 C :   -0.041754
  21 C :   -0.047133
  22 H :    0.020155
  23 H :    0.010373
  24 H :    0.022941
  25 H :    0.023437
  26 C :   -0.040836
  27 H :    0.029222
  28 H :    0.017796
  29 C :   -0.043167
  30 H :    0.026014
  31 H :    0.023151
  32 C :   -0.035903
  33 H :    0.021266
  34 H :    0.020245
  35 H :    0.016941
  36 H :    0.021421
  37 H :    0.023620
  38 H :    0.020198
  39 O :   -0.570995

  Mayer bond orders larger than 0.100000
B(  0-C ,  1-N ) :   0.9687 B(  0-C , 17-C ) :   1.0552 B(  0-C , 18-H ) :   0.9471
B(  0-C , 19-H ) :   0.9580 B(  1-N ,  7-C ) :   1.4165 B(  1-N , 12-H ) :   0.8063
B(  2-C ,  3-C ) :   1.0313 B(  2-C , 21-C ) :   1.0646 B(  2-C , 24-H ) :   0.9447
B(  2-C , 25-H ) :   0.9444 B(  3-C ,  4-H ) :   0.9382 B(  3-C ,  5-H ) :   0.9393
B(  3-C ,  6-S ) :   0.9108 B(  6-S , 15-O ) :   1.4467 B(  6-S , 16-O ) :   1.7318
B(  6-S , 39-O ) :   1.4404 B(  7-C ,  8-N ) :   1.4593 B(  7-C ,  9-N ) :   1.2876
B(  8-N , 13-H ) :   0.8288 B(  8-N , 14-H ) :   0.9342 B(  9-N , 10-H ) :   0.9309
B(  9-N , 11-H ) :   0.9376 B( 12-H , 39-O ) :   0.2023 B( 13-H , 15-O ) :   0.1999
B( 17-C , 26-C ) :   1.0751 B( 17-C , 27-H ) :   0.9442 B( 17-C , 28-H ) :   0.9443
B( 20-C , 21-C ) :   1.0586 B( 20-C , 32-C ) :   1.0764 B( 20-C , 35-H ) :   0.9478
B( 20-C , 36-H ) :   0.9447 B( 21-C , 22-H ) :   0.9458 B( 21-C , 23-H ) :   0.9312
B( 26-C , 29-C ) :   1.0512 B( 26-C , 30-H ) :   0.9489 B( 26-C , 31-H ) :   0.9439
B( 29-C , 32-C ) :   1.0810 B( 29-C , 33-H ) :   0.9451 B( 29-C , 34-H ) :   0.9480
B( 32-C , 37-H ) :   0.9461 B( 32-C , 38-H ) :   0.9485

Dispersion correction           -0.021985719
FINAL SINGLE POINT ENERGY     -1182.140956236763

DIPOLE MOMENT
-------------
                                X             Y             Z
Electronic contribution:    -14.59645       8.55103     -15.39526
Nuclear contribution   :     16.79156      -5.47215      17.54258
                        -----------------------------------------
Total Dipole Moment    :      2.19512       3.07888       2.14732
                        -----------------------------------------
Magnitude (a.u.)       :      4.34845
Magnitude (Debye)      :     11.05289

Rotational constants in cm-1:     0.014207     0.012373     0.007472
Rotational constants in MHz :   425.900436   370.942493   224.006604

                             ****ORCA TERMINATED NORMALLY****
TOTAL RUN TIME: 0 days 0 hours 0 minutes 54 seconds 617 msec
