                         Program Version 5.0.0 -  RELEASE  -
|  1> !wB97X-D3 RIJCOSX def2-SVP def2/J TightSCF
|  2> *xyz 0 1
|  3> C          4.90646       -3.10282       -5.95484
|  4> C          3.51177       -2.80621       -6.49228
|  5> H          2.73604       -3.37345       -5.97374
|  6> H          3.44490       -3.04083       -7.55528
|  7> S          3.00462       -1.09621       -6.38926
|  8> F          4.12886       -0.32965       -6.95372
|  9> O          1.78128       -1.00078       -7.13640
| 10> O          2.85155       -0.78368       -4.95679
| 11> H          5.62703       -2.52424       -6.49422
| 12> H          5.12164       -4.14387       -6.07654
| 13> H          4.95004       -2.84862       -4.91639
| 14> *
| 15>
| 16> %MaxCore 64000
| 17>
| 18> %pal nprocs 4
| 19> end
| 20>
| 21> %scf
| 22>   MaxIter 150
| 23> end
| 24>
| 25>
| 26>                          ****END OF INPUT****

CARTESIAN COORDINATES (ANGSTROEM)
---------------------------------
  C      4.906460   -3.102820   -5.954840
  C      3.511770   -2.806210   -6.492280
  H      2.736040   -3.373450   -5.973740
  H      3.444900   -3.040830   -7.555280
  S      3.004620   -1.096210   -6.389260
  F      4.128860   -0.329650   -6.953720
  O      1.781280   -1.000780   -7.136400
  O      2.851550   -0.783680   -4.956790
  H      5.627030   -2.524240   -6.494220
  H      5.121640   -4.143870   -6.076540
  H      4.950040   -2.848620   -4.916390

 Total Charge           Charge          ....    0
 Multiplicity           Mult            ....    1
 Number of Electrons    NEL             ....   58
 Basis Dimension        Dim             ....  113

ORBITAL ENERGIES
----------------

  NO   OCC          E(Eh)            E(eV)
   0   2.0000     -89.210945     -2427.5532
   1   2.0000     -24.892686      -677.3644
   2   2.0000     -19.244891      -523.6801
   3   2.0000     -19.231667      -523.3203
   4   2.0000     -10.350773      -281.6588
   5   2.0000     -10.315044      -280.6866
   6   2.0000      -8.293967      -225.6903
   7   2.0000      -6.257069      -170.2635
   8   2.0000      -6.250559      -170.0863
   9   2.0000      -6.249392      -170.0546
  10   2.0000      -1.461846       -39.7788
  11   2.0000      -1.219885       -33.1948
  12   2.0000      -1.114057       -30.3150
  13   2.0000      -0.942180       -25.6380
  14   2.0000      -0.831422       -22.6241
  15   2.0000      -0.783124       -21.3099
  16   2.0000      -0.689703       -18.7678
  17   2.0000      -0.669969       -18.2308
  18   2.0000      -0.643264       -17.5041
  19   2.0000      -0.598282       -16.2801
  20   2.0000      -0.575588       -15.6626
  21   2.0000      -0.551241       -15.0000
  22   2.0000      -0.530545       -14.4369
  23   2.0000      -0.509242       -13.8572
  24   2.0000      -0.495547       -13.4845
  25   2.0000      -0.473474       -12.8839
  26   2.0000      -0.424348       -11.5471
  27   2.0000      -0.412111       -11.2141
  28   2.0000      -0.396534       -10.7902
  29   0.0000       0.112735         3.0677
  30   0.0000       0.144589         3.9345
  31   0.0000       0.172382         4.6907
  32   0.0000       0.177089         4.8188
  33   0.0000       0.182340         4.9617

MULLIKEN ATOMIC CHARGES
-----------------------
   0 C :   -0.036169
   1 C :   -0.174847
   2 H :    0.113068
   3 H :    0.085546
   4 S :    0.961133
   5 F :   -0.206112
   6 O :   -0.435003
   7 O :   -0.479736
   8 H :    0.047173
   9 H :    0.059090
  10 H :    0.065857
Sum of atomic charges:   -0.0000000

LOEWDIN ATOMIC CHARGES
----------------------
   0 C :   -0.062898
   1 C :   -0.151663
   2 H :    0.055694
   3 H :    0.037775
   4 S :    1.170887
   5 F :   -0.149424
   6 O :   -0.480259
   7 O :   -0.524144
   8 H :    0.028539
   9 H :    0.039288
  10 H :    0.036204

  Mayer bond orders larger than 0.100000
B(  0-C ,  1-C ) :   1.0362 B(  0-C ,  8-H ) :   0.9754 B(  0-C ,  9-H ) :   0.9669
B(  0-C , 10-H ) :   0.9721 B(  1-C ,  2-H ) :   0.9364 B(  1-C ,  3-H ) :   0.9365
B(  1-C ,  4-S ) :   0.9265 B(  4-S ,  5-F ) :   0.9830 B(  4-S ,  6-O ) :   1.7991
B(  4-S ,  7-O ) :   1.7537

Dispersion correction           -0.002892604
FINAL SINGLE POINT ENERGY      -727.150489034560

DIPOLE MOMENT
-------------
                                X             Y             Z
Electronic contribution:     -2.98869       8.20244      -1.76381
Nuclear contribution   :      4.18919      -9.36357       1.23251
                        -----------------------------------------
Total Dipole Moment    :      1.20050      -1.16113      -0.53130
                        -----------------------------------------
Magnitude (a.u.)       :      1.75263
Magnitude (Debye)      :      4.45482

Rotational constants in cm-1:     0.153152     0.082513     0.079874
Rotational constants in MHz :  4591.373714  2473.673397  2394.575279

                             ****ORCA TERMINATED NORMALLY****
TOTAL RUN TIME: 0 days 0 hours 0 minutes 18 seconds 1 msec
