                         Program Version 5.0.0 -  RELEASE  -
|  1> !wB97X-D3 RIJCOSX def2-SVP def2/J TightSCF
|  2> *xyz 0 1
|  3> C          4.49059        1.15590       -2.46929
|  4> C          4.30539        1.22276       -3.90832
|  5> C          4.63192        2.24637       -4.67096
|  6> N          4.54169        2.14399       -5.98714
|  7> N          5.08409        3.39358       -4.11855
|  8> H          4.92067        3.57050       -3.13587
|  9> H          5.25465        4.19739       -4.70696
| 10> H          3.82453        0.44911       -4.35093
| 11> H          4.34337        1.24932       -6.41665
| 12> H          4.67671        2.95662       -6.57411
| 13> C          5.94213        0.93950       -2.03689
| 14> H          3.86431        0.32853       -2.13661
| 15> H          4.07623        2.04999       -1.98901
| 16> H          6.32982        0.06401       -2.51451
| 17> H          5.98308        0.81426       -0.97504
| 18> H          6.52865        1.78889       -2.31873
| 19> *
| 20>
| 21> %MaxCore 64000
| 22>
| 23> %pal nprocs 4
| 24> end
| 25>
| 26> %scf
| 27>   MaxIter 150
| 28> end
| 29>
| 30>
| 31>                          ****END OF INPUT****

CARTESIAN COORDINATES (ANGSTROEM)
---------------------------------
  C      4.490590    1.155900   -2.469290
  C      4.305390    1.222760   -3.908320
  C      4.631920    2.246370   -4.670960
  N      4.541690    2.143990   -5.987140
  N      5.084090    3.393580   -4.118550
  H      4.920670    3.570500   -3.135870
  H      5.254650    4.197390   -4.706960
  H      3.824530    0.449110   -4.350930
  H      4.343370    1.249320   -6.416650
  H      4.676710    2.956620   -6.574110
  C      5.942130    0.939500   -2.036890
  H      3.864310    0.328530   -2.136610
  H      4.076230    2.049990   -1.989010
  H      6.329820    0.064010   -2.514510
  H      5.983080    0.814260   -0.975040
  H      6.528650    1.788890   -2.318730

 Total Charge           Charge          ....    0
 Multiplicity           Mult            ....    1
 Number of Electrons    NEL             ....   48
 Basis Dimension        Dim             ....  134

ORBITAL ENERGIES
----------------

  NO   OCC          E(Eh)            E(eV)
   0   2.0000     -14.429287      -392.6409
   1   2.0000     -14.427152      -392.5828
   2   2.0000     -10.325720      -280.9771
   3   2.0000     -10.256518      -279.0940
   4   2.0000     -10.247484      -278.8482
   5   2.0000     -10.197659      -277.4924
   6   2.0000      -1.061278       -28.8788
   7   2.0000      -0.968367       -26.3506
   8   2.0000      -0.874596       -23.7990
   9   2.0000      -0.794390       -21.6165
  10   2.0000      -0.716153       -19.4875
  11   2.0000      -0.674293       -18.3485
  12   2.0000      -0.637670       -17.3519
  13   2.0000      -0.603142       -16.4123
  14   2.0000      -0.567204       -15.4344
  15   2.0000      -0.530002       -14.4221
  16   2.0000      -0.515069       -14.0157
  17   2.0000      -0.481531       -13.1031
  18   2.0000      -0.476741       -12.9728
  19   2.0000      -0.439769       -11.9667
  20   2.0000      -0.415547       -11.3076
  21   2.0000      -0.403291       -10.9741
  22   2.0000      -0.351549        -9.5661
  23   2.0000      -0.236143        -6.4258
  24   0.0000       0.132886         3.6160
  25   0.0000       0.161219         4.3870
  26   0.0000       0.176738         4.8093
  27   0.0000       0.188754         5.1363
  28   0.0000       0.198582         5.4037

MULLIKEN ATOMIC CHARGES
-----------------------
   0 C :   -0.006688
   1 C :   -0.232651
   2 C :    0.020315
   3 N :   -0.100504
   4 N :   -0.133125
   5 H :    0.131847
   6 H :    0.111769
   7 H :   -0.078446
   8 H :    0.132947
   9 H :    0.111013
  10 C :    0.019571
  11 H :    0.004715
  12 H :   -0.009140
  13 H :    0.012946
  14 H :    0.008605
  15 H :    0.006825
Sum of atomic charges:   -0.0000000

LOEWDIN ATOMIC CHARGES
----------------------
   0 C :   -0.045146
   1 C :   -0.231600
   2 C :    0.036817
   3 N :   -0.028181
   4 N :   -0.037938
   5 H :    0.078884
   6 H :    0.066272
   7 H :   -0.008848
   8 H :    0.085631
   9 H :    0.066355
  10 C :   -0.057194
  11 H :    0.025457
  12 H :    0.004572
  13 H :    0.019467
  14 H :    0.012660
  15 H :    0.012791

  Mayer bond orders larger than 0.100000
B(  0-C ,  1-C ) :   1.0549 B(  0-C , 10-C ) :   1.0759 B(  0-C , 11-H ) :   0.9340
B(  0-C , 12-H ) :   0.9463 B(  1-C ,  2-C ) :   1.6974 B(  1-C ,  7-H ) :   0.9648
B(  2-C ,  3-N ) :   1.2387 B(  2-C ,  4-N ) :   1.2285 B(  3-N ,  8-H ) :   0.9414
B(  3-N ,  9-H ) :   0.9508 B(  4-N ,  5-H ) :   0.9368 B(  4-N ,  6-H ) :   0.9523
B( 10-C , 13-H ) :   0.9708 B( 10-C , 14-H ) :   0.9722 B( 10-C , 15-H ) :   0.9745

Dispersion correction           -0.003822244
FINAL SINGLE POINT ENERGY      -267.646218019451

DIPOLE MOMENT
-------------
                                X             Y             Z
Electronic contribution:     -1.23818       2.10837      -4.24230
Nuclear contribution   :      1.23062      -1.24683       3.43056
                        -----------------------------------------
Total Dipole Moment    :     -0.00757       0.86154      -0.81174
                        -----------------------------------------
Magnitude (a.u.)       :      1.18373
Magnitude (Debye)      :      3.00881

Rotational constants in cm-1:     0.231477     0.075416     0.065327
Rotational constants in MHz :  6939.497385  2260.912204  1958.442932

                             ****ORCA TERMINATED NORMALLY****
TOTAL RUN TIME: 0 days 0 hours 0 minutes 25 seconds 427 msec
