                         Program Version 5.0.0 -  RELEASE  -
|  1> !wB97X-D3 RIJCOSX def2-SVP def2/J TightSCF
|  2> *xyz 0 1
|  3> C          4.90646       -3.10282       -5.95484
|  4> C          3.51177       -2.80621       -6.49228
|  5> H          2.73604       -3.37345       -5.97374
|  6> H          3.44490       -3.04083       -7.55528
|  7> S          3.00462       -1.09621       -6.38926
|  8> O          4.12886       -0.32965       -6.95372
|  9> F          1.78128       -1.00078       -7.13640
| 10> O          2.85155       -0.78368       -4.95679
| 11> H          5.62703       -2.52424       -6.49422
| 12> H          5.12164       -4.14387       -6.07654
| 13> H          4.95004       -2.84862       -4.91639
| 14> *
| 15>
| 16> %MaxCore 64000
| 17>
| 18> %pal nprocs 4
| 19> end
| 20>
| 21> %scf
| 22>   MaxIter 150
| 23> end
| 24>
| 25>
| 26>                          ****END OF INPUT****

CARTESIAN COORDINATES (ANGSTROEM)
---------------------------------
  C      4.906460   -3.102820   -5.954840
  C      3.511770   -2.806210   -6.492280
  H      2.736040   -3.373450   -5.973740
  H      3.444900   -3.040830   -7.555280
  S      3.004620   -1.096210   -6.389260
  O      4.128860   -0.329650   -6.953720
  F      1.781280   -1.000780   -7.136400
  O      2.851550   -0.783680   -4.956790
  H      5.627030   -2.524240   -6.494220
  H      5.121640   -4.143870   -6.076540
  H      4.950040   -2.848620   -4.916390

 Total Charge           Charge          ....    0
 Multiplicity           Mult            ....    1
 Number of Electrons    NEL             ....   58
 Basis Dimension        Dim             ....  113

ORBITAL ENERGIES
----------------

  NO   OCC          E(Eh)            E(eV)
   0   2.0000     -89.212355     -2427.5916
   1   2.0000     -24.911752      -677.8832
   2   2.0000     -19.231615      -523.3188
   3   2.0000     -19.231179      -523.3070
   4   2.0000     -10.351607      -281.6816
   5   2.0000     -10.309839      -280.5450
   6   2.0000      -8.295510      -225.7323
   7   2.0000      -6.258682      -170.3074
   8   2.0000      -6.251923      -170.1235
   9   2.0000      -6.250802      -170.0930
  10   2.0000      -1.494003       -40.6539
  11   2.0000      -1.205675       -32.8081
  12   2.0000      -1.099376       -29.9155
  13   2.0000      -0.938597       -25.5405
  14   2.0000      -0.845955       -23.0196
  15   2.0000      -0.785035       -21.3619
  16   2.0000      -0.693485       -18.8707
  17   2.0000      -0.693347       -18.8669
  18   2.0000      -0.654846       -17.8193
  19   2.0000      -0.599794       -16.3212
  20   2.0000      -0.576219       -15.6797
  21   2.0000      -0.531291       -14.4572
  22   2.0000      -0.526786       -14.3346
  23   2.0000      -0.506963       -13.7952
  24   2.0000      -0.484874       -13.1941
  25   2.0000      -0.469172       -12.7668
  26   2.0000      -0.411029       -11.1847
  27   2.0000      -0.409810       -11.1515
  28   2.0000      -0.384358       -10.4589
  29   0.0000       0.125228         3.4076
  30   0.0000       0.131063         3.5664
  31   0.0000       0.166692         4.5359
  32   0.0000       0.172213         4.6862
  33   0.0000       0.182598         4.9688

MULLIKEN ATOMIC CHARGES
-----------------------
   0 C :   -0.018734
   1 C :   -0.167402
   2 H :    0.084575
   3 H :    0.078136
   4 S :    0.954003
   5 O :   -0.476393
   6 F :   -0.166956
   7 O :   -0.476119
   8 H :    0.067692
   9 H :    0.055399
  10 H :    0.065799
Sum of atomic charges:   -0.0000000

LOEWDIN ATOMIC CHARGES
----------------------
   0 C :   -0.047278
   1 C :   -0.153711
   2 H :    0.037454
   3 H :    0.034543
   4 S :    1.165482
   5 O :   -0.518994
   6 F :   -0.111438
   7 O :   -0.521134
   8 H :    0.038326
   9 H :    0.038317
  10 H :    0.038433

  Mayer bond orders larger than 0.100000
B(  0-C ,  1-C ) :   1.0576 B(  0-C ,  8-H ) :   0.9704 B(  0-C ,  9-H ) :   0.9675
B(  0-C , 10-H ) :   0.9731 B(  1-C ,  2-H ) :   0.9334 B(  1-C ,  3-H ) :   0.9322
B(  1-C ,  4-S ) :   0.9240 B(  4-S ,  5-O ) :   1.7450 B(  4-S ,  6-F ) :   1.0321
B(  4-S ,  7-O ) :   1.7507

Dispersion correction           -0.002915770
FINAL SINGLE POINT ENERGY      -727.133695179896

DIPOLE MOMENT
-------------
                                X             Y             Z
Electronic contribution:     -7.00007       7.07298      -2.07892
Nuclear contribution   :      6.63544      -8.66423       1.42287
                        -----------------------------------------
Total Dipole Moment    :     -0.36463      -1.59125      -0.65605
                        -----------------------------------------
Magnitude (a.u.)       :      1.75939
Magnitude (Debye)      :      4.47201

Rotational constants in cm-1:     0.158118     0.080978     0.078216
Rotational constants in MHz :  4740.271775  2427.649826  2344.849020

                             ****ORCA TERMINATED NORMALLY****
TOTAL RUN TIME: 0 days 0 hours 0 minutes 18 seconds 715 msec
