                         Program Version 5.0.0 -  RELEASE  -
|  1> !wB97X-D3 RIJCOSX def2-SVP def2/J TightSCF
|  2> *xyz 0 1
|  3> C          4.49059        1.15590       -2.46929
|  4> N          4.30539        1.22276       -3.90832
|  5> C          4.63192        2.24637       -4.67096
|  6> C          4.54169        2.14399       -5.98714
|  7> N          5.08409        3.39358       -4.11855
|  8> H          4.92067        3.57050       -3.13587
|  9> H          5.25465        4.19739       -4.70696
| 10> H          3.82453        0.44911       -4.35093
| 11> H          4.34337        1.24932       -6.41665
| 12> H          4.67671        2.95662       -6.57411
| 13> C          5.94213        0.93950       -2.03689
| 14> H          3.86431        0.32853       -2.13661
| 15> H          4.07623        2.04999       -1.98901
| 16> H          6.32982        0.06401       -2.51451
| 17> H          5.98308        0.81426       -0.97504
| 18> H          6.52865        1.78889       -2.31873
| 19> *
| 20>
| 21> %MaxCore 64000
| 22>
| 23> %pal nprocs 4
| 24> end
| 25>
| 26> %scf
| 27>   MaxIter 150
| 28> end
| 29>
| 30>
| 31>                          ****END OF INPUT****

CARTESIAN COORDINATES (ANGSTROEM)
---------------------------------
  C      4.490590    1.155900   -2.469290
  N      4.305390    1.222760   -3.908320
  C      4.631920    2.246370   -4.670960
  C      4.541690    2.143990   -5.987140
  N      5.084090    3.393580   -4.118550
  H      4.920670    3.570500   -3.135870
  H      5.254650    4.197390   -4.706960
  H      3.824530    0.449110   -4.350930
  H      4.343370    1.249320   -6.416650
  H      4.676710    2.956620   -6.574110
  C      5.942130    0.939500   -2.036890
  H      3.864310    0.328530   -2.136610
  H      4.076230    2.049990   -1.989010
  H      6.329820    0.064010   -2.514510
  H      5.983080    0.814260   -0.975040
  H      6.528650    1.788890   -2.318730

 Total Charge           Charge          ....    0
 Multiplicity           Mult            ....    1
 Number of Electrons    NEL             ....   48
 Basis Dimension        Dim             ....  134

ORBITAL ENERGIES
----------------

  NO   OCC          E(Eh)            E(eV)
   0   2.0000     -14.428786      -392.6272
   1   2.0000     -14.427922      -392.6037
   2   2.0000     -10.328364      -281.0491
   3   2.0000     -10.327795      -281.0336
   4   2.0000     -10.275891      -279.6212
   5   2.0000     -10.192114      -277.3415
   6   2.0000      -1.071575       -29.1590
   7   2.0000      -0.982002       -26.7216
   8   2.0000      -0.876523       -23.8514
   9   2.0000      -0.803570       -21.8662
  10   2.0000      -0.732222       -19.9248
  11   2.0000      -0.696033       -18.9400
  12   2.0000      -0.632384       -17.2080
  13   2.0000      -0.595214       -16.1966
  14   2.0000      -0.574356       -15.6290
  15   2.0000      -0.544862       -14.8265
  16   2.0000      -0.519357       -14.1324
  17   2.0000      -0.496146       -13.5008
  18   2.0000      -0.473234       -12.8774
  19   2.0000      -0.466354       -12.6901
  20   2.0000      -0.450824       -12.2675
  21   2.0000      -0.445199       -12.1145
  22   2.0000      -0.341163        -9.2835
  23   2.0000      -0.241345        -6.5673
  24   0.0000       0.129784         3.5316
  25   0.0000       0.156000         4.2450
  26   0.0000       0.172728         4.7002
  27   0.0000       0.188494         5.1292
  28   0.0000       0.198222         5.3939

MULLIKEN ATOMIC CHARGES
-----------------------
   0 C :    0.016734
   1 N :   -0.184150
   2 C :    0.014672
   3 C :   -0.124731
   4 N :   -0.137919
   5 H :    0.113877
   6 H :    0.132408
   7 H :    0.134900
   8 H :   -0.046589
   9 H :   -0.047360
  10 C :   -0.002964
  11 H :    0.027211
  12 H :    0.021406
  13 H :    0.031674
  14 H :    0.025026
  15 H :    0.025805
Sum of atomic charges:    0.0000000

LOEWDIN ATOMIC CHARGES
----------------------
   0 C :    0.026075
   1 N :   -0.034412
   2 C :    0.045692
   3 C :   -0.260595
   4 N :   -0.037013
   5 H :    0.063406
   6 H :    0.084242
   7 H :    0.087008
   8 H :   -0.008204
   9 H :   -0.008510
  10 C :   -0.065443
  11 H :    0.026399
  12 H :    0.010839
  13 H :    0.025811
  14 H :    0.023494
  15 H :    0.021212

  Mayer bond orders larger than 0.100000
B(  0-C ,  1-N ) :   1.0101 B(  0-C , 10-C ) :   1.0707 B(  0-C , 11-H ) :   0.9609
B(  0-C , 12-H ) :   0.9586 B(  1-N ,  2-C ) :   1.1893 B(  1-N ,  7-H ) :   0.9327
B(  2-C ,  3-C ) :   1.7620 B(  2-C ,  4-N ) :   1.2011 B(  3-C ,  8-H ) :   0.9464
B(  3-C ,  9-H ) :   0.9470 B(  4-N ,  5-H ) :   0.9492 B(  4-N ,  6-H ) :   0.9453
B( 10-C , 13-H ) :   0.9694 B( 10-C , 14-H ) :   0.9686 B( 10-C , 15-H ) :   0.9687

Dispersion correction           -0.003854416
FINAL SINGLE POINT ENERGY      -267.639885753762

DIPOLE MOMENT
-------------
                                X             Y             Z
Electronic contribution:     -1.43470       1.12776      -1.91287
Nuclear contribution   :      1.28075      -1.05140       2.98955
                        -----------------------------------------
Total Dipole Moment    :     -0.15396       0.07636       1.07669
                        -----------------------------------------
Magnitude (a.u.)       :      1.09032
Magnitude (Debye)      :      2.77137

Rotational constants in cm-1:     0.229858     0.078444     0.067377
Rotational constants in MHz :  6890.979812  2351.691803  2019.910665

                             ****ORCA TERMINATED NORMALLY****
TOTAL RUN TIME: 0 days 0 hours 0 minutes 25 seconds 334 msec
