                         Program Version 5.0.0 -  RELEASE  -
|  1> !wB97X-D3 RIJCOSX def2-SVP def2/J TightSCF
|  2> *xyz 0 1
|  3> C          4.90646       -3.10282       -5.95484
|  4> C          3.51177       -2.80621       -6.49228
|  5> H          2.73604       -3.37345       -5.97374
|  6> H          3.44490       -3.04083       -7.55528
|  7> S          3.00462       -1.09621       -6.38926
|  8> O          4.12886       -0.32965       -6.95372
|  9> O          1.78128       -1.00078       -7.13640
| 10> F          2.85155       -0.78368       -4.95679
| 11> H          5.62703       -2.52424       -6.49422
| 12> H          5.12164       -4.14387       -6.07654
| 13> H          4.95004       -2.84862       -4.91639
| 14> *
| 15>
| 16> %MaxCore 64000
| 17>
| 18> %pal nprocs 4
| 19> end
| 20>
| 21> %scf
| 22>   MaxIter 150
| 23> end
| 24>
| 25>
| 26>                          ****END OF INPUT****

CARTESIAN COORDINATES (ANGSTROEM)
---------------------------------
  C      4.906460   -3.102820   -5.954840
  C      3.511770   -2.806210   -6.492280
  H      2.736040   -3.373450   -5.973740
  H      3.444900   -3.040830   -7.555280
  S      3.004620   -1.096210   -6.389260
  O      4.128860   -0.329650   -6.953720
  O      1.781280   -1.000780   -7.136400
  F      2.851550   -0.783680   -4.956790
  H      5.627030   -2.524240   -6.494220
  H      5.121640   -4.143870   -6.076540
  H      4.950040   -2.848620   -4.916390

 Total Charge           Charge          ....    0
 Multiplicity           Mult            ....    1
 Number of Electrons    NEL             ....   58
 Basis Dimension        Dim             ....  113

ORBITAL ENERGIES
----------------

  NO   OCC          E(Eh)            E(eV)
   0   2.0000     -89.211267     -2427.5620
   1   2.0000     -24.892033      -677.3467
   2   2.0000     -19.245230      -523.6893
   3   2.0000     -19.232746      -523.3496
   4   2.0000     -10.350685      -281.6564
   5   2.0000     -10.311817      -280.5988
   6   2.0000      -8.294262      -225.6984
   7   2.0000      -6.257310      -170.2701
   8   2.0000      -6.250861      -170.0946
   9   2.0000      -6.249748      -170.0643
  10   2.0000      -1.460706       -39.7478
  11   2.0000      -1.220267       -33.2052
  12   2.0000      -1.116174       -30.3726
  13   2.0000      -0.939688       -25.5702
  14   2.0000      -0.830706       -22.6047
  15   2.0000      -0.781817       -21.2743
  16   2.0000      -0.686745       -18.6873
  17   2.0000      -0.668670       -18.1954
  18   2.0000      -0.645522       -17.5655
  19   2.0000      -0.596461       -16.2305
  20   2.0000      -0.578246       -15.7349
  21   2.0000      -0.551288       -15.0013
  22   2.0000      -0.527529       -14.3548
  23   2.0000      -0.504970       -13.7409
  24   2.0000      -0.495935       -13.4951
  25   2.0000      -0.471405       -12.8276
  26   2.0000      -0.424803       -11.5595
  27   2.0000      -0.413047       -11.2396
  28   2.0000      -0.398479       -10.8432
  29   0.0000       0.113862         3.0983
  30   0.0000       0.140607         3.8261
  31   0.0000       0.171860         4.6765
  32   0.0000       0.175150         4.7661
  33   0.0000       0.182492         4.9659

MULLIKEN ATOMIC CHARGES
-----------------------
   0 C :   -0.030920
   1 C :   -0.176216
   2 H :    0.083154
   3 H :    0.111744
   4 S :    0.962643
   5 O :   -0.479925
   6 O :   -0.436328
   7 F :   -0.206020
   8 H :    0.070490
   9 H :    0.055606
  10 H :    0.045772
Sum of atomic charges:   -0.0000000

LOEWDIN ATOMIC CHARGES
----------------------
   0 C :   -0.061070
   1 C :   -0.152213
   2 H :    0.036284
   3 H :    0.055208
   4 S :    1.170776
   5 O :   -0.521324
   6 O :   -0.480970
   7 F :   -0.151348
   8 H :    0.037624
   9 H :    0.037873
  10 H :    0.029160

  Mayer bond orders larger than 0.100000
B(  0-C ,  1-C ) :   1.0376 B(  0-C ,  8-H ) :   0.9701 B(  0-C ,  9-H ) :   0.9662
B(  0-C , 10-H ) :   0.9762 B(  1-C ,  2-H ) :   0.9367 B(  1-C ,  3-H ) :   0.9361
B(  1-C ,  4-S ) :   0.9238 B(  4-S ,  5-O ) :   1.7496 B(  4-S ,  6-O ) :   1.8004
B(  4-S ,  7-F ) :   0.9856

Dispersion correction           -0.002874431
FINAL SINGLE POINT ENERGY      -727.151126171466

DIPOLE MOMENT
-------------
                                X             Y             Z
Electronic contribution:     -5.18044       7.43948       1.65208
Nuclear contribution   :      5.52019      -8.89046      -0.84835
                        -----------------------------------------
Total Dipole Moment    :      0.33975      -1.45098       0.80373
                        -----------------------------------------
Magnitude (a.u.)       :      1.69315
Magnitude (Debye)      :      4.30364

Rotational constants in cm-1:     0.153332     0.082132     0.079755
Rotational constants in MHz :  4596.775407  2462.251277  2391.008596

                             ****ORCA TERMINATED NORMALLY****
TOTAL RUN TIME: 0 days 0 hours 0 minutes 18 seconds 631 msec
