                         Program Version 5.0.0 -  RELEASE  -
|  1> !wB97X-D3 RIJCOSX def2-SVP def2/J TightSCF
|  2> *xyz 0 1
|  3> C          4.49059        1.15590       -2.46929
|  4> N          4.30539        1.22276       -3.90832
|  5> C          4.63192        2.24637       -4.67096
|  6> N          4.54169        2.14399       -5.98714
|  7> C          5.08409        3.39358       -4.11855
|  8> H          4.92067        3.57050       -3.13587
|  9> H          5.25465        4.19739       -4.70696
| 10> H          3.82453        0.44911       -4.35093
| 11> H          4.34337        1.24932       -6.41665
| 12> H          4.67671        2.95662       -6.57411
| 13> C          5.94213        0.93950       -2.03689
| 14> H          3.86431        0.32853       -2.13661
| 15> H          4.07623        2.04999       -1.98901
| 16> H          6.32982        0.06401       -2.51451
| 17> H          5.98308        0.81426       -0.97504
| 18> H          6.52865        1.78889       -2.31873
| 19> *
| 20>
| 21> %MaxCore 64000
| 22>
| 23> %pal nprocs 4
| 24> end
| 25>
| 26> %scf
| 27>   MaxIter 150
| 28> end
| 29>
| 30>
| 31>                          ****END OF INPUT****

CARTESIAN COORDINATES (ANGSTROEM)
---------------------------------
  C      4.490590    1.155900   -2.469290
  N      4.305390    1.222760   -3.908320
  C      4.631920    2.246370   -4.670960
  N      4.541690    2.143990   -5.987140
  C      5.084090    3.393580   -4.118550
  H      4.920670    3.570500   -3.135870
  H      5.254650    4.197390   -4.706960
  H      3.824530    0.449110   -4.350930
  H      4.343370    1.249320   -6.416650
  H      4.676710    2.956620   -6.574110
  C      5.942130    0.939500   -2.036890
  H      3.864310    0.328530   -2.136610
  H      4.076230    2.049990   -1.989010
  H      6.329820    0.064010   -2.514510
  H      5.983080    0.814260   -0.975040
  H      6.528650    1.788890   -2.318730

 Total Charge           Charge          ....    0
 Multiplicity           Mult            ....    1
 Number of Electrons    NEL             ....   48
 Basis Dimension        Dim             ....  134

ORBITAL ENERGIES
----------------

  NO   OCC          E(Eh)            E(eV)
   0   2.0000     -14.432496      -392.7282
   1   2.0000     -14.430465      -392.6729
   2   2.0000     -10.331374      -281.1310
   3   2.0000     -10.318261      -280.7742
   4   2.0000     -10.264429      -279.3093
   5   2.0000     -10.190863      -277.3075
   6   2.0000      -1.075060       -29.2539
   7   2.0000      -0.989208       -26.9177
   8   2.0000      -0.856332       -23.3020
   9   2.0000      -0.807040       -21.9607
  10   2.0000      -0.741364       -20.1735
  11   2.0000      -0.658911       -17.9299
  12   2.0000      -0.650260       -17.6945
  13   2.0000      -0.616941       -16.7878
  14   2.0000      -0.566468       -15.4144
  15   2.0000      -0.534494       -14.5443
  16   2.0000      -0.507780       -13.8174
  17   2.0000      -0.488089       -13.2816
  18   2.0000      -0.471207       -12.8222
  19   2.0000      -0.453992       -12.3537
  20   2.0000      -0.452644       -12.3171
  21   2.0000      -0.435463       -11.8495
  22   2.0000      -0.336893        -9.1673
  23   2.0000      -0.240621        -6.5476
  24   0.0000       0.133308         3.6275
  25   0.0000       0.160973         4.3803
  26   0.0000       0.170460         4.6385
  27   0.0000       0.186893         5.0856
  28   0.0000       0.205716         5.5978

MULLIKEN ATOMIC CHARGES
-----------------------
   0 C :    0.045779
   1 N :   -0.201546
   2 C :    0.010100
   3 N :   -0.115635
   4 C :   -0.143406
   5 H :   -0.036284
   6 H :   -0.054490
   7 H :    0.111748
   8 H :    0.112137
   9 H :    0.138276
  10 C :   -0.004731
  11 H :    0.017678
  12 H :    0.038020
  13 H :    0.017182
  14 H :    0.022841
  15 H :    0.042331
Sum of atomic charges:    0.0000000

LOEWDIN ATOMIC CHARGES
----------------------
   0 C :    0.039962
   1 N :   -0.034029
   2 C :    0.044677
   3 N :   -0.024749
   4 C :   -0.279782
   5 H :   -0.009400
   6 H :   -0.011410
   7 H :    0.068005
   8 H :    0.066721
   9 H :    0.086948
  10 C :   -0.061691
  11 H :    0.021130
  12 H :    0.021441
  13 H :    0.019736
  14 H :    0.023227
  15 H :    0.029212

  Mayer bond orders larger than 0.100000
B(  0-C ,  1-N ) :   0.9962 B(  0-C , 10-C ) :   1.0857 B(  0-C , 11-H ) :   0.9629
B(  0-C , 12-H ) :   0.9517 B(  1-N ,  2-C ) :   1.1791 B(  1-N ,  7-H ) :   0.9407
B(  2-C ,  3-N ) :   1.2335 B(  2-C ,  4-C ) :   1.7242 B(  3-N ,  8-H ) :   0.9530
B(  3-N ,  9-H ) :   0.9432 B(  4-C ,  5-H ) :   0.9414 B(  4-C ,  6-H ) :   0.9509
B( 10-C , 13-H ) :   0.9689 B( 10-C , 14-H ) :   0.9702 B( 10-C , 15-H ) :   0.9677

Dispersion correction           -0.003801789
FINAL SINGLE POINT ENERGY      -267.638298100145

DIPOLE MOMENT
-------------
                                X             Y             Z
Electronic contribution:     -1.94435      -0.19960      -3.94040
Nuclear contribution   :      1.39581      -0.78630       3.38596
                        -----------------------------------------
Total Dipole Moment    :     -0.54854      -0.98591      -0.55444
                        -----------------------------------------
Magnitude (a.u.)       :      1.25710
Magnitude (Debye)      :      3.19530

Rotational constants in cm-1:     0.239249     0.075811     0.066261
Rotational constants in MHz :  7172.504830  2272.756282  1986.457543

                             ****ORCA TERMINATED NORMALLY****
TOTAL RUN TIME: 0 days 0 hours 0 minutes 25 seconds 171 msec
