                         Program Version 5.0.0 -  RELEASE  -
|  1> !wB97X-D3 RIJCOSX def2-SVP def2/J TightSCF xyzfile
|  2>
|  3> *xyzfile 0 1 D3.xyz
|  4>
|  5> %MaxCore 64000
|  6>
|  7> %pal nprocs 18
|  8> end
|  9>
| 10> %scf
| 11>   MaxIter 150
| 12> end
| 13>
| 14>
| 15>                          ****END OF INPUT****

CARTESIAN COORDINATES (ANGSTROEM)
---------------------------------
  C      4.490588    1.155899   -2.469290
  N      4.305394    1.222762   -3.908317
  C      4.906458   -3.102816   -5.954844
  C      3.511771   -2.806215   -6.492283
  H      2.736044   -3.373445   -5.973736
  H      3.444904   -3.040831   -7.555281
  S      3.004618   -1.096206   -6.389259
  C      4.631918    2.246365   -4.670958
  N      4.541686    2.143990   -5.987139
  C      5.084086    3.393584   -4.118545
  H      4.920675    3.570501   -3.135870
  H      5.254652    4.197390   -4.706956
  H      3.824530    0.449113   -4.350926
  H      4.343373    1.249318   -6.416646
  H      4.676712    2.956624   -6.574113
  F      4.128856   -0.329647   -6.953717
  O      1.781285   -1.000779   -7.136399
  C      5.942129    0.939500   -2.036893
  H      3.864305    0.328532   -2.136611
  H      4.076233    2.049994   -1.989010
  C      6.462677   -3.117775   -3.944671
  C      5.024977   -3.025679   -4.437625
  H      4.423321   -3.818693   -3.977648
  H      4.579350   -2.087131   -4.108727
  H      5.201533   -4.100207   -6.296905
  H      5.605922   -2.397822   -6.413368
  C      6.559957   -0.356290   -2.559086
  H      5.967976    0.952567   -0.942444
  H      6.547184    1.788331   -2.368849
  C      6.006283   -1.615917   -1.899301
  H      7.642360   -0.318000   -2.402059
  H      6.414855   -0.403433   -3.642587
  C      6.608718   -2.917014   -2.435655
  H      6.190324   -1.561115   -0.820948
  H      4.919250   -1.651245   -2.016586
  H      7.066975   -2.374258   -4.475514
  H      6.887808   -4.089747   -4.215332
  H      6.135197   -3.755573   -1.915159
  H      7.671142   -2.955503   -2.172291
  O      2.851546   -0.783683   -4.956789

 Total Charge           Charge          ....    0
 Multiplicity           Mult            ....    1
 Number of Electrons    NEL             ....  144
 Basis Dimension        Dim             ....  357

ORBITAL ENERGIES
----------------

  NO   OCC          E(Eh)            E(eV)
   0   2.0000     -89.245642     -2428.4974
   1   2.0000     -24.935246      -678.5225
   2   2.0000     -19.275712      -524.5188
   3   2.0000     -19.273267      -524.4523
   4   2.0000     -14.413364      -392.2076
   5   2.0000     -14.401128      -391.8746
   6   2.0000     -10.369693      -282.1737
   7   2.0000     -10.333065      -281.1770
   8   2.0000     -10.314185      -280.6633
   9   2.0000     -10.301765      -280.3253
  10   2.0000     -10.300696      -280.2962
  11   2.0000     -10.294189      -280.1191
  12   2.0000     -10.286692      -279.9151
  13   2.0000     -10.278918      -279.7036
  14   2.0000     -10.272451      -279.5276
  15   2.0000     -10.264804      -279.3195
  16   2.0000     -10.175560      -276.8911
  17   2.0000      -8.328770      -226.6374
  18   2.0000      -6.292091      -171.2165
  19   2.0000      -6.285507      -171.0373
  20   2.0000      -6.283676      -170.9875
  21   2.0000      -1.505930       -40.9784
  22   2.0000      -1.256016       -34.1779
  23   2.0000      -1.154778       -31.4231
  24   2.0000      -1.056331       -28.7442
  25   2.0000      -0.974815       -26.5261
  26   2.0000      -0.972228       -26.4557
  27   2.0000      -0.928155       -25.2564
  28   2.0000      -0.892834       -24.2953
  29   2.0000      -0.866373       -23.5752
  30   2.0000      -0.837822       -22.7983
  31   2.0000      -0.805799       -21.9269
  32   2.0000      -0.791355       -21.5339
  33   2.0000      -0.764307       -20.7978
  34   2.0000      -0.738715       -20.1014
  35   2.0000      -0.725447       -19.7404
  36   2.0000      -0.716893       -19.5077
  37   2.0000      -0.697047       -18.9676
  38   2.0000      -0.684689       -18.6313
  39   2.0000      -0.663975       -18.0677
  40   2.0000      -0.639787       -17.4095
  41   2.0000      -0.625492       -17.0205
  42   2.0000      -0.620279       -16.8786
  43   2.0000      -0.605387       -16.4734
  44   2.0000      -0.597135       -16.2489
  45   2.0000      -0.584057       -15.8930
  46   2.0000      -0.575660       -15.6645
  47   2.0000      -0.567360       -15.4387
  48   2.0000      -0.556017       -15.1300
  49   2.0000      -0.544241       -14.8096
  50   2.0000      -0.535989       -14.5850
  51   2.0000      -0.530971       -14.4484
  52   2.0000      -0.518468       -14.1082
  53   2.0000      -0.505575       -13.7574
  54   2.0000      -0.492141       -13.3918
  55   2.0000      -0.485200       -13.2030
  56   2.0000      -0.481164       -13.0931
  57   2.0000      -0.471795       -12.8382
  58   2.0000      -0.462965       -12.5979
  59   2.0000      -0.461002       -12.5445
  60   2.0000      -0.452913       -12.3244
  61   2.0000      -0.443465       -12.0673
  62   2.0000      -0.441995       -12.0273
  63   2.0000      -0.435770       -11.8579
  64   2.0000      -0.428672       -11.6648
  65   2.0000      -0.424326       -11.5465
  66   2.0000      -0.420390       -11.4394
  67   2.0000      -0.404246       -11.0001
  68   2.0000      -0.402472       -10.9518
  69   2.0000      -0.393214       -10.6999
  70   2.0000      -0.318327        -8.6621
  71   2.0000      -0.224877        -6.1192
  72   0.0000       0.082013         2.2317
  73   0.0000       0.118364         3.2208
  74   0.0000       0.133956         3.6451
  75   0.0000       0.138163         3.7596
  76   0.0000       0.141606         3.8533

MULLIKEN ATOMIC CHARGES
-----------------------
   0 C :    0.104195
   1 N :   -0.217327
   2 C :   -0.058355
   3 C :   -0.106187
   4 H :    0.113603
   5 H :    0.095234
   6 S :    0.992217
   7 C :    0.014358
   8 N :   -0.131234
   9 C :   -0.146310
  10 H :   -0.040863
  11 H :   -0.064016
  12 H :    0.113139
  13 H :    0.087364
  14 H :    0.132948
  15 F :   -0.198714
  16 O :   -0.409899
  17 C :    0.008957
  18 H :    0.013381
  19 H :    0.031714
  20 C :   -0.042671
  21 C :   -0.070572
  22 H :    0.025015
  23 H :    0.027681
  24 H :    0.055603
  25 H :    0.038674
  26 C :   -0.046589
  27 H :    0.007775
  28 H :    0.033436
  29 C :   -0.068336
  30 H :    0.017183
  31 H :    0.004700
  32 C :    0.017159
  33 H :    0.018767
  34 H :    0.021037
  35 H :    0.024666
  36 H :    0.019035
  37 H :    0.016545
  38 H :    0.022032
  39 O :   -0.455343
Sum of atomic charges:    0.0000000

LOEWDIN ATOMIC CHARGES
----------------------
   0 C :    0.044562
   1 N :   -0.038814
   2 C :   -0.052582
   3 C :   -0.137322
   4 H :    0.058409
   5 H :    0.044153
   6 S :    1.191191
   7 C :    0.044173
   8 N :   -0.039698
   9 C :   -0.289962
  10 H :   -0.011565
  11 H :   -0.015494
  12 H :    0.019470
  13 H :    0.021630
  14 H :    0.083020
  15 F :   -0.109709
  16 O :   -0.458345
  17 C :   -0.045419
  18 H :    0.019340
  19 H :    0.020737
  20 C :   -0.039961
  21 C :   -0.047538
  22 H :    0.025902
  23 H :    0.015301
  24 H :    0.039701
  25 H :    0.025771
  26 C :   -0.041968
  27 H :    0.020130
  28 H :    0.030412
  29 C :   -0.043664
  30 H :    0.022545
  31 H :    0.011615
  32 C :   -0.035794
  33 H :    0.024368
  34 H :    0.015655
  35 H :    0.020636
  36 H :    0.022124
  37 H :    0.021856
  38 H :    0.024377
  39 O :   -0.459244

  Mayer bond orders larger than 0.100000
B(  0-C ,  1-N ) :   1.0100 B(  0-C , 17-C ) :   1.0623 B(  0-C , 18-H ) :   0.9562
B(  0-C , 19-H ) :   0.9470 B(  1-N ,  7-C ) :   1.1963 B(  1-N , 12-H ) :   0.8891
B(  2-C ,  3-C ) :   1.0209 B(  2-C , 21-C ) :   1.0522 B(  2-C , 24-H ) :   0.9394
B(  2-C , 25-H ) :   0.9519 B(  3-C ,  4-H ) :   0.9275 B(  3-C ,  5-H ) :   0.9333
B(  3-C ,  6-S ) :   0.9255 B(  6-S , 15-F ) :   0.9377 B(  6-S , 16-O ) :   1.8316
B(  6-S , 39-O ) :   1.6544 B(  7-C ,  8-N ) :   1.2250 B(  7-C ,  9-C ) :   1.7160
B(  8-N , 13-H ) :   0.9408 B(  8-N , 14-H ) :   0.9430 B(  9-C , 10-H ) :   0.9407
B(  9-C , 11-H ) :   0.9483 B( 12-H , 39-O ) :   0.1083 B( 17-C , 26-C ) :   1.0760
B( 17-C , 27-H ) :   0.9455 B( 17-C , 28-H ) :   0.9355 B( 20-C , 21-C ) :   1.0580
B( 20-C , 32-C ) :   1.0769 B( 20-C , 35-H ) :   0.9485 B( 20-C , 36-H ) :   0.9470
B( 21-C , 22-H ) :   0.9462 B( 21-C , 23-H ) :   0.9384 B( 26-C , 29-C ) :   1.0504
B( 26-C , 30-H ) :   0.9508 B( 26-C , 31-H ) :   0.9395 B( 29-C , 32-C ) :   1.0790
B( 29-C , 33-H ) :   0.9437 B( 29-C , 34-H ) :   0.9467 B( 32-C , 37-H ) :   0.9475
B( 32-C , 38-H ) :   0.9473

Dispersion correction           -0.021830216
FINAL SINGLE POINT ENERGY     -1189.978592956598

DIPOLE MOMENT
-------------
                                X             Y             Z
Electronic contribution:    -16.98228       2.62332     -21.52811
Nuclear contribution   :     17.35766      -5.13497      20.30937
                        -----------------------------------------
Total Dipole Moment    :      0.37538      -2.51165      -1.21875
                        -----------------------------------------
Magnitude (a.u.)       :      2.81685
Magnitude (Debye)      :      7.15986

Rotational constants in cm-1:     0.014431     0.012329     0.007535
Rotational constants in MHz :   432.628327   369.619539   225.898827

                             ****ORCA TERMINATED NORMALLY****
TOTAL RUN TIME: 0 days 0 hours 1 minutes 9 seconds 371 msec
