                         Program Version 5.0.0 -  RELEASE  -
|  1> !wB97X-D3 RIJCOSX def2-SVP def2/J TightSCF xyzfile
|  2>
|  3> *xyzfile 0 1 D7.xyz
|  4>
|  5> %MaxCore 64000
|  6>
|  7> %pal nprocs 18
|  8> end
|  9>
| 10> %scf
| 11>   MaxIter 150
| 12> end
| 13>
| 14>
| 15>                          ****END OF INPUT****

CARTESIAN COORDINATES (ANGSTROEM)
---------------------------------
  C      4.490588    1.155899   -2.469290
  C      4.305394    1.222762   -3.908317
  C      4.906458   -3.102816   -5.954844
  C      3.511771   -2.806215   -6.492283
  H      2.736044   -3.373445   -5.973736
  H      3.444904   -3.040831   -7.555281
  S      3.004618   -1.096206   -6.389259
  C      4.631918    2.246365   -4.670958
  N      4.541686    2.143990   -5.987139
  N      5.084086    3.393584   -4.118545
  H      4.920675    3.570501   -3.135870
  H      5.254652    4.197390   -4.706956
  H      3.824530    0.449113   -4.350926
  H      4.343373    1.249318   -6.416646
  H      4.676712    2.956624   -6.574113
  O      4.128856   -0.329647   -6.953717
  O      1.781285   -1.000779   -7.136399
  C      5.942129    0.939500   -2.036893
  H      3.864305    0.328532   -2.136611
  H      4.076233    2.049994   -1.989010
  C      6.462677   -3.117775   -3.944671
  C      5.024977   -3.025679   -4.437625
  H      4.423321   -3.818693   -3.977648
  H      4.579350   -2.087131   -4.108727
  H      5.201533   -4.100207   -6.296905
  H      5.605922   -2.397822   -6.413368
  C      6.559957   -0.356290   -2.559086
  H      5.967976    0.952567   -0.942444
  H      6.547184    1.788331   -2.368849
  C      6.006283   -1.615917   -1.899301
  H      7.642360   -0.318000   -2.402059
  H      6.414855   -0.403433   -3.642587
  C      6.608718   -2.917014   -2.435655
  H      6.190324   -1.561115   -0.820948
  H      4.919250   -1.651245   -2.016586
  H      7.066975   -2.374258   -4.475514
  H      6.887808   -4.089747   -4.215332
  H      6.135197   -3.755573   -1.915159
  H      7.671142   -2.955503   -2.172291
  F      2.851546   -0.783683   -4.956789

 Total Charge           Charge          ....    0
 Multiplicity           Mult            ....    1
 Number of Electrons    NEL             ....  144
 Basis Dimension        Dim             ....  357

ORBITAL ENERGIES
----------------

  NO   OCC          E(Eh)            E(eV)
   0   2.0000     -89.227238     -2427.9966
   1   2.0000     -24.902479      -677.6309
   2   2.0000     -19.258137      -524.0405
   3   2.0000     -19.255489      -523.9685
   4   2.0000     -14.418167      -392.3383
   5   2.0000     -14.393981      -391.6801
   6   2.0000     -10.354614      -281.7634
   7   2.0000     -10.316397      -280.7234
   8   2.0000     -10.312743      -280.6240
   9   2.0000     -10.296837      -280.1912
  10   2.0000     -10.286602      -279.9127
  11   2.0000     -10.279859      -279.7292
  12   2.0000     -10.271261      -279.4952
  13   2.0000     -10.261458      -279.2285
  14   2.0000     -10.256150      -279.0840
  15   2.0000     -10.251563      -278.9592
  16   2.0000     -10.181090      -277.0415
  17   2.0000      -8.309825      -226.1218
  18   2.0000      -6.272894      -170.6941
  19   2.0000      -6.266713      -170.5259
  20   2.0000      -6.265041      -170.4804
  21   2.0000      -1.474650       -40.1273
  22   2.0000      -1.237027       -33.6612
  23   2.0000      -1.137453       -30.9517
  24   2.0000      -1.044047       -28.4100
  25   2.0000      -0.958975       -26.0950
  26   2.0000      -0.949515       -25.8376
  27   2.0000      -0.919759       -25.0279
  28   2.0000      -0.888851       -24.1869
  29   2.0000      -0.863127       -23.4869
  30   2.0000      -0.826575       -22.4923
  31   2.0000      -0.812714       -22.1151
  32   2.0000      -0.775116       -21.0920
  33   2.0000      -0.747984       -20.3537
  34   2.0000      -0.727020       -19.7832
  35   2.0000      -0.695726       -18.9317
  36   2.0000      -0.692430       -18.8420
  37   2.0000      -0.682065       -18.5599
  38   2.0000      -0.675145       -18.3716
  39   2.0000      -0.653033       -17.7699
  40   2.0000      -0.645006       -17.5515
  41   2.0000      -0.621482       -16.9114
  42   2.0000      -0.601430       -16.3657
  43   2.0000      -0.586261       -15.9530
  44   2.0000      -0.585301       -15.9269
  45   2.0000      -0.576946       -15.6995
  46   2.0000      -0.572386       -15.5754
  47   2.0000      -0.557489       -15.1700
  48   2.0000      -0.547429       -14.8963
  49   2.0000      -0.535589       -14.5741
  50   2.0000      -0.526576       -14.3289
  51   2.0000      -0.520213       -14.1557
  52   2.0000      -0.516732       -14.0610
  53   2.0000      -0.498684       -13.5699
  54   2.0000      -0.488742       -13.2994
  55   2.0000      -0.477744       -13.0001
  56   2.0000      -0.470563       -12.8047
  57   2.0000      -0.465129       -12.6568
  58   2.0000      -0.458508       -12.4766
  59   2.0000      -0.448077       -12.1928
  60   2.0000      -0.438054       -11.9201
  61   2.0000      -0.434533       -11.8243
  62   2.0000      -0.427299       -11.6274
  63   2.0000      -0.420867       -11.4524
  64   2.0000      -0.418418       -11.3857
  65   2.0000      -0.414864       -11.2890
  66   2.0000      -0.409782       -11.1507
  67   2.0000      -0.393579       -10.7098
  68   2.0000      -0.386235       -10.5100
  69   2.0000      -0.380818       -10.3626
  70   2.0000      -0.333011        -9.0617
  71   2.0000      -0.223594        -6.0843
  72   0.0000       0.106142         2.8883
  73   0.0000       0.128372         3.4932
  74   0.0000       0.143443         3.9033
  75   0.0000       0.149676         4.0729
  76   0.0000       0.154188         4.1957

MULLIKEN ATOMIC CHARGES
-----------------------
   0 C :    0.054864
   1 C :   -0.243763
   2 C :   -0.039273
   3 C :   -0.110358
   4 H :    0.083143
   5 H :    0.110776
   6 S :    1.005668
   7 C :    0.025431
   8 N :   -0.096601
   9 N :   -0.130607
  10 H :    0.126653
  11 H :    0.109525
  12 H :   -0.129224
  13 H :    0.116361
  14 H :    0.101052
  15 O :   -0.476908
  16 O :   -0.422012
  17 C :    0.031403
  18 H :   -0.012522
  19 H :   -0.011860
  20 C :   -0.042016
  21 C :   -0.076059
  22 H :    0.020591
  23 H :    0.016675
  24 H :    0.046587
  25 H :    0.061001
  26 C :   -0.037668
  27 H :   -0.006221
  28 H :    0.004097
  29 C :   -0.063763
  30 H :    0.006797
  31 H :    0.022972
  32 C :    0.016606
  33 H :    0.015010
  34 H :    0.014123
  35 H :    0.030904
  36 H :    0.018272
  37 H :    0.012884
  38 H :    0.019376
  39 F :   -0.171914
Sum of atomic charges:   -0.0000000

LOEWDIN ATOMIC CHARGES
----------------------
   0 C :   -0.041511
   1 C :   -0.261193
   2 C :   -0.050150
   3 C :   -0.139798
   4 H :    0.038884
   5 H :    0.057132
   6 S :    1.196668
   7 C :    0.043042
   8 N :   -0.034792
   9 N :   -0.039284
  10 H :    0.075500
  11 H :    0.065285
  12 H :   -0.040320
  13 H :    0.033684
  14 H :    0.060901
  15 O :   -0.472343
  16 O :   -0.470015
  17 C :   -0.038841
  18 H :    0.017682
  19 H :    0.005532
  20 C :   -0.038457
  21 C :   -0.047341
  22 H :    0.022903
  23 H :    0.012201
  24 H :    0.036330
  25 H :    0.035300
  26 C :   -0.040673
  27 H :    0.010452
  28 H :    0.015856
  29 C :   -0.042151
  30 H :    0.018545
  31 H :    0.017924
  32 C :   -0.036623
  33 H :    0.022741
  34 H :    0.013752
  35 H :    0.023901
  36 H :    0.022287
  37 H :    0.020112
  38 H :    0.023352
  39 F :   -0.096472

  Mayer bond orders larger than 0.100000
B(  0-C ,  1-C ) :   1.0589 B(  0-C , 17-C ) :   1.0561 B(  0-C , 18-H ) :   0.9252
B(  0-C , 19-H ) :   0.9411 B(  1-C ,  7-C ) :   1.6460 B(  1-C , 12-H ) :   0.9546
B(  2-C ,  3-C ) :   1.0232 B(  2-C , 21-C ) :   1.0579 B(  2-C , 24-H ) :   0.9387
B(  2-C , 25-H ) :   0.9450 B(  3-C ,  4-H ) :   0.9311 B(  3-C ,  5-H ) :   0.9316
B(  3-C ,  6-S ) :   0.9255 B(  6-S , 15-O ) :   1.6413 B(  6-S , 16-O ) :   1.8222
B(  6-S , 39-F ) :   0.9697 B(  7-C ,  8-N ) :   1.2896 B(  7-C ,  9-N ) :   1.2321
B(  8-N , 13-H ) :   0.8934 B(  8-N , 14-H ) :   0.9490 B(  9-N , 10-H ) :   0.9369
B(  9-N , 11-H ) :   0.9516 B( 13-H , 15-O ) :   0.1152 B( 17-C , 26-C ) :   1.0813
B( 17-C , 27-H ) :   0.9456 B( 17-C , 28-H ) :   0.9446 B( 20-C , 21-C ) :   1.0628
B( 20-C , 32-C ) :   1.0756 B( 20-C , 35-H ) :   0.9486 B( 20-C , 36-H ) :   0.9474
B( 21-C , 22-H ) :   0.9459 B( 21-C , 23-H ) :   0.9458 B( 26-C , 29-C ) :   1.0536
B( 26-C , 30-H ) :   0.9474 B( 26-C , 31-H ) :   0.9357 B( 29-C , 32-C ) :   1.0797
B( 29-C , 33-H ) :   0.9436 B( 29-C , 34-H ) :   0.9454 B( 32-C , 37-H ) :   0.9475
B( 32-C , 38-H ) :   0.9467

Dispersion correction           -0.021801064
FINAL SINGLE POINT ENERGY     -1189.985099395723

DIPOLE MOMENT
-------------
                                X             Y             Z
Electronic contribution:    -18.51249       4.16767     -18.17932
Nuclear contribution   :     18.74089      -4.92611      17.99644
                        -----------------------------------------
Total Dipole Moment    :      0.22840      -0.75844      -0.18287
                        -----------------------------------------
Magnitude (a.u.)       :      0.81292
Magnitude (Debye)      :      2.06628

Rotational constants in cm-1:     0.014210     0.012324     0.007480
Rotational constants in MHz :   425.991442   369.455467   224.259162

                             ****ORCA TERMINATED NORMALLY****
TOTAL RUN TIME: 0 days 0 hours 1 minutes 14 seconds 402 msec
