                         Program Version 5.0.0 -  RELEASE  -
|  1> !wB97X-D3 RIJCOSX def2-SVP def2/J TightSCF xyzfile
|  2>
|  3> *xyzfile 0 1 D8.xyz
|  4>
|  5> %MaxCore 64000
|  6>
|  7> %pal nprocs 18
|  8> end
|  9>
| 10> %scf
| 11>   MaxIter 150
| 12> end
| 13>
| 14>
| 15>                          ****END OF INPUT****

CARTESIAN COORDINATES (ANGSTROEM)
---------------------------------
  C      4.490588    1.155899   -2.469290
  N      4.305394    1.222762   -3.908317
  C      4.906458   -3.102816   -5.954844
  C      3.511771   -2.806215   -6.492283
  H      2.736044   -3.373445   -5.973736
  H      3.444904   -3.040831   -7.555281
  S      3.004618   -1.096206   -6.389259
  C      4.631918    2.246365   -4.670958
  C      4.541686    2.143990   -5.987139
  N      5.084086    3.393584   -4.118545
  H      4.920675    3.570501   -3.135870
  H      5.254652    4.197390   -4.706956
  H      3.824530    0.449113   -4.350926
  H      4.343373    1.249318   -6.416646
  H      4.676712    2.956624   -6.574113
  O      4.128856   -0.329647   -6.953717
  O      1.781285   -1.000779   -7.136399
  C      5.942129    0.939500   -2.036893
  H      3.864305    0.328532   -2.136611
  H      4.076233    2.049994   -1.989010
  C      6.462677   -3.117775   -3.944671
  C      5.024977   -3.025679   -4.437625
  H      4.423321   -3.818693   -3.977648
  H      4.579350   -2.087131   -4.108727
  H      5.201533   -4.100207   -6.296905
  H      5.605922   -2.397822   -6.413368
  C      6.559957   -0.356290   -2.559086
  H      5.967976    0.952567   -0.942444
  H      6.547184    1.788331   -2.368849
  C      6.006283   -1.615917   -1.899301
  H      7.642360   -0.318000   -2.402059
  H      6.414855   -0.403433   -3.642587
  C      6.608718   -2.917014   -2.435655
  H      6.190324   -1.561115   -0.820948
  H      4.919250   -1.651245   -2.016586
  H      7.066975   -2.374258   -4.475514
  H      6.887808   -4.089747   -4.215332
  H      6.135197   -3.755573   -1.915159
  H      7.671142   -2.955503   -2.172291
  F      2.851546   -0.783683   -4.956789

 Total Charge           Charge          ....    0
 Multiplicity           Mult            ....    1
 Number of Electrons    NEL             ....  144
 Basis Dimension        Dim             ....  357

ORBITAL ENERGIES
----------------

  NO   OCC          E(Eh)            E(eV)
   0   2.0000     -89.222666     -2427.8722
   1   2.0000     -24.915644      -677.9891
   2   2.0000     -19.254788      -523.9494
   3   2.0000     -19.242989      -523.6284
   4   2.0000     -14.412909      -392.1952
   5   2.0000     -14.412407      -392.1815
   6   2.0000     -10.354434      -281.7585
   7   2.0000     -10.319494      -280.8077
   8   2.0000     -10.319171      -280.7989
   9   2.0000     -10.308455      -280.5073
  10   2.0000     -10.305059      -280.4149
  11   2.0000     -10.294779      -280.1352
  12   2.0000     -10.290646      -280.0227
  13   2.0000     -10.287079      -279.9256
  14   2.0000     -10.280912      -279.7578
  15   2.0000     -10.280819      -279.7553
  16   2.0000     -10.161351      -276.5044
  17   2.0000      -8.305656      -226.0084
  18   2.0000      -6.268954      -170.5869
  19   2.0000      -6.262195      -170.4030
  20   2.0000      -6.260794      -170.3649
  21   2.0000      -1.485486       -40.4221
  22   2.0000      -1.232323       -33.5332
  23   2.0000      -1.129391       -30.7323
  24   2.0000      -1.057913       -28.7873
  25   2.0000      -0.969936       -26.3933
  26   2.0000      -0.961467       -26.1628
  27   2.0000      -0.928301       -25.2604
  28   2.0000      -0.898262       -24.4429
  29   2.0000      -0.862229       -23.4624
  30   2.0000      -0.838538       -22.8178
  31   2.0000      -0.815157       -22.1816
  32   2.0000      -0.781486       -21.2653
  33   2.0000      -0.757346       -20.6084
  34   2.0000      -0.737177       -20.0596
  35   2.0000      -0.713202       -19.4072
  36   2.0000      -0.702695       -19.1213
  37   2.0000      -0.693509       -18.8713
  38   2.0000      -0.673594       -18.3294
  39   2.0000      -0.662757       -18.0345
  40   2.0000      -0.657600       -17.8942
  41   2.0000      -0.615197       -16.7404
  42   2.0000      -0.604988       -16.4626
  43   2.0000      -0.592244       -16.1158
  44   2.0000      -0.584754       -15.9120
  45   2.0000      -0.581113       -15.8129
  46   2.0000      -0.571029       -15.5385
  47   2.0000      -0.565329       -15.3834
  48   2.0000      -0.558734       -15.2039
  49   2.0000      -0.542343       -14.7579
  50   2.0000      -0.539609       -14.6835
  51   2.0000      -0.531656       -14.4671
  52   2.0000      -0.513384       -13.9699
  53   2.0000      -0.499742       -13.5987
  54   2.0000      -0.489127       -13.3098
  55   2.0000      -0.487065       -13.2537
  56   2.0000      -0.478462       -13.0196
  57   2.0000      -0.471336       -12.8257
  58   2.0000      -0.463340       -12.6081
  59   2.0000      -0.457674       -12.4539
  60   2.0000      -0.456165       -12.4129
  61   2.0000      -0.439958       -11.9719
  62   2.0000      -0.438610       -11.9352
  63   2.0000      -0.433167       -11.7871
  64   2.0000      -0.427521       -11.6334
  65   2.0000      -0.412815       -11.2333
  66   2.0000      -0.411037       -11.1849
  67   2.0000      -0.410101       -11.1594
  68   2.0000      -0.404510       -11.0073
  69   2.0000      -0.381402       -10.3785
  70   2.0000      -0.327974        -8.9246
  71   2.0000      -0.221937        -6.0392
  72   0.0000       0.101151         2.7525
  73   0.0000       0.125311         3.4099
  74   0.0000       0.131842         3.5876
  75   0.0000       0.144093         3.9210
  76   0.0000       0.149705         4.0737

MULLIKEN ATOMIC CHARGES
-----------------------
   0 C :    0.068239
   1 N :   -0.200554
   2 C :   -0.040439
   3 C :   -0.109247
   4 H :    0.078161
   5 H :    0.114269
   6 S :    0.986873
   7 C :    0.001614
   8 C :   -0.134987
   9 N :   -0.135174
  10 H :    0.106643
  11 H :    0.128027
  12 H :    0.117667
  13 H :   -0.036701
  14 H :   -0.061890
  15 O :   -0.427354
  16 O :   -0.420466
  17 C :    0.011777
  18 H :    0.011324
  19 H :    0.020007
  20 C :   -0.045311
  21 C :   -0.070611
  22 H :    0.023066
  23 H :   -0.007990
  24 H :    0.047938
  25 H :    0.066386
  26 C :   -0.055804
  27 H :    0.009556
  28 H :    0.022718
  29 C :   -0.067293
  30 H :    0.021750
  31 H :    0.032649
  32 C :    0.015963
  33 H :    0.019580
  34 H :    0.011500
  35 H :    0.034830
  36 H :    0.023644
  37 H :    0.017187
  38 H :    0.023985
  39 F :   -0.201530
Sum of atomic charges:   -0.0000000

LOEWDIN ATOMIC CHARGES
----------------------
   0 C :    0.028346
   1 N :   -0.044261
   2 C :   -0.050274
   3 C :   -0.141187
   4 H :    0.035966
   5 H :    0.058905
   6 S :    1.185007
   7 C :    0.032023
   8 C :   -0.263006
   9 N :   -0.042588
  10 H :    0.058616
  11 H :    0.081705
  12 H :    0.037230
  13 H :   -0.032181
  14 H :   -0.013999
  15 O :   -0.449088
  16 O :   -0.468056
  17 C :   -0.050390
  18 H :    0.019247
  19 H :    0.011802
  20 C :   -0.038545
  21 C :   -0.047353
  22 H :    0.023750
  23 H :    0.004680
  24 H :    0.037036
  25 H :    0.037102
  26 C :   -0.041868
  27 H :    0.020118
  28 H :    0.024088
  29 C :   -0.043629
  30 H :    0.024930
  31 H :    0.021249
  32 C :   -0.035851
  33 H :    0.024236
  34 H :    0.011503
  35 H :    0.025154
  36 H :    0.024934
  37 H :    0.021973
  38 H :    0.025252
  39 F :   -0.112580

  Mayer bond orders larger than 0.100000
B(  0-C ,  1-N ) :   1.0239 B(  0-C , 17-C ) :   1.0439 B(  0-C , 18-H ) :   0.9545
B(  0-C , 19-H ) :   0.9551 B(  1-N ,  7-C ) :   1.1612 B(  1-N , 12-H ) :   0.9140
B(  2-C ,  3-C ) :   1.0233 B(  2-C , 21-C ) :   1.0592 B(  2-C , 24-H ) :   0.9389
B(  2-C , 25-H ) :   0.9446 B(  3-C ,  4-H ) :   0.9311 B(  3-C ,  5-H ) :   0.9316
B(  3-C ,  6-S ) :   0.9202 B(  6-S , 15-O ) :   1.6963 B(  6-S , 16-O ) :   1.8168
B(  6-S , 39-F ) :   0.9229 B(  7-C ,  8-C ) :   1.7856 B(  7-C ,  9-N ) :   1.1881
B(  8-C , 13-H ) :   0.9145 B(  8-C , 14-H ) :   0.9436 B(  9-N , 10-H ) :   0.9497
B(  9-N , 11-H ) :   0.9458 B( 13-H , 15-O ) :   0.1190 B( 17-C , 26-C ) :   1.0751
B( 17-C , 27-H ) :   0.9425 B( 17-C , 28-H ) :   0.9385 B( 20-C , 21-C ) :   1.0626
B( 20-C , 32-C ) :   1.0753 B( 20-C , 35-H ) :   0.9493 B( 20-C , 36-H ) :   0.9472
B( 21-C , 22-H ) :   0.9461 B( 21-C , 23-H ) :   0.9433 B( 26-C , 29-C ) :   1.0504
B( 26-C , 30-H ) :   0.9500 B( 26-C , 31-H ) :   0.9425 B( 29-C , 32-C ) :   1.0802
B( 29-C , 33-H ) :   0.9441 B( 29-C , 34-H ) :   0.9463 B( 32-C , 37-H ) :   0.9478
B( 32-C , 38-H ) :   0.9474

Dispersion correction           -0.021849202
FINAL SINGLE POINT ENERGY     -1189.963249807281

DIPOLE MOMENT
-------------
                                X             Y             Z
Electronic contribution:    -18.55958       3.19284     -16.21317
Nuclear contribution   :     18.77618      -4.78855      17.68602
                        -----------------------------------------
Total Dipole Moment    :      0.21660      -1.59571       1.47285
                        -----------------------------------------
Magnitude (a.u.)       :      2.18231
Magnitude (Debye)      :      5.54700

Rotational constants in cm-1:     0.014368     0.012319     0.007509
Rotational constants in MHz :   430.738566   369.302170   225.105103

                             ****ORCA TERMINATED NORMALLY****
TOTAL RUN TIME: 0 days 0 hours 1 minutes 16 seconds 831 msec
