                         Program Version 5.0.0 -  RELEASE  -
|  1> !wB97X-D3 RIJCOSX def2-TZVP def2/J TightSCF
|  2> *xyz -1 1
|  3> C          1.22302        2.46987       -3.75691
|  4> O          2.35381        1.71203       -3.93448
|  5> H          1.26998        3.33359       -4.38673
|  6> H          1.15671        2.77738       -2.73420
|  7> H          0.36099        1.88932       -4.01140
|  8> *
|  9>
| 10> %MaxCore 64000
| 11>
| 12> %pal nprocs 18
| 13> end
| 14>
| 15> %scf
| 16>   MaxIter 150
| 17> end
| 18>
| 19>
| 20>                          ****END OF INPUT****

CARTESIAN COORDINATES (ANGSTROEM)
---------------------------------
  C      1.223020    2.469870   -3.756910
  O      2.353810    1.712030   -3.934480
  H      1.269980    3.333590   -4.386730
  H      1.156710    2.777380   -2.734200
  H      0.360990    1.889320   -4.011400

 Total Charge           Charge          ....   -1
 Multiplicity           Mult            ....    1
 Number of Electrons    NEL             ....   18
 Basis Dimension        Dim             ....   80

ORBITAL ENERGIES
----------------

  NO   OCC          E(Eh)            E(eV)
   0   2.0000     -18.839389      -512.6458
   1   2.0000     -10.043402      -273.2949
   2   2.0000      -0.749125       -20.3847
   3   2.0000      -0.495666       -13.4878
   4   2.0000      -0.282501        -7.6872
   5   2.0000      -0.282490        -7.6869
   6   2.0000      -0.173296        -4.7156
   7   2.0000      -0.019271        -0.5244
   8   2.0000      -0.019260        -0.5241
   9   0.0000       0.330107         8.9827
  10   0.0000       0.403107        10.9691
  11   0.0000       0.403113        10.9693
  12   0.0000       0.408274        11.1097
  13   0.0000       0.514087        13.9890

MULLIKEN ATOMIC CHARGES
-----------------------
   0 C :   -0.011203
   1 O :   -0.873562
   2 H :   -0.038397
   3 H :   -0.038415
   4 H :   -0.038423
Sum of atomic charges:   -1.0000000

LOEWDIN ATOMIC CHARGES
----------------------
   0 C :   -0.565575
   1 O :   -0.532185
   2 H :    0.032597
   3 H :    0.032577
   4 H :    0.032587

  Mayer bond orders larger than 0.100000
B(  0-C ,  1-O ) :   1.4570 B(  0-C ,  2-H ) :   0.9553 B(  0-C ,  3-H ) :   0.9553
B(  0-C ,  4-H ) :   0.9554

Dispersion correction           -0.000091274
FINAL SINGLE POINT ENERGY      -115.095449298916

DIPOLE MOMENT
-------------
                                X             Y             Z
Electronic contribution:      1.62614      -1.08989      -0.25545
Nuclear contribution   :     -2.37854       1.59406       0.37350
                        -----------------------------------------
Total Dipole Moment    :     -0.75240       0.50416       0.11806
                        -----------------------------------------
Magnitude (a.u.)       :      0.91336
Magnitude (Debye)      :      2.32157

Rotational constants in cm-1:     5.477743     0.935515     0.935515
Rotational constants in MHz : 164218.600605 28046.042741 28046.034116

                             ****ORCA TERMINATED NORMALLY****
TOTAL RUN TIME: 0 days 0 hours 0 minutes 4 seconds 336 msec
