                         Program Version 5.0.0 -  RELEASE  -
|  1> !wB97X-D3 RIJCOSX def2-TZVP def2/J TightSCF
|  2> *xyz 1 1
|  3> C          1.63556       -1.67040       -5.29211
|  4> N          2.48451       -0.50741       -5.14039
|  5> C          3.45115       -0.14953       -5.95259
|  6> N          3.92267        1.08956       -5.85071
|  7> N          3.96616       -1.00618       -6.86788
|  8> H          3.52139       -1.90647       -6.99527
|  9> H          4.44482       -0.62347       -7.67035
| 10> H          2.25200        0.24080       -4.49879
| 11> H          3.46428        1.64078       -5.13639
| 12> H          4.83447        1.31375       -6.22465
| 13> H          2.06372       -2.33262       -6.01532
| 14> H          0.66479       -1.36293       -5.62068
| 15> H          1.55078       -2.17513       -4.35245
| 16> *
| 17>
| 18> %MaxCore 64000
| 19>
| 20> %pal nprocs 18
| 21> end
| 22>
| 23> %scf
| 24>   MaxIter 150
| 25> end
| 26>
| 27>
| 28>                          ****END OF INPUT****

CARTESIAN COORDINATES (ANGSTROEM)
---------------------------------
  C      1.635560   -1.670400   -5.292110
  N      2.484510   -0.507410   -5.140390
  C      3.451150   -0.149530   -5.952590
  N      3.922670    1.089560   -5.850710
  N      3.966160   -1.006180   -6.867880
  H      3.521390   -1.906470   -6.995270
  H      4.444820   -0.623470   -7.670350
  H      2.252000    0.240800   -4.498790
  H      3.464280    1.640780   -5.136390
  H      4.834470    1.313750   -6.224650
  H      2.063720   -2.332620   -6.015320
  H      0.664790   -1.362930   -5.620680
  H      1.550780   -2.175130   -4.352450

 Total Charge           Charge          ....    1
 Multiplicity           Mult            ....    1
 Number of Electrons    NEL             ....   40
 Basis Dimension        Dim             ....  203

ORBITAL ENERGIES
----------------

  NO   OCC          E(Eh)            E(eV)
   0   2.0000     -14.657293      -398.8452
   1   2.0000     -14.648186      -398.5974
   2   2.0000     -14.644912      -398.5083
   3   2.0000     -10.616389      -288.8866
   4   2.0000     -10.483172      -285.2616
   5   2.0000      -1.343097       -36.5475
   6   2.0000      -1.227104       -33.3912
   7   2.0000      -1.212894       -33.0045
   8   2.0000      -1.027890       -27.9703
   9   2.0000      -0.937828       -25.5196
  10   2.0000      -0.889997       -24.2181
  11   2.0000      -0.864605       -23.5271
  12   2.0000      -0.792805       -21.5733
  13   2.0000      -0.790520       -21.5111
  14   2.0000      -0.763520       -20.7764
  15   2.0000      -0.747052       -20.3283
  16   2.0000      -0.694509       -18.8985
  17   2.0000      -0.684664       -18.6306
  18   2.0000      -0.575982       -15.6733
  19   2.0000      -0.553354       -15.0575
  20   0.0000      -0.086727        -2.3600
  21   0.0000      -0.073985        -2.0132
  22   0.0000      -0.040925        -1.1136
  23   0.0000      -0.023011        -0.6262
  24   0.0000       0.002305         0.0627

MULLIKEN ATOMIC CHARGES
-----------------------
   0 C :   -0.220147
   1 N :   -0.269679
   2 C :    0.477005
   3 N :   -0.431361
   4 N :   -0.457798
   5 H :    0.281154
   6 H :    0.302303
   7 H :    0.257956
   8 H :    0.280754
   9 H :    0.310361
  10 H :    0.105705
  11 H :    0.180194
  12 H :    0.183553
Sum of atomic charges:    1.0000000

LOEWDIN ATOMIC CHARGES
----------------------
   0 C :   -0.249031
   1 N :    0.154935
   2 C :   -0.399876
   3 N :    0.061216
   4 N :    0.045319
   5 H :    0.189454
   6 H :    0.198161
   7 H :    0.211568
   8 H :    0.199147
   9 H :    0.202861
  10 H :    0.120245
  11 H :    0.131478
  12 H :    0.134523

  Mayer bond orders larger than 0.100000
B(  0-C ,  1-N ) :   0.8872 B(  0-C , 10-H ) :   0.9714 B(  0-C , 11-H ) :   0.9632
B(  0-C , 12-H ) :   0.9587 B(  1-N ,  2-C ) :   1.4066 B(  1-N ,  7-H ) :   0.9001
B(  2-C ,  3-N ) :   1.3322 B(  2-C ,  4-N ) :   1.3068 B(  3-N ,  8-H ) :   0.8971
B(  3-N ,  9-H ) :   0.8834 B(  4-N ,  5-H ) :   0.8987 B(  4-N ,  6-H ) :   0.8883

Dispersion correction           -0.002352595
FINAL SINGLE POINT ENERGY      -245.102498452267

DIPOLE MOMENT
-------------
                                X             Y             Z
Electronic contribution:      1.96456       1.93612      -0.26189
Nuclear contribution   :     -1.83770      -1.53167       0.12165
                        -----------------------------------------
Total Dipole Moment    :      0.12686       0.40445      -0.14023
                        -----------------------------------------
Magnitude (a.u.)       :      0.44648
Magnitude (Debye)      :      1.13485

Rotational constants in cm-1:     0.307545     0.135665     0.096412
Rotational constants in MHz :  9219.967860  4067.145400  2890.348280

                             ****ORCA TERMINATED NORMALLY****
TOTAL RUN TIME: 0 days 0 hours 0 minutes 12 seconds 839 msec
