                         Program Version 5.0.0 -  RELEASE  -
|  1> !wB97X-D3 RIJCOSX def2-TZVP def2/J TightSCF xyzfile
|  2>
|  3> *xyzfile 0 1 B.xyz
|  4>
|  5> %MaxCore 64000
|  6>
|  7> %pal nprocs 18
|  8> end
|  9>
| 10> %scf
| 11>   MaxIter 150
| 12> end
| 13>
| 14>
| 15>                          ****END OF INPUT****

CARTESIAN COORDINATES (ANGSTROEM)
---------------------------------
  C      1.635557   -1.670396   -5.292109
  C      0.338484   -1.500907   -4.505398
  N      2.484511   -0.507410   -5.140392
  C     -0.684873   -0.528026   -5.099889
  C     -0.290406    0.951335   -5.153423
  H      0.607991    1.070692   -5.764412
  C     -0.055168    1.619420   -3.788577
  H     -1.080912    1.483775   -5.689436
  H      0.045006    0.862302   -3.003015
  H     -0.922936    2.230329   -3.517028
  C      1.223022    2.469865   -3.756911
  H      1.114701    3.258074   -4.532999
  H      1.237732    3.011242   -2.792157
  O      2.353815    1.712032   -3.934477
  H      1.398337   -1.829239   -6.352591
  H      2.155864   -2.565398   -4.932091
  C      3.451149   -0.149530   -5.952589
  N      3.922667    1.089559   -5.850711
  N      3.966162   -1.006183   -6.867880
  H      3.521391   -1.906467   -6.995270
  H      4.444824   -0.623472   -7.670348
  H      2.251995    0.240804   -4.498792
  H      3.464277    1.640782   -5.136392
  H      4.834470    1.313745   -6.224653
  H     -0.937999   -0.869056   -6.110838
  H     -1.604638   -0.622496   -4.513132
  H      0.594887   -1.211578   -3.482312
  H     -0.126530   -2.487656   -4.434176

 Total Charge           Charge          ....    0
 Multiplicity           Mult            ....    1
 Number of Electrons    NEL             ....   88
 Basis Dimension        Dim             ....  443

ORBITAL ENERGIES
----------------

  NO   OCC          E(Eh)            E(eV)
   0   2.0000     -19.089533      -519.4526
   1   2.0000     -14.479250      -394.0004
   2   2.0000     -14.437317      -392.8594
   3   2.0000     -14.434406      -392.7801
   4   2.0000     -10.422795      -283.6187
   5   2.0000     -10.327136      -281.0156
   6   2.0000     -10.277837      -279.6742
   7   2.0000     -10.264558      -279.3128
   8   2.0000     -10.249112      -278.8925
   9   2.0000     -10.245616      -278.7974
  10   2.0000     -10.226628      -278.2807
  11   2.0000      -1.149912       -31.2907
  12   2.0000      -1.043137       -28.3852
  13   2.0000      -1.022634       -27.8273
  14   2.0000      -0.993192       -27.0261
  15   2.0000      -0.916387       -24.9362
  16   2.0000      -0.861006       -23.4292
  17   2.0000      -0.803308       -21.8591
  18   2.0000      -0.761843       -20.7308
  19   2.0000      -0.735432       -20.0121
  20   2.0000      -0.702735       -19.1224
  21   2.0000      -0.684993       -18.6396
  22   2.0000      -0.666350       -18.1323
  23   2.0000      -0.633473       -17.2377
  24   2.0000      -0.608057       -16.5461
  25   2.0000      -0.597836       -16.2679
  26   2.0000      -0.589707       -16.0467
  27   2.0000      -0.576680       -15.6923
  28   2.0000      -0.540244       -14.7008
  29   2.0000      -0.525111       -14.2890
  30   2.0000      -0.513780       -13.9807
  31   2.0000      -0.508755       -13.8439
  32   2.0000      -0.480648       -13.0791
  33   2.0000      -0.460621       -12.5341
  34   2.0000      -0.452998       -12.3267
  35   2.0000      -0.430567       -11.7163
  36   2.0000      -0.412552       -11.2261
  37   2.0000      -0.404232       -10.9997
  38   2.0000      -0.395652       -10.7663
  39   2.0000      -0.387208       -10.5365
  40   2.0000      -0.380664       -10.3584
  41   2.0000      -0.352685        -9.5971
  42   2.0000      -0.265923        -7.2361
  43   2.0000      -0.259102        -7.0505
  44   0.0000       0.078597         2.1387
  45   0.0000       0.094891         2.5821
  46   0.0000       0.111564         3.0358
  47   0.0000       0.128898         3.5075
  48   0.0000       0.146152         3.9770

MULLIKEN ATOMIC CHARGES
-----------------------
   0 C :   -0.140533
   1 C :   -0.227942
   2 N :   -0.247422
   3 C :   -0.200741
   4 C :   -0.210137
   5 H :    0.100905
   6 C :   -0.154376
   7 H :    0.092772
   8 H :    0.065574
   9 H :    0.075445
  10 C :    0.059090
  11 H :    0.019082
  12 H :    0.036681
  13 O :   -0.764029
  14 H :    0.098893
  15 H :    0.125199
  16 C :    0.457274
  17 N :   -0.451447
  18 N :   -0.508796
  19 H :    0.271721
  20 H :    0.264953
  21 H :    0.258411
  22 H :    0.291637
  23 H :    0.241013
  24 H :    0.088957
  25 H :    0.107678
  26 H :    0.137210
  27 H :    0.112930
Sum of atomic charges:   -0.0000000

LOEWDIN ATOMIC CHARGES
----------------------
   0 C :   -0.283359
   1 C :   -0.265175
   2 N :    0.172112
   3 C :   -0.272369
   4 C :   -0.273311
   5 H :    0.135461
   6 C :   -0.284155
   7 H :    0.131224
   8 H :    0.126870
   9 H :    0.125495
  10 C :   -0.466525
  11 H :    0.092726
  12 H :    0.099165
  13 O :   -0.314151
  14 H :    0.128158
  15 H :    0.130505
  16 C :   -0.417976
  17 N :    0.037108
  18 N :   -0.001846
  19 H :    0.178743
  20 H :    0.178271
  21 H :    0.161810
  22 H :    0.155925
  23 H :    0.171008
  24 H :    0.131418
  25 H :    0.138994
  26 H :    0.143357
  27 H :    0.140517

  Mayer bond orders larger than 0.100000
B(  0-C ,  1-C ) :   0.9970 B(  0-C ,  2-N ) :   0.9111 B(  0-C , 14-H ) :   0.9619
B(  0-C , 15-H ) :   0.9516 B(  1-C ,  3-C ) :   0.9825 B(  1-C , 26-H ) :   0.9798
B(  1-C , 27-H ) :   0.9736 B(  2-N , 16-C ) :   1.4621 B(  2-N , 21-H ) :   0.7336
B(  3-C ,  4-C ) :   0.9757 B(  3-C , 24-H ) :   0.9773 B(  3-C , 25-H ) :   0.9748
B(  4-C ,  5-H ) :   0.9767 B(  4-C ,  6-C ) :   0.9506 B(  4-C ,  7-H ) :   0.9742
B(  6-C ,  8-H ) :   0.9788 B(  6-C ,  9-H ) :   0.9589 B(  6-C , 10-C ) :   0.9583
B( 10-C , 11-H ) :   0.9710 B( 10-C , 12-H ) :   0.9577 B( 10-C , 13-O ) :   1.1730
B( 13-O , 21-H ) :   0.2814 B( 13-O , 22-H ) :   0.2276 B( 16-C , 17-N ) :   1.3939
B( 16-C , 18-N ) :   1.2116 B( 17-N , 22-H ) :   0.7523 B( 17-N , 23-H ) :   0.9153
B( 18-N , 19-H ) :   0.9091 B( 18-N , 20-H ) :   0.9081

Dispersion correction           -0.011927497
FINAL SINGLE POINT ENERGY      -516.507470510273

DIPOLE MOMENT
-------------
                                X             Y             Z
Electronic contribution:      8.40904      -0.94846      -2.29600
Nuclear contribution   :     -7.46499      -1.05836       0.01518
                        -----------------------------------------
Total Dipole Moment    :      0.94405      -2.00682      -2.28083
                        -----------------------------------------
Magnitude (a.u.)       :      3.18131
Magnitude (Debye)      :      8.08624

Rotational constants in cm-1:     0.044680     0.028958     0.019773
Rotational constants in MHz :  1339.486245   868.136755   592.791310

                             ****ORCA TERMINATED NORMALLY****
TOTAL RUN TIME: 0 days 0 hours 0 minutes 54 seconds 929 msec
