                         Program Version 5.0.0 -  RELEASE  -
|  1> !wB97X-D3 RIJCOSX def2-TZVP def2/J TightSCF
|  2> *xyz 0 1
|  3> C          1.22302        2.46987       -3.75691
|  4> F          2.35381        1.71203       -3.93448
|  5> H          1.26998        3.33359       -4.38673
|  6> H          1.15671        2.77738       -2.73420
|  7> H          0.36099        1.88932       -4.01140
|  8> *
|  9>
| 10> %MaxCore 64000
| 11>
| 12> %pal nprocs 18
| 13> end
| 14>
| 15> %scf
| 16>   MaxIter 150
| 17> end
| 18>
| 19>
| 20>                          ****END OF INPUT****

CARTESIAN COORDINATES (ANGSTROEM)
---------------------------------
  C      1.223020    2.469870   -3.756910
  F      2.353810    1.712030   -3.934480
  H      1.269980    3.333590   -4.386730
  H      1.156710    2.777380   -2.734200
  H      0.360990    1.889320   -4.011400

 Total Charge           Charge          ....    0
 Multiplicity           Mult            ....    1
 Number of Electrons    NEL             ....   18
 Basis Dimension        Dim             ....   80

ORBITAL ENERGIES
----------------

  NO   OCC          E(Eh)            E(eV)
   0   2.0000     -24.763068      -673.8373
   1   2.0000     -10.338654      -281.3291
   2   2.0000      -1.307531       -35.5797
   3   2.0000      -0.819904       -22.3107
   4   2.0000      -0.592470       -16.1219
   5   2.0000      -0.589674       -16.0458
   6   2.0000      -0.589669       -16.0457
   7   2.0000      -0.445854       -12.1323
   8   2.0000      -0.445847       -12.1321
   9   0.0000       0.139182         3.7873
  10   0.0000       0.163419         4.4469
  11   0.0000       0.203929         5.5492
  12   0.0000       0.203930         5.5492
  13   0.0000       0.295057         8.0289

MULLIKEN ATOMIC CHARGES
-----------------------
   0 C :   -0.069915
   1 F :   -0.249820
   2 H :    0.106570
   3 H :    0.106556
   4 H :    0.106609
Sum of atomic charges:    0.0000000

LOEWDIN ATOMIC CHARGES
----------------------
   0 C :   -0.342021
   1 F :    0.057956
   2 H :    0.094690
   3 H :    0.094676
   4 H :    0.094699

  Mayer bond orders larger than 0.100000
B(  0-C ,  1-F ) :   0.9791 B(  0-C ,  2-H ) :   0.9787 B(  0-C ,  3-H ) :   0.9787
B(  0-C ,  4-H ) :   0.9787

Dispersion correction           -0.000131037
FINAL SINGLE POINT ENERGY      -139.764819760093

DIPOLE MOMENT
-------------
                                X             Y             Z
Electronic contribution:      2.42255      -1.62362      -0.38047
Nuclear contribution   :     -3.01708       2.02200       0.47377
                        -----------------------------------------
Total Dipole Moment    :     -0.59454       0.39838       0.09331
                        -----------------------------------------
Magnitude (a.u.)       :      0.72172
Magnitude (Debye)      :      1.83448

Rotational constants in cm-1:     5.477743     0.870792     0.870792
Rotational constants in MHz : 164218.600605 26105.683059 26105.675587

                             ****ORCA TERMINATED NORMALLY****
TOTAL RUN TIME: 0 days 0 hours 0 minutes 3 seconds 968 msec
