                         Program Version 5.0.0 -  RELEASE  -
|  1> !wB97X-D3 RIJCOSX def2-TZVP def2/J TightSCF
|  2> *xyz 0 1
|  3> C          1.63556       -1.67040       -5.29211
|  4> C          2.48451       -0.50741       -5.14039
|  5> C          3.45115       -0.14953       -5.95259
|  6> N          3.92267        1.08956       -5.85071
|  7> N          3.96616       -1.00618       -6.86788
|  8> H          3.52139       -1.90647       -6.99527
|  9> H          4.44482       -0.62347       -7.67035
| 10> H          2.25200        0.24080       -4.49879
| 11> H          3.46428        1.64078       -5.13639
| 12> H          4.83447        1.31375       -6.22465
| 13> H          2.06372       -2.33262       -6.01532
| 14> H          0.66479       -1.36293       -5.62068
| 15> H          1.55078       -2.17513       -4.35245
| 16> *
| 17>
| 18> %MaxCore 64000
| 19>
| 20> %pal nprocs 18
| 21> end
| 22>
| 23> %scf
| 24>   MaxIter 150
| 25> end
| 26>
| 27>
| 28>                          ****END OF INPUT****

CARTESIAN COORDINATES (ANGSTROEM)
---------------------------------
  C      1.635560   -1.670400   -5.292110
  C      2.484510   -0.507410   -5.140390
  C      3.451150   -0.149530   -5.952590
  N      3.922670    1.089560   -5.850710
  N      3.966160   -1.006180   -6.867880
  H      3.521390   -1.906470   -6.995270
  H      4.444820   -0.623470   -7.670350
  H      2.252000    0.240800   -4.498790
  H      3.464280    1.640780   -5.136390
  H      4.834470    1.313750   -6.224650
  H      2.063720   -2.332620   -6.015320
  H      0.664790   -1.362930   -5.620680
  H      1.550780   -2.175130   -4.352450

 Total Charge           Charge          ....    0
 Multiplicity           Mult            ....    1
 Number of Electrons    NEL             ....   40
 Basis Dimension        Dim             ....  203

ORBITAL ENERGIES
----------------

  NO   OCC          E(Eh)            E(eV)
   0   2.0000     -14.415539      -392.2668
   1   2.0000     -14.412969      -392.1968
   2   2.0000     -10.311843      -280.5995
   3   2.0000     -10.238619      -278.6070
   4   2.0000     -10.194197      -277.3982
   5   2.0000      -1.072102       -29.1734
   6   2.0000      -0.982207       -26.7272
   7   2.0000      -0.870203       -23.6794
   8   2.0000      -0.768778       -20.9195
   9   2.0000      -0.686285       -18.6748
  10   2.0000      -0.638578       -17.3766
  11   2.0000      -0.611316       -16.6347
  12   2.0000      -0.562219       -15.2988
  13   2.0000      -0.522992       -14.2313
  14   2.0000      -0.508104       -13.8262
  15   2.0000      -0.477638       -12.9972
  16   2.0000      -0.454606       -12.3705
  17   2.0000      -0.439652       -11.9635
  18   2.0000      -0.355898        -9.6845
  19   2.0000      -0.245362        -6.6766
  20   0.0000       0.108037         2.9398
  21   0.0000       0.137595         3.7441
  22   0.0000       0.151466         4.1216
  23   0.0000       0.165873         4.5136
  24   0.0000       0.180365         4.9080

MULLIKEN ATOMIC CHARGES
-----------------------
   0 C :   -0.271178
   1 C :   -0.286186
   2 C :    0.342334
   3 N :   -0.513111
   4 N :   -0.527366
   5 H :    0.233214
   6 H :    0.230664
   7 H :    0.058843
   8 H :    0.245268
   9 H :    0.233241
  10 H :    0.040001
  11 H :    0.104198
  12 H :    0.110078
Sum of atomic charges:   -0.0000000

LOEWDIN ATOMIC CHARGES
----------------------
   0 C :   -0.304567
   1 C :   -0.305600
   2 C :   -0.461209
   3 N :   -0.025995
   4 N :   -0.037881
   5 H :    0.167511
   6 H :    0.160172
   7 H :    0.117528
   8 H :    0.181145
   9 H :    0.162504
  10 H :    0.109676
  11 H :    0.117607
  12 H :    0.119109

  Mayer bond orders larger than 0.100000
B(  0-C ,  1-C ) :   0.9767 B(  0-C , 10-H ) :   0.9913 B(  0-C , 11-H ) :   0.9764
B(  0-C , 12-H ) :   0.9909 B(  1-C ,  2-C ) :   1.6953 B(  1-C ,  7-H ) :   0.9962
B(  2-C ,  3-N ) :   1.1544 B(  2-C ,  4-N ) :   1.1243 B(  3-N ,  8-H ) :   0.9188
B(  3-N ,  9-H ) :   0.9201 B(  4-N ,  5-H ) :   0.9273 B(  4-N ,  6-H ) :   0.9213

Dispersion correction           -0.002355291
FINAL SINGLE POINT ENERGY      -228.623590620365

DIPOLE MOMENT
-------------
                                X             Y             Z
Electronic contribution:      2.44759       1.89027      -0.82319
Nuclear contribution   :     -1.96139      -1.54412       0.26148
                        -----------------------------------------
Total Dipole Moment    :      0.48620       0.34615      -0.56172
                        -----------------------------------------
Magnitude (a.u.)       :      0.81960
Magnitude (Debye)      :      2.08325

Rotational constants in cm-1:     0.312277     0.136708     0.097371
Rotational constants in MHz :  9361.815989  4098.393303  2919.105491

                             ****ORCA TERMINATED NORMALLY****
TOTAL RUN TIME: 0 days 0 hours 0 minutes 11 seconds 638 msec
