                         Program Version 5.0.0 -  RELEASE  -
|  1> !wB97X-D3 RIJCOSX def2-TZVP def2/J TightSCF
|  2> *xyz 0 1
|  3> C          1.63556       -1.67040       -5.29211
|  4> N          2.48451       -0.50741       -5.14039
|  5> C          3.45115       -0.14953       -5.95259
|  6> C          3.92267        1.08956       -5.85071
|  7> N          3.96616       -1.00618       -6.86788
|  8> H          3.52139       -1.90647       -6.99527
|  9> H          4.44482       -0.62347       -7.67035
| 10> H          2.25200        0.24080       -4.49879
| 11> H          3.46428        1.64078       -5.13639
| 12> H          4.83447        1.31375       -6.22465
| 13> H          2.06372       -2.33262       -6.01532
| 14> H          0.66479       -1.36293       -5.62068
| 15> H          1.55078       -2.17513       -4.35245
| 16> *
| 17>
| 18> %MaxCore 64000
| 19>
| 20> %pal nprocs 18
| 21> end
| 22>
| 23> %scf
| 24>   MaxIter 150
| 25> end
| 26>
| 27>
| 28>                          ****END OF INPUT****

CARTESIAN COORDINATES (ANGSTROEM)
---------------------------------
  C      1.635560   -1.670400   -5.292110
  N      2.484510   -0.507410   -5.140390
  C      3.451150   -0.149530   -5.952590
  C      3.922670    1.089560   -5.850710
  N      3.966160   -1.006180   -6.867880
  H      3.521390   -1.906470   -6.995270
  H      4.444820   -0.623470   -7.670350
  H      2.252000    0.240800   -4.498790
  H      3.464280    1.640780   -5.136390
  H      4.834470    1.313750   -6.224650
  H      2.063720   -2.332620   -6.015320
  H      0.664790   -1.362930   -5.620680
  H      1.550780   -2.175130   -4.352450

 Total Charge           Charge          ....    0
 Multiplicity           Mult            ....    1
 Number of Electrons    NEL             ....   40
 Basis Dimension        Dim             ....  203

ORBITAL ENERGIES
----------------

  NO   OCC          E(Eh)            E(eV)
   0   2.0000     -14.423206      -392.4754
   1   2.0000     -14.419030      -392.3618
   2   2.0000     -10.320121      -280.8248
   3   2.0000     -10.308181      -280.4999
   4   2.0000     -10.179292      -276.9926
   5   2.0000      -1.087914       -29.6036
   6   2.0000      -0.997235       -27.1361
   7   2.0000      -0.865379       -23.5482
   8   2.0000      -0.778494       -21.1839
   9   2.0000      -0.704715       -19.1763
  10   2.0000      -0.639751       -17.4085
  11   2.0000      -0.594531       -16.1780
  12   2.0000      -0.574799       -15.6411
  13   2.0000      -0.556944       -15.1552
  14   2.0000      -0.506908       -13.7937
  15   2.0000      -0.487939       -13.2775
  16   2.0000      -0.476884       -12.9767
  17   2.0000      -0.459950       -12.5159
  18   2.0000      -0.349448        -9.5090
  19   2.0000      -0.248124        -6.7518
  20   0.0000       0.106275         2.8919
  21   0.0000       0.135492         3.6869
  22   0.0000       0.144589         3.9345
  23   0.0000       0.167143         4.5482
  24   0.0000       0.179896         4.8952

MULLIKEN ATOMIC CHARGES
-----------------------
   0 C :   -0.194209
   1 N :   -0.335568
   2 C :    0.412746
   3 C :   -0.555882
   4 N :   -0.523920
   5 H :    0.215004
   6 H :    0.261814
   7 H :    0.227062
   8 H :    0.057953
   9 H :    0.110373
  10 H :    0.078995
  11 H :    0.119153
  12 H :    0.126479
Sum of atomic charges:   -0.0000000

LOEWDIN ATOMIC CHARGES
----------------------
   0 C :   -0.297817
   1 N :    0.097402
   2 C :   -0.461333
   3 C :   -0.354741
   4 N :   -0.030082
   5 H :    0.154900
   6 H :    0.176720
   7 H :    0.197591
   8 H :    0.095306
   9 H :    0.096194
  10 H :    0.108677
  11 H :    0.106513
  12 H :    0.110671

  Mayer bond orders larger than 0.100000
B(  0-C ,  1-N ) :   0.9362 B(  0-C , 10-H ) :   0.9808 B(  0-C , 11-H ) :   0.9747
B(  0-C , 12-H ) :   0.9764 B(  1-N ,  2-C ) :   1.2095 B(  1-N ,  7-H ) :   0.9226
B(  2-C ,  3-C ) :   1.5947 B(  2-C ,  4-N ) :   1.1071 B(  3-C ,  8-H ) :   1.0147
B(  3-C ,  9-H ) :   1.0040 B(  4-N ,  5-H ) :   0.9312 B(  4-N ,  6-H ) :   0.9175

Dispersion correction           -0.002365914
FINAL SINGLE POINT ENERGY      -228.609898039651

DIPOLE MOMENT
-------------
                                X             Y             Z
Electronic contribution:      0.98515       0.24031      -0.23003
Nuclear contribution   :     -1.67010      -1.22066       0.11760
                        -----------------------------------------
Total Dipole Moment    :     -0.68494      -0.98036      -0.11243
                        -----------------------------------------
Magnitude (a.u.)       :      1.20120
Magnitude (Debye)      :      3.05321

Rotational constants in cm-1:     0.314526     0.141398     0.099973
Rotational constants in MHz :  9429.255015  4239.015262  2997.111162

                             ****ORCA TERMINATED NORMALLY****
TOTAL RUN TIME: 0 days 0 hours 0 minutes 12 seconds 241 msec
