                         Program Version 5.0.0 -  RELEASE  -
|  1> !wB97X-D3 RIJCOSX def2-TZVP def2/J TightSCF
|  2> *xyz 0 1
|  3> C          1.63556       -1.67040       -5.29211
|  4> N          2.48451       -0.50741       -5.14039
|  5> C          3.45115       -0.14953       -5.95259
|  6> N          3.92267        1.08956       -5.85071
|  7> C          3.96616       -1.00618       -6.86788
|  8> H          3.52139       -1.90647       -6.99527
|  9> H          4.44482       -0.62347       -7.67035
| 10> H          2.25200        0.24080       -4.49879
| 11> H          3.46428        1.64078       -5.13639
| 12> H          4.83447        1.31375       -6.22465
| 13> H          2.06372       -2.33262       -6.01532
| 14> H          0.66479       -1.36293       -5.62068
| 15> H          1.55078       -2.17513       -4.35245
| 16> *
| 17>
| 18> %MaxCore 64000
| 19>
| 20> %pal nprocs 18
| 21> end
| 22>
| 23> %scf
| 24>   MaxIter 150
| 25> end
| 26>
| 27>
| 28>                          ****END OF INPUT****

CARTESIAN COORDINATES (ANGSTROEM)
---------------------------------
  C      1.635560   -1.670400   -5.292110
  N      2.484510   -0.507410   -5.140390
  C      3.451150   -0.149530   -5.952590
  N      3.922670    1.089560   -5.850710
  C      3.966160   -1.006180   -6.867880
  H      3.521390   -1.906470   -6.995270
  H      4.444820   -0.623470   -7.670350
  H      2.252000    0.240800   -4.498790
  H      3.464280    1.640780   -5.136390
  H      4.834470    1.313750   -6.224650
  H      2.063720   -2.332620   -6.015320
  H      0.664790   -1.362930   -5.620680
  H      1.550780   -2.175130   -4.352450

 Total Charge           Charge          ....    0
 Multiplicity           Mult            ....    1
 Number of Electrons    NEL             ....   40
 Basis Dimension        Dim             ....  203

ORBITAL ENERGIES
----------------

  NO   OCC          E(Eh)            E(eV)
   0   2.0000     -14.427864      -392.6021
   1   2.0000     -14.422075      -392.4446
   2   2.0000     -10.322273      -280.8833
   3   2.0000     -10.298936      -280.2483
   4   2.0000     -10.178692      -276.9763
   5   2.0000      -1.095974       -29.8230
   6   2.0000      -1.002030       -27.2666
   7   2.0000      -0.833114       -22.6702
   8   2.0000      -0.812524       -22.1099
   9   2.0000      -0.671682       -18.2774
  10   2.0000      -0.645971       -17.5778
  11   2.0000      -0.632677       -17.2160
  12   2.0000      -0.558044       -15.1852
  13   2.0000      -0.549931       -14.9644
  14   2.0000      -0.514184       -13.9917
  15   2.0000      -0.480608       -13.0780
  16   2.0000      -0.468514       -12.7489
  17   2.0000      -0.455927       -12.4064
  18   2.0000      -0.346957        -9.4412
  19   2.0000      -0.248633        -6.7656
  20   0.0000       0.100153         2.7253
  21   0.0000       0.140375         3.8198
  22   0.0000       0.148792         4.0488
  23   0.0000       0.162117         4.4114
  24   0.0000       0.181702         4.9444

MULLIKEN ATOMIC CHARGES
-----------------------
   0 C :   -0.195031
   1 N :   -0.341900
   2 C :    0.396157
   3 N :   -0.500903
   4 C :   -0.552189
   5 H :    0.060737
   6 H :    0.098813
   7 H :    0.188767
   8 H :    0.212122
   9 H :    0.267794
  10 H :    0.126575
  11 H :    0.118389
  12 H :    0.120670
Sum of atomic charges:   -0.0000000

LOEWDIN ATOMIC CHARGES
----------------------
   0 C :   -0.284105
   1 N :    0.095647
   2 C :   -0.471700
   3 N :   -0.014987
   4 C :   -0.371307
   5 H :    0.088982
   6 H :    0.093638
   7 H :    0.177205
   8 H :    0.162918
   9 H :    0.181661
  10 H :    0.124122
  11 H :    0.107789
  12 H :    0.110139

  Mayer bond orders larger than 0.100000
B(  0-C ,  1-N ) :   0.9083 B(  0-C , 10-H ) :   0.9761 B(  0-C , 11-H ) :   0.9818
B(  0-C , 12-H ) :   0.9766 B(  1-N ,  2-C ) :   1.1772 B(  1-N ,  7-H ) :   0.9335
B(  2-C ,  3-N ) :   1.1360 B(  2-C ,  4-C ) :   1.5883 B(  3-N ,  8-H ) :   0.9283
B(  3-N ,  9-H ) :   0.9127 B(  4-C ,  5-H ) :   1.0244 B(  4-C ,  6-H ) :   1.0037

Dispersion correction           -0.002354049
FINAL SINGLE POINT ENERGY      -228.608739063953

DIPOLE MOMENT
-------------
                                X             Y             Z
Electronic contribution:      1.01700       2.40455       0.91488
Nuclear contribution   :     -1.66129      -1.64514      -0.08842
                        -----------------------------------------
Total Dipole Moment    :     -0.64429       0.75940       0.82646
                        -----------------------------------------
Magnitude (a.u.)       :      1.29415
Magnitude (Debye)      :      3.28948

Rotational constants in cm-1:     0.330436     0.136339     0.098902
Rotational constants in MHz :  9906.231858  4087.333233  2964.994979

                             ****ORCA TERMINATED NORMALLY****
TOTAL RUN TIME: 0 days 0 hours 0 minutes 12 seconds 625 msec
