                         Program Version 5.0.0 -  RELEASE  -
|  1> !wB97X-D3 RIJCOSX def2-TZVP def2/J TightSCF xyzfile
|  2>
|  3> *xyzfile 0 1 D1.xyz
|  4>
|  5> %MaxCore 64000
|  6>
|  7> %pal nprocs 18
|  8> end
|  9>
| 10> %scf
| 11>   MaxIter 150
| 12> end
| 13>
| 14>
| 15>                          ****END OF INPUT****

CARTESIAN COORDINATES (ANGSTROEM)
---------------------------------
  C      1.635557   -1.670396   -5.292109
  C      0.338484   -1.500907   -4.505398
  C      2.484511   -0.507410   -5.140392
  C     -0.684873   -0.528026   -5.099889
  C     -0.290406    0.951335   -5.153423
  H      0.607991    1.070692   -5.764412
  C     -0.055168    1.619420   -3.788577
  H     -1.080912    1.483775   -5.689436
  H      0.045006    0.862302   -3.003015
  H     -0.922936    2.230329   -3.517028
  C      1.223022    2.469865   -3.756911
  H      1.114701    3.258074   -4.532999
  H      1.237732    3.011242   -2.792157
  F      2.353815    1.712032   -3.934477
  H      1.398337   -1.829239   -6.352591
  H      2.155864   -2.565398   -4.932091
  C      3.451149   -0.149530   -5.952589
  N      3.922667    1.089559   -5.850711
  N      3.966162   -1.006183   -6.867880
  H      3.521391   -1.906467   -6.995270
  H      4.444824   -0.623472   -7.670348
  H      2.251995    0.240804   -4.498792
  H      3.464277    1.640782   -5.136392
  H      4.834470    1.313745   -6.224653
  H     -0.937999   -0.869056   -6.110838
  H     -1.604638   -0.622496   -4.513132
  H      0.594887   -1.211578   -3.482312
  H     -0.126530   -2.487656   -4.434176

 Total Charge           Charge          ....    0
 Multiplicity           Mult            ....    1
 Number of Electrons    NEL             ....   88
 Basis Dimension        Dim             ....  443

ORBITAL ENERGIES
----------------

  NO   OCC          E(Eh)            E(eV)
   0   2.0000     -24.797490      -674.7740
   1   2.0000     -14.404539      -391.9674
   2   2.0000     -14.388478      -391.5304
   3   2.0000     -10.363058      -281.9931
   4   2.0000     -10.294286      -280.1218
   5   2.0000     -10.280509      -279.7469
   6   2.0000     -10.262908      -279.2679
   7   2.0000     -10.260056      -279.1903
   8   2.0000     -10.250133      -278.9203
   9   2.0000     -10.239253      -278.6242
  10   2.0000     -10.163932      -276.5746
  11   2.0000      -1.349495       -36.7216
  12   2.0000      -1.055711       -28.7273
  13   2.0000      -0.966837       -26.3090
  14   2.0000      -0.925886       -25.1946
  15   2.0000      -0.891261       -24.2525
  16   2.0000      -0.840576       -22.8732
  17   2.0000      -0.803817       -21.8730
  18   2.0000      -0.750634       -20.4258
  19   2.0000      -0.716764       -19.5041
  20   2.0000      -0.682216       -18.5640
  21   2.0000      -0.661582       -18.0026
  22   2.0000      -0.639155       -17.3923
  23   2.0000      -0.622946       -16.9512
  24   2.0000      -0.608307       -16.5529
  25   2.0000      -0.603036       -16.4094
  26   2.0000      -0.585758       -15.9393
  27   2.0000      -0.557001       -15.1568
  28   2.0000      -0.539470       -14.6797
  29   2.0000      -0.535139       -14.5619
  30   2.0000      -0.514048       -13.9880
  31   2.0000      -0.499009       -13.5787
  32   2.0000      -0.487995       -13.2790
  33   2.0000      -0.474633       -12.9154
  34   2.0000      -0.455700       -12.4002
  35   2.0000      -0.452848       -12.3226
  36   2.0000      -0.443729       -12.0745
  37   2.0000      -0.429493       -11.6871
  38   2.0000      -0.410735       -11.1767
  39   2.0000      -0.399210       -10.8631
  40   2.0000      -0.393151       -10.6982
  41   2.0000      -0.381220       -10.3735
  42   2.0000      -0.340222        -9.2579
  43   2.0000      -0.228403        -6.2152
  44   0.0000       0.114492         3.1155
  45   0.0000       0.122088         3.3222
  46   0.0000       0.132110         3.5949
  47   0.0000       0.144538         3.9331
  48   0.0000       0.153267         4.1706

MULLIKEN ATOMIC CHARGES
-----------------------
   0 C :   -0.153340
   1 C :   -0.209983
   2 C :   -0.354995
   3 C :   -0.206755
   4 C :   -0.212035
   5 H :    0.146829
   6 C :   -0.224648
   7 H :    0.097450
   8 H :    0.115255
   9 H :    0.120577
  10 C :    0.005477
  11 H :    0.109970
  12 H :    0.109497
  13 F :   -0.230091
  14 H :    0.059607
  15 H :    0.089811
  16 C :    0.291774
  17 N :   -0.520331
  18 N :   -0.532295
  19 H :    0.249348
  20 H :    0.223778
  21 H :    0.156092
  22 H :    0.254477
  23 H :    0.221117
  24 H :    0.098471
  25 H :    0.098123
  26 H :    0.098449
  27 H :    0.098373
Sum of atomic charges:   -0.0000000

LOEWDIN ATOMIC CHARGES
----------------------
   0 C :   -0.284585
   1 C :   -0.262525
   2 C :   -0.290085
   3 C :   -0.266736
   4 C :   -0.269094
   5 H :    0.146082
   6 C :   -0.269683
   7 H :    0.131676
   8 H :    0.140662
   9 H :    0.141501
  10 C :   -0.337319
  11 H :    0.126344
  12 H :    0.124133
  13 F :    0.140458
  14 H :    0.128947
  15 H :    0.131971
  16 C :   -0.462169
  17 N :   -0.034085
  18 N :   -0.036489
  19 H :    0.171546
  20 H :    0.157043
  21 H :    0.117673
  22 H :    0.161593
  23 H :    0.156777
  24 H :    0.136573
  25 H :    0.134454
  26 H :    0.132656
  27 H :    0.132680

  Mayer bond orders larger than 0.100000
B(  0-C ,  1-C ) :   0.9912 B(  0-C ,  2-C ) :   0.9293 B(  0-C , 14-H ) :   0.9716
B(  0-C , 15-H ) :   0.9727 B(  1-C ,  3-C ) :   0.9850 B(  1-C , 26-H ) :   0.9897
B(  1-C , 27-H ) :   0.9855 B(  2-C , 16-C ) :   1.6707 B(  2-C , 21-H ) :   1.0011
B(  3-C ,  4-C ) :   0.9702 B(  3-C , 24-H ) :   0.9723 B(  3-C , 25-H ) :   0.9797
B(  4-C ,  5-H ) :   0.9809 B(  4-C ,  6-C ) :   0.9274 B(  4-C ,  7-H ) :   0.9728
B(  6-C ,  8-H ) :   0.9756 B(  6-C ,  9-H ) :   0.9571 B(  6-C , 10-C ) :   0.9907
B( 10-C , 11-H ) :   0.9772 B( 10-C , 12-H ) :   0.9713 B( 10-C , 13-F ) :   0.9197
B( 16-C , 17-N ) :   1.2096 B( 16-C , 18-N ) :   1.1528 B( 17-N , 22-H ) :   0.8857
B( 17-N , 23-H ) :   0.9262 B( 18-N , 19-H ) :   0.9209 B( 18-N , 20-H ) :   0.9226

Dispersion correction           -0.011718809
FINAL SINGLE POINT ENERGY      -524.434272091558

DIPOLE MOMENT
-------------
                                X             Y             Z
Electronic contribution:      7.88411       3.86335       1.09300
Nuclear contribution   :     -8.11591      -2.99033      -1.35383
                        -----------------------------------------
Total Dipole Moment    :     -0.23180       0.87303      -0.26084
                        -----------------------------------------
Magnitude (a.u.)       :      0.94018
Magnitude (Debye)      :      2.38975

Rotational constants in cm-1:     0.043530     0.028984     0.019589
Rotational constants in MHz :  1305.007140   868.923804   587.262638

                             ****ORCA TERMINATED NORMALLY****
TOTAL RUN TIME: 0 days 0 hours 0 minutes 59 seconds 537 msec
