                         Program Version 5.0.0 -  RELEASE  -
|  1> !LC-PBE RIJCOSX def2-TZVP def2/J TightSCF
|  2> *xyz -1 1
|  3> C          4.93020       -7.37532       -2.64962
|  4> C          3.84189       -6.95161       -3.63283
|  5> H          3.45814       -5.95442       -3.40712
|  6> H          2.98848       -7.64361       -3.56708
|  7> S          4.31812       -6.91593       -5.36869
|  8> O          5.40615       -5.89948       -5.51297
|  9> O          3.11191       -6.44508       -6.04379
| 10> O          4.76340       -8.23942       -5.69863
| 11> H          5.27901       -8.35440       -2.90385
| 12> H          4.53000       -7.38577       -1.65734
| 13> H          5.74437       -6.68276       -2.69856
| 14> *
| 15>
| 16> %MaxCore 64000
| 17>
| 18> %pal nprocs 4
| 19> end
| 20>
| 21> %scf
| 22>   MaxIter 150
| 23> end
| 24>
| 25>
| 26>                          ****END OF INPUT****

CARTESIAN COORDINATES (ANGSTROEM)
---------------------------------
  C      4.930200   -7.375320   -2.649620
  C      3.841890   -6.951610   -3.632830
  H      3.458140   -5.954420   -3.407120
  H      2.988480   -7.643610   -3.567080
  S      4.318120   -6.915930   -5.368690
  O      5.406150   -5.899480   -5.512970
  O      3.111910   -6.445080   -6.043790
  O      4.763400   -8.239420   -5.698630
  H      5.279010   -8.354400   -2.903850
  H      4.530000   -7.385770   -1.657340
  H      5.744370   -6.682760   -2.698560

 Total Charge           Charge          ....   -1
 Multiplicity           Mult            ....    1
 Number of Electrons    NEL             ....   58
 Basis Dimension        Dim             ....  222

ORBITAL ENERGIES
----------------

  NO   OCC          E(Eh)            E(eV)
   0   2.0000     -88.267868     -2401.8908
   1   2.0000     -18.756391      -510.3873
   2   2.0000     -18.746534      -510.1191
   3   2.0000     -18.737893      -509.8840
   4   2.0000      -9.980978      -271.5962
   5   2.0000      -9.970827      -271.3200
   6   2.0000      -7.878098      -214.3740
   7   2.0000      -5.895058      -160.4127
   8   2.0000      -5.893582      -160.3725
   9   2.0000      -5.893153      -160.3609
  10   2.0000      -1.093011       -29.7423
  11   2.0000      -0.951340       -25.8873
  12   2.0000      -0.921514       -25.0757
  13   2.0000      -0.812202       -22.1011
  14   2.0000      -0.672838       -18.3089
  15   2.0000      -0.533129       -14.5072
  16   2.0000      -0.465014       -12.6537
  17   2.0000      -0.461378       -12.5547
  18   2.0000      -0.418869       -11.3980
  19   2.0000      -0.404181       -10.9983
  20   2.0000      -0.394205       -10.7269
  21   2.0000      -0.365747        -9.9525
  22   2.0000      -0.343974        -9.3600
  23   2.0000      -0.288742        -7.8571
  24   2.0000      -0.286031        -7.7833
  25   2.0000      -0.248696        -6.7674
  26   2.0000      -0.234368        -6.3775
  27   2.0000      -0.229771        -6.2524
  28   2.0000      -0.191105        -5.2002
  29   0.0000       0.252770         6.8782
  30   0.0000       0.298355         8.1187
  31   0.0000       0.314227         8.5506
  32   0.0000       0.318228         8.6594
  33   0.0000       0.346589         9.4312

MULLIKEN ATOMIC CHARGES
-----------------------
   0 C :   -0.426828
   1 C :   -0.307502
   2 H :    0.130802
   3 H :    0.122424
   4 S :    0.730569
   5 O :   -0.586693
   6 O :   -0.544211
   7 O :   -0.517929
   8 H :    0.147307
   9 H :    0.104498
  10 H :    0.147564
Sum of atomic charges:   -1.0000000

LOEWDIN ATOMIC CHARGES
----------------------
   0 C :   -0.362797
   1 C :   -0.444104
   2 H :    0.129311
   3 H :    0.130115
   4 S :    0.400368
   5 O :   -0.443987
   6 O :   -0.398191
   7 O :   -0.365014
   8 H :    0.122765
   9 H :    0.108441
  10 H :    0.123093

  Mayer bond orders larger than 0.100000
B(  0-C ,  1-C ) :   0.9409 B(  0-C ,  8-H ) :   0.9700 B(  0-C ,  9-H ) :   0.9740
B(  0-C , 10-H ) :   0.9694 B(  1-C ,  2-H ) :   0.9637 B(  1-C ,  3-H ) :   0.9613
B(  1-C ,  4-S ) :   0.8994 B(  4-S ,  5-O ) :   1.7440 B(  4-S ,  6-O ) :   1.8240
B(  4-S ,  7-O ) :   1.8183

FINAL SINGLE POINT ENERGY      -702.100198133455

DIPOLE MOMENT
-------------
                                X             Y             Z
Electronic contribution:     -0.38489       0.79702      -7.74565
Nuclear contribution   :      0.07504      -1.14369       9.75001
                        -----------------------------------------
Total Dipole Moment    :     -0.30985      -0.34667       2.00436
                        -----------------------------------------
Magnitude (a.u.)       :      2.05758
Magnitude (Debye)      :      5.22996

Rotational constants in cm-1:     0.160553     0.082191     0.080550
Rotational constants in MHz :  4813.250478  2464.013016  2414.833054

                             ****ORCA TERMINATED NORMALLY****
TOTAL RUN TIME: 0 days 0 hours 0 minutes 30 seconds 714 msec
