                         Program Version 5.0.0 -  RELEASE  -
|  1> !LC-PBE RIJCOSX def2-TZVP def2/J TightSCF
|  2> *xyz 1 1
|  3> C          5.55821       -1.99291       -6.21505
|  4> C          4.18188       -2.58967       -6.29891
|  5> N          3.14587       -1.76843       -6.48675
|  6> N          4.01910       -3.86431       -6.22743
|  7> H          4.76849       -4.59115       -5.99077
|  8> H          3.12241       -4.33339       -6.31462
|  9> H          3.28164       -0.77779       -6.56655
| 10> H          2.21255       -2.13419       -6.56225
| 11> C          6.41926       -2.54294       -5.07763
| 12> H          6.03683       -2.19819       -7.17685
| 13> H          5.46761       -0.90737       -6.12797
| 14> H          6.50056       -3.60553       -5.17358
| 15> H          5.96544       -2.30329       -4.13874
| 16> H          7.39438       -2.10494       -5.12457
| 17> *
| 18>
| 19> %MaxCore 64000
| 20>
| 21> %pal nprocs 4
| 22> end
| 23>
| 24> %scf
| 25>   MaxIter 150
| 26> end
| 27>
| 28>
| 29>                          ****END OF INPUT****

CARTESIAN COORDINATES (ANGSTROEM)
---------------------------------
  C      5.558210   -1.992910   -6.215050
  C      4.181880   -2.589670   -6.298910
  N      3.145870   -1.768430   -6.486750
  N      4.019100   -3.864310   -6.227430
  H      4.768490   -4.591150   -5.990770
  H      3.122410   -4.333390   -6.314620
  H      3.281640   -0.777790   -6.566550
  H      2.212550   -2.134190   -6.562250
  C      6.419260   -2.542940   -5.077630
  H      6.036830   -2.198190   -7.176850
  H      5.467610   -0.907370   -6.127970
  H      6.500560   -3.605530   -5.173580
  H      5.965440   -2.303290   -4.138740
  H      7.394380   -2.104940   -5.124570

 Total Charge           Charge          ....    1
 Multiplicity           Mult            ....    1
 Number of Electrons    NEL             ....   40
 Basis Dimension        Dim             ....  209

ORBITAL ENERGIES
----------------

  NO   OCC          E(Eh)            E(eV)
   0   2.0000     -14.466113      -393.6429
   1   2.0000     -14.453897      -393.3105
   2   2.0000     -10.448121      -284.3078
   3   2.0000     -10.314400      -280.6691
   4   2.0000     -10.267767      -279.4001
   5   2.0000      -1.382265       -37.6133
   6   2.0000      -1.274862       -34.6908
   7   2.0000      -1.146575       -31.1999
   8   2.0000      -1.029028       -28.0013
   9   2.0000      -0.974152       -26.5080
  10   2.0000      -0.922751       -25.1093
  11   2.0000      -0.896605       -24.3979
  12   2.0000      -0.837034       -22.7769
  13   2.0000      -0.805569       -21.9206
  14   2.0000      -0.762707       -20.7543
  15   2.0000      -0.746379       -20.3100
  16   2.0000      -0.683237       -18.5918
  17   2.0000      -0.671610       -18.2754
  18   2.0000      -0.653613       -17.7857
  19   2.0000      -0.622567       -16.9409
  20   0.0000      -0.110503        -3.0069
  21   0.0000      -0.069702        -1.8967
  22   0.0000      -0.033549        -0.9129
  23   0.0000      -0.024003        -0.6532
  24   0.0000       0.002301         0.0626

MULLIKEN ATOMIC CHARGES
-----------------------
   0 C :   -0.320804
   1 C :    0.337472
   2 N :   -0.383666
   3 N :   -0.376214
   4 H :    0.344726
   5 H :    0.310211
   6 H :    0.317849
   7 H :    0.298193
   8 C :   -0.444487
   9 H :    0.217180
  10 H :    0.177417
  11 H :    0.131948
  12 H :    0.186236
  13 H :    0.203940
Sum of atomic charges:    1.0000000

LOEWDIN ATOMIC CHARGES
----------------------
   0 C :   -0.235090
   1 C :   -0.294220
   2 N :    0.094530
   3 N :    0.107709
   4 H :    0.242241
   5 H :    0.207076
   6 H :    0.204978
   7 H :    0.198023
   8 C :   -0.286862
   9 H :    0.182739
  10 H :    0.167326
  11 H :    0.125102
  12 H :    0.139517
  13 H :    0.146931

  Mayer bond orders larger than 0.100000
B(  0-C ,  1-C ) :   0.9484 B(  0-C ,  8-C ) :   0.9718 B(  0-C ,  9-H ) :   0.9173
B(  0-C , 10-H ) :   0.9725 B(  1-C ,  2-N ) :   1.4425 B(  1-C ,  3-N ) :   1.4725
B(  2-N ,  6-H ) :   0.8835 B(  2-N ,  7-H ) :   0.8916 B(  3-N ,  4-H ) :   0.8636
B(  3-N ,  5-H ) :   0.8840 B(  8-C , 11-H ) :   0.9663 B(  8-C , 12-H ) :   0.9566
B(  8-C , 13-H ) :   0.9616

FINAL SINGLE POINT ENERGY      -228.363578299760

DIPOLE MOMENT
-------------
                                X             Y             Z
Electronic contribution:     -3.78053      -0.48395      -1.57310
Nuclear contribution   :      2.76041       0.12669       1.26265
                        -----------------------------------------
Total Dipole Moment    :     -1.02012      -0.35726      -0.31045
                        -----------------------------------------
Magnitude (a.u.)       :      1.12457
Magnitude (Debye)      :      2.85843

Rotational constants in cm-1:     0.280918     0.124524     0.094121
Rotational constants in MHz :  8421.697738  3733.133254  2821.684112

                             ****ORCA TERMINATED NORMALLY****
TOTAL RUN TIME: 0 days 0 hours 0 minutes 31 seconds 71 msec
