                         Program Version 5.0.0 -  RELEASE  -
|  1> !LC-PBE RIJCOSX def2-TZVP def2/J TightSCF
|  2> *xyz 0 1
|  3> C          4.93020       -7.37532       -2.64962
|  4> C          3.84189       -6.95161       -3.63283
|  5> H          3.45814       -5.95442       -3.40712
|  6> H          2.98848       -7.64361       -3.56708
|  7> S          4.31812       -6.91593       -5.36869
|  8> F          5.40615       -5.89948       -5.51297
|  9> O          3.11191       -6.44508       -6.04379
| 10> O          4.76340       -8.23942       -5.69863
| 11> H          5.27901       -8.35440       -2.90385
| 12> H          4.53000       -7.38577       -1.65734
| 13> H          5.74437       -6.68276       -2.69856
| 14> *
| 15>
| 16> %MaxCore 64000
| 17>
| 18> %pal nprocs 4
| 19> end
| 20>
| 21> %scf
| 22>   MaxIter 150
| 23> end
| 24>
| 25>
| 26>                          ****END OF INPUT****

CARTESIAN COORDINATES (ANGSTROEM)
---------------------------------
  C      4.930200   -7.375320   -2.649620
  C      3.841890   -6.951610   -3.632830
  H      3.458140   -5.954420   -3.407120
  H      2.988480   -7.643610   -3.567080
  S      4.318120   -6.915930   -5.368690
  F      5.406150   -5.899480   -5.512970
  O      3.111910   -6.445080   -6.043790
  O      4.763400   -8.239420   -5.698630
  H      5.279010   -8.354400   -2.903850
  H      4.530000   -7.385770   -1.657340
  H      5.744370   -6.682760   -2.698560

 Total Charge           Charge          ....    0
 Multiplicity           Mult            ....    1
 Number of Electrons    NEL             ....   58
 Basis Dimension        Dim             ....  222

ORBITAL ENERGIES
----------------

  NO   OCC          E(Eh)            E(eV)
   0   2.0000     -88.533378     -2409.1157
   1   2.0000     -24.591984      -669.1819
   2   2.0000     -18.996756      -516.9280
   3   2.0000     -18.986573      -516.6509
   4   2.0000     -10.184530      -277.1351
   5   2.0000     -10.137084      -275.8441
   6   2.0000      -8.144223      -221.6156
   7   2.0000      -6.164754      -167.7515
   8   2.0000      -6.157859      -167.5638
   9   2.0000      -6.156885      -167.5374
  10   2.0000      -1.506089       -40.9828
  11   2.0000      -1.285129       -34.9701
  12   2.0000      -1.185235       -32.2519
  13   2.0000      -1.005166       -27.3520
  14   2.0000      -0.884723       -24.0745
  15   2.0000      -0.834635       -22.7116
  16   2.0000      -0.734830       -19.9957
  17   2.0000      -0.715016       -19.4566
  18   2.0000      -0.697534       -18.9809
  19   2.0000      -0.642918       -17.4947
  20   2.0000      -0.626364       -17.0442
  21   2.0000      -0.600612       -16.3435
  22   2.0000      -0.577651       -15.7187
  23   2.0000      -0.549157       -14.9433
  24   2.0000      -0.542700       -14.7676
  25   2.0000      -0.516375       -14.0513
  26   2.0000      -0.479333       -13.0433
  27   2.0000      -0.463710       -12.6182
  28   2.0000      -0.456469       -12.4212
  29   0.0000       0.094790         2.5794
  30   0.0000       0.133619         3.6360
  31   0.0000       0.150314         4.0902
  32   0.0000       0.159217         4.3325
  33   0.0000       0.165081         4.4921

MULLIKEN ATOMIC CHARGES
-----------------------
   0 C :   -0.448794
   1 C :   -0.315981
   2 H :    0.188038
   3 H :    0.201694
   4 S :    0.768566
   5 F :   -0.110744
   6 O :   -0.406884
   7 O :   -0.381377
   8 H :    0.182225
   9 H :    0.164580
  10 H :    0.158676
Sum of atomic charges:   -0.0000000

LOEWDIN ATOMIC CHARGES
----------------------
   0 C :   -0.336505
   1 C :   -0.406806
   2 H :    0.148519
   3 H :    0.163104
   4 S :    0.529109
   5 F :    0.047441
   6 O :   -0.286149
   7 O :   -0.253893
   8 H :    0.134221
   9 H :    0.132895
  10 H :    0.128065

  Mayer bond orders larger than 0.100000
B(  0-C ,  1-C ) :   0.9488 B(  0-C ,  8-H ) :   0.9588 B(  0-C ,  9-H ) :   0.9630
B(  0-C , 10-H ) :   0.9652 B(  1-C ,  2-H ) :   0.9408 B(  1-C ,  3-H ) :   0.9334
B(  1-C ,  4-S ) :   0.9224 B(  4-S ,  5-F ) :   1.1279 B(  4-S ,  6-O ) :   1.9471
B(  4-S ,  7-O ) :   1.9569

FINAL SINGLE POINT ENERGY      -726.608034623038

DIPOLE MOMENT
-------------
                                X             Y             Z
Electronic contribution:      1.31352       2.65325      -8.70611
Nuclear contribution   :     -0.98922      -2.24849      10.35711
                        -----------------------------------------
Total Dipole Moment    :      0.32430       0.40476       1.65099
                        -----------------------------------------
Magnitude (a.u.)       :      1.73054
Magnitude (Debye)      :      4.39869

Rotational constants in cm-1:     0.151436     0.080885     0.078670
Rotational constants in MHz :  4539.936009  2424.868817  2358.476812

                             ****ORCA TERMINATED NORMALLY****
TOTAL RUN TIME: 0 days 0 hours 0 minutes 25 seconds 405 msec
