                         Program Version 5.0.0 -  RELEASE  -
|  1> !LC-PBE RIJCOSX def2-TZVP def2/J TightSCF
|  2> *xyz 0 1
|  3> C          5.55821       -1.99291       -6.21505
|  4> C          4.18188       -2.58967       -6.29891
|  5> C          3.14587       -1.76843       -6.48675
|  6> N          4.01910       -3.86431       -6.22743
|  7> H          4.76849       -4.59115       -5.99077
|  8> H          3.12241       -4.33339       -6.31462
|  9> H          3.28164       -0.77779       -6.56655
| 10> H          2.21255       -2.13419       -6.56225
| 11> C          6.41926       -2.54294       -5.07763
| 12> H          6.03683       -2.19819       -7.17685
| 13> H          5.46761       -0.90737       -6.12797
| 14> H          6.50056       -3.60553       -5.17358
| 15> H          5.96544       -2.30329       -4.13874
| 16> H          7.39438       -2.10494       -5.12457
| 17> *
| 18>
| 19> %MaxCore 64000
| 20>
| 21> %pal nprocs 4
| 22> end
| 23>
| 24> %scf
| 25>   MaxIter 150
| 26> end
| 27>
| 28>
| 29>                          ****END OF INPUT****

CARTESIAN COORDINATES (ANGSTROEM)
---------------------------------
  C      5.558210   -1.992910   -6.215050
  C      4.181880   -2.589670   -6.298910
  C      3.145870   -1.768430   -6.486750
  N      4.019100   -3.864310   -6.227430
  H      4.768490   -4.591150   -5.990770
  H      3.122410   -4.333390   -6.314620
  H      3.281640   -0.777790   -6.566550
  H      2.212550   -2.134190   -6.562250
  C      6.419260   -2.542940   -5.077630
  H      6.036830   -2.198190   -7.176850
  H      5.467610   -0.907370   -6.127970
  H      6.500560   -3.605530   -5.173580
  H      5.965440   -2.303290   -4.138740
  H      7.394380   -2.104940   -5.124570

 Total Charge           Charge          ....    0
 Multiplicity           Mult            ....    1
 Number of Electrons    NEL             ....   40
 Basis Dimension        Dim             ....  209

ORBITAL ENERGIES
----------------

  NO   OCC          E(Eh)            E(eV)
   0   2.0000     -14.219218      -386.9246
   1   2.0000     -10.141435      -275.9625
   2   2.0000     -10.113935      -275.2142
   3   2.0000     -10.101292      -274.8701
   4   2.0000     -10.038530      -273.1623
   5   2.0000      -1.108730       -30.1701
   6   2.0000      -0.954657       -25.9775
   7   2.0000      -0.888196       -24.1690
   8   2.0000      -0.794393       -21.6165
   9   2.0000      -0.734445       -19.9853
  10   2.0000      -0.664789       -18.0898
  11   2.0000      -0.619500       -16.8575
  12   2.0000      -0.586167       -15.9504
  13   2.0000      -0.562490       -15.3061
  14   2.0000      -0.528664       -14.3857
  15   2.0000      -0.519034       -14.1236
  16   2.0000      -0.489045       -13.3076
  17   2.0000      -0.467239       -12.7142
  18   2.0000      -0.456987       -12.4353
  19   2.0000      -0.302749        -8.2382
  20   0.0000       0.107019         2.9121
  21   0.0000       0.134781         3.6676
  22   0.0000       0.151118         4.1121
  23   0.0000       0.157477         4.2852
  24   0.0000       0.178054         4.8451

MULLIKEN ATOMIC CHARGES
-----------------------
   0 C :   -0.276642
   1 C :    0.223034
   2 C :   -0.525801
   3 N :   -0.495625
   4 H :    0.266703
   5 H :    0.262053
   6 H :    0.133254
   7 H :    0.126977
   8 C :   -0.425280
   9 H :    0.146948
  10 H :    0.145611
  11 H :    0.109440
  12 H :    0.156489
  13 H :    0.152838
Sum of atomic charges:    0.0000000

LOEWDIN ATOMIC CHARGES
----------------------
   0 C :   -0.251998
   1 C :   -0.385287
   2 C :   -0.294467
   3 N :   -0.004018
   4 H :    0.195288
   5 H :    0.179594
   6 H :    0.104763
   7 H :    0.099471
   8 C :   -0.319226
   9 H :    0.152254
  10 H :    0.155588
  11 H :    0.115004
  12 H :    0.128119
  13 H :    0.124914

  Mayer bond orders larger than 0.100000
B(  0-C ,  1-C ) :   0.9444 B(  0-C ,  8-C ) :   0.9605 B(  0-C ,  9-H ) :   0.9655
B(  0-C , 10-H ) :   0.9850 B(  1-C ,  2-C ) :   1.7274 B(  1-C ,  3-N ) :   1.1614
B(  2-C ,  6-H ) :   0.9959 B(  2-C ,  7-H ) :   1.0022 B(  3-N ,  4-H ) :   0.9159
B(  3-N ,  5-H ) :   0.9189 B(  8-C , 11-H ) :   0.9770 B(  8-C , 12-H ) :   0.9684
B(  8-C , 13-H ) :   0.9812

FINAL SINGLE POINT ENERGY      -211.904135291383

DIPOLE MOMENT
-------------
                                X             Y             Z
Electronic contribution:     -2.00512      -1.09161      -1.02220
Nuclear contribution   :      2.41345       0.31141       1.16343
                        -----------------------------------------
Total Dipole Moment    :      0.40833      -0.78020       0.14123
                        -----------------------------------------
Magnitude (a.u.)       :      0.89185
Magnitude (Debye)      :      2.26689

Rotational constants in cm-1:     0.287957     0.129204     0.097498
Rotational constants in MHz :  8632.737925  3873.424745  2922.919500

                             ****ORCA TERMINATED NORMALLY****
TOTAL RUN TIME: 0 days 0 hours 0 minutes 35 seconds 299 msec
