                         Program Version 5.0.0 -  RELEASE  -
|  1> !LC-PBE RIJCOSX def2-TZVP def2/J TightSCF
|  2> *xyz 0 1
|  3> C          4.93020       -7.37532       -2.64962
|  4> C          3.84189       -6.95161       -3.63283
|  5> H          3.45814       -5.95442       -3.40712
|  6> H          2.98848       -7.64361       -3.56708
|  7> S          4.31812       -6.91593       -5.36869
|  8> O          5.40615       -5.89948       -5.51297
|  9> F          3.11191       -6.44508       -6.04379
| 10> O          4.76340       -8.23942       -5.69863
| 11> H          5.27901       -8.35440       -2.90385
| 12> H          4.53000       -7.38577       -1.65734
| 13> H          5.74437       -6.68276       -2.69856
| 14> *
| 15>
| 16> %MaxCore 64000
| 17>
| 18> %pal nprocs 4
| 19> end
| 20>
| 21> %scf
| 22>   MaxIter 150
| 23> end
| 24>
| 25>
| 26>                          ****END OF INPUT****

CARTESIAN COORDINATES (ANGSTROEM)
---------------------------------
  C      4.930200   -7.375320   -2.649620
  C      3.841890   -6.951610   -3.632830
  H      3.458140   -5.954420   -3.407120
  H      2.988480   -7.643610   -3.567080
  S      4.318120   -6.915930   -5.368690
  O      5.406150   -5.899480   -5.512970
  F      3.111910   -6.445080   -6.043790
  O      4.763400   -8.239420   -5.698630
  H      5.279010   -8.354400   -2.903850
  H      4.530000   -7.385770   -1.657340
  H      5.744370   -6.682760   -2.698560

 Total Charge           Charge          ....    0
 Multiplicity           Mult            ....    1
 Number of Electrons    NEL             ....   58
 Basis Dimension        Dim             ....  222

ORBITAL ENERGIES
----------------

  NO   OCC          E(Eh)            E(eV)
   0   2.0000     -88.535270     -2409.1672
   1   2.0000     -24.607716      -669.6100
   2   2.0000     -18.996080      -516.9096
   3   2.0000     -18.978013      -516.4180
   4   2.0000     -10.185663      -277.1660
   5   2.0000     -10.135060      -275.7890
   6   2.0000      -8.146109      -221.6669
   7   2.0000      -6.166527      -167.7997
   8   2.0000      -6.159548      -167.6098
   9   2.0000      -6.158984      -167.5945
  10   2.0000      -1.533074       -41.7171
  11   2.0000      -1.278756       -34.7967
  12   2.0000      -1.166893       -31.7528
  13   2.0000      -1.004593       -27.3364
  14   2.0000      -0.898944       -24.4615
  15   2.0000      -0.834881       -22.7183
  16   2.0000      -0.738368       -20.0920
  17   2.0000      -0.735270       -20.0077
  18   2.0000      -0.707433       -19.2502
  19   2.0000      -0.644332       -17.5332
  20   2.0000      -0.630850       -17.1663
  21   2.0000      -0.585956       -15.9447
  22   2.0000      -0.572113       -15.5680
  23   2.0000      -0.549786       -14.9604
  24   2.0000      -0.529197       -14.4002
  25   2.0000      -0.523141       -14.2354
  26   2.0000      -0.473471       -12.8838
  27   2.0000      -0.457804       -12.4575
  28   2.0000      -0.442781       -12.0487
  29   0.0000       0.107643         2.9291
  30   0.0000       0.125346         3.4108
  31   0.0000       0.150712         4.1011
  32   0.0000       0.154018         4.1910
  33   0.0000       0.169421         4.6102

MULLIKEN ATOMIC CHARGES
-----------------------
   0 C :   -0.448873
   1 C :   -0.307153
   2 H :    0.183567
   3 H :    0.180452
   4 S :    0.767190
   5 O :   -0.440988
   6 F :   -0.081665
   7 O :   -0.374459
   8 H :    0.178229
   9 H :    0.163620
  10 H :    0.180081
Sum of atomic charges:   -0.0000000

LOEWDIN ATOMIC CHARGES
----------------------
   0 C :   -0.323211
   1 C :   -0.412506
   2 H :    0.146997
   3 H :    0.149690
   4 S :    0.523819
   5 O :   -0.327328
   6 F :    0.090361
   7 O :   -0.252255
   8 H :    0.135289
   9 H :    0.133200
  10 H :    0.135943

  Mayer bond orders larger than 0.100000
B(  0-C ,  1-C ) :   0.9620 B(  0-C ,  8-H ) :   0.9602 B(  0-C ,  9-H ) :   0.9604
B(  0-C , 10-H ) :   0.9601 B(  1-C ,  2-H ) :   0.9349 B(  1-C ,  3-H ) :   0.9332
B(  1-C ,  4-S ) :   0.9289 B(  4-S ,  5-O ) :   1.8848 B(  4-S ,  6-F ) :   1.1715
B(  4-S ,  7-O ) :   1.9587

FINAL SINGLE POINT ENERGY      -726.596114936189

DIPOLE MOMENT
-------------
                                X             Y             Z
Electronic contribution:     -2.65122       1.70485      -9.63676
Nuclear contribution   :      1.40145      -1.67996      10.91024
                        -----------------------------------------
Total Dipole Moment    :     -1.24977       0.02489       1.27348
                        -----------------------------------------
Magnitude (a.u.)       :      1.78446
Magnitude (Debye)      :      4.53572

Rotational constants in cm-1:     0.155875     0.079864     0.077188
Rotational constants in MHz :  4673.017506  2394.277415  2314.027118

                             ****ORCA TERMINATED NORMALLY****
TOTAL RUN TIME: 0 days 0 hours 0 minutes 27 seconds 140 msec
