                         Program Version 5.0.0 -  RELEASE  -
|  1> !LC-PBE RIJCOSX def2-TZVP def2/J TightSCF
|  2> *xyz 0 1
|  3> C          5.55821       -1.99291       -6.21505
|  4> C          4.18188       -2.58967       -6.29891
|  5> N          3.14587       -1.76843       -6.48675
|  6> C          4.01910       -3.86431       -6.22743
|  7> H          4.76849       -4.59115       -5.99077
|  8> H          3.12241       -4.33339       -6.31462
|  9> H          3.28164       -0.77779       -6.56655
| 10> H          2.21255       -2.13419       -6.56225
| 11> C          6.41926       -2.54294       -5.07763
| 12> H          6.03683       -2.19819       -7.17685
| 13> H          5.46761       -0.90737       -6.12797
| 14> H          6.50056       -3.60553       -5.17358
| 15> H          5.96544       -2.30329       -4.13874
| 16> H          7.39438       -2.10494       -5.12457
| 17> *
| 18>
| 19> %MaxCore 64000
| 20>
| 21> %pal nprocs 4
| 22> end
| 23>
| 24> %scf
| 25>   MaxIter 150
| 26> end
| 27>
| 28>
| 29>                          ****END OF INPUT****

CARTESIAN COORDINATES (ANGSTROEM)
---------------------------------
  C      5.558210   -1.992910   -6.215050
  C      4.181880   -2.589670   -6.298910
  N      3.145870   -1.768430   -6.486750
  C      4.019100   -3.864310   -6.227430
  H      4.768490   -4.591150   -5.990770
  H      3.122410   -4.333390   -6.314620
  H      3.281640   -0.777790   -6.566550
  H      2.212550   -2.134190   -6.562250
  C      6.419260   -2.542940   -5.077630
  H      6.036830   -2.198190   -7.176850
  H      5.467610   -0.907370   -6.127970
  H      6.500560   -3.605530   -5.173580
  H      5.965440   -2.303290   -4.138740
  H      7.394380   -2.104940   -5.124570

 Total Charge           Charge          ....    0
 Multiplicity           Mult            ....    1
 Number of Electrons    NEL             ....   40
 Basis Dimension        Dim             ....  209

ORBITAL ENERGIES
----------------

  NO   OCC          E(Eh)            E(eV)
   0   2.0000     -14.207755      -386.6127
   1   2.0000     -10.138616      -275.8858
   2   2.0000     -10.114795      -275.2376
   3   2.0000     -10.094862      -274.6952
   4   2.0000     -10.046523      -273.3798
   5   2.0000      -1.098411       -29.8893
   6   2.0000      -0.958189       -26.0736
   7   2.0000      -0.882899       -24.0249
   8   2.0000      -0.805819       -21.9274
   9   2.0000      -0.708672       -19.2839
  10   2.0000      -0.668391       -18.1878
  11   2.0000      -0.633572       -17.2404
  12   2.0000      -0.592783       -16.1305
  13   2.0000      -0.556690       -15.1483
  14   2.0000      -0.523788       -14.2530
  15   2.0000      -0.505883       -13.7658
  16   2.0000      -0.481649       -13.1063
  17   2.0000      -0.464772       -12.6471
  18   2.0000      -0.458486       -12.4760
  19   2.0000      -0.312632        -8.5072
  20   0.0000       0.116517         3.1706
  21   0.0000       0.133093         3.6217
  22   0.0000       0.154437         4.2024
  23   0.0000       0.160238         4.3603
  24   0.0000       0.184848         5.0300

MULLIKEN ATOMIC CHARGES
-----------------------
   0 C :   -0.273285
   1 C :    0.232523
   2 N :   -0.499269
   3 C :   -0.499133
   4 H :    0.130134
   5 H :    0.126868
   6 H :    0.248488
   7 H :    0.252055
   8 C :   -0.434483
   9 H :    0.155591
  10 H :    0.120527
  11 H :    0.143347
  12 H :    0.150645
  13 H :    0.145991
Sum of atomic charges:   -0.0000000

LOEWDIN ATOMIC CHARGES
----------------------
   0 C :   -0.252343
   1 C :   -0.370903
   2 N :   -0.018814
   3 C :   -0.290157
   4 H :    0.126204
   5 H :    0.106103
   6 H :    0.165855
   7 H :    0.172985
   8 C :   -0.311151
   9 H :    0.157404
  10 H :    0.140670
  11 H :    0.125180
  12 H :    0.127057
  13 H :    0.121911

  Mayer bond orders larger than 0.100000
B(  0-C ,  1-C ) :   0.9091 B(  0-C ,  8-C ) :   0.9755 B(  0-C ,  9-H ) :   0.9622
B(  0-C , 10-H ) :   0.9976 B(  1-C ,  2-N ) :   1.1456 B(  1-C ,  3-C ) :   1.7480
B(  2-N ,  6-H ) :   0.9270 B(  2-N ,  7-H ) :   0.9233 B(  3-C ,  4-H ) :   0.9937
B(  3-C ,  5-H ) :   1.0014 B(  8-C , 11-H ) :   0.9734 B(  8-C , 12-H ) :   0.9721
B(  8-C , 13-H ) :   0.9794

FINAL SINGLE POINT ENERGY      -211.914905028503

DIPOLE MOMENT
-------------
                                X             Y             Z
Electronic contribution:     -2.79839       0.82358      -1.28737
Nuclear contribution   :      2.61570      -0.17401       1.22349
                        -----------------------------------------
Total Dipole Moment    :     -0.18269       0.64957      -0.06387
                        -----------------------------------------
Magnitude (a.u.)       :      0.67778
Magnitude (Debye)      :      1.72279

Rotational constants in cm-1:     0.298189     0.125314     0.096441
Rotational constants in MHz :  8939.495008  3756.825352  2891.223400

                             ****ORCA TERMINATED NORMALLY****
TOTAL RUN TIME: 0 days 0 hours 0 minutes 26 seconds 122 msec
