                         Program Version 5.0.0 -  RELEASE  -
|  1> !LC-PBE RIJCOSX def2-TZVP def2/J TightSCF
|  2> *xyz 0 1
|  3> C          4.93020       -7.37532       -2.64962
|  4> C          3.84189       -6.95161       -3.63283
|  5> H          3.45814       -5.95442       -3.40712
|  6> H          2.98848       -7.64361       -3.56708
|  7> S          4.31812       -6.91593       -5.36869
|  8> O          5.40615       -5.89948       -5.51297
|  9> O          3.11191       -6.44508       -6.04379
| 10> F          4.76340       -8.23942       -5.69863
| 11> H          5.27901       -8.35440       -2.90385
| 12> H          4.53000       -7.38577       -1.65734
| 13> H          5.74437       -6.68276       -2.69856
| 14> *
| 15>
| 16> %MaxCore 64000
| 17>
| 18> %pal nprocs 4
| 19> end
| 20>
| 21> %scf
| 22>   MaxIter 150
| 23> end
| 24>
| 25>
| 26>                          ****END OF INPUT****

CARTESIAN COORDINATES (ANGSTROEM)
---------------------------------
  C      4.930200   -7.375320   -2.649620
  C      3.841890   -6.951610   -3.632830
  H      3.458140   -5.954420   -3.407120
  H      2.988480   -7.643610   -3.567080
  S      4.318120   -6.915930   -5.368690
  O      5.406150   -5.899480   -5.512970
  O      3.111910   -6.445080   -6.043790
  F      4.763400   -8.239420   -5.698630
  H      5.279010   -8.354400   -2.903850
  H      4.530000   -7.385770   -1.657340
  H      5.744370   -6.682760   -2.698560

 Total Charge           Charge          ....    0
 Multiplicity           Mult            ....    1
 Number of Electrons    NEL             ....   58
 Basis Dimension        Dim             ....  222

ORBITAL ENERGIES
----------------

  NO   OCC          E(Eh)            E(eV)
   0   2.0000     -88.536668     -2409.2052
   1   2.0000     -24.621471      -669.9843
   2   2.0000     -18.986877      -516.6592
   3   2.0000     -18.978876      -516.4415
   4   2.0000     -10.185776      -277.1691
   5   2.0000     -10.138187      -275.8741
   6   2.0000      -8.147488      -221.7044
   7   2.0000      -6.167994      -167.8397
   8   2.0000      -6.160750      -167.6425
   9   2.0000      -6.160377      -167.6324
  10   2.0000      -1.554740       -42.3066
  11   2.0000      -1.268065       -34.5058
  12   2.0000      -1.159274       -31.5454
  13   2.0000      -1.007426       -27.4135
  14   2.0000      -0.900870       -24.5139
  15   2.0000      -0.847209       -23.0537
  16   2.0000      -0.760409       -20.6918
  17   2.0000      -0.749662       -20.3993
  18   2.0000      -0.700432       -19.0597
  19   2.0000      -0.642600       -17.4860
  20   2.0000      -0.625379       -17.0174
  21   2.0000      -0.595536       -16.2054
  22   2.0000      -0.572300       -15.5731
  23   2.0000      -0.547724       -14.9043
  24   2.0000      -0.535639       -14.5755
  25   2.0000      -0.513718       -13.9790
  26   2.0000      -0.464493       -12.6395
  27   2.0000      -0.457303       -12.4439
  28   2.0000      -0.436852       -11.8874
  29   0.0000       0.096607         2.6288
  30   0.0000       0.133480         3.6322
  31   0.0000       0.147753         4.0206
  32   0.0000       0.155219         4.2237
  33   0.0000       0.164750         4.4831

MULLIKEN ATOMIC CHARGES
-----------------------
   0 C :   -0.448022
   1 C :   -0.315280
   2 H :    0.205715
   3 H :    0.184975
   4 S :    0.764953
   5 O :   -0.436817
   6 O :   -0.395863
   7 F :   -0.064264
   8 H :    0.154894
   9 H :    0.165119
  10 H :    0.184590
Sum of atomic charges:   -0.0000000

LOEWDIN ATOMIC CHARGES
----------------------
   0 C :   -0.336673
   1 C :   -0.407352
   2 H :    0.160585
   3 H :    0.151032
   4 S :    0.520746
   5 O :   -0.324147
   6 O :   -0.281223
   7 F :    0.121813
   8 H :    0.126990
   9 H :    0.133135
  10 H :    0.135094

  Mayer bond orders larger than 0.100000
B(  0-C ,  1-C ) :   0.9476 B(  0-C ,  8-H ) :   0.9655 B(  0-C ,  9-H ) :   0.9628
B(  0-C , 10-H ) :   0.9582 B(  1-C ,  2-H ) :   0.9346 B(  1-C ,  3-H ) :   0.9389
B(  1-C ,  4-S ) :   0.9215 B(  4-S ,  5-O ) :   1.8841 B(  4-S ,  6-O ) :   1.9493
B(  4-S ,  7-F ) :   1.1859

FINAL SINGLE POINT ENERGY      -726.584547516592

DIPOLE MOMENT
-------------
                                X             Y             Z
Electronic contribution:      0.19302      -1.37142      -9.02917
Nuclear contribution   :     -0.31946       0.18980      10.55057
                        -----------------------------------------
Total Dipole Moment    :     -0.12644      -1.18163       1.52141
                        -----------------------------------------
Magnitude (a.u.)       :      1.93052
Magnitude (Debye)      :      4.90699

Rotational constants in cm-1:     0.151421     0.081183     0.078684
Rotational constants in MHz :  4539.489207  2433.790160  2358.892966

                             ****ORCA TERMINATED NORMALLY****
TOTAL RUN TIME: 0 days 0 hours 0 minutes 24 seconds 15 msec
