                         Program Version 5.0.0 -  RELEASE  -
|  1> !LC-PBE RIJCOSX def2-TZVP def2/J TightSCF xyzfile
|  2>
|  3> *xyzfile 0 1 D2.xyz
|  4>
|  5> %MaxCore 64000
|  6>
|  7> %pal nprocs 18
|  8> end
|  9>
| 10> %scf
| 11>   MaxIter 150
| 12> end
| 13>
| 14>
| 15>                          ****END OF INPUT****

CARTESIAN COORDINATES (ANGSTROEM)
---------------------------------
  C      5.558206   -1.992914   -6.215054
  C      4.930199   -7.375319   -2.649623
  C      3.841892   -6.951611   -3.632829
  H      3.458144   -5.954425   -3.407121
  H      2.988484   -7.643606   -3.567078
  S      4.318115   -6.915930   -5.368692
  C      4.181880   -2.589671   -6.298911
  N      3.145873   -1.768431   -6.486753
  C      4.019102   -3.864307   -6.227427
  H      4.768490   -4.591153   -5.990773
  H      3.122405   -4.333392   -6.314620
  H      3.281635   -0.777786   -6.566549
  H      2.212549   -2.134193   -6.562246
  F      5.406154   -5.899480   -5.512972
  O      3.111910   -6.445079   -6.043792
  C      6.419260   -2.542944   -5.077630
  C      5.872267   -5.002756   -2.427819
  C      6.173994   -6.485522   -2.606315
  H      6.734852   -6.613767   -3.534015
  H      6.821463   -6.831018   -1.793617
  H      4.469612   -7.406168   -1.655876
  H      5.230134   -8.398678   -2.885906
  C      5.896512   -2.169314   -3.694552
  H      7.428880   -2.143665   -5.208078
  H      6.505894   -3.627541   -5.175502
  C      6.807804   -2.623428   -2.551019
  H      4.894708   -2.589732   -3.557501
  H      5.778823   -1.081255   -3.635790
  C      7.111544   -4.122463   -2.520363
  H      7.751615   -2.071393   -2.614406
  H      6.345837   -2.326401   -1.604086
  H      5.362882   -4.828697   -1.471335
  H      5.174429   -4.702577   -3.211298
  H      7.778329   -4.329347   -1.677651
  H      7.673189   -4.402845   -3.417586
  O      4.763396   -8.239424   -5.698629
  H      6.036826   -2.198189   -7.176852
  H      5.467610   -0.907371   -6.127968

 Total Charge           Charge          ....    0
 Multiplicity           Mult            ....    1
 Number of Electrons    NEL             ....  136
 Basis Dimension        Dim             ....  634

ORBITAL ENERGIES
----------------

  NO   OCC          E(Eh)            E(eV)
   0   2.0000     -88.530628     -2409.0409
   1   2.0000     -24.592189      -669.1875
   2   2.0000     -18.994487      -516.8663
   3   2.0000     -18.982395      -516.5372
   4   2.0000     -14.200599      -386.4179
   5   2.0000     -10.176723      -276.9227
   6   2.0000     -10.141833      -275.9733
   7   2.0000     -10.128940      -275.6225
   8   2.0000     -10.126113      -275.5455
   9   2.0000     -10.117880      -275.3215
  10   2.0000     -10.113441      -275.2007
  11   2.0000     -10.110547      -275.1220
  12   2.0000     -10.110522      -275.1213
  13   2.0000     -10.109523      -275.0941
  14   2.0000     -10.105687      -274.9897
  15   2.0000     -10.024704      -272.7861
  16   2.0000      -8.141709      -221.5472
  17   2.0000      -6.162445      -167.6886
  18   2.0000      -6.155157      -167.4903
  19   2.0000      -6.154245      -167.4655
  20   2.0000      -1.513117       -41.1740
  21   2.0000      -1.283614       -34.9289
  22   2.0000      -1.183253       -32.1979
  23   2.0000      -1.091132       -29.6912
  24   2.0000      -1.025243       -27.8983
  25   2.0000      -0.997947       -27.1555
  26   2.0000      -0.964864       -26.2553
  27   2.0000      -0.932844       -25.3840
  28   2.0000      -0.891362       -24.2552
  29   2.0000      -0.878719       -23.9112
  30   2.0000      -0.850059       -23.1313
  31   2.0000      -0.826495       -22.4901
  32   2.0000      -0.785753       -21.3814
  33   2.0000      -0.766984       -20.8707
  34   2.0000      -0.749544       -20.3961
  35   2.0000      -0.722313       -19.6551
  36   2.0000      -0.719909       -19.5897
  37   2.0000      -0.697451       -18.9786
  38   2.0000      -0.689731       -18.7685
  39   2.0000      -0.661385       -17.9972
  40   2.0000      -0.644846       -17.5471
  41   2.0000      -0.639697       -17.4070
  42   2.0000      -0.633328       -17.2337
  43   2.0000      -0.616385       -16.7727
  44   2.0000      -0.602800       -16.4030
  45   2.0000      -0.600029       -16.3276
  46   2.0000      -0.592785       -16.1305
  47   2.0000      -0.578068       -15.7300
  48   2.0000      -0.558493       -15.1974
  49   2.0000      -0.552614       -15.0374
  50   2.0000      -0.549144       -14.9430
  51   2.0000      -0.537556       -14.6276
  52   2.0000      -0.516214       -14.0469
  53   2.0000      -0.508929       -13.8487
  54   2.0000      -0.500185       -13.6107
  55   2.0000      -0.493986       -13.4420
  56   2.0000      -0.483719       -13.1627
  57   2.0000      -0.481971       -13.1151
  58   2.0000      -0.477631       -12.9970
  59   2.0000      -0.467685       -12.7264
  60   2.0000      -0.461288       -12.5523
  61   2.0000      -0.458993       -12.4898
  62   2.0000      -0.451428       -12.2840
  63   2.0000      -0.442839       -12.0503
  64   2.0000      -0.438529       -11.9330
  65   2.0000      -0.434897       -11.8341
  66   2.0000      -0.431999       -11.7553
  67   2.0000      -0.303038        -8.2461
  68   0.0000       0.097605         2.6560
  69   0.0000       0.116910         3.1813
  70   0.0000       0.117595         3.1999
  71   0.0000       0.122177         3.3246
  72   0.0000       0.130983         3.5642

MULLIKEN ATOMIC CHARGES
-----------------------
   0 C :   -0.268509
   1 C :   -0.263367
   2 C :   -0.413900
   3 H :    0.230460
   4 H :    0.224581
   5 S :    0.796108
   6 C :    0.168592
   7 N :   -0.490857
   8 C :   -0.510849
   9 H :    0.127494
  10 H :    0.176324
  11 H :    0.243449
  12 H :    0.250191
  13 F :   -0.100385
  14 O :   -0.409148
  15 C :   -0.357520
  16 C :   -0.295596
  17 C :   -0.371593
  18 H :    0.185524
  19 H :    0.161847
  20 H :    0.164921
  21 H :    0.192239
  22 C :   -0.337346
  23 H :    0.151768
  24 H :    0.153151
  25 C :   -0.249176
  26 H :    0.188539
  27 H :    0.148295
  28 C :   -0.345833
  29 H :    0.153527
  30 H :    0.150329
  31 H :    0.154965
  32 H :    0.134777
  33 H :    0.156690
  34 H :    0.171862
  35 O :   -0.377150
  36 H :    0.167592
  37 H :    0.138004
Sum of atomic charges:    0.0000000

LOEWDIN ATOMIC CHARGES
----------------------
   0 C :   -0.228392
   1 C :   -0.303397
   2 C :   -0.379152
   3 H :    0.153464
   4 H :    0.165665
   5 S :    0.550568
   6 C :   -0.378570
   7 N :   -0.019657
   8 C :   -0.319977
   9 H :    0.101028
  10 H :    0.109760
  11 H :    0.163884
  12 H :    0.173016
  13 F :    0.077163
  14 O :   -0.259561
  15 C :   -0.275326
  16 C :   -0.289043
  17 C :   -0.292644
  18 H :    0.144913
  19 H :    0.150010
  20 H :    0.154895
  21 H :    0.155257
  22 C :   -0.285275
  23 H :    0.145963
  24 H :    0.141903
  25 C :   -0.285989
  26 H :    0.148136
  27 H :    0.145030
  28 C :   -0.287256
  29 H :    0.145333
  30 H :    0.144509
  31 H :    0.146594
  32 H :    0.141100
  33 H :    0.145154
  34 H :    0.146044
  35 O :   -0.249230
  36 H :    0.159908
  37 H :    0.144173

  Mayer bond orders larger than 0.100000
B(  0-C ,  6-C ) :   0.9124 B(  0-C , 15-C ) :   0.9715 B(  0-C , 36-H ) :   0.9650
B(  0-C , 37-H ) :   1.0055 B(  1-C ,  2-C ) :   0.9106 B(  1-C , 17-C ) :   0.9435
B(  1-C , 20-H ) :   0.9629 B(  1-C , 21-H ) :   0.9739 B(  2-C ,  3-H ) :   0.9333
B(  2-C ,  4-H ) :   0.9375 B(  2-C ,  5-S ) :   0.9284 B(  5-S , 13-F ) :   1.0805
B(  5-S , 14-O ) :   1.8936 B(  5-S , 35-O ) :   1.9960 B(  6-C ,  7-N ) :   1.1521
B(  6-C ,  8-C ) :   1.7538 B(  7-N , 11-H ) :   0.9264 B(  7-N , 12-H ) :   0.9223
B(  8-C ,  9-H ) :   1.0092 B(  8-C , 10-H ) :   0.9724 B( 15-C , 22-C ) :   0.8857
B( 15-C , 23-H ) :   0.9731 B( 15-C , 24-H ) :   0.9817 B( 16-C , 17-C ) :   0.8818
B( 16-C , 28-C ) :   0.9224 B( 16-C , 31-H ) :   0.9600 B( 16-C , 32-H ) :   0.9785
B( 17-C , 18-H ) :   0.9890 B( 17-C , 19-H ) :   0.9744 B( 22-C , 25-C ) :   0.9365
B( 22-C , 26-H ) :   0.9831 B( 22-C , 27-H ) :   0.9758 B( 25-C , 28-C ) :   0.9398
B( 25-C , 29-H ) :   0.9886 B( 25-C , 30-H ) :   0.9932 B( 28-C , 33-H ) :   0.9781
B( 28-C , 34-H ) :   0.9894

FINAL SINGLE POINT ENERGY     -1133.240510874731

DIPOLE MOMENT
-------------
                                X             Y             Z
Electronic contribution:     -7.72007     -16.91801     -13.56409
Nuclear contribution   :      7.91684      17.85507      15.13212
                        -----------------------------------------
Total Dipole Moment    :      0.19677       0.93706       1.56803
                        -----------------------------------------
Magnitude (a.u.)       :      1.83726
Magnitude (Debye)      :      4.66994

Rotational constants in cm-1:     0.018015     0.012410     0.008313
Rotational constants in MHz :   540.084467   372.038374   249.228144

                             ****ORCA TERMINATED NORMALLY****
TOTAL RUN TIME: 0 days 0 hours 1 minutes 59 seconds 212 msec
