                         Program Version 5.0.0 -  RELEASE  -
|  1> !LC-PBE RIJCOSX def2-TZVP def2/J TightSCF xyzfile
|  2>
|  3> *xyzfile 0 1 D3.xyz
|  4>
|  5> %MaxCore 64000
|  6>
|  7> %pal nprocs 18
|  8> end
|  9>
| 10> %scf
| 11>   MaxIter 150
| 12> end
| 13>
| 14>
| 15>                          ****END OF INPUT****

CARTESIAN COORDINATES (ANGSTROEM)
---------------------------------
  C      5.558206   -1.992914   -6.215054
  C      4.930199   -7.375319   -2.649623
  C      3.841892   -6.951611   -3.632829
  H      3.458144   -5.954425   -3.407121
  H      2.988484   -7.643606   -3.567078
  S      4.318115   -6.915930   -5.368692
  C      4.181880   -2.589671   -6.298911
  C      3.145873   -1.768431   -6.486753
  N      4.019102   -3.864307   -6.227427
  H      4.768490   -4.591153   -5.990773
  H      3.122405   -4.333392   -6.314620
  H      3.281635   -0.777786   -6.566549
  H      2.212549   -2.134193   -6.562246
  O      5.406154   -5.899480   -5.512972
  F      3.111910   -6.445079   -6.043792
  C      6.419260   -2.542944   -5.077630
  C      5.872267   -5.002756   -2.427819
  C      6.173994   -6.485522   -2.606315
  H      6.734852   -6.613767   -3.534015
  H      6.821463   -6.831018   -1.793617
  H      4.469612   -7.406168   -1.655876
  H      5.230134   -8.398678   -2.885906
  C      5.896512   -2.169314   -3.694552
  H      7.428880   -2.143665   -5.208078
  H      6.505894   -3.627541   -5.175502
  C      6.807804   -2.623428   -2.551019
  H      4.894708   -2.589732   -3.557501
  H      5.778823   -1.081255   -3.635790
  C      7.111544   -4.122463   -2.520363
  H      7.751615   -2.071393   -2.614406
  H      6.345837   -2.326401   -1.604086
  H      5.362882   -4.828697   -1.471335
  H      5.174429   -4.702577   -3.211298
  H      7.778329   -4.329347   -1.677651
  H      7.673189   -4.402845   -3.417586
  O      4.763396   -8.239424   -5.698629
  H      6.036826   -2.198189   -7.176852
  H      5.467610   -0.907371   -6.127968

 Total Charge           Charge          ....    0
 Multiplicity           Mult            ....    1
 Number of Electrons    NEL             ....  136
 Basis Dimension        Dim             ....  634

ORBITAL ENERGIES
----------------

  NO   OCC          E(Eh)            E(eV)
   0   2.0000     -88.562454     -2409.9069
   1   2.0000     -24.633702      -670.3171
   2   2.0000     -19.020205      -517.5661
   3   2.0000     -19.013167      -517.3746
   4   2.0000     -14.182931      -385.9372
   5   2.0000     -10.197708      -277.4937
   6   2.0000     -10.155051      -276.3330
   7   2.0000     -10.124171      -275.4927
   8   2.0000     -10.123620      -275.4777
   9   2.0000     -10.113987      -275.2156
  10   2.0000     -10.107943      -275.0511
  11   2.0000     -10.104558      -274.9590
  12   2.0000     -10.099283      -274.8155
  13   2.0000     -10.098752      -274.8010
  14   2.0000     -10.098501      -274.7942
  15   2.0000     -10.023174      -272.7444
  16   2.0000      -8.173633      -222.4158
  17   2.0000      -6.194065      -168.5491
  18   2.0000      -6.186957      -168.3557
  19   2.0000      -6.186518      -168.3437
  20   2.0000      -1.560266       -42.4570
  21   2.0000      -1.307567       -35.5807
  22   2.0000      -1.205928       -32.8150
  23   2.0000      -1.086650       -29.5692
  24   2.0000      -1.034401       -28.1475
  25   2.0000      -0.994828       -27.0706
  26   2.0000      -0.965240       -26.2655
  27   2.0000      -0.932972       -25.3875
  28   2.0000      -0.907326       -24.6896
  29   2.0000      -0.877480       -23.8775
  30   2.0000      -0.858537       -23.3620
  31   2.0000      -0.820759       -22.3340
  32   2.0000      -0.784190       -21.3389
  33   2.0000      -0.770673       -20.9711
  34   2.0000      -0.763863       -20.7858
  35   2.0000      -0.747246       -20.3336
  36   2.0000      -0.734467       -19.9859
  37   2.0000      -0.712925       -19.3997
  38   2.0000      -0.706887       -19.2354
  39   2.0000      -0.673052       -18.3147
  40   2.0000      -0.656039       -17.8517
  41   2.0000      -0.645070       -17.5532
  42   2.0000      -0.629264       -17.1232
  43   2.0000      -0.612298       -16.6615
  44   2.0000      -0.604758       -16.4563
  45   2.0000      -0.601483       -16.3672
  46   2.0000      -0.590920       -16.0798
  47   2.0000      -0.572595       -15.5811
  48   2.0000      -0.565544       -15.3892
  49   2.0000      -0.560689       -15.2571
  50   2.0000      -0.552288       -15.0285
  51   2.0000      -0.540482       -14.7073
  52   2.0000      -0.526038       -14.3142
  53   2.0000      -0.522692       -14.2232
  54   2.0000      -0.508203       -13.8289
  55   2.0000      -0.498315       -13.5599
  56   2.0000      -0.494477       -13.4554
  57   2.0000      -0.489810       -13.3284
  58   2.0000      -0.482821       -13.1382
  59   2.0000      -0.467052       -12.7091
  60   2.0000      -0.462896       -12.5960
  61   2.0000      -0.458621       -12.4797
  62   2.0000      -0.454765       -12.3748
  63   2.0000      -0.443641       -12.0721
  64   2.0000      -0.434491       -11.8231
  65   2.0000      -0.427485       -11.6325
  66   2.0000      -0.424302       -11.5458
  67   2.0000      -0.285441        -7.7673
  68   0.0000       0.093053         2.5321
  69   0.0000       0.097522         2.6537
  70   0.0000       0.119073         3.2401
  71   0.0000       0.125106         3.4043
  72   0.0000       0.133187         3.6242

MULLIKEN ATOMIC CHARGES
-----------------------
   0 C :   -0.266396
   1 C :   -0.273997
   2 C :   -0.411000
   3 H :    0.228942
   4 H :    0.217504
   5 S :    0.810673
   6 C :    0.146381
   7 C :   -0.528187
   8 N :   -0.496101
   9 H :    0.316778
  10 H :    0.229256
  11 H :    0.125277
  12 H :    0.119355
  13 O :   -0.449542
  14 F :   -0.083804
  15 C :   -0.362248
  16 C :   -0.277985
  17 C :   -0.361457
  18 H :    0.204575
  19 H :    0.159700
  20 H :    0.174118
  21 H :    0.193017
  22 C :   -0.335155
  23 H :    0.150747
  24 H :    0.176121
  25 C :   -0.248556
  26 H :    0.178491
  27 H :    0.152296
  28 C :   -0.352987
  29 H :    0.152213
  30 H :    0.147978
  31 H :    0.149951
  32 H :    0.128646
  33 H :    0.153114
  34 H :    0.177373
  35 O :   -0.356679
  36 H :    0.157482
  37 H :    0.154107
Sum of atomic charges:    0.0000000

LOEWDIN ATOMIC CHARGES
----------------------
   0 C :   -0.225840
   1 C :   -0.292032
   2 C :   -0.383612
   3 H :    0.153289
   4 H :    0.156674
   5 S :    0.559136
   6 C :   -0.388811
   7 C :   -0.310966
   8 N :   -0.029639
   9 H :    0.150818
  10 H :    0.160428
  11 H :    0.101945
  12 H :    0.095930
  13 O :   -0.277035
  14 F :    0.101964
  15 C :   -0.283454
  16 C :   -0.288537
  17 C :   -0.289250
  18 H :    0.152134
  19 H :    0.148973
  20 H :    0.158968
  21 H :    0.156894
  22 C :   -0.284033
  23 H :    0.145931
  24 H :    0.143652
  25 C :   -0.286296
  26 H :    0.146603
  27 H :    0.147098
  28 C :   -0.286077
  29 H :    0.145229
  30 H :    0.143564
  31 H :    0.144069
  32 H :    0.140241
  33 H :    0.144002
  34 H :    0.148485
  35 O :   -0.232348
  36 H :    0.155039
  37 H :    0.156863

  Mayer bond orders larger than 0.100000
B(  0-C ,  6-C ) :   0.9339 B(  0-C , 15-C ) :   0.9503 B(  0-C , 36-H ) :   0.9746
B(  0-C , 37-H ) :   0.9946 B(  1-C ,  2-C ) :   0.9241 B(  1-C , 17-C ) :   0.9513
B(  1-C , 20-H ) :   0.9610 B(  1-C , 21-H ) :   0.9709 B(  2-C ,  3-H ) :   0.9265
B(  2-C ,  4-H ) :   0.9355 B(  2-C ,  5-S ) :   0.9385 B(  5-S , 13-O ) :   1.7230
B(  5-S , 14-F ) :   1.1523 B(  5-S , 35-O ) :   2.0105 B(  6-C ,  7-C ) :   1.7264
B(  6-C ,  8-N ) :   1.2213 B(  7-C , 11-H ) :   0.9990 B(  7-C , 12-H ) :   1.0010
B(  8-N ,  9-H ) :   0.8037 B(  8-N , 10-H ) :   0.9197 B(  9-H , 13-O ) :   0.1038
B( 15-C , 22-C ) :   0.8770 B( 15-C , 23-H ) :   0.9726 B( 15-C , 24-H ) :   0.9842
B( 16-C , 17-C ) :   0.8959 B( 16-C , 28-C ) :   0.9316 B( 16-C , 31-H ) :   0.9606
B( 16-C , 32-H ) :   0.9710 B( 17-C , 18-H ) :   0.9765 B( 17-C , 19-H ) :   0.9758
B( 22-C , 25-C ) :   0.9341 B( 22-C , 26-H ) :   0.9865 B( 22-C , 27-H ) :   0.9767
B( 25-C , 28-C ) :   0.9384 B( 25-C , 29-H ) :   0.9881 B( 25-C , 30-H ) :   0.9936
B( 28-C , 33-H ) :   0.9785 B( 28-C , 34-H ) :   0.9883

FINAL SINGLE POINT ENERGY     -1133.243220085612

DIPOLE MOMENT
-------------
                                X             Y             Z
Electronic contribution:    -11.00843     -20.05117     -14.18677
Nuclear contribution   :     10.48431      18.81367      15.71750
                        -----------------------------------------
Total Dipole Moment    :     -0.52412      -1.23750       1.53073
                        -----------------------------------------
Magnitude (a.u.)       :      2.03697
Magnitude (Debye)      :      5.17757

Rotational constants in cm-1:     0.017977     0.012528     0.008321
Rotational constants in MHz :   538.924099   375.570730   249.458530

                             ****ORCA TERMINATED NORMALLY****
TOTAL RUN TIME: 0 days 0 hours 1 minutes 40 seconds 224 msec
