                         Program Version 5.0.0 -  RELEASE  -
|  1> !LC-PBE RIJCOSX def2-TZVP def2/J TightSCF xyzfile
|  2>
|  3> *xyzfile 0 1 D5.xyz
|  4>
|  5> %MaxCore 64000
|  6>
|  7> %pal nprocs 18
|  8> end
|  9>
| 10> %scf
| 11>   MaxIter 150
| 12> end
| 13>
| 14>
| 15>                          ****END OF INPUT****

CARTESIAN COORDINATES (ANGSTROEM)
---------------------------------
  C      5.558206   -1.992914   -6.215054
  C      4.930199   -7.375319   -2.649623
  C      3.841892   -6.951611   -3.632829
  H      3.458144   -5.954425   -3.407121
  H      2.988484   -7.643606   -3.567078
  S      4.318115   -6.915930   -5.368692
  C      4.181880   -2.589671   -6.298911
  C      3.145873   -1.768431   -6.486753
  N      4.019102   -3.864307   -6.227427
  H      4.768490   -4.591153   -5.990773
  H      3.122405   -4.333392   -6.314620
  H      3.281635   -0.777786   -6.566549
  H      2.212549   -2.134193   -6.562246
  O      5.406154   -5.899480   -5.512972
  O      3.111910   -6.445079   -6.043792
  C      6.419260   -2.542944   -5.077630
  C      5.872267   -5.002756   -2.427819
  C      6.173994   -6.485522   -2.606315
  H      6.734852   -6.613767   -3.534015
  H      6.821463   -6.831018   -1.793617
  H      4.469612   -7.406168   -1.655876
  H      5.230134   -8.398678   -2.885906
  C      5.896512   -2.169314   -3.694552
  H      7.428880   -2.143665   -5.208078
  H      6.505894   -3.627541   -5.175502
  C      6.807804   -2.623428   -2.551019
  H      4.894708   -2.589732   -3.557501
  H      5.778823   -1.081255   -3.635790
  C      7.111544   -4.122463   -2.520363
  H      7.751615   -2.071393   -2.614406
  H      6.345837   -2.326401   -1.604086
  H      5.362882   -4.828697   -1.471335
  H      5.174429   -4.702577   -3.211298
  H      7.778329   -4.329347   -1.677651
  H      7.673189   -4.402845   -3.417586
  F      4.763396   -8.239424   -5.698629
  H      6.036826   -2.198189   -7.176852
  H      5.467610   -0.907371   -6.127968

 Total Charge           Charge          ....    0
 Multiplicity           Mult            ....    1
 Number of Electrons    NEL             ....  136
 Basis Dimension        Dim             ....  634

ORBITAL ENERGIES
----------------

  NO   OCC          E(Eh)            E(eV)
   0   2.0000     -88.566634     -2410.0206
   1   2.0000     -24.645717      -670.6441
   2   2.0000     -19.015210      -517.4302
   3   2.0000     -19.014964      -517.4235
   4   2.0000     -14.164494      -385.4355
   5   2.0000     -10.199333      -277.5380
   6   2.0000     -10.158285      -276.4210
   7   2.0000     -10.128036      -275.5979
   8   2.0000     -10.115177      -275.2480
   9   2.0000     -10.111549      -275.1492
  10   2.0000     -10.108152      -275.0568
  11   2.0000     -10.102926      -274.9146
  12   2.0000     -10.094799      -274.6934
  13   2.0000     -10.094602      -274.6881
  14   2.0000     -10.090873      -274.5866
  15   2.0000     -10.010375      -272.3962
  16   2.0000      -8.177651      -222.5252
  17   2.0000      -6.197977      -168.6555
  18   2.0000      -6.191119      -168.4689
  19   2.0000      -6.190485      -168.4517
  20   2.0000      -1.578803       -42.9614
  21   2.0000      -1.303510       -35.4703
  22   2.0000      -1.197926       -32.5972
  23   2.0000      -1.070656       -29.1340
  24   2.0000      -1.038612       -28.2621
  25   2.0000      -0.993718       -27.0404
  26   2.0000      -0.963177       -26.2094
  27   2.0000      -0.929119       -25.2826
  28   2.0000      -0.908851       -24.7311
  29   2.0000      -0.876982       -23.8639
  30   2.0000      -0.855650       -23.2834
  31   2.0000      -0.818475       -22.2718
  32   2.0000      -0.790097       -21.4996
  33   2.0000      -0.778008       -21.1707
  34   2.0000      -0.766728       -20.8637
  35   2.0000      -0.752689       -20.4817
  36   2.0000      -0.725250       -19.7350
  37   2.0000      -0.710866       -19.3436
  38   2.0000      -0.700018       -19.0485
  39   2.0000      -0.663334       -18.0502
  40   2.0000      -0.659281       -17.9400
  41   2.0000      -0.650445       -17.6995
  42   2.0000      -0.629447       -17.1281
  43   2.0000      -0.610267       -16.6062
  44   2.0000      -0.606625       -16.5071
  45   2.0000      -0.596798       -16.2397
  46   2.0000      -0.584257       -15.8984
  47   2.0000      -0.572410       -15.5761
  48   2.0000      -0.563741       -15.3402
  49   2.0000      -0.560715       -15.2578
  50   2.0000      -0.543838       -14.7986
  51   2.0000      -0.536070       -14.5872
  52   2.0000      -0.526572       -14.3287
  53   2.0000      -0.513163       -13.9639
  54   2.0000      -0.506288       -13.7768
  55   2.0000      -0.492296       -13.3961
  56   2.0000      -0.489811       -13.3284
  57   2.0000      -0.481886       -13.1128
  58   2.0000      -0.480789       -13.0829
  59   2.0000      -0.468907       -12.7596
  60   2.0000      -0.457489       -12.4489
  61   2.0000      -0.455497       -12.3947
  62   2.0000      -0.452225       -12.3057
  63   2.0000      -0.440148       -11.9770
  64   2.0000      -0.431142       -11.7320
  65   2.0000      -0.422105       -11.4861
  66   2.0000      -0.418080       -11.3765
  67   2.0000      -0.271163        -7.3787
  68   0.0000       0.081324         2.2129
  69   0.0000       0.106668         2.9026
  70   0.0000       0.120902         3.2899
  71   0.0000       0.121772         3.3136
  72   0.0000       0.129253         3.5172

MULLIKEN ATOMIC CHARGES
-----------------------
   0 C :   -0.267403
   1 C :   -0.290372
   2 C :   -0.413092
   3 H :    0.247248
   4 H :    0.221912
   5 S :    0.828072
   6 C :    0.146261
   7 C :   -0.540024
   8 N :   -0.474187
   9 H :    0.300325
  10 H :    0.259658
  11 H :    0.120689
  12 H :    0.122017
  13 O :   -0.453763
  14 O :   -0.409828
  15 C :   -0.359768
  16 C :   -0.276686
  17 C :   -0.351568
  18 H :    0.191721
  19 H :    0.160808
  20 H :    0.175462
  21 H :    0.181146
  22 C :   -0.336634
  23 H :    0.147848
  24 H :    0.170202
  25 C :   -0.248172
  26 H :    0.181747
  27 H :    0.152114
  28 C :   -0.353561
  29 H :    0.151437
  30 H :    0.147666
  31 H :    0.151850
  32 H :    0.135638
  33 H :    0.152350
  34 H :    0.176222
  35 F :   -0.053245
  36 H :    0.154012
  37 H :    0.151897
Sum of atomic charges:   -0.0000000

LOEWDIN ATOMIC CHARGES
----------------------
   0 C :   -0.227180
   1 C :   -0.304521
   2 C :   -0.376961
   3 H :    0.166046
   4 H :    0.158204
   5 S :    0.560906
   6 C :   -0.391157
   7 C :   -0.319275
   8 N :   -0.017415
   9 H :    0.154214
  10 H :    0.171625
  11 H :    0.100085
  12 H :    0.096425
  13 O :   -0.282400
  14 O :   -0.264297
  15 C :   -0.284405
  16 C :   -0.287442
  17 C :   -0.293070
  18 H :    0.147652
  19 H :    0.148740
  20 H :    0.158569
  21 H :    0.148713
  22 C :   -0.283638
  23 H :    0.144726
  24 H :    0.142321
  25 C :   -0.286520
  26 H :    0.147705
  27 H :    0.147261
  28 C :   -0.286411
  29 H :    0.145038
  30 H :    0.143416
  31 H :    0.144773
  32 H :    0.142533
  33 H :    0.143473
  34 H :    0.148067
  35 F :    0.134456
  36 H :    0.153827
  37 H :    0.155917

  Mayer bond orders larger than 0.100000
B(  0-C ,  6-C ) :   0.9337 B(  0-C , 15-C ) :   0.9505 B(  0-C , 36-H ) :   0.9762
B(  0-C , 37-H ) :   0.9952 B(  1-C ,  2-C ) :   0.9128 B(  1-C , 17-C ) :   0.9267
B(  1-C , 20-H ) :   0.9622 B(  1-C , 21-H ) :   0.9838 B(  2-C ,  3-H ) :   0.9234
B(  2-C ,  4-H ) :   0.9421 B(  2-C ,  5-S ) :   0.9330 B(  5-S , 13-O ) :   1.7421
B(  5-S , 14-O ) :   1.8996 B(  5-S , 35-F ) :   1.2147 B(  6-C ,  7-C ) :   1.7123
B(  6-C ,  8-N ) :   1.2318 B(  7-C , 11-H ) :   0.9991 B(  7-C , 12-H ) :   0.9997
B(  8-N ,  9-H ) :   0.8307 B(  8-N , 10-H ) :   0.9085 B( 15-C , 22-C ) :   0.8779
B( 15-C , 23-H ) :   0.9732 B( 15-C , 24-H ) :   0.9850 B( 16-C , 17-C ) :   0.8887
B( 16-C , 28-C ) :   0.9303 B( 16-C , 31-H ) :   0.9609 B( 16-C , 32-H ) :   0.9703
B( 17-C , 18-H ) :   0.9832 B( 17-C , 19-H ) :   0.9740 B( 22-C , 25-C ) :   0.9321
B( 22-C , 26-H ) :   0.9865 B( 22-C , 27-H ) :   0.9770 B( 25-C , 28-C ) :   0.9406
B( 25-C , 29-H ) :   0.9881 B( 25-C , 30-H ) :   0.9938 B( 28-C , 33-H ) :   0.9787
B( 28-C , 34-H ) :   0.9882

FINAL SINGLE POINT ENERGY     -1133.235051646120

DIPOLE MOMENT
-------------
                                X             Y             Z
Electronic contribution:     -8.07644     -23.43968     -13.55487
Nuclear contribution   :      8.54118      20.92489      15.31138
                        -----------------------------------------
Total Dipole Moment    :      0.46474      -2.51478       1.75651
                        -----------------------------------------
Magnitude (a.u.)       :      3.10249
Magnitude (Debye)      :      7.88590

Rotational constants in cm-1:     0.018156     0.012306     0.008278
Rotational constants in MHz :   544.309022   368.914527   248.178402

                             ****ORCA TERMINATED NORMALLY****
TOTAL RUN TIME: 0 days 0 hours 1 minutes 27 seconds 280 msec
