                         Program Version 5.0.0 -  RELEASE  -
|  1> !LC-PBE RIJCOSX def2-TZVP def2/J TightSCF xyzfile
|  2>
|  3> *xyzfile 0 1 D6.xyz
|  4>
|  5> %MaxCore 64000
|  6>
|  7> %pal nprocs 18
|  8> end
|  9>
| 10> %scf
| 11>   MaxIter 150
| 12> end
| 13>
| 14>
| 15>                          ****END OF INPUT****

CARTESIAN COORDINATES (ANGSTROEM)
---------------------------------
  C      5.558206   -1.992914   -6.215054
  C      4.930199   -7.375319   -2.649623
  C      3.841892   -6.951611   -3.632829
  H      3.458144   -5.954425   -3.407121
  H      2.988484   -7.643606   -3.567078
  S      4.318115   -6.915930   -5.368692
  C      4.181880   -2.589671   -6.298911
  N      3.145873   -1.768431   -6.486753
  C      4.019102   -3.864307   -6.227427
  H      4.768490   -4.591153   -5.990773
  H      3.122405   -4.333392   -6.314620
  H      3.281635   -0.777786   -6.566549
  H      2.212549   -2.134193   -6.562246
  O      5.406154   -5.899480   -5.512972
  O      3.111910   -6.445079   -6.043792
  C      6.419260   -2.542944   -5.077630
  C      5.872267   -5.002756   -2.427819
  C      6.173994   -6.485522   -2.606315
  H      6.734852   -6.613767   -3.534015
  H      6.821463   -6.831018   -1.793617
  H      4.469612   -7.406168   -1.655876
  H      5.230134   -8.398678   -2.885906
  C      5.896512   -2.169314   -3.694552
  H      7.428880   -2.143665   -5.208078
  H      6.505894   -3.627541   -5.175502
  C      6.807804   -2.623428   -2.551019
  H      4.894708   -2.589732   -3.557501
  H      5.778823   -1.081255   -3.635790
  C      7.111544   -4.122463   -2.520363
  H      7.751615   -2.071393   -2.614406
  H      6.345837   -2.326401   -1.604086
  H      5.362882   -4.828697   -1.471335
  H      5.174429   -4.702577   -3.211298
  H      7.778329   -4.329347   -1.677651
  H      7.673189   -4.402845   -3.417586
  F      4.763396   -8.239424   -5.698629
  H      6.036826   -2.198189   -7.176852
  H      5.467610   -0.907371   -6.127968

 Total Charge           Charge          ....    0
 Multiplicity           Mult            ....    1
 Number of Electrons    NEL             ....  136
 Basis Dimension        Dim             ....  634

ORBITAL ENERGIES
----------------

  NO   OCC          E(Eh)            E(eV)
   0   2.0000     -88.541458     -2409.3356
   1   2.0000     -24.623901      -670.0504
   2   2.0000     -18.990268      -516.7515
   3   2.0000     -18.985766      -516.6290
   4   2.0000     -14.183130      -385.9426
   5   2.0000     -10.182321      -277.0750
   6   2.0000     -10.145831      -276.0821
   7   2.0000     -10.117215      -275.3034
   8   2.0000     -10.106772      -275.0192
   9   2.0000     -10.105789      -274.9925
  10   2.0000     -10.101636      -274.8795
  11   2.0000     -10.098982      -274.8073
  12   2.0000     -10.093198      -274.6499
  13   2.0000     -10.091610      -274.6067
  14   2.0000     -10.090719      -274.5824
  15   2.0000      -9.997520      -272.0463
  16   2.0000      -8.152413      -221.8384
  17   2.0000      -6.172843      -167.9716
  18   2.0000      -6.165692      -167.7770
  19   2.0000      -6.165348      -167.7676
  20   2.0000      -1.557237       -42.3746
  21   2.0000      -1.277183       -34.7539
  22   2.0000      -1.170997       -31.8645
  23   2.0000      -1.073064       -29.1995
  24   2.0000      -1.024170       -27.8691
  25   2.0000      -0.987718       -26.8772
  26   2.0000      -0.954830       -25.9822
  27   2.0000      -0.926883       -25.2218
  28   2.0000      -0.891681       -24.2639
  29   2.0000      -0.872195       -23.7336
  30   2.0000      -0.845338       -23.0028
  31   2.0000      -0.814462       -22.1626
  32   2.0000      -0.779045       -21.1989
  33   2.0000      -0.765416       -20.8280
  34   2.0000      -0.756122       -20.5751
  35   2.0000      -0.740827       -20.1589
  36   2.0000      -0.712029       -19.3753
  37   2.0000      -0.700267       -19.0552
  38   2.0000      -0.680310       -18.5122
  39   2.0000      -0.651629       -17.7317
  40   2.0000      -0.646650       -17.5962
  41   2.0000      -0.637304       -17.3419
  42   2.0000      -0.620072       -16.8730
  43   2.0000      -0.612321       -16.6621
  44   2.0000      -0.603431       -16.4202
  45   2.0000      -0.593120       -16.1396
  46   2.0000      -0.587737       -15.9931
  47   2.0000      -0.563018       -15.3205
  48   2.0000      -0.555933       -15.1277
  49   2.0000      -0.551108       -14.9964
  50   2.0000      -0.549355       -14.9487
  51   2.0000      -0.527088       -14.3428
  52   2.0000      -0.508038       -13.8244
  53   2.0000      -0.502324       -13.6689
  54   2.0000      -0.488850       -13.3023
  55   2.0000      -0.483005       -13.1432
  56   2.0000      -0.478043       -13.0082
  57   2.0000      -0.471738       -12.8366
  58   2.0000      -0.463423       -12.6104
  59   2.0000      -0.458491       -12.4762
  60   2.0000      -0.451918       -12.2973
  61   2.0000      -0.445505       -12.1228
  62   2.0000      -0.442268       -12.0347
  63   2.0000      -0.429473       -11.6866
  64   2.0000      -0.422740       -11.5033
  65   2.0000      -0.419013       -11.4019
  66   2.0000      -0.393756       -10.7147
  67   2.0000      -0.281883        -7.6704
  68   0.0000       0.096415         2.6236
  69   0.0000       0.122628         3.3369
  70   0.0000       0.126861         3.4521
  71   0.0000       0.130791         3.5590
  72   0.0000       0.135149         3.6776

MULLIKEN ATOMIC CHARGES
-----------------------
   0 C :   -0.260141
   1 C :   -0.285540
   2 C :   -0.409935
   3 H :    0.242453
   4 H :    0.214155
   5 S :    0.812724
   6 C :    0.156894
   7 N :   -0.497374
   8 C :   -0.517486
   9 H :    0.176469
  10 H :    0.154527
  11 H :    0.237946
  12 H :    0.244001
  13 O :   -0.437161
  14 O :   -0.398998
  15 C :   -0.357338
  16 C :   -0.274345
  17 C :   -0.350817
  18 H :    0.191835
  19 H :    0.155275
  20 H :    0.169796
  21 H :    0.176754
  22 C :   -0.339749
  23 H :    0.142199
  24 H :    0.183945
  25 C :   -0.245634
  26 H :    0.184235
  27 H :    0.142237
  28 C :   -0.355392
  29 H :    0.149273
  30 H :    0.144791
  31 H :    0.147021
  32 H :    0.147620
  33 H :    0.149222
  34 H :    0.176765
  35 F :   -0.059948
  36 H :    0.159352
  37 H :    0.130368
Sum of atomic charges:   -0.0000000

LOEWDIN ATOMIC CHARGES
----------------------
   0 C :   -0.230405
   1 C :   -0.305757
   2 C :   -0.379088
   3 H :    0.164671
   4 H :    0.155259
   5 S :    0.551970
   6 C :   -0.387806
   7 N :   -0.029524
   8 C :   -0.310582
   9 H :    0.104788
  10 H :    0.104516
  11 H :    0.160591
  12 H :    0.169664
  13 O :   -0.275084
  14 O :   -0.254617
  15 C :   -0.274507
  16 C :   -0.287028
  17 C :   -0.293495
  18 H :    0.148210
  19 H :    0.146778
  20 H :    0.156218
  21 H :    0.147704
  22 C :   -0.285450
  23 H :    0.142981
  24 H :    0.150110
  25 C :   -0.287055
  26 H :    0.147684
  27 H :    0.142975
  28 C :   -0.286300
  29 H :    0.144084
  30 H :    0.142593
  31 H :    0.143129
  32 H :    0.146425
  33 H :    0.142617
  34 H :    0.148552
  35 F :    0.125891
  36 H :    0.158118
  37 H :    0.141167

  Mayer bond orders larger than 0.100000
B(  0-C ,  6-C ) :   0.9151 B(  0-C , 15-C ) :   0.9732 B(  0-C , 36-H ) :   0.9657
B(  0-C , 37-H ) :   1.0083 B(  1-C ,  2-C ) :   0.9138 B(  1-C , 17-C ) :   0.9279
B(  1-C , 20-H ) :   0.9650 B(  1-C , 21-H ) :   0.9846 B(  2-C ,  3-H ) :   0.9270
B(  2-C ,  4-H ) :   0.9460 B(  2-C ,  5-S ) :   0.9310 B(  5-S , 13-O ) :   1.7808
B(  5-S , 14-O ) :   1.9165 B(  5-S , 35-F ) :   1.1979 B(  6-C ,  7-N ) :   1.1294
B(  6-C ,  8-C ) :   1.7768 B(  7-N , 11-H ) :   0.9292 B(  7-N , 12-H ) :   0.9254
B(  8-C ,  9-H ) :   0.9882 B(  8-C , 10-H ) :   0.9773 B( 15-C , 22-C ) :   0.8906
B( 15-C , 23-H ) :   0.9746 B( 15-C , 24-H ) :   0.9715 B( 16-C , 17-C ) :   0.8948
B( 16-C , 28-C ) :   0.9311 B( 16-C , 31-H ) :   0.9631 B( 16-C , 32-H ) :   0.9652
B( 17-C , 18-H ) :   0.9814 B( 17-C , 19-H ) :   0.9746 B( 22-C , 25-C ) :   0.9382
B( 22-C , 26-H ) :   0.9837 B( 22-C , 27-H ) :   0.9778 B( 25-C , 28-C ) :   0.9417
B( 25-C , 29-H ) :   0.9888 B( 25-C , 30-H ) :   0.9943 B( 28-C , 33-H ) :   0.9794
B( 28-C , 34-H ) :   0.9877

FINAL SINGLE POINT ENERGY     -1133.219202152010

DIPOLE MOMENT
-------------
                                X             Y             Z
Electronic contribution:     -8.85090     -21.54725     -14.00019
Nuclear contribution   :      8.67311      20.60825      15.35056
                        -----------------------------------------
Total Dipole Moment    :     -0.17779      -0.93901       1.35037
                        -----------------------------------------
Magnitude (a.u.)       :      1.65434
Magnitude (Debye)      :      4.20500

Rotational constants in cm-1:     0.017976     0.012151     0.008188
Rotational constants in MHz :   538.898457   364.286417   245.482451

                             ****ORCA TERMINATED NORMALLY****
TOTAL RUN TIME: 0 days 0 hours 1 minutes 38 seconds 366 msec
