                         Program Version 5.0.0 -  RELEASE  -
|  1> !CAM-B3LYP RIJCOSX def2-SVPD def2/J TightSCF
|  2> *xyz -1 1
|  3> C          3.34350        3.35457       -3.59200
|  4> C          2.95263        1.86308       -3.57485
|  5> C          4.12921        0.89839       -3.41895
|  6> H          3.73369       -0.10060       -3.23763
|  7> H          4.71910        0.86256       -4.33901
|  8> C          5.01734        1.31521       -2.22130
|  9> H          2.27894        1.73525       -2.72550
| 10> H          2.37747        1.62579       -4.47587
| 11> O          4.73706        0.85411       -1.12283
| 12> O          5.92815        2.16811       -2.49136
| 13> H          4.00801        3.53975       -4.40994
| 14> H          3.83025        3.60631       -2.67298
| 15> H          2.46347        3.95263       -3.70497
| 16> *
| 17> %MaxCore 64000
| 18>
| 19> %pal nprocs 4
| 20> end
| 21>
| 22> %scf
| 23>   MaxIter 150
| 24> end
| 25>
| 26>
| 27>                          ****END OF INPUT****

CARTESIAN COORDINATES (ANGSTROEM)
---------------------------------
  C      3.343500    3.354570   -3.592000
  C      2.952630    1.863080   -3.574850
  C      4.129210    0.898390   -3.418950
  H      3.733690   -0.100600   -3.237630
  H      4.719100    0.862560   -4.339010
  C      5.017340    1.315210   -2.221300
  H      2.278940    1.735250   -2.725500
  H      2.377470    1.625790   -4.475870
  O      4.737060    0.854110   -1.122830
  O      5.928150    2.168110   -2.491360
  H      4.008010    3.539750   -4.409940
  H      3.830250    3.606310   -2.672980
  H      2.463470    3.952630   -3.704970

 Total Charge           Charge          ....   -1
 Multiplicity           Mult            ....    1
 Number of Electrons    NEL             ....   48
 Basis Dimension        Dim             ....  182

ORBITAL ENERGIES
----------------

  NO   OCC          E(Eh)            E(eV)
   0   2.0000     -18.962702      -516.0014
   1   2.0000     -18.950591      -515.6718
   2   2.0000     -10.151773      -276.2438
   3   2.0000     -10.112453      -275.1738
   4   2.0000     -10.097144      -274.7573
   5   2.0000     -10.084642      -274.4171
   6   2.0000      -0.904888       -24.6232
   7   2.0000      -0.805613       -21.9218
   8   2.0000      -0.711586       -19.3632
   9   2.0000      -0.612973       -16.6798
  10   2.0000      -0.514470       -13.9994
  11   2.0000      -0.401840       -10.9346
  12   2.0000      -0.368629       -10.0309
  13   2.0000      -0.359578        -9.7846
  14   2.0000      -0.320632        -8.7249
  15   2.0000      -0.306637        -8.3440
  16   2.0000      -0.281617        -7.6632
  17   2.0000      -0.272694        -7.4204
  18   2.0000      -0.267639        -7.2828
  19   2.0000      -0.241651        -6.5757
  20   2.0000      -0.237296        -6.4572
  21   2.0000      -0.119569        -3.2536
  22   2.0000      -0.111707        -3.0397
  23   2.0000      -0.101562        -2.7636
  24   0.0000       0.176253         4.7961
  25   0.0000       0.200524         5.4565
  26   0.0000       0.214573         5.8388
  27   0.0000       0.227785         6.1983
  28   0.0000       0.255264         6.9461

MULLIKEN ATOMIC CHARGES
-----------------------
   0 C :    0.888951
   1 C :   -0.294675
   2 C :    0.335000
   3 H :   -0.093073
   4 H :   -0.089003
   5 C :    0.295142
   6 H :   -0.091147
   7 H :   -0.270462
   8 O :   -0.591291
   9 O :   -0.684890
  10 H :   -0.110268
  11 H :   -0.065755
  12 H :   -0.228527
Sum of atomic charges:   -1.0000000

LOEWDIN ATOMIC CHARGES
----------------------
   0 C :    0.111878
   1 C :   -0.082241
   2 C :   -0.001734
   3 H :   -0.001110
   4 H :    0.005449
   5 C :   -0.312119
   6 H :    0.011387
   7 H :   -0.002551
   8 O :   -0.298155
   9 O :   -0.340506
  10 H :   -0.022431
  11 H :   -0.025893
  12 H :   -0.041974

  Mayer bond orders larger than 0.100000
B(  0-C ,  1-C ) :   1.2747 B(  0-C ,  6-H ) :   0.1015 B(  0-C ,  7-H ) :   0.1026
B(  0-C , 10-H ) :   0.7469 B(  0-C , 11-H ) :   0.7623 B(  0-C , 12-H ) :   0.7260
B(  1-C ,  2-C ) :   1.1975 B(  1-C ,  3-H ) :   0.1623 B(  1-C ,  4-H ) :   0.1560
B(  1-C ,  6-H ) :   0.8874 B(  1-C ,  7-H ) :   0.9472 B(  1-C , 10-H ) :   0.2185
B(  1-C , 11-H ) :   0.2444 B(  1-C , 12-H ) :   0.2356 B(  2-C ,  3-H ) :   0.8220
B(  2-C ,  4-H ) :   0.8698 B(  2-C ,  5-C ) :   0.9774 B(  2-C ,  6-H ) :   0.1286
B(  3-H ,  5-C ) :   0.1534 B(  4-H ,  5-C ) :   0.1063 B(  5-C ,  8-O ) :   1.5597
B(  5-C ,  9-O ) :   1.5072

FINAL SINGLE POINT ENERGY      -306.806066275165

DIPOLE MOMENT
-------------
                                X             Y             Z
Electronic contribution:      4.89727      -2.55802       4.42981
Nuclear contribution   :     -6.63819       2.74067      -6.05656
                        -----------------------------------------
Total Dipole Moment    :     -1.74092       0.18265      -1.62675
                        -----------------------------------------
Magnitude (a.u.)       :      2.38966
Magnitude (Debye)      :      6.07403

Rotational constants in cm-1:     0.190880     0.089683     0.076466
Rotational constants in MHz :  5722.446013  2688.617255  2292.390699

                             ****ORCA TERMINATED NORMALLY****
TOTAL RUN TIME: 0 days 0 hours 0 minutes 26 seconds 389 msec
