                         Program Version 5.0.0 -  RELEASE  -
|  1> !CAM-B3LYP RIJCOSX def2-SVPD def2/J TightSCF
|  2> *xyz 1 1
|  3> C          3.34350        3.35457       -3.59200
|  4> C          2.95263        1.86308       -3.57485
|  5> C          4.12921        0.89839       -3.41895
|  6> C          4.25587        3.70385       -4.72605
|  7> N          3.73403        4.29378       -5.80077
|  8> N          5.51504        3.40725       -4.63718
|  9> H          6.14919        3.60120       -5.39905
| 10> H          5.81358        2.89950       -3.80879
| 11> H          2.74138        4.51311       -5.82470
| 12> H          4.28755        4.52126       -6.61434
| 13> H          2.27894        1.73525       -2.72550
| 14> H          2.37747        1.62579       -4.47587
| 15> H          3.86125        3.59725       -2.66298
| 16> H          2.44649        3.97346       -3.65656
| 17> H          4.79753        1.01430       -4.24649
| 18> H          3.76482       -0.10731       -3.39293
| 19> H          4.64840        1.11330       -2.50837
| 20> *
| 21> %MaxCore 64000
| 22>
| 23> %pal nprocs 4
| 24> end
| 25>
| 26> %scf
| 27>   MaxIter 150
| 28> end
| 29>
| 30>
| 31>                          ****END OF INPUT****

CARTESIAN COORDINATES (ANGSTROEM)
---------------------------------
  C      3.343500    3.354570   -3.592000
  C      2.952630    1.863080   -3.574850
  C      4.129210    0.898390   -3.418950
  C      4.255870    3.703850   -4.726050
  N      3.734030    4.293780   -5.800770
  N      5.515040    3.407250   -4.637180
  H      6.149190    3.601200   -5.399050
  H      5.813580    2.899500   -3.808790
  H      2.741380    4.513110   -5.824700
  H      4.287550    4.521260   -6.614340
  H      2.278940    1.735250   -2.725500
  H      2.377470    1.625790   -4.475870
  H      3.861250    3.597250   -2.662980
  H      2.446490    3.973460   -3.656560
  H      4.797530    1.014300   -4.246490
  H      3.764820   -0.107310   -3.392930
  H      4.648400    1.113300   -2.508370

 Total Charge           Charge          ....    1
 Multiplicity           Mult            ....    1
 Number of Electrons    NEL             ....   48
 Basis Dimension        Dim             ....  208

ORBITAL ENERGIES
----------------

  NO   OCC          E(Eh)            E(eV)
   0   2.0000     -14.651176      -398.6788
   1   2.0000     -14.646977      -398.5645
   2   2.0000     -10.581196      -287.9290
   3   2.0000     -10.452520      -284.4275
   4   2.0000     -10.420889      -283.5668
   5   2.0000     -10.390735      -282.7463
   6   2.0000      -1.278933       -34.8015
   7   2.0000      -1.181272       -32.1441
   8   2.0000      -1.050926       -28.5972
   9   2.0000      -0.965656       -26.2768
  10   2.0000      -0.904402       -24.6100
  11   2.0000      -0.863159       -23.4877
  12   2.0000      -0.845600       -23.0100
  13   2.0000      -0.803565       -21.8661
  14   2.0000      -0.770803       -20.9746
  15   2.0000      -0.725397       -19.7391
  16   2.0000      -0.692288       -18.8381
  17   2.0000      -0.678181       -18.4542
  18   2.0000      -0.643544       -17.5117
  19   2.0000      -0.628381       -17.0991
  20   2.0000      -0.575465       -15.6592
  21   2.0000      -0.568184       -15.4611
  22   2.0000      -0.564164       -15.3517
  23   2.0000      -0.549114       -14.9421
  24   0.0000      -0.160052        -4.3552
  25   0.0000      -0.120554        -3.2804
  26   0.0000      -0.080380        -2.1873
  27   0.0000      -0.075331        -2.0498
  28   0.0000      -0.052436        -1.4269

MULLIKEN ATOMIC CHARGES
-----------------------
   0 C :    0.197912
   1 C :   -0.116401
   2 C :    0.955720
   3 C :    0.660838
   4 N :    0.098092
   5 N :    0.213423
   6 H :   -0.165044
   7 H :    0.055066
   8 H :    0.015898
   9 H :   -0.148534
  10 H :   -0.090376
  11 H :   -0.140279
  12 H :   -0.004153
  13 H :   -0.113971
  14 H :   -0.134806
  15 H :   -0.218978
  16 H :   -0.064406
Sum of atomic charges:    1.0000000

LOEWDIN ATOMIC CHARGES
----------------------
   0 C :    0.044793
   1 C :   -0.032396
   2 C :    0.135620
   3 C :   -0.041930
   4 N :    0.284564
   5 N :    0.292593
   6 H :    0.056232
   7 H :    0.044687
   8 H :    0.050755
   9 H :    0.042667
  10 H :    0.039572
  11 H :    0.033724
  12 H :    0.047543
  13 H :    0.039161
  14 H :   -0.034487
  15 H :    0.002393
  16 H :   -0.005492

  Mayer bond orders larger than 0.100000
B(  0-C ,  1-C ) :   1.1727 B(  0-C ,  3-C ) :   1.0733 B(  0-C ,  4-N ) :   0.1107
B(  0-C ,  5-N ) :   0.1237 B(  0-C , 10-H ) :   0.1284 B(  0-C , 11-H ) :   0.1032
B(  0-C , 12-H ) :   0.8150 B(  0-C , 13-H ) :   0.8774 B(  1-C ,  2-C ) :   1.2768
B(  1-C , 10-H ) :   0.8706 B(  1-C , 11-H ) :   0.9620 B(  1-C , 12-H ) :   0.1293
B(  1-C , 13-H ) :   0.1157 B(  1-C , 14-H ) :   0.2166 B(  1-C , 15-H ) :   0.2291
B(  1-C , 16-H ) :   0.2212 B(  2-C , 10-H ) :   0.1023 B(  2-C , 14-H ) :   0.7587
B(  2-C , 15-H ) :   0.7763 B(  2-C , 16-H ) :   0.7430 B(  3-C ,  4-N ) :   1.0711
B(  3-C ,  5-N ) :   1.1879 B(  3-C ,  6-H ) :  -0.1908 B(  3-C ,  8-H ) :  -0.1017
B(  3-C ,  9-H ) :  -0.1692 B(  3-C , 13-H ) :   0.1147 B(  4-N ,  5-N ) :   0.1508
B(  4-N ,  8-H ) :   1.1156 B(  4-N ,  9-H ) :   1.2994 B(  5-N ,  6-H ) :   1.3475
B(  5-N ,  7-H ) :   1.0281 B(  6-H ,  7-H ) :  -0.1993 B(  8-H ,  9-H ) :  -0.1857

FINAL SINGLE POINT ENERGY      -268.019541136856

DIPOLE MOMENT
-------------
                                X             Y             Z
Electronic contribution:      1.42711       4.42882      -2.93555
Nuclear contribution   :     -0.87169      -3.40560       1.97790
                        -----------------------------------------
Total Dipole Moment    :      0.55542       1.02323      -0.95764
                        -----------------------------------------
Magnitude (a.u.)       :      1.50750
Magnitude (Debye)      :      3.83176

Rotational constants in cm-1:     0.188632     0.081113     0.066356
Rotational constants in MHz :  5655.057814  2431.708101  1989.304146

                             ****ORCA TERMINATED NORMALLY****
TOTAL RUN TIME: 0 days 0 hours 0 minutes 37 seconds 324 msec
