                         Program Version 5.0.0 -  RELEASE  -
|  1> !CAM-B3LYP RIJCOSX def2-SVPD def2/J TightSCF
|  2> *xyz 0 1
|  3> C          3.34350        3.35457       -3.59200
|  4> C          2.95263        1.86308       -3.57485
|  5> C          4.12921        0.89839       -3.41895
|  6> H          3.73369       -0.10060       -3.23763
|  7> H          4.71910        0.86256       -4.33901
|  8> C          5.01734        1.31521       -2.22130
|  9> H          2.27894        1.73525       -2.72550
| 10> H          2.37747        1.62579       -4.47587
| 11> F          4.73706        0.85411       -1.12283
| 12> O          5.92815        2.16811       -2.49136
| 13> H          4.00801        3.53975       -4.40994
| 14> H          3.83025        3.60631       -2.67298
| 15> H          2.46347        3.95263       -3.70497
| 16> *
| 17> %MaxCore 64000
| 18>
| 19> %pal nprocs 4
| 20> end
| 21>
| 22> %scf
| 23>   MaxIter 150
| 24> end
| 25>
| 26>
| 27>                          ****END OF INPUT****

CARTESIAN COORDINATES (ANGSTROEM)
---------------------------------
  C      3.343500    3.354570   -3.592000
  C      2.952630    1.863080   -3.574850
  C      4.129210    0.898390   -3.418950
  H      3.733690   -0.100600   -3.237630
  H      4.719100    0.862560   -4.339010
  C      5.017340    1.315210   -2.221300
  H      2.278940    1.735250   -2.725500
  H      2.377470    1.625790   -4.475870
  F      4.737060    0.854110   -1.122830
  O      5.928150    2.168110   -2.491360
  H      4.008010    3.539750   -4.409940
  H      3.830250    3.606310   -2.672980
  H      2.463470    3.952630   -3.704970

 Total Charge           Charge          ....    0
 Multiplicity           Mult            ....    1
 Number of Electrons    NEL             ....   48
 Basis Dimension        Dim             ....  182

ORBITAL ENERGIES
----------------

  NO   OCC          E(Eh)            E(eV)
   0   2.0000     -24.862150      -676.5335
   1   2.0000     -19.223031      -523.0853
   2   2.0000     -10.450092      -284.3614
   3   2.0000     -10.289962      -280.0041
   4   2.0000     -10.277468      -279.6641
   5   2.0000     -10.247164      -278.8395
   6   2.0000      -1.417974       -38.5850
   7   2.0000      -1.097830       -29.8735
   8   2.0000      -0.891764       -24.2661
   9   2.0000      -0.803221       -21.8568
  10   2.0000      -0.751355       -20.4454
  11   2.0000      -0.689918       -18.7736
  12   2.0000      -0.646328       -17.5875
  13   2.0000      -0.626676       -17.0527
  14   2.0000      -0.576408       -15.6849
  15   2.0000      -0.542110       -14.7516
  16   2.0000      -0.527206       -14.3460
  17   2.0000      -0.486476       -13.2377
  18   2.0000      -0.467439       -12.7197
  19   2.0000      -0.434111       -11.8128
  20   2.0000      -0.429960       -11.6998
  21   2.0000      -0.417641       -11.3646
  22   2.0000      -0.405790       -11.0421
  23   2.0000      -0.356745        -9.7075
  24   0.0000       0.012502         0.3402
  25   0.0000       0.043216         1.1760
  26   0.0000       0.072417         1.9706
  27   0.0000       0.078054         2.1240
  28   0.0000       0.085174         2.3177

MULLIKEN ATOMIC CHARGES
-----------------------
   0 C :    0.907604
   1 C :   -0.253912
   2 C :    0.297164
   3 H :   -0.064335
   4 H :   -0.062095
   5 C :    0.684617
   6 H :   -0.097911
   7 H :   -0.228730
   8 F :   -0.322271
   9 O :   -0.476967
  10 H :   -0.100575
  11 H :   -0.081640
  12 H :   -0.200948
Sum of atomic charges:    0.0000000

LOEWDIN ATOMIC CHARGES
----------------------
   0 C :    0.131624
   1 C :   -0.060108
   2 C :    0.045188
   3 H :    0.021485
   4 H :    0.038050
   5 C :   -0.018282
   6 H :    0.020687
   7 H :    0.024667
   8 F :   -0.001786
   9 O :   -0.148081
  10 H :   -0.009218
  11 H :   -0.025907
  12 H :   -0.018320

  Mayer bond orders larger than 0.100000
B(  0-C ,  1-C ) :   1.2925 B(  0-C , 10-H ) :   0.7536 B(  0-C , 11-H ) :   0.7682
B(  0-C , 12-H ) :   0.7379 B(  1-C ,  2-C ) :   1.1924 B(  1-C ,  3-H ) :   0.1569
B(  1-C ,  4-H ) :   0.1530 B(  1-C ,  6-H ) :   0.8856 B(  1-C ,  7-H ) :   0.9495
B(  1-C , 10-H ) :   0.2091 B(  1-C , 11-H ) :   0.2268 B(  1-C , 12-H ) :   0.2248
B(  2-C ,  3-H ) :   0.8323 B(  2-C ,  4-H ) :   0.8776 B(  2-C ,  5-C ) :   1.0232
B(  2-C ,  6-H ) :   0.1126 B(  5-C ,  8-F ) :   0.7744 B(  5-C ,  9-O ) :   1.8232
B(  8-F ,  9-O ) :   0.1155

FINAL SINGLE POINT ENERGY      -331.327308499369

DIPOLE MOMENT
-------------
                                X             Y             Z
Electronic contribution:      6.05285      -4.37847       7.56338
Nuclear contribution   :     -7.06456       3.75953      -7.86734
                        -----------------------------------------
Total Dipole Moment    :     -1.01171      -0.61894      -0.30396
                        -----------------------------------------
Magnitude (a.u.)       :      1.22435
Magnitude (Debye)      :      3.11205

Rotational constants in cm-1:     0.185871     0.085512     0.073500
Rotational constants in MHz :  5572.269993  2563.593529  2203.466497

                             ****ORCA TERMINATED NORMALLY****
TOTAL RUN TIME: 0 days 0 hours 0 minutes 29 seconds 470 msec
