                         Program Version 5.0.0 -  RELEASE  -
|  1> !CAM-B3LYP RIJCOSX def2-SVPD def2/J TightSCF
|  2> *xyz 0 1
|  3> C          3.34350        3.35457       -3.59200
|  4> C          2.95263        1.86308       -3.57485
|  5> C          4.12921        0.89839       -3.41895
|  6> C          4.25587        3.70385       -4.72605
|  7> C          3.73403        4.29378       -5.80077
|  8> N          5.51504        3.40725       -4.63718
|  9> H          6.14919        3.60120       -5.39905
| 10> H          5.81358        2.89950       -3.80879
| 11> H          2.74138        4.51311       -5.82470
| 12> H          4.28755        4.52126       -6.61434
| 13> H          2.27894        1.73525       -2.72550
| 14> H          2.37747        1.62579       -4.47587
| 15> H          3.86125        3.59725       -2.66298
| 16> H          2.44649        3.97346       -3.65656
| 17> H          4.79753        1.01430       -4.24649
| 18> H          3.76482       -0.10731       -3.39293
| 19> H          4.64840        1.11330       -2.50837
| 20> *
| 21> %MaxCore 64000
| 22>
| 23> %pal nprocs 4
| 24> end
| 25>
| 26> %scf
| 27>   MaxIter 150
| 28> end
| 29>
| 30>
| 31>                          ****END OF INPUT****

CARTESIAN COORDINATES (ANGSTROEM)
---------------------------------
  C      3.343500    3.354570   -3.592000
  C      2.952630    1.863080   -3.574850
  C      4.129210    0.898390   -3.418950
  C      4.255870    3.703850   -4.726050
  C      3.734030    4.293780   -5.800770
  N      5.515040    3.407250   -4.637180
  H      6.149190    3.601200   -5.399050
  H      5.813580    2.899500   -3.808790
  H      2.741380    4.513110   -5.824700
  H      4.287550    4.521260   -6.614340
  H      2.278940    1.735250   -2.725500
  H      2.377470    1.625790   -4.475870
  H      3.861250    3.597250   -2.662980
  H      2.446490    3.973460   -3.656560
  H      4.797530    1.014300   -4.246490
  H      3.764820   -0.107310   -3.392930
  H      4.648400    1.113300   -2.508370

 Total Charge           Charge          ....    0
 Multiplicity           Mult            ....    1
 Number of Electrons    NEL             ....   48
 Basis Dimension        Dim             ....  208

ORBITAL ENERGIES
----------------

  NO   OCC          E(Eh)            E(eV)
   0   2.0000     -14.407832      -392.0570
   1   2.0000     -10.278945      -279.7043
   2   2.0000     -10.255995      -279.0798
   3   2.0000     -10.255908      -279.0774
   4   2.0000     -10.244481      -278.7665
   5   2.0000     -10.189656      -277.2746
   6   2.0000      -1.013334       -27.5742
   7   2.0000      -0.870046       -23.6752
   8   2.0000      -0.811107       -22.0713
   9   2.0000      -0.754313       -20.5259
  10   2.0000      -0.681079       -18.5331
  11   2.0000      -0.637729       -17.3535
  12   2.0000      -0.599609       -16.3162
  13   2.0000      -0.557053       -15.1582
  14   2.0000      -0.521895       -14.2015
  15   2.0000      -0.504205       -13.7201
  16   2.0000      -0.480274       -13.0689
  17   2.0000      -0.459974       -12.5165
  18   2.0000      -0.441396       -12.0110
  19   2.0000      -0.429072       -11.6757
  20   2.0000      -0.405958       -11.0467
  21   2.0000      -0.392400       -10.6777
  22   2.0000      -0.388037       -10.5590
  23   2.0000      -0.245505        -6.6805
  24   0.0000       0.047410         1.2901
  25   0.0000       0.072512         1.9731
  26   0.0000       0.076593         2.0842
  27   0.0000       0.082206         2.2370
  28   0.0000       0.102619         2.7924

MULLIKEN ATOMIC CHARGES
-----------------------
   0 C :    0.418918
   1 C :   -0.139986
   2 C :    0.939949
   3 C :   -0.133794
   4 C :    0.595305
   5 N :    0.358358
   6 H :   -0.227687
   7 H :   -0.101734
   8 H :   -0.232396
   9 H :   -0.584146
  10 H :   -0.122475
  11 H :   -0.181670
  12 H :   -0.109302
  13 H :   -0.039136
  14 H :   -0.118648
  15 H :   -0.246675
  16 H :   -0.074882
Sum of atomic charges:   -0.0000000

LOEWDIN ATOMIC CHARGES
----------------------
   0 C :    0.004158
   1 C :   -0.055894
   2 C :    0.115096
   3 C :   -0.264158
   4 C :    0.179436
   5 N :    0.177557
   6 H :    0.016760
   7 H :   -0.002482
   8 H :   -0.086549
   9 H :   -0.092876
  10 H :    0.015264
  11 H :    0.023783
  12 H :    0.021130
  13 H :    0.023180
  14 H :   -0.036487
  15 H :   -0.019513
  16 H :   -0.018408

  Mayer bond orders larger than 0.100000
B(  0-C ,  1-C ) :   1.1443 B(  0-C ,  3-C ) :   1.1434 B(  0-C ,  4-C ) :   0.1695
B(  0-C ,  5-N ) :   0.1249 B(  0-C , 10-H ) :   0.1132 B(  0-C , 11-H ) :   0.1285
B(  0-C , 12-H ) :   0.6995 B(  0-C , 13-H ) :   0.8274 B(  1-C ,  2-C ) :   1.2589
B(  1-C , 10-H ) :   0.8628 B(  1-C , 11-H ) :   0.9695 B(  1-C , 12-H ) :   0.1488
B(  1-C , 13-H ) :   0.1279 B(  1-C , 14-H ) :   0.2232 B(  1-C , 15-H ) :   0.2386
B(  1-C , 16-H ) :   0.2306 B(  2-C , 10-H ) :   0.1018 B(  2-C , 14-H ) :   0.7834
B(  2-C , 15-H ) :   0.7469 B(  2-C , 16-H ) :   0.7350 B(  3-C ,  4-C ) :   1.6335
B(  3-C ,  5-N ) :   1.1945 B(  3-C ,  6-H ) :  -0.1103 B(  3-C ,  9-H ) :   0.1742
B(  3-C , 12-H ) :   0.1952 B(  3-C , 13-H ) :   0.1748 B(  4-C ,  5-N ) :   0.2797
B(  4-C ,  8-H ) :   0.9367 B(  4-C ,  9-H ) :   0.5802 B(  5-N ,  6-H ) :   1.2963
B(  5-N ,  7-H ) :   1.0040 B(  6-H ,  7-H ) :  -0.1770

FINAL SINGLE POINT ENERGY      -251.558342561440

DIPOLE MOMENT
-------------
                                X             Y             Z
Electronic contribution:      1.43586       2.65633      -1.21495
Nuclear contribution   :     -0.93682      -3.08083       1.62582
                        -----------------------------------------
Total Dipole Moment    :      0.49904      -0.42449       0.41087
                        -----------------------------------------
Magnitude (a.u.)       :      0.77333
Magnitude (Debye)      :      1.96566

Rotational constants in cm-1:     0.191400     0.084268     0.068511
Rotational constants in MHz :  5738.038424  2526.291061  2053.912421

                             ****ORCA TERMINATED NORMALLY****
TOTAL RUN TIME: 0 days 0 hours 0 minutes 36 seconds 987 msec
