                         Program Version 5.0.0 -  RELEASE  -
|  1> !CAM-B3LYP RIJCOSX def2-SVPD def2/J TightSCF
|  2> *xyz 0 1
|  3> C          3.34350        3.35457       -3.59200
|  4> C          2.95263        1.86308       -3.57485
|  5> C          4.12921        0.89839       -3.41895
|  6> H          3.73369       -0.10060       -3.23763
|  7> H          4.71910        0.86256       -4.33901
|  8> C          5.01734        1.31521       -2.22130
|  9> H          2.27894        1.73525       -2.72550
| 10> H          2.37747        1.62579       -4.47587
| 11> O          4.73706        0.85411       -1.12283
| 12> F          5.92815        2.16811       -2.49136
| 13> H          4.00801        3.53975       -4.40994
| 14> H          3.83025        3.60631       -2.67298
| 15> H          2.46347        3.95263       -3.70497
| 16> *
| 17> %MaxCore 64000
| 18>
| 19> %pal nprocs 4
| 20> end
| 21>
| 22> %scf
| 23>   MaxIter 150
| 24> end
| 25>
| 26>
| 27>                          ****END OF INPUT****

CARTESIAN COORDINATES (ANGSTROEM)
---------------------------------
  C      3.343500    3.354570   -3.592000
  C      2.952630    1.863080   -3.574850
  C      4.129210    0.898390   -3.418950
  H      3.733690   -0.100600   -3.237630
  H      4.719100    0.862560   -4.339010
  C      5.017340    1.315210   -2.221300
  H      2.278940    1.735250   -2.725500
  H      2.377470    1.625790   -4.475870
  O      4.737060    0.854110   -1.122830
  F      5.928150    2.168110   -2.491360
  H      4.008010    3.539750   -4.409940
  H      3.830250    3.606310   -2.672980
  H      2.463470    3.952630   -3.704970

 Total Charge           Charge          ....    0
 Multiplicity           Mult            ....    1
 Number of Electrons    NEL             ....   48
 Basis Dimension        Dim             ....  182

ORBITAL ENERGIES
----------------

  NO   OCC          E(Eh)            E(eV)
   0   2.0000     -24.840241      -675.9373
   1   2.0000     -19.233201      -523.3620
   2   2.0000     -10.445794      -284.2445
   3   2.0000     -10.289300      -279.9861
   4   2.0000     -10.277859      -279.6748
   5   2.0000     -10.256095      -279.0825
   6   2.0000      -1.376515       -37.4569
   7   2.0000      -1.131138       -30.7798
   8   2.0000      -0.893810       -24.3218
   9   2.0000      -0.802617       -21.8403
  10   2.0000      -0.734856       -19.9965
  11   2.0000      -0.687722       -18.7139
  12   2.0000      -0.624605       -16.9964
  13   2.0000      -0.605755       -16.4834
  14   2.0000      -0.583347       -15.8737
  15   2.0000      -0.537814       -14.6347
  16   2.0000      -0.527041       -14.3415
  17   2.0000      -0.489925       -13.3315
  18   2.0000      -0.483025       -13.1438
  19   2.0000      -0.456236       -12.4148
  20   2.0000      -0.428533       -11.6610
  21   2.0000      -0.420837       -11.4516
  22   2.0000      -0.414522       -11.2797
  23   2.0000      -0.368212       -10.0196
  24   0.0000       0.018519         0.5039
  25   0.0000       0.045464         1.2371
  26   0.0000       0.071395         1.9428
  27   0.0000       0.075896         2.0652
  28   0.0000       0.089973         2.4483

MULLIKEN ATOMIC CHARGES
-----------------------
   0 C :    0.891366
   1 C :   -0.223147
   2 C :    0.284731
   3 H :   -0.059931
   4 H :   -0.060263
   5 C :    0.678497
   6 H :   -0.078724
   7 H :   -0.231963
   8 O :   -0.405552
   9 F :   -0.382715
  10 H :   -0.113360
  11 H :   -0.106203
  12 H :   -0.192738
Sum of atomic charges:    0.0000000

LOEWDIN ATOMIC CHARGES
----------------------
   0 C :    0.130148
   1 C :   -0.057793
   2 C :    0.046091
   3 H :    0.031644
   4 H :    0.028684
   5 C :   -0.021880
   6 H :    0.026768
   7 H :    0.024350
   8 O :   -0.108223
   9 F :   -0.047179
  10 H :   -0.013202
  11 H :   -0.023302
  12 H :   -0.016106

  Mayer bond orders larger than 0.100000
B(  0-C ,  1-C ) :   1.2981 B(  0-C , 10-H ) :   0.7472 B(  0-C , 11-H ) :   0.7677
B(  0-C , 12-H ) :   0.7456 B(  1-C ,  2-C ) :   1.2069 B(  1-C ,  3-H ) :   0.1503
B(  1-C ,  4-H ) :   0.1515 B(  1-C ,  6-H ) :   0.8921 B(  1-C ,  7-H ) :   0.9492
B(  1-C , 10-H ) :   0.2039 B(  1-C , 11-H ) :   0.2240 B(  1-C , 12-H ) :   0.2226
B(  2-C ,  3-H ) :   0.8363 B(  2-C ,  4-H ) :   0.8761 B(  2-C ,  5-C ) :   1.0065
B(  2-C ,  6-H ) :   0.1177 B(  3-H ,  5-C ) :   0.1297 B(  5-C ,  8-O ) :   1.8827
B(  5-C ,  9-F ) :   0.6997 B(  8-O ,  9-F ) :   0.1210

FINAL SINGLE POINT ENERGY      -331.344431028422

DIPOLE MOMENT
-------------
                                X             Y             Z
Electronic contribution:      8.04670      -2.13285       5.21264
Nuclear contribution   :     -8.40998       2.27527      -6.32148
                        -----------------------------------------
Total Dipole Moment    :     -0.36328       0.14242      -1.10885
                        -----------------------------------------
Magnitude (a.u.)       :      1.17550
Magnitude (Debye)      :      2.98788

Rotational constants in cm-1:     0.181105     0.088112     0.073966
Rotational constants in MHz :  5429.384816  2641.525058  2217.445966

                             ****ORCA TERMINATED NORMALLY****
TOTAL RUN TIME: 0 days 0 hours 0 minutes 27 seconds 864 msec
