                         Program Version 5.0.0 -  RELEASE  -
|  1> !CAM-B3LYP RIJCOSX def2-SVPD def2/J TightSCF
|  2> *xyz 0 1
|  3> C          3.34350        3.35457       -3.59200
|  4> C          2.95263        1.86308       -3.57485
|  5> C          4.12921        0.89839       -3.41895
|  6> C          4.25587        3.70385       -4.72605
|  7> N          3.73403        4.29378       -5.80077
|  8> C          5.51504        3.40725       -4.63718
|  9> H          6.14919        3.60120       -5.39905
| 10> H          5.81358        2.89950       -3.80879
| 11> H          2.74138        4.51311       -5.82470
| 12> H          4.28755        4.52126       -6.61434
| 13> H          2.27894        1.73525       -2.72550
| 14> H          2.37747        1.62579       -4.47587
| 15> H          3.86125        3.59725       -2.66298
| 16> H          2.44649        3.97346       -3.65656
| 17> H          4.79753        1.01430       -4.24649
| 18> H          3.76482       -0.10731       -3.39293
| 19> H          4.64840        1.11330       -2.50837
| 20> *
| 21> %MaxCore 64000
| 22>
| 23> %pal nprocs 4
| 24> end
| 25>
| 26> %scf
| 27>   MaxIter 150
| 28> end
| 29>
| 30>
| 31>                          ****END OF INPUT****

CARTESIAN COORDINATES (ANGSTROEM)
---------------------------------
  C      3.343500    3.354570   -3.592000
  C      2.952630    1.863080   -3.574850
  C      4.129210    0.898390   -3.418950
  C      4.255870    3.703850   -4.726050
  N      3.734030    4.293780   -5.800770
  C      5.515040    3.407250   -4.637180
  H      6.149190    3.601200   -5.399050
  H      5.813580    2.899500   -3.808790
  H      2.741380    4.513110   -5.824700
  H      4.287550    4.521260   -6.614340
  H      2.278940    1.735250   -2.725500
  H      2.377470    1.625790   -4.475870
  H      3.861250    3.597250   -2.662980
  H      2.446490    3.973460   -3.656560
  H      4.797530    1.014300   -4.246490
  H      3.764820   -0.107310   -3.392930
  H      4.648400    1.113300   -2.508370

 Total Charge           Charge          ....    0
 Multiplicity           Mult            ....    1
 Number of Electrons    NEL             ....   48
 Basis Dimension        Dim             ....  208

ORBITAL ENERGIES
----------------

  NO   OCC          E(Eh)            E(eV)
   0   2.0000     -14.404451      -391.9650
   1   2.0000     -10.276001      -279.6242
   2   2.0000     -10.255371      -279.0628
   3   2.0000     -10.253852      -279.0215
   4   2.0000     -10.232701      -278.4460
   5   2.0000     -10.188732      -277.2495
   6   2.0000      -0.998140       -27.1608
   7   2.0000      -0.870911       -23.6987
   8   2.0000      -0.806709       -21.9517
   9   2.0000      -0.761170       -20.7125
  10   2.0000      -0.670097       -18.2343
  11   2.0000      -0.635526       -17.2935
  12   2.0000      -0.590590       -16.0708
  13   2.0000      -0.551269       -15.0008
  14   2.0000      -0.523050       -14.2329
  15   2.0000      -0.504921       -13.7396
  16   2.0000      -0.462462       -12.5842
  17   2.0000      -0.462054       -12.5731
  18   2.0000      -0.442575       -12.0431
  19   2.0000      -0.426785       -11.6134
  20   2.0000      -0.400080       -10.8867
  21   2.0000      -0.388832       -10.5807
  22   2.0000      -0.383460       -10.4345
  23   2.0000      -0.251332        -6.8391
  24   0.0000       0.048158         1.3104
  25   0.0000       0.072913         1.9841
  26   0.0000       0.076671         2.0863
  27   0.0000       0.084233         2.2921
  28   0.0000       0.101523         2.7626

MULLIKEN ATOMIC CHARGES
-----------------------
   0 C :    0.400191
   1 C :   -0.126344
   2 C :    0.896554
   3 C :    0.038839
   4 N :    0.184022
   5 C :    0.573975
   6 H :   -0.711837
   7 H :   -0.017308
   8 H :   -0.126547
   9 H :   -0.203170
  10 H :   -0.128810
  11 H :   -0.175913
  12 H :    0.024953
  13 H :   -0.206391
  14 H :   -0.074382
  15 H :   -0.289523
  16 H :   -0.058309
Sum of atomic charges:    0.0000000

LOEWDIN ATOMIC CHARGES
----------------------
   0 C :    0.004533
   1 C :   -0.057320
   2 C :    0.117780
   3 C :   -0.249952
   4 N :    0.173225
   5 C :    0.167183
   6 H :   -0.078249
   7 H :   -0.077461
   8 H :   -0.004360
   9 H :    0.001506
  10 H :    0.014854
  11 H :    0.020078
  12 H :    0.027589
  13 H :    0.012913
  14 H :   -0.036426
  15 H :   -0.021673
  16 H :   -0.014219

  Mayer bond orders larger than 0.100000
B(  0-C ,  1-C ) :   1.1562 B(  0-C ,  3-C ) :   1.0151 B(  0-C ,  4-N ) :   0.1296
B(  0-C ,  5-C ) :   0.2275 B(  0-C , 10-H ) :   0.1363 B(  0-C , 11-H ) :   0.1151
B(  0-C , 12-H ) :   0.7698 B(  0-C , 13-H ) :   0.7980 B(  1-C ,  2-C ) :   1.2754
B(  1-C , 10-H ) :   0.8286 B(  1-C , 11-H ) :   0.9466 B(  1-C , 12-H ) :   0.1489
B(  1-C , 13-H ) :   0.1380 B(  1-C , 14-H ) :   0.2213 B(  1-C , 15-H ) :   0.2453
B(  1-C , 16-H ) :   0.2250 B(  2-C , 10-H ) :   0.1084 B(  2-C , 14-H ) :   0.7786
B(  2-C , 15-H ) :   0.7726 B(  2-C , 16-H ) :   0.7407 B(  3-C ,  4-N ) :   1.1328
B(  3-C ,  5-C ) :   1.8177 B(  3-C ,  6-H ) :   0.2225 B(  3-C ,  7-H ) :   0.2332
B(  3-C ,  9-H ) :  -0.1063 B(  3-C , 12-H ) :   0.1129 B(  3-C , 13-H ) :   0.1530
B(  4-N ,  5-C ) :   0.2520 B(  4-N ,  8-H ) :   1.1309 B(  4-N ,  9-H ) :   1.2780
B(  5-C ,  6-H ) :   0.6615 B(  5-C ,  7-H ) :   0.6585 B(  6-H ,  7-H ) :  -0.1813
B(  8-H ,  9-H ) :  -0.1699

FINAL SINGLE POINT ENERGY      -251.557947709828

DIPOLE MOMENT
-------------
                                X             Y             Z
Electronic contribution:     -0.07095       3.46962      -2.22796
Nuclear contribution   :     -0.51555      -3.29052       1.90104
                        -----------------------------------------
Total Dipole Moment    :     -0.58650       0.17910      -0.32692
                        -----------------------------------------
Magnitude (a.u.)       :      0.69494
Magnitude (Debye)      :      1.76639

Rotational constants in cm-1:     0.197086     0.081749     0.067746
Rotational constants in MHz :  5908.486274  2450.769911  2030.963952

                             ****ORCA TERMINATED NORMALLY****
TOTAL RUN TIME: 0 days 0 hours 0 minutes 37 seconds 607 msec
