                         Program Version 5.0.0 -  RELEASE  -
|  1> !CAM-B3LYP RIJCOSX def2-SVPD def2/J TightSCF xyzfile
|  2>
|  3> *xyzfile 0 1 D2.xyz
|  4>
|  5> %MaxCore 64000
|  6>
|  7> %pal nprocs 4
|  8> end
|  9>
| 10> %scf
| 11>   MaxIter 150
| 12> end
| 13>
| 14>
| 15>                          ****END OF INPUT****

CARTESIAN COORDINATES (ANGSTROEM)
---------------------------------
  C      3.343500    3.354571   -3.591998
  C      2.952633    1.863077   -3.574849
  C      4.129209    0.898394   -3.418950
  H      3.733687   -0.100605   -3.237633
  H      4.719095    0.862556   -4.339005
  C      5.017344    1.315212   -2.221305
  C      4.255868    3.703851   -4.726054
  N      3.734032    4.293783   -5.800770
  C      5.515039    3.407255   -4.637185
  H      6.149187    3.601203   -5.399053
  H      5.813584    2.899504   -3.808785
  H      2.741380    4.513109   -5.824701
  H      4.287548    4.521260   -6.614341
  H      2.278938    1.735250   -2.725496
  H      2.377466    1.625787   -4.475869
  F      4.737055    0.854112   -1.122825
  O      5.928146    2.168108   -2.491365
  H      3.861246    3.597252   -2.662979
  H      2.446493    3.973461   -3.656556

 Total Charge           Charge          ....    0
 Multiplicity           Mult            ....    1
 Number of Electrons    NEL             ....   70
 Basis Dimension        Dim             ....  266

ORBITAL ENERGIES
----------------

  NO   OCC          E(Eh)            E(eV)
   0   2.0000     -24.866429      -676.6499
   1   2.0000     -19.224588      -523.1276
   2   2.0000     -14.395317      -391.7165
   3   2.0000     -10.456451      -284.5345
   4   2.0000     -10.288565      -279.9661
   5   2.0000     -10.279189      -279.7110
   6   2.0000     -10.263622      -279.2873
   7   2.0000     -10.260034      -279.1897
   8   2.0000     -10.157588      -276.4020
   9   2.0000      -1.421826       -38.6898
  10   2.0000      -1.110832       -30.2273
  11   2.0000      -0.989557       -26.9272
  12   2.0000      -0.896366       -24.3913
  13   2.0000      -0.825900       -22.4739
  14   2.0000      -0.777470       -21.1560
  15   2.0000      -0.757274       -20.6065
  16   2.0000      -0.697551       -18.9813
  17   2.0000      -0.653577       -17.7847
  18   2.0000      -0.641687       -17.4612
  19   2.0000      -0.621029       -16.8990
  20   2.0000      -0.603063       -16.4102
  21   2.0000      -0.570130       -15.5140
  22   2.0000      -0.550536       -14.9809
  23   2.0000      -0.537516       -14.6266
  24   2.0000      -0.521291       -14.1850
  25   2.0000      -0.488568       -13.2946
  26   2.0000      -0.461233       -12.5508
  27   2.0000      -0.459820       -12.5123
  28   2.0000      -0.431935       -11.7536
  29   2.0000      -0.423723       -11.5301
  30   2.0000      -0.418480       -11.3874
  31   2.0000      -0.393419       -10.7055
  32   2.0000      -0.386552       -10.5186
  33   2.0000      -0.336255        -9.1500
  34   2.0000      -0.238125        -6.4797
  35   0.0000       0.006826         0.1858
  36   0.0000       0.041598         1.1319
  37   0.0000       0.060976         1.6592
  38   0.0000       0.071477         1.9450
  39   0.0000       0.077118         2.0985

MULLIKEN ATOMIC CHARGES
-----------------------
   0 C :    0.457755
   1 C :    0.150834
   2 C :    0.271519
   3 H :   -0.266626
   4 H :    0.136017
   5 C :    0.779997
   6 C :    0.059316
   7 N :    0.165602
   8 C :    1.057091
   9 H :   -0.744039
  10 H :   -0.427141
  11 H :   -0.154956
  12 H :   -0.221327
  13 H :   -0.056645
  14 H :   -0.227039
  15 F :   -0.350663
  16 O :   -0.466297
  17 H :    0.148770
  18 H :   -0.312167
Sum of atomic charges:    0.0000000

LOEWDIN ATOMIC CHARGES
----------------------
   0 C :    0.020760
   1 C :   -0.002443
   2 C :    0.064662
   3 H :    0.022495
   4 H :    0.033479
   5 C :    0.040094
   6 C :   -0.235667
   7 N :    0.164616
   8 C :    0.201815
   9 H :   -0.071952
  10 H :   -0.192708
  11 H :   -0.010454
  12 H :   -0.000712
  13 H :    0.022492
  14 H :    0.029987
  15 F :    0.008044
  16 O :   -0.133463
  17 H :    0.022497
  18 H :    0.016460

  Mayer bond orders larger than 0.100000
B(  0-C ,  1-C ) :   1.1386 B(  0-C ,  6-C ) :   1.0826 B(  0-C ,  7-N ) :   0.1324
B(  0-C ,  8-C ) :   0.2080 B(  0-C , 13-H ) :   0.1258 B(  0-C , 14-H ) :   0.1305
B(  0-C , 17-H ) :   0.7100 B(  0-C , 18-H ) :   0.8088 B(  1-C ,  2-C ) :   1.2398
B(  1-C ,  3-H ) :   0.2066 B(  1-C ,  4-H ) :   0.1629 B(  1-C , 13-H ) :   0.7796
B(  1-C , 14-H ) :   0.9062 B(  1-C , 17-H ) :   0.1663 B(  1-C , 18-H ) :   0.1883
B(  2-C ,  3-H ) :   0.8147 B(  2-C ,  4-H ) :   0.8126 B(  2-C ,  5-C ) :   1.0432
B(  2-C , 10-H ) :   0.1104 B(  2-C , 13-H ) :   0.1417 B(  3-H ,  5-C ) :   0.1101
B(  3-H , 10-H ) :  -0.1179 B(  4-H , 10-H ) :   0.1080 B(  5-C , 15-F ) :   0.7581
B(  5-C , 16-O ) :   1.6598 B(  6-C ,  7-N ) :   1.0267 B(  6-C ,  8-C ) :   1.8988
B(  6-C ,  9-H ) :   0.3083 B(  6-C , 10-H ) :   0.3302 B(  6-C , 12-H ) :  -0.1291
B(  6-C , 17-H ) :   0.1246 B(  6-C , 18-H ) :   0.1437 B(  7-N ,  8-C ) :   0.3002
B(  7-N , 11-H ) :   1.1705 B(  7-N , 12-H ) :   1.3223 B(  8-C ,  9-H ) :   0.5307
B(  8-C , 10-H ) :   0.4825 B(  9-H , 10-H ) :  -0.2310 B( 10-H , 16-O ) :   0.1698
B( 11-H , 12-H ) :  -0.1661 B( 15-F , 16-O ) :   0.1130

FINAL SINGLE POINT ENERGY      -463.880276316919

DIPOLE MOMENT
-------------
                                X             Y             Z
Electronic contribution:      4.28744      -5.16282       9.55308
Nuclear contribution   :     -5.64491       4.57111      -9.93176
                        -----------------------------------------
Total Dipole Moment    :     -1.35747      -0.59171      -0.37868
                        -----------------------------------------
Magnitude (a.u.)       :      1.52848
Magnitude (Debye)      :      3.88508

Rotational constants in cm-1:     0.109825     0.034347     0.029470
Rotational constants in MHz :  3292.465653  1029.684117   883.494260

                             ****ORCA TERMINATED NORMALLY****
TOTAL RUN TIME: 0 days 0 hours 1 minutes 29 seconds 468 msec
