                         Program Version 5.0.0 -  RELEASE  -
|  1> !CAM-B3LYP RIJCOSX def2-SVPD def2/J TightSCF xyzfile
|  2>
|  3> *xyzfile 0 1 D4.xyz
|  4>
|  5> %MaxCore 64000
|  6>
|  7> %pal nprocs 4
|  8> end
|  9>
| 10> %scf
| 11>   MaxIter 150
| 12> end
| 13>
| 14>
| 15>                          ****END OF INPUT****

CARTESIAN COORDINATES (ANGSTROEM)
---------------------------------
  C      3.343500    3.354571   -3.591998
  C      2.952633    1.863077   -3.574849
  C      4.129209    0.898394   -3.418950
  H      3.733687   -0.100605   -3.237633
  H      4.719095    0.862556   -4.339005
  C      5.017344    1.315212   -2.221305
  C      4.255868    3.703851   -4.726054
  N      3.734032    4.293783   -5.800770
  C      5.515039    3.407255   -4.637185
  H      6.149187    3.601203   -5.399053
  H      5.813584    2.899504   -3.808785
  H      2.741380    4.513109   -5.824701
  H      4.287548    4.521260   -6.614341
  H      2.278938    1.735250   -2.725496
  H      2.377466    1.625787   -4.475869
  O      4.737055    0.854112   -1.122825
  F      5.928146    2.168108   -2.491365
  H      3.861246    3.597252   -2.662979
  H      2.446493    3.973461   -3.656556

 Total Charge           Charge          ....    0
 Multiplicity           Mult            ....    1
 Number of Electrons    NEL             ....   70
 Basis Dimension        Dim             ....  266

ORBITAL ENERGIES
----------------

  NO   OCC          E(Eh)            E(eV)
   0   2.0000     -24.843439      -676.0243
   1   2.0000     -19.235044      -523.4122
   2   2.0000     -14.408815      -392.0838
   3   2.0000     -10.447530      -284.2917
   4   2.0000     -10.285659      -279.8870
   5   2.0000     -10.280647      -279.7506
   6   2.0000     -10.279437      -279.7177
   7   2.0000     -10.269710      -279.4530
   8   2.0000     -10.181376      -277.0493
   9   2.0000      -1.387226       -37.7483
  10   2.0000      -1.133093       -30.8330
  11   2.0000      -1.003326       -27.3019
  12   2.0000      -0.899624       -24.4800
  13   2.0000      -0.831752       -22.6331
  14   2.0000      -0.787823       -21.4378
  15   2.0000      -0.753054       -20.4916
  16   2.0000      -0.697237       -18.9728
  17   2.0000      -0.660936       -17.9850
  18   2.0000      -0.625455       -17.0195
  19   2.0000      -0.612344       -16.6627
  20   2.0000      -0.599052       -16.3010
  21   2.0000      -0.579729       -15.7752
  22   2.0000      -0.555489       -15.1156
  23   2.0000      -0.536505       -14.5990
  24   2.0000      -0.519684       -14.1413
  25   2.0000      -0.494513       -13.4564
  26   2.0000      -0.468965       -12.7612
  27   2.0000      -0.455217       -12.3871
  28   2.0000      -0.446533       -12.1508
  29   2.0000      -0.437242       -11.8980
  30   2.0000      -0.421177       -11.4608
  31   2.0000      -0.401461       -10.9243
  32   2.0000      -0.396693       -10.7946
  33   2.0000      -0.368895       -10.0382
  34   2.0000      -0.254966        -6.9380
  35   0.0000       0.017028         0.4634
  36   0.0000       0.042712         1.1623
  37   0.0000       0.063293         1.7223
  38   0.0000       0.066798         1.8177
  39   0.0000       0.075089         2.0433

MULLIKEN ATOMIC CHARGES
-----------------------
   0 C :    0.431832
   1 C :    0.161918
   2 C :    0.280697
   3 H :   -0.276403
   4 H :    0.170239
   5 C :    0.687046
   6 C :    0.121714
   7 N :    0.175118
   8 C :    1.058632
   9 H :   -0.761616
  10 H :   -0.367906
  11 H :   -0.148215
  12 H :   -0.219382
  13 H :   -0.041398
  14 H :   -0.225174
  15 O :   -0.390372
  16 F :   -0.476554
  17 H :    0.121806
  18 H :   -0.301983
Sum of atomic charges:    0.0000000

LOEWDIN ATOMIC CHARGES
----------------------
   0 C :    0.021545
   1 C :    0.000244
   2 C :    0.060644
   3 H :    0.031549
   4 H :    0.024370
   5 C :    0.008283
   6 C :   -0.233268
   7 N :    0.172150
   8 C :    0.198712
   9 H :   -0.070746
  10 H :   -0.153912
  11 H :   -0.005240
  12 H :    0.002488
  13 H :    0.028791
  14 H :    0.029206
  15 O :   -0.097824
  16 F :   -0.062034
  17 H :    0.026260
  18 H :    0.018782

  Mayer bond orders larger than 0.100000
B(  0-C ,  1-C ) :   1.1444 B(  0-C ,  6-C ) :   1.0766 B(  0-C ,  7-N ) :   0.1315
B(  0-C ,  8-C ) :   0.1966 B(  0-C , 13-H ) :   0.1209 B(  0-C , 14-H ) :   0.1296
B(  0-C , 17-H ) :   0.7118 B(  0-C , 18-H ) :   0.8191 B(  1-C ,  2-C ) :   1.2461
B(  1-C ,  3-H ) :   0.1945 B(  1-C ,  4-H ) :   0.1562 B(  1-C , 13-H ) :   0.7936
B(  1-C , 14-H ) :   0.8979 B(  1-C , 17-H ) :   0.1689 B(  1-C , 18-H ) :   0.1807
B(  2-C ,  3-H ) :   0.8219 B(  2-C ,  4-H ) :   0.7943 B(  2-C ,  5-C ) :   1.0319
B(  2-C , 10-H ) :   0.1040 B(  2-C , 13-H ) :   0.1429 B(  2-C , 16-F ) :   0.1628
B(  3-H ,  5-C ) :   0.1524 B(  3-H , 10-H ) :  -0.1120 B(  5-C , 15-O ) :   1.8915
B(  5-C , 16-F ) :   0.6195 B(  6-C ,  7-N ) :   1.0436 B(  6-C ,  8-C ) :   1.8687
B(  6-C ,  9-H ) :   0.3011 B(  6-C , 10-H ) :   0.3294 B(  6-C , 12-H ) :  -0.1285
B(  6-C , 17-H ) :   0.1311 B(  6-C , 18-H ) :   0.1386 B(  7-N ,  8-C ) :   0.2908
B(  7-N , 11-H ) :   1.1622 B(  7-N , 12-H ) :   1.3195 B(  8-C ,  9-H ) :   0.5809
B(  8-C , 10-H ) :   0.3722 B(  9-H , 10-H ) :  -0.2877 B( 10-H , 16-F ) :   0.1246
B( 11-H , 12-H ) :  -0.1664 B( 15-O , 16-F ) :   0.1404

FINAL SINGLE POINT ENERGY      -463.899226203840

DIPOLE MOMENT
-------------
                                X             Y             Z
Electronic contribution:      6.18056      -2.82307       7.07551
Nuclear contribution   :     -6.99695       3.07955      -8.37829
                        -----------------------------------------
Total Dipole Moment    :     -0.81639       0.25648      -1.30278
                        -----------------------------------------
Magnitude (a.u.)       :      1.55869
Magnitude (Debye)      :      3.96189

Rotational constants in cm-1:     0.106302     0.035771     0.030198
Rotational constants in MHz :  3186.860872  1072.397550   905.318354

                             ****ORCA TERMINATED NORMALLY****
TOTAL RUN TIME: 0 days 0 hours 1 minutes 27 seconds 692 msec
