                         Program Version 5.0.0 -  RELEASE  -
|  1> !M062X D3Zero RIJCOSX def2-SVPD def2/J TightSCF
|  2> *xyz -1 1
|  3> C         -0.72184       -0.99951       -3.43931
|  4> C          0.28725       -1.71177       -2.52740
|  5> H          1.13178       -2.06738       -3.15940
|  6> H         -0.20414       -2.63733       -2.17048
|  7> O          0.71050       -0.92751       -1.48177
|  8> H         -1.01315       -1.65739       -4.23129
|  9> H         -0.27123       -0.12142       -3.85259
| 10> H         -1.58442       -0.72333       -2.86958
| 11> *
| 12> %MaxCore 64000
| 13>
| 14> %pal nprocs 4
| 15> end
| 16>
| 17> %scf
| 18>   MaxIter 150
| 19> end
| 20>
| 21>
| 22>                          ****END OF INPUT****

CARTESIAN COORDINATES (ANGSTROEM)
---------------------------------
  C     -0.721840   -0.999510   -3.439310
  C      0.287250   -1.711770   -2.527400
  H      1.131780   -2.067380   -3.159400
  H     -0.204140   -2.637330   -2.170480
  O      0.710500   -0.927510   -1.481770
  H     -1.013150   -1.657390   -4.231290
  H     -0.271230   -0.121420   -3.852590
  H     -1.584420   -0.723330   -2.869580

 Total Charge           Charge          ....   -1
 Multiplicity           Mult            ....    1
 Number of Electrons    NEL             ....   26
 Basis Dimension        Dim             ....  103

ORBITAL ENERGIES
----------------

  NO   OCC          E(Eh)            E(eV)
   0   2.0000     -19.298024      -525.1259
   1   2.0000     -10.363050      -281.9929
   2   2.0000     -10.341094      -281.3955
   3   2.0000      -0.774914       -21.0865
   4   2.0000      -0.611361       -16.6360
   5   2.0000      -0.447611       -12.1801
   6   2.0000      -0.318727        -8.6730
   7   2.0000      -0.294557        -8.0153
   8   2.0000      -0.236990        -6.4488
   9   2.0000      -0.219234        -5.9656
  10   2.0000      -0.174613        -4.7515
  11   2.0000      -0.031269        -0.8509
  12   2.0000      -0.029353        -0.7987
  13   0.0000       0.200745         5.4626
  14   0.0000       0.231836         6.3086
  15   0.0000       0.272938         7.4270
  16   0.0000       0.284758         7.7487
  17   0.0000       0.297158         8.0861

MULLIKEN ATOMIC CHARGES
-----------------------
   0 C :    0.339022
   1 C :    0.159938
   2 H :   -0.151428
   3 H :   -0.160693
   4 O :   -0.915930
   5 H :   -0.066810
   6 H :   -0.107324
   7 H :   -0.096775
Sum of atomic charges:   -1.0000000

LOEWDIN ATOMIC CHARGES
----------------------
   0 C :    0.061215
   1 C :   -0.256276
   2 H :   -0.029357
   3 H :   -0.033076
   4 O :   -0.600820
   5 H :   -0.058397
   6 H :   -0.042096
   7 H :   -0.041192

  Mayer bond orders larger than 0.100000
B(  0-C ,  1-C ) :   1.1860 B(  0-C ,  2-H ) :   0.1072 B(  0-C ,  3-H ) :   0.1175
B(  0-C ,  4-O ) :   0.1266 B(  0-C ,  5-H ) :   0.8906 B(  0-C ,  6-H ) :   0.8964
B(  0-C ,  7-H ) :   0.8907 B(  1-C ,  2-H ) :   0.9829 B(  1-C ,  3-H ) :   0.9763
B(  1-C ,  4-O ) :   1.1318 B(  1-C ,  5-H ) :   0.1203 B(  1-C ,  6-H ) :   0.1790
B(  1-C ,  7-H ) :   0.1774

Dispersion correction           -0.000014978
FINAL SINGLE POINT ENERGY      -154.233737969880

DIPOLE MOMENT
-------------
                                X             Y             Z
Electronic contribution:      1.41271       0.67400       2.27967
Nuclear contribution   :     -2.24828      -1.06600      -3.62481
                        -----------------------------------------
Total Dipole Moment    :     -0.83557      -0.39200      -1.34514
                        -----------------------------------------
Magnitude (a.u.)       :      1.63133
Magnitude (Debye)      :      4.14651

Rotational constants in cm-1:     1.278116     0.325414     0.286672
Rotational constants in MHz : 38316.964654  9755.653004  8594.216906

                             ****ORCA TERMINATED NORMALLY****
TOTAL RUN TIME: 0 days 0 hours 0 minutes 10 seconds 999 msec
