                         Program Version 5.0.0 -  RELEASE  -
|  1> !M062X D3Zero RIJCOSX def2-SVPD def2/J TightSCF
|  2> *xyz 1 1
|  3> C          3.48828        1.60092       -1.52204
|  4> C          4.34297        1.31342       -2.75683
|  5> N          2.81029        0.42878       -1.01420
|  6> H          2.71455        2.33145       -1.76030
|  7> H          4.09099        2.06315       -0.73338
|  8> C          3.29098       -0.41802       -0.12908
|  9> N          2.51754       -1.43202        0.23936
| 10> N          4.53549       -0.28441        0.39580
| 11> H          5.04363        0.57189        0.22290
| 12> H          4.72335       -0.73327        1.28180
| 13> H          1.93479        0.10230       -1.40379
| 14> H          1.67464       -1.50562       -0.31610
| 15> H          2.92850       -2.21850        0.72549
| 16> H          3.73575        0.86277       -3.51385
| 17> H          5.13754        0.64699       -2.49333
| 18> H          4.75374        2.22930       -3.12740
| 19> *
| 20> %MaxCore 64000
| 21>
| 22> %pal nprocs 4
| 23> end
| 24>
| 25> %scf
| 26>   MaxIter 150
| 27> end
| 28>
| 29>
| 30>                          ****END OF INPUT****

CARTESIAN COORDINATES (ANGSTROEM)
---------------------------------
  C      3.488280    1.600920   -1.522040
  C      4.342970    1.313420   -2.756830
  N      2.810290    0.428780   -1.014200
  H      2.714550    2.331450   -1.760300
  H      4.090990    2.063150   -0.733380
  C      3.290980   -0.418020   -0.129080
  N      2.517540   -1.432020    0.239360
  N      4.535490   -0.284410    0.395800
  H      5.043630    0.571890    0.222900
  H      4.723350   -0.733270    1.281800
  H      1.934790    0.102300   -1.403790
  H      1.674640   -1.505620   -0.316100
  H      2.928500   -2.218500    0.725490
  H      3.735750    0.862770   -3.513850
  H      5.137540    0.646990   -2.493330
  H      4.753740    2.229300   -3.127400

 Total Charge           Charge          ....    1
 Multiplicity           Mult            ....    1
 Number of Electrons    NEL             ....   48
 Basis Dimension        Dim             ....  200

ORBITAL ENERGIES
----------------

  NO   OCC          E(Eh)            E(eV)
   0   2.0000     -14.992865      -407.9766
   1   2.0000     -14.987320      -407.8257
   2   2.0000     -14.985331      -407.7716
   3   2.0000     -10.892016      -296.3868
   4   2.0000     -10.763036      -292.8771
   5   2.0000     -10.688242      -290.8418
   6   2.0000      -1.324671       -36.0461
   7   2.0000      -1.203823       -32.7577
   8   2.0000      -1.188546       -32.3420
   9   2.0000      -1.023456       -27.8497
  10   2.0000      -0.921002       -25.0617
  11   2.0000      -0.889587       -24.2069
  12   2.0000      -0.860466       -23.4145
  13   2.0000      -0.824316       -22.4308
  14   2.0000      -0.764183       -20.7945
  15   2.0000      -0.755119       -20.5478
  16   2.0000      -0.726356       -19.7652
  17   2.0000      -0.716343       -19.4927
  18   2.0000      -0.672437       -18.2979
  19   2.0000      -0.629483       -17.1291
  20   2.0000      -0.598303       -16.2807
  21   2.0000      -0.577217       -15.7069
  22   2.0000      -0.544836       -14.8257
  23   2.0000      -0.513870       -13.9831
  24   0.0000      -0.137172        -3.7326
  25   0.0000      -0.130917        -3.5624
  26   0.0000      -0.101154        -2.7525
  27   0.0000      -0.090217        -2.4549
  28   0.0000      -0.060923        -1.6578

MULLIKEN ATOMIC CHARGES
-----------------------
   0 C :    0.232837
   1 C :    0.626887
   2 N :   -0.488960
   3 H :   -0.252186
   4 H :   -0.040326
   5 C :    1.425026
   6 N :   -0.086474
   7 N :   -0.070544
   8 H :   -0.014258
   9 H :   -0.121859
  10 H :   -0.229629
  11 H :    0.039017
  12 H :   -0.057054
  13 H :   -0.015543
  14 H :   -0.022315
  15 H :    0.075381
Sum of atomic charges:    1.0000000

LOEWDIN ATOMIC CHARGES
----------------------
   0 C :    0.044156
   1 C :    0.165366
   2 N :    0.029932
   3 H :    0.042881
   4 H :    0.029746
   5 C :   -0.021555
   6 N :    0.256655
   7 N :    0.276532
   8 H :    0.010298
   9 H :    0.036898
  10 H :    0.060350
  11 H :    0.035226
  12 H :    0.047749
  13 H :   -0.004399
  14 H :   -0.013770
  15 H :    0.003937

  Mayer bond orders larger than 0.100000
B(  0-C ,  1-C ) :   1.2552 B(  0-C ,  2-N ) :   0.9365 B(  0-C ,  3-H ) :   0.9567
B(  0-C ,  4-H ) :   0.8502 B(  0-C , 10-H ) :  -0.2159 B(  0-C , 13-H ) :   0.2397
B(  0-C , 14-H ) :   0.1974 B(  0-C , 15-H ) :   0.1534 B(  1-C , 13-H ) :   0.8033
B(  1-C , 14-H ) :   0.8314 B(  1-C , 15-H ) :   0.8091 B(  2-N ,  3-H ) :   0.1750
B(  2-N ,  4-H ) :   0.1369 B(  2-N ,  5-C ) :   0.9909 B(  2-N ,  6-N ) :   0.2448
B(  2-N ,  7-N ) :   0.2026 B(  2-N , 10-H ) :   1.3546 B(  5-C ,  6-N ) :   0.8752
B(  5-C ,  7-N ) :   0.8801 B(  5-C ,  8-H ) :  -0.1035 B(  5-C ,  9-H ) :  -0.1421
B(  5-C , 10-H ) :  -0.2724 B(  5-C , 12-H ) :  -0.1044 B(  6-N ,  7-N ) :   0.1293
B(  6-N , 11-H ) :   1.0527 B(  6-N , 12-H ) :   1.1897 B(  7-N ,  8-H ) :   1.0211
B(  7-N ,  9-H ) :   1.2601 B(  8-H ,  9-H ) :  -0.1728 B( 11-H , 12-H ) :  -0.1488

Dispersion correction           -0.000318319
FINAL SINGLE POINT ENERGY      -284.063298099761

DIPOLE MOMENT
-------------
                                X             Y             Z
Electronic contribution:     -1.92490      -2.99375       3.72608
Nuclear contribution   :      1.59382       2.33278      -3.02574
                        -----------------------------------------
Total Dipole Moment    :     -0.33109      -0.66097       0.70034
                        -----------------------------------------
Magnitude (a.u.)       :      1.01832
Magnitude (Debye)      :      2.58837

Rotational constants in cm-1:     0.232230     0.073139     0.063030
Rotational constants in MHz :  6962.079716  2192.649203  1889.578947

                             ****ORCA TERMINATED NORMALLY****
TOTAL RUN TIME: 0 days 0 hours 0 minutes 29 seconds 791 msec
