                         Program Version 5.0.0 -  RELEASE  -
|  1> !M062X D3Zero RIJCOSX def2-SVPD def2/J TightSCF
|  2> *xyz 0 1
|  3> C         -0.72184       -0.99951       -3.43931
|  4> C          0.28725       -1.71177       -2.52740
|  5> H          1.13178       -2.06738       -3.15940
|  6> H         -0.20414       -2.63733       -2.17048
|  7> F          0.71050       -0.92751       -1.48177
|  8> H         -1.01315       -1.65739       -4.23129
|  9> H         -0.27123       -0.12142       -3.85259
| 10> H         -1.58442       -0.72333       -2.86958
| 11> *
| 12> %MaxCore 64000
| 13>
| 14> %pal nprocs 4
| 15> end
| 16>
| 17> %scf
| 18>   MaxIter 150
| 19> end
| 20>
| 21>
| 22>                          ****END OF INPUT****

CARTESIAN COORDINATES (ANGSTROEM)
---------------------------------
  C     -0.721840   -0.999510   -3.439310
  C      0.287250   -1.711770   -2.527400
  H      1.131780   -2.067380   -3.159400
  H     -0.204140   -2.637330   -2.170480
  F      0.710500   -0.927510   -1.481770
  H     -1.013150   -1.657390   -4.231290
  H     -0.271230   -0.121420   -3.852590
  H     -1.584420   -0.723330   -2.869580

 Total Charge           Charge          ....    0
 Multiplicity           Mult            ....    1
 Number of Electrons    NEL             ....   26
 Basis Dimension        Dim             ....  103

ORBITAL ENERGIES
----------------

  NO   OCC          E(Eh)            E(eV)
   0   2.0000     -25.244319      -686.9328
   1   2.0000     -10.632785      -289.3328
   2   2.0000     -10.547773      -287.0195
   3   2.0000      -1.318270       -35.8720
   4   2.0000      -0.856058       -23.2945
   5   2.0000      -0.716223       -19.4894
   6   2.0000      -0.590657       -16.0726
   7   2.0000      -0.581114       -15.8129
   8   2.0000      -0.544792       -14.8246
   9   2.0000      -0.482637       -13.1332
  10   2.0000      -0.469011       -12.7624
  11   2.0000      -0.408593       -11.1184
  12   2.0000      -0.400688       -10.9033
  13   0.0000       0.039619         1.0781
  14   0.0000       0.069709         1.8969
  15   0.0000       0.100510         2.7350
  16   0.0000       0.105556         2.8723
  17   0.0000       0.133328         3.6280

MULLIKEN ATOMIC CHARGES
-----------------------
   0 C :    0.252351
   1 C :    0.380797
   2 H :   -0.033595
   3 H :   -0.046351
   4 F :   -0.473901
   5 H :   -0.007592
   6 H :   -0.040810
   7 H :   -0.030900
Sum of atomic charges:    0.0000000

LOEWDIN ATOMIC CHARGES
----------------------
   0 C :    0.134861
   1 C :    0.075579
   2 H :    0.033884
   3 H :    0.029341
   4 F :   -0.234328
   5 H :   -0.012260
   6 H :   -0.013894
   7 H :   -0.013184

  Mayer bond orders larger than 0.100000
B(  0-C ,  1-C ) :   1.3438 B(  0-C ,  5-H ) :   0.8696 B(  0-C ,  6-H ) :   0.9035
B(  0-C ,  7-H ) :   0.8974 B(  1-C ,  2-H ) :   0.9603 B(  1-C ,  3-H ) :   0.9592
B(  1-C ,  4-F ) :   0.6854 B(  1-C ,  5-H ) :   0.1112 B(  1-C ,  6-H ) :   0.1366
B(  1-C ,  7-H ) :   0.1371

Dispersion correction           -0.000019027
FINAL SINGLE POINT ENERGY      -178.848692028232

DIPOLE MOMENT
-------------
                                X             Y             Z
Electronic contribution:      2.68770       1.02705       4.19310
Nuclear contribution   :     -2.97459      -1.40206      -4.79987
                        -----------------------------------------
Total Dipole Moment    :     -0.28690      -0.37501      -0.60677
                        -----------------------------------------
Magnitude (a.u.)       :      0.76884
Magnitude (Debye)      :      1.95423

Rotational constants in cm-1:     1.257024     0.302702     0.267953
Rotational constants in MHz : 37684.643733  9074.792567  8033.038070

                             ****ORCA TERMINATED NORMALLY****
TOTAL RUN TIME: 0 days 0 hours 0 minutes 10 seconds 109 msec
