                         Program Version 5.0.0 -  RELEASE  -
|  1> !M062X D3Zero RIJCOSX def2-SVPD def2/J TightSCF
|  2> *xyz 0 1
|  3> C          3.48828        1.60092       -1.52204
|  4> C          4.34297        1.31342       -2.75683
|  5> C          2.81029        0.42878       -1.01420
|  6> H          2.71455        2.33145       -1.76030
|  7> H          4.09099        2.06315       -0.73338
|  8> C          3.29098       -0.41802       -0.12908
|  9> N          2.51754       -1.43202        0.23936
| 10> N          4.53549       -0.28441        0.39580
| 11> H          5.04363        0.57189        0.22290
| 12> H          4.72335       -0.73327        1.28180
| 13> H          1.93479        0.10230       -1.40379
| 14> H          1.67464       -1.50562       -0.31610
| 15> H          2.92850       -2.21850        0.72549
| 16> H          3.73575        0.86277       -3.51385
| 17> H          5.13754        0.64699       -2.49333
| 18> H          4.75374        2.22930       -3.12740
| 19> *
| 20> %MaxCore 64000
| 21>
| 22> %pal nprocs 4
| 23> end
| 24>
| 25> %scf
| 26>   MaxIter 150
| 27> end
| 28>
| 29>
| 30>                          ****END OF INPUT****

CARTESIAN COORDINATES (ANGSTROEM)
---------------------------------
  C      3.488280    1.600920   -1.522040
  C      4.342970    1.313420   -2.756830
  C      2.810290    0.428780   -1.014200
  H      2.714550    2.331450   -1.760300
  H      4.090990    2.063150   -0.733380
  C      3.290980   -0.418020   -0.129080
  N      2.517540   -1.432020    0.239360
  N      4.535490   -0.284410    0.395800
  H      5.043630    0.571890    0.222900
  H      4.723350   -0.733270    1.281800
  H      1.934790    0.102300   -1.403790
  H      1.674640   -1.505620   -0.316100
  H      2.928500   -2.218500    0.725490
  H      3.735750    0.862770   -3.513850
  H      5.137540    0.646990   -2.493330
  H      4.753740    2.229300   -3.127400

 Total Charge           Charge          ....    0
 Multiplicity           Mult            ....    1
 Number of Electrons    NEL             ....   48
 Basis Dimension        Dim             ....  200

ORBITAL ENERGIES
----------------

  NO   OCC          E(Eh)            E(eV)
   0   2.0000     -14.762725      -401.7142
   1   2.0000     -14.757874      -401.5822
   2   2.0000     -10.592767      -288.2439
   3   2.0000     -10.528127      -286.4849
   4   2.0000     -10.517168      -286.1867
   5   2.0000     -10.475776      -285.0604
   6   2.0000      -1.059354       -28.8265
   7   2.0000      -0.963248       -26.2113
   8   2.0000      -0.866856       -23.5883
   9   2.0000      -0.781443       -21.2641
  10   2.0000      -0.694501       -18.8983
  11   2.0000      -0.657460       -17.8904
  12   2.0000      -0.612671       -16.6716
  13   2.0000      -0.583322       -15.8730
  14   2.0000      -0.534742       -14.5511
  15   2.0000      -0.509082       -13.8528
  16   2.0000      -0.487303       -13.2602
  17   2.0000      -0.469889       -12.7863
  18   2.0000      -0.448334       -12.1998
  19   2.0000      -0.417440       -11.3591
  20   2.0000      -0.395302       -10.7567
  21   2.0000      -0.382306       -10.4031
  22   2.0000      -0.331605        -9.0234
  23   2.0000      -0.215533        -5.8649
  24   0.0000       0.036129         0.9831
  25   0.0000       0.061286         1.6677
  26   0.0000       0.068332         1.8594
  27   0.0000       0.079843         2.1726
  28   0.0000       0.097932         2.6649

MULLIKEN ATOMIC CHARGES
-----------------------
   0 C :   -0.203406
   1 C :    0.633659
   2 C :   -0.316668
   3 H :   -0.041053
   4 H :   -0.032199
   5 C :    0.776318
   6 N :   -0.094163
   7 N :   -0.104431
   8 H :    0.003005
   9 H :   -0.219480
  10 H :   -0.262757
  11 H :    0.097152
  12 H :   -0.171854
  13 H :   -0.029605
  14 H :   -0.054100
  15 H :    0.019580
Sum of atomic charges:   -0.0000000

LOEWDIN ATOMIC CHARGES
----------------------
   0 C :   -0.100800
   1 C :    0.122177
   2 C :   -0.036198
   3 H :    0.015553
   4 H :    0.007088
   5 C :   -0.220684
   6 N :    0.164289
   7 N :    0.195040
   8 H :   -0.019529
   9 H :   -0.011317
  10 H :   -0.048496
  11 H :    0.003157
  12 H :   -0.002901
  13 H :   -0.017864
  14 H :   -0.023678
  15 H :   -0.025838

  Mayer bond orders larger than 0.100000
B(  0-C ,  1-C ) :   1.2064 B(  0-C ,  2-C ) :   1.2525 B(  0-C ,  3-H ) :   0.8697
B(  0-C ,  4-H ) :   0.8368 B(  0-C , 10-H ) :   0.1871 B(  0-C , 13-H ) :   0.2322
B(  0-C , 14-H ) :   0.2130 B(  0-C , 15-H ) :   0.1609 B(  1-C , 13-H ) :   0.8226
B(  1-C , 14-H ) :   0.8353 B(  1-C , 15-H ) :   0.8199 B(  2-C ,  3-H ) :   0.2361
B(  2-C ,  4-H ) :   0.2532 B(  2-C ,  5-C ) :   1.6871 B(  2-C ,  6-N ) :   0.2941
B(  2-C ,  7-N ) :   0.1628 B(  2-C , 10-H ) :   0.9156 B(  5-C ,  6-N ) :   0.8412
B(  5-C ,  7-N ) :   0.8505 B(  5-C , 10-H ) :   0.2465 B(  6-N , 11-H ) :   1.0075
B(  6-N , 12-H ) :   1.2064 B(  7-N ,  8-H ) :   0.9862 B(  7-N ,  9-H ) :   1.2623
B(  8-H ,  9-H ) :  -0.1507 B( 11-H , 12-H ) :  -0.1468

Dispersion correction           -0.000316540
FINAL SINGLE POINT ENERGY      -267.600826539941

DIPOLE MOMENT
-------------
                                X             Y             Z
Electronic contribution:     -1.27231      -2.90600       3.63236
Nuclear contribution   :      1.44676       2.38443      -3.07370
                        -----------------------------------------
Total Dipole Moment    :      0.17445      -0.52157       0.55866
                        -----------------------------------------
Magnitude (a.u.)       :      0.78395
Magnitude (Debye)      :      1.99263

Rotational constants in cm-1:     0.235977     0.073199     0.063283
Rotational constants in MHz :  7074.404583  2194.453291  1897.179599

                             ****ORCA TERMINATED NORMALLY****
TOTAL RUN TIME: 0 days 0 hours 0 minutes 30 seconds 77 msec
