                         Program Version 5.0.0 -  RELEASE  -
|  1> !M062X D3Zero RIJCOSX def2-SVPD def2/J TightSCF
|  2> *xyz 0 1
|  3> C          3.48828        1.60092       -1.52204
|  4> C          4.34297        1.31342       -2.75683
|  5> N          2.81029        0.42878       -1.01420
|  6> H          2.71455        2.33145       -1.76030
|  7> H          4.09099        2.06315       -0.73338
|  8> C          3.29098       -0.41802       -0.12908
|  9> C          2.51754       -1.43202        0.23936
| 10> N          4.53549       -0.28441        0.39580
| 11> H          5.04363        0.57189        0.22290
| 12> H          4.72335       -0.73327        1.28180
| 13> H          1.93479        0.10230       -1.40379
| 14> H          1.67464       -1.50562       -0.31610
| 15> H          2.92850       -2.21850        0.72549
| 16> H          3.73575        0.86277       -3.51385
| 17> H          5.13754        0.64699       -2.49333
| 18> H          4.75374        2.22930       -3.12740
| 19> *
| 20> %MaxCore 64000
| 21>
| 22> %pal nprocs 4
| 23> end
| 24>
| 25> %scf
| 26>   MaxIter 150
| 27> end
| 28>
| 29>
| 30>                          ****END OF INPUT****

CARTESIAN COORDINATES (ANGSTROEM)
---------------------------------
  C      3.488280    1.600920   -1.522040
  C      4.342970    1.313420   -2.756830
  N      2.810290    0.428780   -1.014200
  H      2.714550    2.331450   -1.760300
  H      4.090990    2.063150   -0.733380
  C      3.290980   -0.418020   -0.129080
  C      2.517540   -1.432020    0.239360
  N      4.535490   -0.284410    0.395800
  H      5.043630    0.571890    0.222900
  H      4.723350   -0.733270    1.281800
  H      1.934790    0.102300   -1.403790
  H      1.674640   -1.505620   -0.316100
  H      2.928500   -2.218500    0.725490
  H      3.735750    0.862770   -3.513850
  H      5.137540    0.646990   -2.493330
  H      4.753740    2.229300   -3.127400

 Total Charge           Charge          ....    0
 Multiplicity           Mult            ....    1
 Number of Electrons    NEL             ....   48
 Basis Dimension        Dim             ....  200

ORBITAL ENERGIES
----------------

  NO   OCC          E(Eh)            E(eV)
   0   2.0000     -14.762629      -401.7116
   1   2.0000     -14.762120      -401.6977
   2   2.0000     -10.596754      -288.3523
   3   2.0000     -10.594834      -288.3001
   4   2.0000     -10.542126      -286.8658
   5   2.0000     -10.460349      -284.6406
   6   2.0000      -1.070761       -29.1369
   7   2.0000      -0.977326       -26.5944
   8   2.0000      -0.865799       -23.5596
   9   2.0000      -0.788096       -21.4452
  10   2.0000      -0.710201       -19.3256
  11   2.0000      -0.676581       -18.4107
  12   2.0000      -0.610725       -16.6187
  13   2.0000      -0.572654       -15.5827
  14   2.0000      -0.548720       -14.9314
  15   2.0000      -0.508869       -13.8470
  16   2.0000      -0.501371       -13.6430
  17   2.0000      -0.472092       -12.8463
  18   2.0000      -0.444798       -12.1036
  19   2.0000      -0.436211       -11.8699
  20   2.0000      -0.430065       -11.7027
  21   2.0000      -0.420153       -11.4329
  22   2.0000      -0.321939        -8.7604
  23   2.0000      -0.214127        -5.8267
  24   0.0000       0.030734         0.8363
  25   0.0000       0.061192         1.6651
  26   0.0000       0.064073         1.7435
  27   0.0000       0.068544         1.8652
  28   0.0000       0.099519         2.7080

MULLIKEN ATOMIC CHARGES
-----------------------
   0 C :    0.265298
   1 C :    0.646554
   2 N :   -0.354536
   3 H :   -0.322861
   4 H :   -0.083571
   5 C :    0.675747
   6 C :    0.423384
   7 N :   -0.011157
   8 H :   -0.134640
   9 H :   -0.124496
  10 H :   -0.292155
  11 H :   -0.199371
  12 H :   -0.412489
  13 H :   -0.052208
  14 H :   -0.042811
  15 H :    0.019310
Sum of atomic charges:    0.0000000

LOEWDIN ATOMIC CHARGES
----------------------
   0 C :    0.013540
   1 C :    0.135423
   2 N :   -0.034480
   3 H :    0.019036
   4 H :    0.012335
   5 C :   -0.229198
   6 C :    0.139996
   7 N :    0.193947
   8 H :   -0.032756
   9 H :    0.005589
  10 H :    0.034465
  11 H :   -0.103755
  12 H :   -0.096261
  13 H :   -0.016954
  14 H :   -0.021380
  15 H :   -0.019547

  Mayer bond orders larger than 0.100000
B(  0-C ,  1-C ) :   1.2306 B(  0-C ,  2-N ) :   0.9423 B(  0-C ,  3-H ) :   0.9534
B(  0-C ,  4-H ) :   0.8568 B(  0-C , 10-H ) :  -0.2382 B(  0-C , 13-H ) :   0.2562
B(  0-C , 14-H ) :   0.2088 B(  0-C , 15-H ) :   0.1653 B(  1-C , 13-H ) :   0.7972
B(  1-C , 14-H ) :   0.8291 B(  1-C , 15-H ) :   0.8196 B(  2-N ,  3-H ) :   0.1805
B(  2-N ,  4-H ) :   0.1409 B(  2-N ,  5-C ) :   1.0428 B(  2-N ,  6-C ) :   0.2472
B(  2-N ,  7-N ) :   0.1132 B(  2-N , 10-H ) :   1.2976 B(  5-C ,  6-C ) :   1.7139
B(  5-C ,  7-N ) :   0.8127 B(  5-C ,  9-H ) :  -0.1264 B(  5-C , 10-H ) :  -0.2195
B(  5-C , 11-H ) :   0.2459 B(  5-C , 12-H ) :   0.2044 B(  6-C ,  7-N ) :   0.2081
B(  6-C , 11-H ) :   0.7772 B(  6-C , 12-H ) :   0.7529 B(  7-N ,  8-H ) :   1.0216
B(  7-N ,  9-H ) :   1.2115 B(  8-H ,  9-H ) :  -0.1602

Dispersion correction           -0.000312887
FINAL SINGLE POINT ENERGY      -267.588352710218

DIPOLE MOMENT
-------------
                                X             Y             Z
Electronic contribution:     -0.87940      -1.05709       2.42130
Nuclear contribution   :      1.38466       1.98967      -2.80776
                        -----------------------------------------
Total Dipole Moment    :      0.50525       0.93257      -0.38646
                        -----------------------------------------
Magnitude (a.u.)       :      1.12886
Magnitude (Debye)      :      2.86934

Rotational constants in cm-1:     0.235618     0.075969     0.065309
Rotational constants in MHz :  7063.646698  2277.495424  1957.925383

                             ****ORCA TERMINATED NORMALLY****
TOTAL RUN TIME: 0 days 0 hours 0 minutes 32 seconds 27 msec
