                         Program Version 5.0.0 -  RELEASE  -
|  1> !M062X D3Zero RIJCOSX def2-SVPD def2/J TightSCF
|  2> *xyz 0 1
|  3> C          3.48828        1.60092       -1.52204
|  4> C          4.34297        1.31342       -2.75683
|  5> N          2.81029        0.42878       -1.01420
|  6> H          2.71455        2.33145       -1.76030
|  7> H          4.09099        2.06315       -0.73338
|  8> C          3.29098       -0.41802       -0.12908
|  9> N          2.51754       -1.43202        0.23936
| 10> C          4.53549       -0.28441        0.39580
| 11> H          5.04363        0.57189        0.22290
| 12> H          4.72335       -0.73327        1.28180
| 13> H          1.93479        0.10230       -1.40379
| 14> H          1.67464       -1.50562       -0.31610
| 15> H          2.92850       -2.21850        0.72549
| 16> H          3.73575        0.86277       -3.51385
| 17> H          5.13754        0.64699       -2.49333
| 18> H          4.75374        2.22930       -3.12740
| 19> *
| 20> %MaxCore 64000
| 21>
| 22> %pal nprocs 4
| 23> end
| 24>
| 25> %scf
| 26>   MaxIter 150
| 27> end
| 28>
| 29>
| 30>                          ****END OF INPUT****

CARTESIAN COORDINATES (ANGSTROEM)
---------------------------------
  C      3.488280    1.600920   -1.522040
  C      4.342970    1.313420   -2.756830
  N      2.810290    0.428780   -1.014200
  H      2.714550    2.331450   -1.760300
  H      4.090990    2.063150   -0.733380
  C      3.290980   -0.418020   -0.129080
  N      2.517540   -1.432020    0.239360
  C      4.535490   -0.284410    0.395800
  H      5.043630    0.571890    0.222900
  H      4.723350   -0.733270    1.281800
  H      1.934790    0.102300   -1.403790
  H      1.674640   -1.505620   -0.316100
  H      2.928500   -2.218500    0.725490
  H      3.735750    0.862770   -3.513850
  H      5.137540    0.646990   -2.493330
  H      4.753740    2.229300   -3.127400

 Total Charge           Charge          ....    0
 Multiplicity           Mult            ....    1
 Number of Electrons    NEL             ....   48
 Basis Dimension        Dim             ....  200

ORBITAL ENERGIES
----------------

  NO   OCC          E(Eh)            E(eV)
   0   2.0000     -14.768998      -401.8849
   1   2.0000     -14.764202      -401.7543
   2   2.0000     -10.599913      -288.4383
   3   2.0000     -10.587235      -288.0933
   4   2.0000     -10.534521      -286.6589
   5   2.0000     -10.462607      -284.7020
   6   2.0000      -1.080321       -29.3970
   7   2.0000      -0.983358       -26.7585
   8   2.0000      -0.844754       -22.9869
   9   2.0000      -0.793046       -21.5799
  10   2.0000      -0.725746       -19.7486
  11   2.0000      -0.639672       -17.4064
  12   2.0000      -0.618900       -16.8411
  13   2.0000      -0.603313       -16.4170
  14   2.0000      -0.537673       -14.6308
  15   2.0000      -0.509525       -13.8649
  16   2.0000      -0.499478       -13.5915
  17   2.0000      -0.460925       -12.5424
  18   2.0000      -0.444478       -12.0949
  19   2.0000      -0.434924       -11.8349
  20   2.0000      -0.426649       -11.6097
  21   2.0000      -0.410145       -11.1606
  22   2.0000      -0.315422        -8.5831
  23   2.0000      -0.217268        -5.9122
  24   0.0000       0.031571         0.8591
  25   0.0000       0.055515         1.5106
  26   0.0000       0.066556         1.8111
  27   0.0000       0.071806         1.9539
  28   0.0000       0.101440         2.7603

MULLIKEN ATOMIC CHARGES
-----------------------
   0 C :    0.241750
   1 C :    0.662869
   2 N :   -0.485594
   3 H :   -0.316685
   4 H :    0.045147
   5 C :    0.701041
   6 N :   -0.039932
   7 C :    0.428743
   8 H :   -0.117796
   9 H :   -0.508269
  10 H :   -0.346264
  11 H :   -0.103357
  12 H :   -0.052752
  13 H :   -0.061521
  14 H :   -0.065089
  15 H :    0.017711
Sum of atomic charges:   -0.0000000

LOEWDIN ATOMIC CHARGES
----------------------
   0 C :    0.021446
   1 C :    0.139812
   2 N :   -0.036704
   3 H :    0.018765
   4 H :    0.020010
   5 C :   -0.236187
   6 N :    0.176699
   7 C :    0.162628
   8 H :   -0.127492
   9 H :   -0.107968
  10 H :    0.022253
  11 H :   -0.010708
  12 H :    0.016347
  13 H :   -0.020604
  14 H :   -0.019783
  15 H :   -0.018517

  Mayer bond orders larger than 0.100000
B(  0-C ,  1-C ) :   1.2049 B(  0-C ,  2-N ) :   0.9469 B(  0-C ,  3-H ) :   0.9846
B(  0-C ,  4-H ) :   0.8333 B(  0-C , 10-H ) :  -0.2136 B(  0-C , 13-H ) :   0.2271
B(  0-C , 14-H ) :   0.2145 B(  0-C , 15-H ) :   0.1644 B(  1-C , 13-H ) :   0.8119
B(  1-C , 14-H ) :   0.8362 B(  1-C , 15-H ) :   0.8239 B(  2-N ,  3-H ) :   0.1568
B(  2-N ,  4-H ) :   0.1255 B(  2-N ,  5-C ) :   0.8616 B(  2-N ,  6-N ) :   0.1645
B(  2-N ,  7-C ) :   0.3644 B(  2-N , 10-H ) :   1.4120 B(  5-C ,  6-N ) :   0.8071
B(  5-C ,  7-C ) :   1.7762 B(  5-C ,  8-H ) :   0.3102 B(  5-C ,  9-H ) :   0.1707
B(  5-C , 10-H ) :  -0.2877 B(  6-N ,  7-C ) :   0.2591 B(  6-N , 11-H ) :   1.0756
B(  6-N , 12-H ) :   1.1682 B(  7-C ,  8-H ) :   0.6296 B(  7-C ,  9-H ) :   0.8186
B( 11-H , 12-H ) :  -0.1431

Dispersion correction           -0.000313964
FINAL SINGLE POINT ENERGY      -267.588882090717

DIPOLE MOMENT
-------------
                                X             Y             Z
Electronic contribution:     -2.79142      -2.28557       2.19294
Nuclear contribution   :      1.81275       2.23313      -2.77458
                        -----------------------------------------
Total Dipole Moment    :     -0.97866      -0.05245      -0.58164
                        -----------------------------------------
Magnitude (a.u.)       :      1.13966
Magnitude (Debye)      :      2.89679

Rotational constants in cm-1:     0.245202     0.073668     0.064348
Rotational constants in MHz :  7350.977980  2208.513334  1929.108541

                             ****ORCA TERMINATED NORMALLY****
TOTAL RUN TIME: 0 days 0 hours 0 minutes 30 seconds 826 msec
