                         Program Version 5.0.0 -  RELEASE  -
|  1> !M062X D3Zero RIJCOSX def2-SVPD def2/J TightSCF xyzfile
|  2>
|  3> *xyzfile 0 1 D1.xyz
|  4>
|  5> %MaxCore 64000
|  6>
|  7> %pal nprocs 4
|  8> end
|  9>
| 10> %scf
| 11>   MaxIter 150
| 12> end
| 13>
| 14>
| 15>                          ****END OF INPUT****

CARTESIAN COORDINATES (ANGSTROEM)
---------------------------------
  C      3.488276    1.600919   -1.522040
  C      4.342970    1.313419   -2.756826
  C      2.810285    0.428783   -1.014196
  H      5.132033    0.604994   -2.484466
  C      3.535896    0.749253   -3.924604
  H      4.841247    2.242136   -3.054083
  H      2.991617   -0.132199   -3.574137
  H      4.225505    0.392784   -4.695962
  C      2.564776    1.750890   -4.544523
  H      1.918749    2.171679   -3.769419
  C      1.686235    1.161657   -5.650111
  H      3.132494    2.594775   -4.951604
  C      0.839616   -0.037582   -5.220473
  H      2.323886    0.866395   -6.490796
  H      1.029518    1.951850   -6.029329
  C     -0.151019    0.254955   -4.094256
  H      1.499442   -0.857141   -4.922958
  H      0.290097   -0.410143   -6.091131
  H      0.328265    0.833022   -3.299125
  C     -0.721843   -0.999513   -3.439309
  H     -0.957367    0.884951   -4.485450
  H     -1.083403   -1.697555   -4.205656
  H     -1.581056   -0.723848   -2.820490
  C      0.287250   -1.711771   -2.527405
  H      1.131780   -2.067380   -3.159396
  H     -0.204137   -2.637326   -2.170480
  F      0.710505   -0.927506   -1.481767
  H      2.714548    2.331455   -1.760302
  H      4.090991    2.063151   -0.733382
  C      3.290978   -0.418021   -0.129083
  N      2.517536   -1.432017    0.239360
  N      4.535490   -0.284410    0.395800
  H      5.043627    0.571888    0.222899
  H      4.723346   -0.733273    1.281800
  H      1.934787    0.102305   -1.403788
  H      1.674638   -1.505616   -0.316095
  H      2.928503   -2.218502    0.725494

 Total Charge           Charge          ....    0
 Multiplicity           Mult            ....    1
 Number of Electrons    NEL             ....  112
 Basis Dimension        Dim             ....  467

ORBITAL ENERGIES
----------------

  NO   OCC          E(Eh)            E(eV)
   0   2.0000     -25.274561      -687.7558
   1   2.0000     -14.748708      -401.3327
   2   2.0000     -14.731754      -400.8714
   3   2.0000     -10.643637      -289.6281
   4   2.0000     -10.575539      -287.7750
   5   2.0000     -10.562683      -287.4252
   6   2.0000     -10.548042      -287.0268
   7   2.0000     -10.543799      -286.9114
   8   2.0000     -10.539026      -286.7815
   9   2.0000     -10.531447      -286.5752
  10   2.0000     -10.526083      -286.4293
  11   2.0000     -10.521044      -286.2922
  12   2.0000     -10.514415      -286.1118
  13   2.0000     -10.448808      -284.3265
  14   2.0000      -1.357321       -36.9346
  15   2.0000      -1.041637       -28.3444
  16   2.0000      -0.946751       -25.7624
  17   2.0000      -0.912492       -24.8302
  18   2.0000      -0.887150       -24.1406
  19   2.0000      -0.856033       -23.2938
  20   2.0000      -0.820401       -22.3242
  21   2.0000      -0.779278       -21.2052
  22   2.0000      -0.751825       -20.4582
  23   2.0000      -0.715493       -19.4695
  24   2.0000      -0.684118       -18.6158
  25   2.0000      -0.669569       -18.2199
  26   2.0000      -0.644154       -17.5283
  27   2.0000      -0.625113       -17.0102
  28   2.0000      -0.620672       -16.8893
  29   2.0000      -0.600990       -16.3538
  30   2.0000      -0.590870       -16.0784
  31   2.0000      -0.578713       -15.7476
  32   2.0000      -0.559791       -15.2327
  33   2.0000      -0.537390       -14.6231
  34   2.0000      -0.528303       -14.3759
  35   2.0000      -0.513125       -13.9628
  36   2.0000      -0.507903       -13.8208
  37   2.0000      -0.494781       -13.4637
  38   2.0000      -0.482749       -13.1363
  39   2.0000      -0.472867       -12.8674
  40   2.0000      -0.463738       -12.6189
  41   2.0000      -0.448158       -12.1950
  42   2.0000      -0.438312       -11.9271
  43   2.0000      -0.433243       -11.7891
  44   2.0000      -0.425755       -11.5854
  45   2.0000      -0.421568       -11.4715
  46   2.0000      -0.401748       -10.9321
  47   2.0000      -0.393490       -10.7074
  48   2.0000      -0.382007       -10.3949
  49   2.0000      -0.379943       -10.3388
  50   2.0000      -0.374861       -10.2005
  51   2.0000      -0.359657        -9.7868
  52   2.0000      -0.354020        -9.6334
  53   2.0000      -0.349008        -9.4970
  54   2.0000      -0.314402        -8.5553
  55   2.0000      -0.198442        -5.3999
  56   0.0000       0.034455         0.9376
  57   0.0000       0.047402         1.2899
  58   0.0000       0.048743         1.3264
  59   0.0000       0.054547         1.4843
  60   0.0000       0.068907         1.8751

MULLIKEN ATOMIC CHARGES
-----------------------
   0 C :    0.500820
   1 C :    0.577712
   2 C :    0.190362
   3 H :   -0.115439
   4 C :    0.286102
   5 H :   -0.095040
   6 H :   -0.360911
   7 H :   -0.150853
   8 C :    0.012761
   9 H :    0.022432
  10 C :    0.685844
  11 H :   -0.282331
  12 C :    0.057749
  13 H :   -0.030398
  14 H :   -0.149711
  15 C :    0.292922
  16 H :   -0.071435
  17 H :   -0.261837
  18 H :   -0.354757
  19 C :    0.298168
  20 H :   -0.153073
  21 H :   -0.072294
  22 H :   -0.040392
  23 C :    0.922363
  24 H :   -0.068455
  25 H :   -0.241402
  26 F :   -0.594713
  27 H :    0.030476
  28 H :   -0.217457
  29 C :    0.529372
  30 N :    0.198668
  31 N :   -0.057942
  32 H :   -0.029368
  33 H :   -0.234907
  34 H :   -0.656303
  35 H :   -0.133391
  36 H :   -0.233340
Sum of atomic charges:    0.0000000

LOEWDIN ATOMIC CHARGES
----------------------
   0 C :   -0.046718
   1 C :   -0.027215
   2 C :   -0.009081
   3 H :    0.019271
   4 C :   -0.029254
   5 H :    0.016942
   6 H :   -0.004651
   7 H :    0.025556
   8 C :   -0.032752
   9 H :   -0.000640
  10 C :   -0.031101
  11 H :    0.025756
  12 C :   -0.034762
  13 H :    0.023210
  14 H :    0.022443
  15 C :   -0.021744
  16 H :   -0.003330
  17 H :    0.023731
  18 H :    0.007451
  19 C :   -0.010321
  20 H :    0.030236
  21 H :    0.036310
  22 H :    0.029164
  23 C :    0.172432
  24 H :    0.036213
  25 H :    0.037835
  26 F :   -0.236419
  27 H :    0.005836
  28 H :    0.006118
  29 C :   -0.193530
  30 N :    0.187777
  31 N :    0.193729
  32 H :   -0.022649
  33 H :   -0.014265
  34 H :   -0.108598
  35 H :   -0.067667
  36 H :   -0.005309

  Mayer bond orders larger than 0.100000
B(  0-C ,  1-C ) :   1.0492 B(  0-C ,  2-C ) :   0.9395 B(  0-C ,  3-H ) :   0.1402
B(  0-C ,  5-H ) :   0.2000 B(  0-C , 27-H ) :   0.7851 B(  0-C , 28-H ) :   0.6441
B(  0-C , 34-H ) :   0.5579 B(  1-C ,  3-H ) :   0.7295 B(  1-C ,  4-C ) :   1.2675
B(  1-C ,  5-H ) :   0.7816 B(  2-C , 27-H ) :   0.3150 B(  2-C , 28-H ) :   0.3411
B(  2-C , 29-C ) :   1.8806 B(  2-C , 30-N ) :   0.2862 B(  2-C , 31-N ) :   0.1945
B(  2-C , 32-H ) :  -0.1727 B(  2-C , 34-H ) :  -0.1291 B(  3-H ,  4-C ) :   0.2254
B(  3-H ,  5-H ) :  -0.1367 B(  4-C ,  5-H ) :   0.1125 B(  4-C ,  6-H ) :   0.8823
B(  4-C ,  7-H ) :   0.7631 B(  4-C ,  8-C ) :   1.1657 B(  4-C , 11-H ) :   0.1587
B(  6-H ,  8-C ) :   0.1579 B(  6-H , 34-H ) :   0.1056 B(  7-H ,  8-C ) :   0.1446
B(  8-C ,  9-H ) :   0.8445 B(  8-C , 10-C ) :   1.1480 B(  8-C , 11-H ) :   0.9618
B(  8-C , 12-C ) :   0.1248 B(  8-C , 13-H ) :   0.1051 B(  8-C , 14-H ) :   0.3065
B(  9-H , 18-H ) :   0.1064 B( 10-C , 12-C ) :   1.1924 B( 10-C , 13-H ) :   0.7001
B( 10-C , 14-H ) :   0.6815 B( 12-C , 13-H ) :   0.2494 B( 12-C , 15-C ) :   1.1663
B( 12-C , 16-H ) :   0.8965 B( 12-C , 17-H ) :   0.8955 B( 12-C , 18-H ) :   0.1570
B( 12-C , 20-H ) :   0.1867 B( 13-H , 14-H ) :  -0.1731 B( 15-C , 17-H ) :   0.2426
B( 15-C , 18-H ) :   0.8635 B( 15-C , 19-C ) :   1.1676 B( 15-C , 20-H ) :   0.8331
B( 15-C , 22-H ) :   0.2332 B( 18-H , 19-C ) :   0.1181 B( 18-H , 26-F ) :   0.1098
B( 19-C , 21-H ) :   0.7976 B( 19-C , 22-H ) :   0.7404 B( 19-C , 23-C ) :   1.2013
B( 19-C , 24-H ) :   0.1252 B( 19-C , 25-H ) :   0.1376 B( 19-C , 26-F ) :   0.1007
B( 21-H , 23-C ) :   0.1585 B( 22-H , 23-C ) :   0.1479 B( 23-C , 24-H ) :   0.7972
B( 23-C , 25-H ) :   0.9256 B( 23-C , 26-F ) :   0.5547 B( 24-H , 26-F ) :   0.1712
B( 26-F , 34-H ) :  -0.1895 B( 27-H , 34-H ) :  -0.1875 B( 28-H , 34-H ) :   0.1062
B( 29-C , 30-N ) :   0.7305 B( 29-C , 31-N ) :   0.8093 B( 29-C , 34-H ) :   0.4295
B( 30-N , 35-H ) :   1.1345 B( 30-N , 36-H ) :   1.1901 B( 31-N , 32-H ) :   1.0166
B( 31-N , 33-H ) :   1.2423 B( 32-H , 33-H ) :  -0.1502 B( 35-H , 36-H ) :  -0.1407

Dispersion correction           -0.002330389
FINAL SINGLE POINT ENERGY      -641.575123779674

DIPOLE MOMENT
-------------
                                X             Y             Z
Electronic contribution:     -1.58205      -4.84906      10.68547
Nuclear contribution   :      1.15699       3.94991     -10.89335
                        -----------------------------------------
Total Dipole Moment    :     -0.42506      -0.89915      -0.20788
                        -----------------------------------------
Magnitude (a.u.)       :      1.01605
Magnitude (Debye)      :      2.58261

Rotational constants in cm-1:     0.026548     0.016177     0.010851
Rotational constants in MHz :   795.884848   484.988695   325.313537

                             ****ORCA TERMINATED NORMALLY****
TOTAL RUN TIME: 0 days 0 hours 3 minutes 26 seconds 475 msec
