                         Program Version 5.0.0 -  RELEASE  -
|  1> !PBE D3BJ RIJCOSX def2-TZVPD def2/J TightSCF
|  2> *xyz -1 1
|  3> C          4.90646       -3.10282       -5.95484
|  4> C          3.51177       -2.80621       -6.49228
|  5> H          2.73604       -3.37345       -5.97374
|  6> H          3.44490       -3.04083       -7.55528
|  7> S          3.00462       -1.09621       -6.38926
|  8> O          4.12886       -0.32965       -6.95372
|  9> O          1.78128       -1.00078       -7.13640
| 10> O          2.85155       -0.78368       -4.95679
| 11> H          5.62703       -2.52424       -6.49422
| 12> H          5.12164       -4.14387       -6.07654
| 13> H          4.95004       -2.84862       -4.91639
| 14> *
| 15>
| 16> %MaxCore 64000
| 17>
| 18> %pal nprocs 4
| 19> end
| 20>
| 21> %scf
| 22>   MaxIter 150
| 23> end
| 24>
| 25>
| 26>                          ****END OF INPUT****

CARTESIAN COORDINATES (ANGSTROEM)
---------------------------------
  C      4.906460   -3.102820   -5.954840
  C      3.511770   -2.806210   -6.492280
  H      2.736040   -3.373450   -5.973740
  H      3.444900   -3.040830   -7.555280
  S      3.004620   -1.096210   -6.389260
  O      4.128860   -0.329650   -6.953720
  O      1.781280   -1.000780   -7.136400
  O      2.851550   -0.783680   -4.956790
  H      5.627030   -2.524240   -6.494220
  H      5.121640   -4.143870   -6.076540
  H      4.950040   -2.848620   -4.916390

 Total Charge           Charge          ....   -1
 Multiplicity           Mult            ....    1
 Number of Electrons    NEL             ....   58
 Basis Dimension        Dim             ....  285

ORBITAL ENERGIES
----------------

  NO   OCC          E(Eh)            E(eV)
   0   2.0000     -88.009849     -2394.8697
   1   2.0000     -18.532850      -504.3045
   2   2.0000     -18.522044      -504.0105
   3   2.0000     -18.521680      -504.0005
   4   2.0000      -9.742437      -265.1052
   5   2.0000      -9.734169      -264.8802
   6   2.0000      -7.605154      -206.9468
   7   2.0000      -5.625952      -153.0899
   8   2.0000      -5.625096      -153.0666
   9   2.0000      -5.624826      -153.0593
  10   2.0000      -0.830760       -22.6061
  11   2.0000      -0.703942       -19.1552
  12   2.0000      -0.684754       -18.6331
  13   2.0000      -0.560958       -15.2644
  14   2.0000      -0.443981       -12.0813
  15   2.0000      -0.322739        -8.7822
  16   2.0000      -0.269200        -7.3253
  17   2.0000      -0.259409        -7.0589
  18   2.0000      -0.225593        -6.1387
  19   2.0000      -0.208480        -5.6730
  20   2.0000      -0.203105        -5.5268
  21   2.0000      -0.183909        -5.0044
  22   2.0000      -0.168509        -4.5854
  23   2.0000      -0.102239        -2.7821
  24   2.0000      -0.100987        -2.7480
  25   2.0000      -0.070983        -1.9315
  26   2.0000      -0.064008        -1.7418
  27   2.0000      -0.056096        -1.5265
  28   2.0000      -0.017664        -0.4807
  29   0.0000       0.109855         2.9893
  30   0.0000       0.133430         3.6308
  31   0.0000       0.140072         3.8116
  32   0.0000       0.149118         4.0577
  33   0.0000       0.165976         4.5164

MULLIKEN ATOMIC CHARGES
-----------------------
   0 C :   -0.904739
   1 C :   -0.201130
   2 H :    0.186363
   3 H :    0.185871
   4 S :    1.034552
   5 O :   -0.683010
   6 O :   -0.631587
   7 O :   -0.681070
   8 H :    0.240373
   9 H :    0.217671
  10 H :    0.236707
Sum of atomic charges:   -1.0000000

LOEWDIN ATOMIC CHARGES
----------------------
   0 C :   -0.148593
   1 C :   -0.344070
   2 H :    0.083030
   3 H :    0.080632
   4 S :    0.294924
   5 O :   -0.382825
   6 O :   -0.361523
   7 O :   -0.386125
   8 H :    0.056770
   9 H :    0.047196
  10 H :    0.060584

  Mayer bond orders larger than 0.100000
B(  0-C ,  1-C ) :   0.8605 B(  0-C ,  8-H ) :   0.9862 B(  0-C ,  9-H ) :   0.9647
B(  0-C , 10-H ) :   0.9803 B(  1-C ,  2-H ) :   0.9552 B(  1-C ,  3-H ) :   0.9627
B(  1-C ,  4-S ) :   0.8398 B(  1-C ,  5-O ) :   0.1172 B(  1-C ,  6-O ) :   0.1612
B(  1-C ,  7-O ) :   0.1347 B(  4-S ,  5-O ) :   1.5096 B(  4-S ,  6-O ) :   1.5498
B(  4-S ,  7-O ) :   1.5120

Dispersion correction           -0.009670564
FINAL SINGLE POINT ENERGY      -702.816013225011

DIPOLE MOMENT
-------------
                                X             Y             Z
Electronic contribution:     -4.39555       6.49691      -0.65683
Nuclear contribution   :      5.05690      -8.21735       0.57889
                        -----------------------------------------
Total Dipole Moment    :      0.66135      -1.72044      -0.07793
                        -----------------------------------------
Magnitude (a.u.)       :      1.84482
Magnitude (Debye)      :      4.68917

Rotational constants in cm-1:     0.162547     0.083494     0.081672
Rotational constants in MHz :  4873.033504  2503.090885  2448.458543

                             ****ORCA TERMINATED NORMALLY****
TOTAL RUN TIME: 0 days 0 hours 0 minutes 10 seconds 591 msec
