                         Program Version 5.0.0 -  RELEASE  -
|  1> !PBE D3BJ RIJCOSX def2-TZVPD def2/J TightSCF
|  2> *xyz 1 1
|  3> C          4.49059        1.15590       -2.46929
|  4> N          4.30539        1.22276       -3.90832
|  5> C          4.63192        2.24637       -4.67096
|  6> N          4.54169        2.14399       -5.98714
|  7> N          5.08409        3.39358       -4.11855
|  8> H          4.92067        3.57050       -3.13587
|  9> H          5.25465        4.19739       -4.70696
| 10> H          3.82453        0.44911       -4.35093
| 11> H          4.34337        1.24932       -6.41665
| 12> H          4.67671        2.95662       -6.57411
| 13> C          5.94213        0.93950       -2.03689
| 14> H          3.86431        0.32853       -2.13661
| 15> H          4.07623        2.04999       -1.98901
| 16> H          6.32982        0.06401       -2.51451
| 17> H          5.98308        0.81426       -0.97504
| 18> H          6.52865        1.78889       -2.31873
| 19> *
| 20>
| 21> %MaxCore 64000
| 22>
| 23> %pal nprocs 4
| 24> end
| 25>
| 26> %scf
| 27>   MaxIter 150
| 28> end
| 29>
| 30>
| 31>                          ****END OF INPUT****

CARTESIAN COORDINATES (ANGSTROEM)
---------------------------------
  C      4.490590    1.155900   -2.469290
  N      4.305390    1.222760   -3.908320
  C      4.631920    2.246370   -4.670960
  N      4.541690    2.143990   -5.987140
  N      5.084090    3.393580   -4.118550
  H      4.920670    3.570500   -3.135870
  H      5.254650    4.197390   -4.706960
  H      3.824530    0.449110   -4.350930
  H      4.343370    1.249320   -6.416650
  H      4.676710    2.956620   -6.574110
  C      5.942130    0.939500   -2.036890
  H      3.864310    0.328530   -2.136610
  H      4.076230    2.049990   -1.989010
  H      6.329820    0.064010   -2.514510
  H      5.983080    0.814260   -0.975040
  H      6.528650    1.788890   -2.318730

 Total Charge           Charge          ....    1
 Multiplicity           Mult            ....    1
 Number of Electrons    NEL             ....   48
 Basis Dimension        Dim             ....  312

ORBITAL ENERGIES
----------------

  NO   OCC          E(Eh)            E(eV)
   0   2.0000     -14.209168      -386.6511
   1   2.0000     -14.206280      -386.5725
   2   2.0000     -14.204266      -386.5177
   3   2.0000     -10.203206      -277.6433
   4   2.0000     -10.088309      -274.5168
   5   2.0000     -10.014911      -272.5196
   6   2.0000      -1.130414       -30.7601
   7   2.0000      -1.027998       -27.9733
   8   2.0000      -1.013253       -27.5720
   9   2.0000      -0.861766       -23.4498
  10   2.0000      -0.784407       -21.3448
  11   2.0000      -0.743103       -20.2209
  12   2.0000      -0.731394       -19.9022
  13   2.0000      -0.688942       -18.7471
  14   2.0000      -0.642346       -17.4791
  15   2.0000      -0.640583       -17.4312
  16   2.0000      -0.610975       -16.6255
  17   2.0000      -0.577302       -15.7092
  18   2.0000      -0.556316       -15.1381
  19   2.0000      -0.514681       -14.0052
  20   2.0000      -0.487658       -13.2699
  21   2.0000      -0.468783       -12.7562
  22   2.0000      -0.434771       -11.8307
  23   2.0000      -0.412622       -11.2280
  24   0.0000      -0.201509        -5.4833
  25   0.0000      -0.183707        -4.9989
  26   0.0000      -0.150931        -4.1070
  27   0.0000      -0.144449        -3.9306
  28   0.0000      -0.123481        -3.3601

MULLIKEN ATOMIC CHARGES
-----------------------
   0 C :   -0.450917
   1 N :   -0.021779
   2 C :    0.500270
   3 N :   -0.189385
   4 N :   -0.192158
   5 H :    0.183962
   6 H :    0.153579
   7 H :    0.203291
   8 H :    0.164556
   9 H :    0.165613
  10 C :   -0.762774
  11 H :    0.226307
  12 H :    0.250425
  13 H :    0.245923
  14 H :    0.248531
  15 H :    0.274556
Sum of atomic charges:    1.0000000

LOEWDIN ATOMIC CHARGES
----------------------
   0 C :   -0.211753
   1 N :    0.093516
   2 C :   -0.456671
   3 N :    0.219194
   4 N :    0.226970
   5 H :    0.120965
   6 H :    0.134453
   7 H :    0.169094
   8 H :    0.139648
   9 H :    0.137930
  10 C :   -0.055551
  11 H :    0.131464
  12 H :    0.122065
  13 H :    0.080015
  14 H :    0.083313
  15 H :    0.065349

  Mayer bond orders larger than 0.100000
B(  0-C ,  1-N ) :   0.9900 B(  0-C , 10-C ) :   0.8541 B(  0-C , 11-H ) :   0.9450
B(  0-C , 12-H ) :   0.8950 B(  1-N ,  2-C ) :   1.2177 B(  1-N ,  3-N ) :   0.1336
B(  1-N ,  7-H ) :   0.9724 B(  2-C ,  3-N ) :   1.1167 B(  2-C ,  4-N ) :   1.1829
B(  3-N ,  8-H ) :   0.9992 B(  3-N ,  9-H ) :   1.0165 B(  4-N ,  5-H ) :   0.9365
B(  4-N ,  6-H ) :   1.0353 B( 10-C , 13-H ) :   0.9913 B( 10-C , 14-H ) :   0.9750
B( 10-C , 15-H ) :   0.9566

Dispersion correction           -0.012437358
FINAL SINGLE POINT ENERGY      -284.158084371538

DIPOLE MOMENT
-------------
                                X             Y             Z
Electronic contribution:     -1.78791       1.56438      -4.43273
Nuclear contribution   :      1.34333      -1.11039       3.43667
                        -----------------------------------------
Total Dipole Moment    :     -0.44458       0.45399      -0.99607
                        -----------------------------------------
Magnitude (a.u.)       :      1.18149
Magnitude (Debye)      :      3.00310

Rotational constants in cm-1:     0.227161     0.075356     0.065003
Rotational constants in MHz :  6810.114531  2259.122204  1948.738523

                             ****ORCA TERMINATED NORMALLY****
TOTAL RUN TIME: 0 days 0 hours 0 minutes 12 seconds 754 msec
