                         Program Version 5.0.0 -  RELEASE  -
|  1> !PBE D3BJ RIJCOSX def2-TZVPD def2/J TightSCF xyzfile
|  2>
|  3> *xyzfile 0 1 B.xyz
|  4>
|  5> %MaxCore 64000
|  6>
|  7> %pal nprocs 4
|  8> end
|  9>
| 10> %scf
| 11>   MaxIter 150
| 12> end
| 13>
| 14>
| 15>                          ****END OF INPUT****

CARTESIAN COORDINATES (ANGSTROEM)
---------------------------------
  C      4.490588    1.155899   -2.469290
  N      4.305394    1.222762   -3.908317
  C      4.906458   -3.102816   -5.954844
  C      3.511771   -2.806215   -6.492283
  H      2.736044   -3.373445   -5.973736
  H      3.444904   -3.040831   -7.555281
  S      3.004618   -1.096206   -6.389259
  C      4.631918    2.246365   -4.670958
  N      4.541686    2.143990   -5.987139
  N      5.084086    3.393584   -4.118545
  H      4.920675    3.570501   -3.135870
  H      5.254652    4.197390   -4.706956
  H      3.824530    0.449113   -4.350926
  H      4.343373    1.249318   -6.416646
  H      4.676712    2.956624   -6.574113
  O      4.128856   -0.329647   -6.953717
  O      1.781285   -1.000779   -7.136399
  C      5.942129    0.939500   -2.036893
  H      3.864305    0.328532   -2.136611
  H      4.076233    2.049994   -1.989010
  C      6.462677   -3.117775   -3.944671
  C      5.024977   -3.025679   -4.437625
  H      4.423321   -3.818693   -3.977648
  H      4.579350   -2.087131   -4.108727
  H      5.201533   -4.100207   -6.296905
  H      5.605922   -2.397822   -6.413368
  C      6.559957   -0.356290   -2.559086
  H      5.967976    0.952567   -0.942444
  H      6.547184    1.788331   -2.368849
  C      6.006283   -1.615917   -1.899301
  H      7.642360   -0.318000   -2.402059
  H      6.414855   -0.403433   -3.642587
  C      6.608718   -2.917014   -2.435655
  H      6.190324   -1.561115   -0.820948
  H      4.919250   -1.651245   -2.016586
  H      7.066975   -2.374258   -4.475514
  H      6.887808   -4.089747   -4.215332
  H      6.135197   -3.755573   -1.915159
  H      7.671142   -2.955503   -2.172291
  O      2.851546   -0.783683   -4.956789

 Total Charge           Charge          ....    0
 Multiplicity           Mult            ....    1
 Number of Electrons    NEL             ....  144
 Basis Dimension        Dim             ....  854

ORBITAL ENERGIES
----------------

  NO   OCC          E(Eh)            E(eV)
   0   2.0000     -88.167158     -2399.1503
   1   2.0000     -18.691095      -508.6106
   2   2.0000     -18.690826      -508.6032
   3   2.0000     -18.677590      -508.2431
   4   2.0000     -14.058142      -382.5415
   5   2.0000     -14.030038      -381.7767
   6   2.0000     -14.025241      -381.6462
   7   2.0000     -10.039303      -273.1833
   8   2.0000      -9.946317      -270.6530
   9   2.0000      -9.902332      -269.4561
  10   2.0000      -9.886056      -269.0133
  11   2.0000      -9.879274      -268.8287
  12   2.0000      -9.874120      -268.6885
  13   2.0000      -9.871471      -268.6164
  14   2.0000      -9.867026      -268.4954
  15   2.0000      -9.864415      -268.4244
  16   2.0000      -9.857594      -268.2388
  17   2.0000      -7.763111      -211.2450
  18   2.0000      -5.784059      -157.3922
  19   2.0000      -5.783174      -157.3682
  20   2.0000      -5.782337      -157.3454
  21   2.0000      -0.992707       -27.0129
  22   2.0000      -0.966798       -26.3079
  23   2.0000      -0.867826       -23.6147
  24   2.0000      -0.862226       -23.4624
  25   2.0000      -0.857289       -23.3280
  26   2.0000      -0.849353       -23.1121
  27   2.0000      -0.750689       -20.4273
  28   2.0000      -0.725735       -19.7482
  29   2.0000      -0.700584       -19.0639
  30   2.0000      -0.667578       -18.1657
  31   2.0000      -0.634533       -17.2665
  32   2.0000      -0.614159       -16.7121
  33   2.0000      -0.586444       -15.9579
  34   2.0000      -0.570566       -15.5259
  35   2.0000      -0.558174       -15.1887
  36   2.0000      -0.535517       -14.5722
  37   2.0000      -0.520864       -14.1734
  38   2.0000      -0.494817       -13.4647
  39   2.0000      -0.490296       -13.3416
  40   2.0000      -0.486569       -13.2402
  41   2.0000      -0.463184       -12.6039
  42   2.0000      -0.452552       -12.3146
  43   2.0000      -0.437241       -11.8979
  44   2.0000      -0.428826       -11.6690
  45   2.0000      -0.415691       -11.3115
  46   2.0000      -0.408747       -11.1226
  47   2.0000      -0.400716       -10.9040
  48   2.0000      -0.387076       -10.5329
  49   2.0000      -0.383296       -10.4300
  50   2.0000      -0.375297       -10.2123
  51   2.0000      -0.370071       -10.0701
  52   2.0000      -0.357971        -9.7409
  53   2.0000      -0.352360        -9.5882
  54   2.0000      -0.343401        -9.3444
  55   2.0000      -0.336264        -9.1502
  56   2.0000      -0.323419        -8.8007
  57   2.0000      -0.315010        -8.5719
  58   2.0000      -0.306229        -8.3329
  59   2.0000      -0.293771        -7.9939
  60   2.0000      -0.284149        -7.7321
  61   2.0000      -0.280549        -7.6341
  62   2.0000      -0.274545        -7.4707
  63   2.0000      -0.270616        -7.3638
  64   2.0000      -0.269414        -7.3311
  65   2.0000      -0.264779        -7.2050
  66   2.0000      -0.257687        -7.0120
  67   2.0000      -0.249252        -6.7825
  68   2.0000      -0.227453        -6.1893
  69   2.0000      -0.219630        -5.9764
  70   2.0000      -0.214246        -5.8299
  71   2.0000      -0.184100        -5.0096
  72   0.0000      -0.052923        -1.4401
  73   0.0000      -0.043764        -1.1909
  74   0.0000      -0.023482        -0.6390
  75   0.0000      -0.006212        -0.1690
  76   0.0000      -0.002279        -0.0620

MULLIKEN ATOMIC CHARGES
-----------------------
   0 C :   -0.884273
   1 N :    0.168055
   2 C :   -0.357482
   3 C :   -0.568001
   4 H :    0.210231
   5 H :    0.199271
   6 S :    1.246130
   7 C :    0.440138
   8 N :   -0.005507
   9 N :   -0.182477
  10 H :    0.177623
  11 H :    0.134301
  12 H :    0.101804
  13 H :    0.134611
  14 H :    0.155908
  15 O :   -0.897580
  16 O :   -0.621632
  17 C :   -0.090247
  18 H :    0.245607
  19 H :    0.257522
  20 C :   -0.272425
  21 C :   -0.146955
  22 H :    0.192540
  23 H :    0.094538
  24 H :    0.144956
  25 H :    0.176262
  26 C :   -0.149215
  27 H :    0.179733
  28 H :    0.220319
  29 C :   -0.409908
  30 H :    0.116151
  31 H :    0.107539
  32 C :   -0.434954
  33 H :    0.152200
  34 H :    0.256885
  35 H :    0.234043
  36 H :    0.162225
  37 H :    0.165559
  38 H :    0.160873
  39 O :   -0.814367
Sum of atomic charges:    0.0000000

LOEWDIN ATOMIC CHARGES
----------------------
   0 C :   -0.169355
   1 N :    0.112991
   2 C :   -0.232945
   3 C :   -0.253759
   4 H :    0.105272
   5 H :    0.100093
   6 S :    0.405235
   7 C :   -0.457378
   8 N :    0.220594
   9 N :    0.193163
  10 H :    0.104265
  11 H :    0.116320
  12 H :    0.066666
  13 H :    0.040020
  14 H :    0.126246
  15 O :   -0.346147
  16 O :   -0.294542
  17 C :   -0.189095
  18 H :    0.126356
  19 H :    0.115608
  20 C :   -0.220373
  21 C :   -0.222744
  22 H :    0.128942
  23 H :    0.082156
  24 H :    0.114565
  25 H :    0.108952
  26 C :   -0.208702
  27 H :    0.116249
  28 H :    0.102010
  29 C :   -0.218870
  30 H :    0.119985
  31 H :    0.107908
  32 C :   -0.211755
  33 H :    0.114812
  34 H :    0.103848
  35 H :    0.108267
  36 H :    0.113894
  37 H :    0.110740
  38 H :    0.108866
  39 O :   -0.348357

  Mayer bond orders larger than 0.100000
B(  0-C ,  1-N ) :   1.1200 B(  0-C ,  7-C ) :  -0.1698 B(  0-C ,  9-N ) :   0.1045
B(  0-C , 12-H ) :  -0.1664 B(  0-C , 17-C ) :   0.8246 B(  0-C , 18-H ) :   0.8412
B(  0-C , 19-H ) :   0.8177 B(  0-C , 29-C ) :   0.1986 B(  1-N ,  7-C ) :   1.1422
B(  1-N ,  8-N ) :   0.1025 B(  1-N , 12-H ) :   0.9492 B(  1-N , 39-O ) :  -0.1142
B(  2-C ,  3-C ) :   1.1156 B(  2-C , 20-C ) :   0.4823 B(  2-C , 21-C ) :   0.5836
B(  2-C , 22-H ) :  -0.1232 B(  2-C , 24-H ) :   0.9801 B(  2-C , 25-H ) :   0.8524
B(  3-C ,  4-H ) :   0.9142 B(  3-C ,  5-H ) :   0.9637 B(  3-C ,  6-S ) :   0.8584
B(  3-C , 15-O ) :   0.1055 B(  3-C , 16-O ) :   0.2121 B(  3-C , 21-C ) :   0.2719
B(  6-S , 15-O ) :   1.1989 B(  6-S , 16-O ) :   1.4060 B(  6-S , 39-O ) :   1.4556
B(  7-C ,  8-N ) :   1.1739 B(  7-C ,  9-N ) :   1.1701 B(  7-C , 12-H ) :  -0.2533
B(  8-N , 13-H ) :   0.8762 B(  8-N , 14-H ) :   0.9913 B(  9-N , 10-H ) :   0.9397
B(  9-N , 11-H ) :   1.0303 B( 12-H , 39-O ) :   0.1456 B( 13-H , 15-O ) :   0.1372
B( 15-O , 39-O ) :   0.1249 B( 17-C , 26-C ) :   1.1572 B( 17-C , 27-H ) :   0.9559
B( 17-C , 28-H ) :   0.8520 B( 17-C , 29-C ) :   0.2264 B( 20-C , 21-C ) :   0.5360
B( 20-C , 23-H ) :  -0.1122 B( 20-C , 26-C ) :   0.1707 B( 20-C , 32-C ) :   1.0382
B( 20-C , 35-H ) :   0.8798 B( 20-C , 36-H ) :   0.9281 B( 21-C , 22-H ) :   0.7235
B( 21-C , 23-H ) :   1.6182 B( 21-C , 29-C ) :   0.1652 B( 21-C , 32-C ) :   0.2253
B( 21-C , 39-O ) :   0.1225 B( 22-H , 23-H ) :   0.1914 B( 23-H , 39-O ) :  -0.1727
B( 26-C , 29-C ) :   0.4394 B( 26-C , 30-H ) :   0.9247 B( 26-C , 31-H ) :   1.0623
B( 26-C , 32-C ) :   0.2182 B( 26-C , 33-H ) :  -0.1148 B( 26-C , 34-H ) :  -0.1066
B( 29-C , 32-C ) :   1.0919 B( 29-C , 33-H ) :   0.9406 B( 29-C , 34-H ) :   0.9578
B( 32-C , 34-H ) :   0.1050 B( 32-C , 37-H ) :   0.9240 B( 32-C , 38-H ) :   0.9411

Dispersion correction           -0.048757952
FINAL SINGLE POINT ENERGY     -1182.324735682912

DIPOLE MOMENT
-------------
                                X             Y             Z
Electronic contribution:    -14.58503       8.30360     -15.37034
Nuclear contribution   :     16.79156      -5.47215      17.54258
                        -----------------------------------------
Total Dipole Moment    :      2.20653       2.83145       2.17224
                        -----------------------------------------
Magnitude (a.u.)       :      4.19577
Magnitude (Debye)      :     10.66480

Rotational constants in cm-1:     0.014207     0.012373     0.007472
Rotational constants in MHz :   425.900436   370.942493   224.006604

                             ****ORCA TERMINATED NORMALLY****
TOTAL RUN TIME: 0 days 0 hours 2 minutes 23 seconds 172 msec
