                         Program Version 5.0.0 -  RELEASE  -
|  1> !PBE D3BJ RIJCOSX def2-TZVPD def2/J TightSCF
|  2> *xyz 0 1
|  3> C          4.90646       -3.10282       -5.95484
|  4> C          3.51177       -2.80621       -6.49228
|  5> H          2.73604       -3.37345       -5.97374
|  6> H          3.44490       -3.04083       -7.55528
|  7> S          3.00462       -1.09621       -6.38926
|  8> F          4.12886       -0.32965       -6.95372
|  9> O          1.78128       -1.00078       -7.13640
| 10> O          2.85155       -0.78368       -4.95679
| 11> H          5.62703       -2.52424       -6.49422
| 12> H          5.12164       -4.14387       -6.07654
| 13> H          4.95004       -2.84862       -4.91639
| 14> *
| 15>
| 16> %MaxCore 64000
| 17>
| 18> %pal nprocs 4
| 19> end
| 20>
| 21> %scf
| 22>   MaxIter 150
| 23> end
| 24>
| 25>
| 26>                          ****END OF INPUT****

CARTESIAN COORDINATES (ANGSTROEM)
---------------------------------
  C      4.906460   -3.102820   -5.954840
  C      3.511770   -2.806210   -6.492280
  H      2.736040   -3.373450   -5.973740
  H      3.444900   -3.040830   -7.555280
  S      3.004620   -1.096210   -6.389260
  F      4.128860   -0.329650   -6.953720
  O      1.781280   -1.000780   -7.136400
  O      2.851550   -0.783680   -4.956790
  H      5.627030   -2.524240   -6.494220
  H      5.121640   -4.143870   -6.076540
  H      4.950040   -2.848620   -4.916390

 Total Charge           Charge          ....    0
 Multiplicity           Mult            ....    1
 Number of Electrons    NEL             ....   58
 Basis Dimension        Dim             ....  285

ORBITAL ENERGIES
----------------

  NO   OCC          E(Eh)            E(eV)
   0   2.0000     -88.266646     -2401.8575
   1   2.0000     -24.359201      -662.8476
   2   2.0000     -18.764589      -510.6104
   3   2.0000     -18.753613      -510.3118
   4   2.0000      -9.942571      -270.5511
   5   2.0000      -9.902528      -269.4615
   6   2.0000      -7.862548      -213.9508
   7   2.0000      -5.887039      -160.1945
   8   2.0000      -5.880289      -160.0108
   9   2.0000      -5.880126      -160.0064
  10   2.0000      -1.252592       -34.0848
  11   2.0000      -1.018866       -27.7248
  12   2.0000      -0.925372       -25.1807
  13   2.0000      -0.755058       -20.5462
  14   2.0000      -0.658319       -17.9138
  15   2.0000      -0.612362       -16.6632
  16   2.0000      -0.522295       -14.2124
  17   2.0000      -0.502928       -13.6854
  18   2.0000      -0.488130       -13.2827
  19   2.0000      -0.446280       -12.1439
  20   2.0000      -0.424082       -11.5399
  21   2.0000      -0.404580       -11.0092
  22   2.0000      -0.389454       -10.5976
  23   2.0000      -0.366959        -9.9855
  24   2.0000      -0.355538        -9.6747
  25   2.0000      -0.335385        -9.1263
  26   2.0000      -0.294354        -8.0098
  27   2.0000      -0.283090        -7.7033
  28   2.0000      -0.265890        -7.2352
  29   0.0000      -0.034091        -0.9277
  30   0.0000      -0.002247        -0.0612
  31   0.0000       0.007960         0.2166
  32   0.0000       0.008664         0.2358
  33   0.0000       0.020248         0.5510

MULLIKEN ATOMIC CHARGES
-----------------------
   0 C :   -0.920567
   1 C :   -0.152964
   2 H :    0.224786
   3 H :    0.237101
   4 S :    0.977214
   5 F :   -0.120710
   6 O :   -0.485516
   7 O :   -0.528656
   8 H :    0.280221
   9 H :    0.213573
  10 H :    0.275518
Sum of atomic charges:   -0.0000000

LOEWDIN ATOMIC CHARGES
----------------------
   0 C :   -0.111529
   1 C :   -0.290550
   2 H :    0.112944
   3 H :    0.100493
   4 S :    0.541279
   5 F :   -0.057624
   6 O :   -0.244899
   7 O :   -0.267162
   8 H :    0.068712
   9 H :    0.073580
  10 H :    0.074755

  Mayer bond orders larger than 0.100000
B(  0-C ,  1-C ) :   0.8614 B(  0-C ,  8-H ) :   0.9318 B(  0-C ,  9-H ) :   0.9805
B(  0-C , 10-H ) :   0.9708 B(  1-C ,  2-H ) :   0.9265 B(  1-C ,  3-H ) :   0.9330
B(  1-C ,  4-S ) :   0.8281 B(  1-C ,  6-O ) :   0.1257 B(  4-S ,  5-F ) :   1.0452
B(  4-S ,  6-O ) :   1.7579 B(  4-S ,  7-O ) :   1.7119 B(  6-O ,  7-O ) :   0.1156

Dispersion correction           -0.009208151
FINAL SINGLE POINT ENERGY      -727.333436397331

DIPOLE MOMENT
-------------
                                X             Y             Z
Electronic contribution:     -3.04167       8.24438      -1.71832
Nuclear contribution   :      4.18919      -9.36357       1.23251
                        -----------------------------------------
Total Dipole Moment    :      1.14752      -1.11919      -0.48581
                        -----------------------------------------
Magnitude (a.u.)       :      1.67493
Magnitude (Debye)      :      4.25734

Rotational constants in cm-1:     0.153152     0.082513     0.079874
Rotational constants in MHz :  4591.373714  2473.673397  2394.575279

                             ****ORCA TERMINATED NORMALLY****
TOTAL RUN TIME: 0 days 0 hours 0 minutes 10 seconds 455 msec
