                         Program Version 5.0.0 -  RELEASE  -
|  1> !PBE D3BJ RIJCOSX def2-TZVPD def2/J TightSCF
|  2> *xyz 0 1
|  3> C          4.49059        1.15590       -2.46929
|  4> C          4.30539        1.22276       -3.90832
|  5> C          4.63192        2.24637       -4.67096
|  6> N          4.54169        2.14399       -5.98714
|  7> N          5.08409        3.39358       -4.11855
|  8> H          4.92067        3.57050       -3.13587
|  9> H          5.25465        4.19739       -4.70696
| 10> H          3.82453        0.44911       -4.35093
| 11> H          4.34337        1.24932       -6.41665
| 12> H          4.67671        2.95662       -6.57411
| 13> C          5.94213        0.93950       -2.03689
| 14> H          3.86431        0.32853       -2.13661
| 15> H          4.07623        2.04999       -1.98901
| 16> H          6.32982        0.06401       -2.51451
| 17> H          5.98308        0.81426       -0.97504
| 18> H          6.52865        1.78889       -2.31873
| 19> *
| 20>
| 21> %MaxCore 64000
| 22>
| 23> %pal nprocs 4
| 24> end
| 25>
| 26> %scf
| 27>   MaxIter 150
| 28> end
| 29>
| 30>
| 31>                          ****END OF INPUT****

CARTESIAN COORDINATES (ANGSTROEM)
---------------------------------
  C      4.490590    1.155900   -2.469290
  C      4.305390    1.222760   -3.908320
  C      4.631920    2.246370   -4.670960
  N      4.541690    2.143990   -5.987140
  N      5.084090    3.393580   -4.118550
  H      4.920670    3.570500   -3.135870
  H      5.254650    4.197390   -4.706960
  H      3.824530    0.449110   -4.350930
  H      4.343370    1.249320   -6.416650
  H      4.676710    2.956620   -6.574110
  C      5.942130    0.939500   -2.036890
  H      3.864310    0.328530   -2.136610
  H      4.076230    2.049990   -1.989010
  H      6.329820    0.064010   -2.514510
  H      5.983080    0.814260   -0.975040
  H      6.528650    1.788890   -2.318730

 Total Charge           Charge          ....    0
 Multiplicity           Mult            ....    1
 Number of Electrons    NEL             ....   48
 Basis Dimension        Dim             ....  312

ORBITAL ENERGIES
----------------

  NO   OCC          E(Eh)            E(eV)
   0   2.0000     -13.987195      -380.6109
   1   2.0000     -13.985071      -380.5531
   2   2.0000      -9.918168      -269.8871
   3   2.0000      -9.855965      -268.1945
   4   2.0000      -9.842282      -267.8221
   5   2.0000      -9.804638      -266.7978
   6   2.0000      -0.878838       -23.9144
   7   2.0000      -0.795187       -21.6381
   8   2.0000      -0.699688       -19.0395
   9   2.0000      -0.627134       -17.0652
  10   2.0000      -0.557900       -15.1812
  11   2.0000      -0.522185       -14.2094
  12   2.0000      -0.490937       -13.3591
  13   2.0000      -0.456965       -12.4347
  14   2.0000      -0.428135       -11.6501
  15   2.0000      -0.389466       -10.5979
  16   2.0000      -0.373195       -10.1551
  17   2.0000      -0.344861        -9.3842
  18   2.0000      -0.337071        -9.1722
  19   2.0000      -0.308119        -8.3843
  20   2.0000      -0.286046        -7.7837
  21   2.0000      -0.274787        -7.4773
  22   2.0000      -0.223251        -6.0750
  23   2.0000      -0.131615        -3.5814
  24   0.0000      -0.020747        -0.5646
  25   0.0000       0.005676         0.1544
  26   0.0000       0.014896         0.4053
  27   0.0000       0.024647         0.6707
  28   0.0000       0.039927         1.0865

MULLIKEN ATOMIC CHARGES
-----------------------
   0 C :   -0.336843
   1 C :   -0.537513
   2 C :    0.394190
   3 N :   -0.263463
   4 N :   -0.227373
   5 H :    0.153141
   6 H :    0.099752
   7 H :    0.287656
   8 H :    0.134699
   9 H :    0.110270
  10 C :   -0.884623
  11 H :    0.127300
  12 H :    0.222084
  13 H :    0.258941
  14 H :    0.211144
  15 H :    0.250636
Sum of atomic charges:    0.0000000

LOEWDIN ATOMIC CHARGES
----------------------
   0 C :   -0.290999
   1 C :   -0.148904
   2 C :   -0.555111
   3 N :    0.121050
   4 N :    0.142958
   5 H :    0.093994
   6 H :    0.093692
   7 H :    0.067160
   8 H :    0.109769
   9 H :    0.094918
  10 C :   -0.106567
  11 H :    0.103717
  12 H :    0.096652
  13 H :    0.066107
  14 H :    0.056243
  15 H :    0.055319

  Mayer bond orders larger than 0.100000
B(  0-C ,  1-C ) :   1.0337 B(  0-C ,  2-C ) :   0.2582 B(  0-C , 10-C ) :   0.7302
B(  0-C , 11-H ) :   1.0661 B(  0-C , 12-H ) :   0.8597 B(  1-C ,  2-C ) :   1.1757
B(  1-C ,  3-N ) :   0.1444 B(  1-C ,  7-H ) :   0.9288 B(  1-C , 10-C ) :   0.1995
B(  2-C ,  3-N ) :   0.9857 B(  2-C ,  4-N ) :   1.0526 B(  2-C ,  7-H ) :  -0.1368
B(  3-N ,  8-H ) :   1.0226 B(  3-N ,  9-H ) :   1.0640 B(  4-N ,  5-H ) :   0.9562
B(  4-N ,  6-H ) :   1.0749 B( 10-C , 13-H ) :   0.9926 B( 10-C , 14-H ) :   0.9868
B( 10-C , 15-H ) :   0.9785

Dispersion correction           -0.012896785
FINAL SINGLE POINT ENERGY      -267.678300464625

DIPOLE MOMENT
-------------
                                X             Y             Z
Electronic contribution:     -1.26456       1.95883      -4.13196
Nuclear contribution   :      1.23062      -1.24683       3.43056
                        -----------------------------------------
Total Dipole Moment    :     -0.03394       0.71200      -0.70140
                        -----------------------------------------
Magnitude (a.u.)       :      1.00003
Magnitude (Debye)      :      2.54187

Rotational constants in cm-1:     0.231477     0.075416     0.065327
Rotational constants in MHz :  6939.497385  2260.912204  1958.442932

                             ****ORCA TERMINATED NORMALLY****
TOTAL RUN TIME: 0 days 0 hours 0 minutes 15 seconds 235 msec
