                         Program Version 5.0.0 -  RELEASE  -
|  1> !PBE D3BJ RIJCOSX def2-TZVPD def2/J TightSCF
|  2> *xyz 0 1
|  3> C          4.90646       -3.10282       -5.95484
|  4> C          3.51177       -2.80621       -6.49228
|  5> H          2.73604       -3.37345       -5.97374
|  6> H          3.44490       -3.04083       -7.55528
|  7> S          3.00462       -1.09621       -6.38926
|  8> O          4.12886       -0.32965       -6.95372
|  9> F          1.78128       -1.00078       -7.13640
| 10> O          2.85155       -0.78368       -4.95679
| 11> H          5.62703       -2.52424       -6.49422
| 12> H          5.12164       -4.14387       -6.07654
| 13> H          4.95004       -2.84862       -4.91639
| 14> *
| 15>
| 16> %MaxCore 64000
| 17>
| 18> %pal nprocs 4
| 19> end
| 20>
| 21> %scf
| 22>   MaxIter 150
| 23> end
| 24>
| 25>
| 26>                          ****END OF INPUT****

CARTESIAN COORDINATES (ANGSTROEM)
---------------------------------
  C      4.906460   -3.102820   -5.954840
  C      3.511770   -2.806210   -6.492280
  H      2.736040   -3.373450   -5.973740
  H      3.444900   -3.040830   -7.555280
  S      3.004620   -1.096210   -6.389260
  O      4.128860   -0.329650   -6.953720
  F      1.781280   -1.000780   -7.136400
  O      2.851550   -0.783680   -4.956790
  H      5.627030   -2.524240   -6.494220
  H      5.121640   -4.143870   -6.076540
  H      4.950040   -2.848620   -4.916390

 Total Charge           Charge          ....    0
 Multiplicity           Mult            ....    1
 Number of Electrons    NEL             ....   58
 Basis Dimension        Dim             ....  285

ORBITAL ENERGIES
----------------

  NO   OCC          E(Eh)            E(eV)
   0   2.0000     -88.268901     -2401.9189
   1   2.0000     -24.377344      -663.3413
   2   2.0000     -18.753637      -510.3124
   3   2.0000     -18.753625      -510.3121
   4   2.0000      -9.943386      -270.5733
   5   2.0000      -9.898718      -269.3578
   6   2.0000      -7.864667      -214.0085
   7   2.0000      -5.888989      -160.2475
   8   2.0000      -5.882422      -160.0688
   9   2.0000      -5.882301      -160.0656
  10   2.0000      -1.282287       -34.8928
  11   2.0000      -1.005971       -27.3739
  12   2.0000      -0.912587       -24.8328
  13   2.0000      -0.752331       -20.4720
  14   2.0000      -0.671973       -18.2853
  15   2.0000      -0.613738       -16.7007
  16   2.0000      -0.525684       -14.3046
  17   2.0000      -0.524311       -14.2672
  18   2.0000      -0.498613       -13.5679
  19   2.0000      -0.446900       -12.1608
  20   2.0000      -0.427517       -11.6333
  21   2.0000      -0.390370       -10.6225
  22   2.0000      -0.386236       -10.5100
  23   2.0000      -0.364858        -9.9283
  24   2.0000      -0.346272        -9.4226
  25   2.0000      -0.331641        -9.0244
  26   2.0000      -0.283763        -7.7216
  27   2.0000      -0.280176        -7.6240
  28   2.0000      -0.254951        -6.9376
  29   0.0000      -0.029069        -0.7910
  30   0.0000      -0.013171        -0.3584
  31   0.0000       0.007791         0.2120
  32   0.0000       0.012616         0.3433
  33   0.0000       0.022952         0.6246

MULLIKEN ATOMIC CHARGES
-----------------------
   0 C :   -0.918165
   1 C :   -0.186391
   2 H :    0.240922
   3 H :    0.240706
   4 S :    0.974971
   5 O :   -0.526665
   6 F :   -0.068308
   7 O :   -0.522080
   8 H :    0.275671
   9 H :    0.217530
  10 H :    0.271809
Sum of atomic charges:   -0.0000000

LOEWDIN ATOMIC CHARGES
----------------------
   0 C :   -0.099929
   1 C :   -0.300879
   2 H :    0.101737
   3 H :    0.098418
   4 S :    0.541946
   5 O :   -0.268140
   6 F :   -0.031670
   7 O :   -0.268338
   8 H :    0.073724
   9 H :    0.075415
  10 H :    0.077716

  Mayer bond orders larger than 0.100000
B(  0-C ,  1-C ) :   0.9274 B(  0-C ,  8-H ) :   0.9522 B(  0-C ,  9-H ) :   0.9651
B(  0-C , 10-H ) :   0.9485 B(  1-C ,  2-H ) :   0.9090 B(  1-C ,  3-H ) :   0.9009
B(  1-C ,  4-S ) :   0.8358 B(  1-C ,  7-O ) :   0.1075 B(  4-S ,  5-O ) :   1.7149
B(  4-S ,  6-F ) :   1.0825 B(  4-S ,  7-O ) :   1.7149 B(  5-O ,  7-O ) :   0.1238

Dispersion correction           -0.009260655
FINAL SINGLE POINT ENERGY      -727.318847576540

DIPOLE MOMENT
-------------
                                X             Y             Z
Electronic contribution:     -6.93148       7.14707      -2.01869
Nuclear contribution   :      6.63544      -8.66423       1.42287
                        -----------------------------------------
Total Dipole Moment    :     -0.29604      -1.51716      -0.59582
                        -----------------------------------------
Magnitude (a.u.)       :      1.65663
Magnitude (Debye)      :      4.21082

Rotational constants in cm-1:     0.158118     0.080978     0.078216
Rotational constants in MHz :  4740.271775  2427.649826  2344.849020

                             ****ORCA TERMINATED NORMALLY****
TOTAL RUN TIME: 0 days 0 hours 0 minutes 11 seconds 15 msec
