                         Program Version 5.0.0 -  RELEASE  -
|  1> !PBE D3BJ RIJCOSX def2-TZVPD def2/J TightSCF
|  2> *xyz 0 1
|  3> C          4.49059        1.15590       -2.46929
|  4> N          4.30539        1.22276       -3.90832
|  5> C          4.63192        2.24637       -4.67096
|  6> C          4.54169        2.14399       -5.98714
|  7> N          5.08409        3.39358       -4.11855
|  8> H          4.92067        3.57050       -3.13587
|  9> H          5.25465        4.19739       -4.70696
| 10> H          3.82453        0.44911       -4.35093
| 11> H          4.34337        1.24932       -6.41665
| 12> H          4.67671        2.95662       -6.57411
| 13> C          5.94213        0.93950       -2.03689
| 14> H          3.86431        0.32853       -2.13661
| 15> H          4.07623        2.04999       -1.98901
| 16> H          6.32982        0.06401       -2.51451
| 17> H          5.98308        0.81426       -0.97504
| 18> H          6.52865        1.78889       -2.31873
| 19> *
| 20>
| 21> %MaxCore 64000
| 22>
| 23> %pal nprocs 4
| 24> end
| 25>
| 26> %scf
| 27>   MaxIter 150
| 28> end
| 29>
| 30>
| 31>                          ****END OF INPUT****

CARTESIAN COORDINATES (ANGSTROEM)
---------------------------------
  C      4.490590    1.155900   -2.469290
  N      4.305390    1.222760   -3.908320
  C      4.631920    2.246370   -4.670960
  C      4.541690    2.143990   -5.987140
  N      5.084090    3.393580   -4.118550
  H      4.920670    3.570500   -3.135870
  H      5.254650    4.197390   -4.706960
  H      3.824530    0.449110   -4.350930
  H      4.343370    1.249320   -6.416650
  H      4.676710    2.956620   -6.574110
  C      5.942130    0.939500   -2.036890
  H      3.864310    0.328530   -2.136610
  H      4.076230    2.049990   -1.989010
  H      6.329820    0.064010   -2.514510
  H      5.983080    0.814260   -0.975040
  H      6.528650    1.788890   -2.318730

 Total Charge           Charge          ....    0
 Multiplicity           Mult            ....    1
 Number of Electrons    NEL             ....   48
 Basis Dimension        Dim             ....  312

ORBITAL ENERGIES
----------------

  NO   OCC          E(Eh)            E(eV)
   0   2.0000     -13.988007      -380.6330
   1   2.0000     -13.984420      -380.5354
   2   2.0000      -9.921270      -269.9715
   3   2.0000      -9.919138      -269.9135
   4   2.0000      -9.867817      -268.5170
   5   2.0000      -9.792540      -266.4686
   6   2.0000      -0.886431       -24.1210
   7   2.0000      -0.805490       -21.9185
   8   2.0000      -0.700485       -19.0612
   9   2.0000      -0.633993       -17.2518
  10   2.0000      -0.569645       -15.5008
  11   2.0000      -0.542206       -14.7542
  12   2.0000      -0.483475       -13.1560
  13   2.0000      -0.448379       -12.2010
  14   2.0000      -0.432964       -11.7816
  15   2.0000      -0.400146       -10.8885
  16   2.0000      -0.376874       -10.2553
  17   2.0000      -0.356312        -9.6957
  18   2.0000      -0.336755        -9.1636
  19   2.0000      -0.331116        -9.0101
  20   2.0000      -0.315965        -8.5978
  21   2.0000      -0.309879        -8.4322
  22   2.0000      -0.214310        -5.8317
  23   2.0000      -0.132455        -3.6043
  24   0.0000      -0.019697        -0.5360
  25   0.0000       0.005093         0.1386
  26   0.0000       0.010785         0.2935
  27   0.0000       0.017892         0.4869
  28   0.0000       0.043320         1.1788

MULLIKEN ATOMIC CHARGES
-----------------------
   0 C :   -0.391815
   1 N :   -0.024525
   2 C :    0.687941
   3 C :   -1.229409
   4 N :   -0.241995
   5 H :    0.136452
   6 H :    0.119440
   7 H :    0.161195
   8 H :    0.250241
   9 H :    0.190078
  10 C :   -0.800171
  11 H :    0.192484
  12 H :    0.227240
  13 H :    0.215018
  14 H :    0.238451
  15 H :    0.269376
Sum of atomic charges:   -0.0000000

LOEWDIN ATOMIC CHARGES
----------------------
   0 C :   -0.252564
   1 N :    0.026330
   2 C :   -0.576842
   3 C :   -0.000932
   4 N :    0.135126
   5 H :    0.084268
   6 H :    0.105808
   7 H :    0.145655
   8 H :    0.008193
   9 H :    0.004989
  10 C :   -0.084958
  11 H :    0.112861
  12 H :    0.103866
  13 H :    0.068485
  14 H :    0.062135
  15 H :    0.057579

  Mayer bond orders larger than 0.100000
B(  0-C ,  1-N ) :   0.9407 B(  0-C , 10-C ) :   0.8301 B(  0-C , 11-H ) :   0.9883
B(  0-C , 12-H ) :   0.9097 B(  1-N ,  2-C ) :   1.1128 B(  1-N ,  3-C ) :   0.1118
B(  1-N ,  7-H ) :   0.9727 B(  1-N , 10-C ) :   0.1121 B(  2-C ,  3-C ) :   1.0780
B(  2-C ,  4-N ) :   1.0207 B(  2-C ,  9-H ) :  -0.1126 B(  3-C ,  8-H ) :   0.9614
B(  3-C ,  9-H ) :   1.1457 B(  4-N ,  5-H ) :   0.9910 B(  4-N ,  6-H ) :   1.0386
B( 10-C , 13-H ) :   1.0143 B( 10-C , 14-H ) :   0.9815 B( 10-C , 15-H ) :   0.9839

Dispersion correction           -0.012787648
FINAL SINGLE POINT ENERGY      -267.669447194952

DIPOLE MOMENT
-------------
                                X             Y             Z
Electronic contribution:     -1.41382       1.07178      -1.95798
Nuclear contribution   :      1.28075      -1.05140       2.98955
                        -----------------------------------------
Total Dipole Moment    :     -0.13307       0.02038       1.03158
                        -----------------------------------------
Magnitude (a.u.)       :      1.04032
Magnitude (Debye)      :      2.64430

Rotational constants in cm-1:     0.229858     0.078444     0.067377
Rotational constants in MHz :  6890.979812  2351.691803  2019.910665

                             ****ORCA TERMINATED NORMALLY****
TOTAL RUN TIME: 0 days 0 hours 0 minutes 14 seconds 933 msec
