                         Program Version 5.0.0 -  RELEASE  -
|  1> !PBE D3BJ RIJCOSX def2-TZVPD def2/J TightSCF
|  2> *xyz 0 1
|  3> C          4.90646       -3.10282       -5.95484
|  4> C          3.51177       -2.80621       -6.49228
|  5> H          2.73604       -3.37345       -5.97374
|  6> H          3.44490       -3.04083       -7.55528
|  7> S          3.00462       -1.09621       -6.38926
|  8> O          4.12886       -0.32965       -6.95372
|  9> O          1.78128       -1.00078       -7.13640
| 10> F          2.85155       -0.78368       -4.95679
| 11> H          5.62703       -2.52424       -6.49422
| 12> H          5.12164       -4.14387       -6.07654
| 13> H          4.95004       -2.84862       -4.91639
| 14> *
| 15>
| 16> %MaxCore 64000
| 17>
| 18> %pal nprocs 4
| 19> end
| 20>
| 21> %scf
| 22>   MaxIter 150
| 23> end
| 24>
| 25>
| 26>                          ****END OF INPUT****

CARTESIAN COORDINATES (ANGSTROEM)
---------------------------------
  C      4.906460   -3.102820   -5.954840
  C      3.511770   -2.806210   -6.492280
  H      2.736040   -3.373450   -5.973740
  H      3.444900   -3.040830   -7.555280
  S      3.004620   -1.096210   -6.389260
  O      4.128860   -0.329650   -6.953720
  O      1.781280   -1.000780   -7.136400
  F      2.851550   -0.783680   -4.956790
  H      5.627030   -2.524240   -6.494220
  H      5.121640   -4.143870   -6.076540
  H      4.950040   -2.848620   -4.916390

 Total Charge           Charge          ....    0
 Multiplicity           Mult            ....    1
 Number of Electrons    NEL             ....   58
 Basis Dimension        Dim             ....  285

ORBITAL ENERGIES
----------------

  NO   OCC          E(Eh)            E(eV)
   0   2.0000     -88.266686     -2401.8586
   1   2.0000     -24.358883      -662.8389
   2   2.0000     -18.764816      -510.6166
   3   2.0000     -18.753958      -510.3211
   4   2.0000      -9.942440      -270.5476
   5   2.0000      -9.899635      -269.3828
   6   2.0000      -7.862588      -213.9519
   7   2.0000      -5.887047      -160.1947
   8   2.0000      -5.880438      -160.0148
   9   2.0000      -5.880090      -160.0054
  10   2.0000      -1.251725       -34.0612
  11   2.0000      -1.019033       -27.7293
  12   2.0000      -0.926930       -25.2231
  13   2.0000      -0.752882       -20.4870
  14   2.0000      -0.657761       -17.8986
  15   2.0000      -0.611260       -16.6332
  16   2.0000      -0.519712       -14.1421
  17   2.0000      -0.501793       -13.6545
  18   2.0000      -0.489817       -13.3286
  19   2.0000      -0.445067       -12.1109
  20   2.0000      -0.426623       -11.6090
  21   2.0000      -0.404889       -11.0176
  22   2.0000      -0.386246       -10.5103
  23   2.0000      -0.363009        -9.8780
  24   2.0000      -0.355880        -9.6840
  25   2.0000      -0.333415        -9.0727
  26   2.0000      -0.294282        -8.0078
  27   2.0000      -0.283794        -7.7224
  28   2.0000      -0.267520        -7.2796
  29   0.0000      -0.033571        -0.9135
  30   0.0000      -0.004562        -0.1241
  31   0.0000       0.006175         0.1680
  32   0.0000       0.009471         0.2577
  33   0.0000       0.019895         0.5414

MULLIKEN ATOMIC CHARGES
-----------------------
   0 C :   -0.898695
   1 C :   -0.175982
   2 H :    0.245361
   3 H :    0.222598
   4 S :    0.976746
   5 O :   -0.529800
   6 O :   -0.487610
   7 F :   -0.116803
   8 H :    0.275014
   9 H :    0.216183
  10 H :    0.272988
Sum of atomic charges:   -0.0000000

LOEWDIN ATOMIC CHARGES
----------------------
   0 C :   -0.111389
   1 C :   -0.291913
   2 H :    0.101830
   3 H :    0.110110
   4 S :    0.543059
   5 O :   -0.265799
   6 O :   -0.245115
   7 F :   -0.057804
   8 H :    0.071846
   9 H :    0.073255
  10 H :    0.071919

  Mayer bond orders larger than 0.100000
B(  0-C ,  1-C ) :   0.8812 B(  0-C ,  8-H ) :   0.9776 B(  0-C ,  9-H ) :   0.9775
B(  0-C , 10-H ) :   0.9286 B(  1-C ,  2-H ) :   0.9138 B(  1-C ,  3-H ) :   0.9310
B(  1-C ,  4-S ) :   0.8355 B(  1-C ,  6-O ) :   0.1301 B(  4-S ,  5-O ) :   1.7125
B(  4-S ,  6-O ) :   1.7560 B(  4-S ,  7-F ) :   1.0386 B(  5-O ,  6-O ) :   0.1182

Dispersion correction           -0.009223789
FINAL SINGLE POINT ENERGY      -727.333796616903

DIPOLE MOMENT
-------------
                                X             Y             Z
Electronic contribution:     -5.16620       7.50288       1.60357
Nuclear contribution   :      5.52019      -8.89046      -0.84835
                        -----------------------------------------
Total Dipole Moment    :      0.35399      -1.38758       0.75521
                        -----------------------------------------
Magnitude (a.u.)       :      1.61896
Magnitude (Debye)      :      4.11507

Rotational constants in cm-1:     0.153332     0.082132     0.079755
Rotational constants in MHz :  4596.775407  2462.251277  2391.008596

                             ****ORCA TERMINATED NORMALLY****
TOTAL RUN TIME: 0 days 0 hours 0 minutes 10 seconds 483 msec
