                         Program Version 5.0.0 -  RELEASE  -
|  1> !PBE D3BJ RIJCOSX def2-TZVPD def2/J TightSCF
|  2> *xyz 0 1
|  3> C          4.49059        1.15590       -2.46929
|  4> N          4.30539        1.22276       -3.90832
|  5> C          4.63192        2.24637       -4.67096
|  6> N          4.54169        2.14399       -5.98714
|  7> C          5.08409        3.39358       -4.11855
|  8> H          4.92067        3.57050       -3.13587
|  9> H          5.25465        4.19739       -4.70696
| 10> H          3.82453        0.44911       -4.35093
| 11> H          4.34337        1.24932       -6.41665
| 12> H          4.67671        2.95662       -6.57411
| 13> C          5.94213        0.93950       -2.03689
| 14> H          3.86431        0.32853       -2.13661
| 15> H          4.07623        2.04999       -1.98901
| 16> H          6.32982        0.06401       -2.51451
| 17> H          5.98308        0.81426       -0.97504
| 18> H          6.52865        1.78889       -2.31873
| 19> *
| 20>
| 21> %MaxCore 64000
| 22>
| 23> %pal nprocs 4
| 24> end
| 25>
| 26> %scf
| 27>   MaxIter 150
| 28> end
| 29>
| 30>
| 31>                          ****END OF INPUT****

CARTESIAN COORDINATES (ANGSTROEM)
---------------------------------
  C      4.490590    1.155900   -2.469290
  N      4.305390    1.222760   -3.908320
  C      4.631920    2.246370   -4.670960
  N      4.541690    2.143990   -5.987140
  C      5.084090    3.393580   -4.118550
  H      4.920670    3.570500   -3.135870
  H      5.254650    4.197390   -4.706960
  H      3.824530    0.449110   -4.350930
  H      4.343370    1.249320   -6.416650
  H      4.676710    2.956620   -6.574110
  C      5.942130    0.939500   -2.036890
  H      3.864310    0.328530   -2.136610
  H      4.076230    2.049990   -1.989010
  H      6.329820    0.064010   -2.514510
  H      5.983080    0.814260   -0.975040
  H      6.528650    1.788890   -2.318730

 Total Charge           Charge          ....    0
 Multiplicity           Mult            ....    1
 Number of Electrons    NEL             ....   48
 Basis Dimension        Dim             ....  312

ORBITAL ENERGIES
----------------

  NO   OCC          E(Eh)            E(eV)
   0   2.0000     -13.991757      -380.7351
   1   2.0000     -13.986768      -380.5993
   2   2.0000      -9.921727      -269.9839
   3   2.0000      -9.913479      -269.7595
   4   2.0000      -9.858078      -268.2519
   5   2.0000      -9.794411      -266.5195
   6   2.0000      -0.890084       -24.2204
   7   2.0000      -0.811993       -22.0954
   8   2.0000      -0.682897       -18.5826
   9   2.0000      -0.638906       -17.3855
  10   2.0000      -0.579015       -15.7558
  11   2.0000      -0.507024       -13.7968
  12   2.0000      -0.501001       -13.6329
  13   2.0000      -0.470861       -12.8128
  14   2.0000      -0.422597       -11.4994
  15   2.0000      -0.391532       -10.6541
  16   2.0000      -0.367006        -9.9867
  17   2.0000      -0.349860        -9.5202
  18   2.0000      -0.336340        -9.1523
  19   2.0000      -0.320729        -8.7275
  20   2.0000      -0.317419        -8.6374
  21   2.0000      -0.302461        -8.2304
  22   2.0000      -0.210640        -5.7318
  23   2.0000      -0.134704        -3.6655
  24   0.0000      -0.019304        -0.5253
  25   0.0000       0.003918         0.1066
  26   0.0000       0.012618         0.3434
  27   0.0000       0.022008         0.5989
  28   0.0000       0.043280         1.1777

MULLIKEN ATOMIC CHARGES
-----------------------
   0 C :   -0.353129
   1 N :   -0.092705
   2 C :    0.748830
   3 N :   -0.228398
   4 C :   -1.254975
   5 H :    0.201362
   6 H :    0.233597
   7 H :    0.174424
   8 H :    0.121246
   9 H :    0.131715
  10 C :   -0.843496
  11 H :    0.209114
  12 H :    0.213704
  13 H :    0.213320
  14 H :    0.241842
  15 H :    0.283551
Sum of atomic charges:   -0.0000000

LOEWDIN ATOMIC CHARGES
----------------------
   0 C :   -0.248479
   1 N :    0.020483
   2 C :   -0.578970
   3 N :    0.126090
   4 C :    0.009318
   5 H :   -0.000815
   6 H :    0.004640
   7 H :    0.136238
   8 H :    0.097707
   9 H :    0.109255
  10 C :   -0.083621
  11 H :    0.111626
  12 H :    0.109740
  13 H :    0.065882
  14 H :    0.063433
  15 H :    0.057471

  Mayer bond orders larger than 0.100000
B(  0-C ,  1-N ) :   0.9513 B(  0-C ,  4-C ) :   0.1357 B(  0-C , 10-C ) :   0.8321
B(  0-C , 11-H ) :   0.9254 B(  0-C , 12-H ) :   0.9234 B(  1-N ,  2-C ) :   1.0840
B(  1-N ,  7-H ) :   0.9931 B(  1-N , 10-C ) :   0.1181 B(  2-C ,  3-N ) :   0.9749
B(  2-C ,  4-C ) :   1.0871 B(  3-N ,  4-C ) :   0.1172 B(  3-N ,  8-H ) :   1.0475
B(  3-N ,  9-H ) :   1.0211 B(  4-C ,  5-H ) :   1.0163 B(  4-C ,  6-H ) :   1.0532
B( 10-C , 13-H ) :   1.0018 B( 10-C , 14-H ) :   0.9556 B( 10-C , 15-H ) :   1.0005

Dispersion correction           -0.012864831
FINAL SINGLE POINT ENERGY      -267.669446924862

DIPOLE MOMENT
-------------
                                X             Y             Z
Electronic contribution:     -1.88042      -0.11525      -3.82115
Nuclear contribution   :      1.39581      -0.78630       3.38596
                        -----------------------------------------
Total Dipole Moment    :     -0.48461      -0.90156      -0.43519
                        -----------------------------------------
Magnitude (a.u.)       :      1.11222
Magnitude (Debye)      :      2.82704

Rotational constants in cm-1:     0.239249     0.075811     0.066261
Rotational constants in MHz :  7172.504830  2272.756282  1986.457543

                             ****ORCA TERMINATED NORMALLY****
TOTAL RUN TIME: 0 days 0 hours 0 minutes 14 seconds 941 msec
