                         Program Version 5.0.0 -  RELEASE  -
|  1> !PBE D3BJ RIJCOSX def2-TZVPD def2/J TightSCF xyzfile
|  2>
|  3> *xyzfile 0 1 D1.xyz
|  4>
|  5> %MaxCore 64000
|  6>
|  7> %pal nprocs 4
|  8> end
|  9>
| 10> %scf
| 11>   MaxIter 150
| 12> end
| 13>
| 14>
| 15>                          ****END OF INPUT****

CARTESIAN COORDINATES (ANGSTROEM)
---------------------------------
  C      4.490588    1.155899   -2.469290
  C      4.305394    1.222762   -3.908317
  C      4.906458   -3.102816   -5.954844
  C      3.511771   -2.806215   -6.492283
  H      2.736044   -3.373445   -5.973736
  H      3.444904   -3.040831   -7.555281
  S      3.004618   -1.096206   -6.389259
  C      4.631918    2.246365   -4.670958
  N      4.541686    2.143990   -5.987139
  N      5.084086    3.393584   -4.118545
  H      4.920675    3.570501   -3.135870
  H      5.254652    4.197390   -4.706956
  H      3.824530    0.449113   -4.350926
  H      4.343373    1.249318   -6.416646
  H      4.676712    2.956624   -6.574113
  F      4.128856   -0.329647   -6.953717
  O      1.781285   -1.000779   -7.136399
  C      5.942129    0.939500   -2.036893
  H      3.864305    0.328532   -2.136611
  H      4.076233    2.049994   -1.989010
  C      6.462677   -3.117775   -3.944671
  C      5.024977   -3.025679   -4.437625
  H      4.423321   -3.818693   -3.977648
  H      4.579350   -2.087131   -4.108727
  H      5.201533   -4.100207   -6.296905
  H      5.605922   -2.397822   -6.413368
  C      6.559957   -0.356290   -2.559086
  H      5.967976    0.952567   -0.942444
  H      6.547184    1.788331   -2.368849
  C      6.006283   -1.615917   -1.899301
  H      7.642360   -0.318000   -2.402059
  H      6.414855   -0.403433   -3.642587
  C      6.608718   -2.917014   -2.435655
  H      6.190324   -1.561115   -0.820948
  H      4.919250   -1.651245   -2.016586
  H      7.066975   -2.374258   -4.475514
  H      6.887808   -4.089747   -4.215332
  H      6.135197   -3.755573   -1.915159
  H      7.671142   -2.955503   -2.172291
  O      2.851546   -0.783683   -4.956789

 Total Charge           Charge          ....    0
 Multiplicity           Mult            ....    1
 Number of Electrons    NEL             ....  144
 Basis Dimension        Dim             ....  854

ORBITAL ENERGIES
----------------

  NO   OCC          E(Eh)            E(eV)
   0   2.0000     -88.275352     -2402.0944
   1   2.0000     -24.378420      -663.3705
   2   2.0000     -18.772566      -510.8275
   3   2.0000     -18.760884      -510.5096
   4   2.0000     -13.975968      -380.3054
   5   2.0000     -13.971848      -380.1933
   6   2.0000      -9.943749      -270.5832
   7   2.0000      -9.910244      -269.6714
   8   2.0000      -9.904254      -269.5085
   9   2.0000      -9.881042      -268.8768
  10   2.0000      -9.876948      -268.7654
  11   2.0000      -9.870861      -268.5998
  12   2.0000      -9.862079      -268.3608
  13   2.0000      -9.855409      -268.1793
  14   2.0000      -9.850772      -268.0531
  15   2.0000      -9.844714      -267.8883
  16   2.0000      -9.780268      -266.1346
  17   2.0000      -7.871758      -214.2014
  18   2.0000      -5.896383      -160.4487
  19   2.0000      -5.889347      -160.2573
  20   2.0000      -5.889161      -160.2522
  21   2.0000      -1.274298       -34.6754
  22   2.0000      -1.029124       -28.0039
  23   2.0000      -0.937055       -25.4986
  24   2.0000      -0.867590       -23.6083
  25   2.0000      -0.785434       -21.3727
  26   2.0000      -0.768945       -20.9241
  27   2.0000      -0.732712       -19.9381
  28   2.0000      -0.706367       -19.2212
  29   2.0000      -0.683566       -18.6008
  30   2.0000      -0.660049       -17.9609
  31   2.0000      -0.636069       -17.3083
  32   2.0000      -0.607404       -16.5283
  33   2.0000      -0.578876       -15.7520
  34   2.0000      -0.555605       -15.1188
  35   2.0000      -0.546452       -14.8697
  36   2.0000      -0.528456       -14.3800
  37   2.0000      -0.524292       -14.2667
  38   2.0000      -0.504924       -13.7397
  39   2.0000      -0.504034       -13.7155
  40   2.0000      -0.486886       -13.2488
  41   2.0000      -0.477735       -12.9998
  42   2.0000      -0.448079       -12.1928
  43   2.0000      -0.442361       -12.0372
  44   2.0000      -0.436146       -11.8681
  45   2.0000      -0.423449       -11.5226
  46   2.0000      -0.413640       -11.2557
  47   2.0000      -0.406364       -11.0577
  48   2.0000      -0.402741       -10.9591
  49   2.0000      -0.401234       -10.9181
  50   2.0000      -0.380453       -10.3526
  51   2.0000      -0.373498       -10.1634
  52   2.0000      -0.370895       -10.0926
  53   2.0000      -0.358979        -9.7683
  54   2.0000      -0.347259        -9.4494
  55   2.0000      -0.336784        -9.1644
  56   2.0000      -0.336030        -9.1438
  57   2.0000      -0.327525        -8.9124
  58   2.0000      -0.321596        -8.7511
  59   2.0000      -0.312230        -8.4962
  60   2.0000      -0.306162        -8.3311
  61   2.0000      -0.299186        -8.1413
  62   2.0000      -0.296433        -8.0664
  63   2.0000      -0.283582        -7.7166
  64   2.0000      -0.281805        -7.6683
  65   2.0000      -0.271719        -7.3939
  66   2.0000      -0.268314        -7.3012
  67   2.0000      -0.261114        -7.1053
  68   2.0000      -0.253789        -6.9059
  69   2.0000      -0.238112        -6.4793
  70   2.0000      -0.212866        -5.7924
  71   2.0000      -0.118948        -3.2367
  72   0.0000      -0.040048        -1.0898
  73   0.0000      -0.014046        -0.3822
  74   0.0000      -0.009332        -0.2539
  75   0.0000      -0.004310        -0.1173
  76   0.0000      -0.000987        -0.0269

MULLIKEN ATOMIC CHARGES
-----------------------
   0 C :   -0.773908
   1 C :   -1.451123
   2 C :   -0.423147
   3 C :   -0.466033
   4 H :    0.243569
   5 H :    0.196670
   6 S :    1.091792
   7 C :    0.344069
   8 N :   -0.151480
   9 N :   -0.198656
  10 H :    0.167672
  11 H :    0.090093
  12 H :    1.307793
  13 H :    0.133772
  14 H :    0.106019
  15 F :   -0.246600
  16 O :   -0.510538
  17 C :   -0.390147
  18 H :    0.147907
  19 H :    0.257704
  20 C :   -0.339756
  21 C :   -0.021392
  22 H :    0.177464
  23 H :    0.091378
  24 H :    0.159232
  25 H :    0.175799
  26 C :   -0.226306
  27 H :    0.131437
  28 H :    0.271762
  29 C :   -0.357144
  30 H :    0.118742
  31 H :    0.172368
  32 C :   -0.436429
  33 H :    0.159807
  34 H :    0.192619
  35 H :    0.281606
  36 H :    0.166269
  37 H :    0.161352
  38 H :    0.165214
  39 O :   -0.519452
Sum of atomic charges:    0.0000000

LOEWDIN ATOMIC CHARGES
----------------------
   0 C :   -0.222349
   1 C :   -0.139881
   2 C :   -0.225505
   3 C :   -0.226614
   4 H :    0.121716
   5 H :    0.105466
   6 S :    0.588632
   7 C :   -0.530449
   8 N :    0.133476
   9 N :    0.143181
  10 H :    0.092509
  11 H :    0.090741
  12 H :    0.005172
  13 H :    0.053414
  14 H :    0.099339
  15 F :   -0.069146
  16 O :   -0.223885
  17 C :   -0.207475
  18 H :    0.106871
  19 H :    0.102509
  20 C :   -0.218656
  21 C :   -0.218350
  22 H :    0.131584
  23 H :    0.088449
  24 H :    0.122409
  25 H :    0.113566
  26 C :   -0.214459
  27 H :    0.105750
  28 H :    0.102504
  29 C :   -0.218121
  30 H :    0.115109
  31 H :    0.101939
  32 C :   -0.212402
  33 H :    0.114989
  34 H :    0.103028
  35 H :    0.109461
  36 H :    0.113120
  37 H :    0.108805
  38 H :    0.109735
  39 O :   -0.256179

  Mayer bond orders larger than 0.100000
B(  0-C ,  1-C ) :   1.4986 B(  0-C , 17-C ) :   0.7988 B(  0-C , 18-H ) :   1.0416
B(  0-C , 19-H ) :   0.8089 B(  0-C , 29-C ) :   0.1510 B(  1-C ,  6-S ) :  -0.1054
B(  1-C ,  7-C ) :   0.1846 B(  1-C , 10-H ) :  -0.1108 B(  1-C , 12-H ) :  -1.2736
B(  1-C , 17-C ) :   0.3658 B(  1-C , 26-C ) :   0.1101 B(  1-C , 39-O ) :   0.2768
B(  2-C ,  3-C ) :   1.0748 B(  2-C , 20-C ) :   0.4824 B(  2-C , 21-C ) :   0.5028
B(  2-C , 22-H ) :  -0.1285 B(  2-C , 24-H ) :   0.9799 B(  2-C , 25-H ) :   0.9023
B(  3-C ,  4-H ) :   0.8797 B(  3-C ,  5-H ) :   0.9883 B(  3-C ,  6-S ) :   0.8628
B(  3-C , 16-O ) :   0.1634 B(  3-C , 21-C ) :   0.2033 B(  6-S , 15-F ) :   0.9377
B(  6-S , 16-O ) :   1.5856 B(  6-S , 39-O ) :   1.6720 B(  7-C ,  8-N ) :   1.0159
B(  7-C ,  9-N ) :   1.1793 B(  7-C , 10-H ) :   0.1405 B(  7-C , 12-H ) :   0.7511
B(  8-N , 12-H ) :   0.1265 B(  8-N , 13-H ) :   0.9460 B(  8-N , 14-H ) :   1.0404
B(  9-N , 10-H ) :   0.9618 B(  9-N , 11-H ) :   1.0554 B(  9-N , 17-C ) :   0.1407
B( 12-H , 39-O ) :  -0.3175 B( 17-C , 26-C ) :   1.2309 B( 17-C , 27-H ) :   0.9819
B( 17-C , 28-H ) :   0.8221 B( 17-C , 29-C ) :   0.2719 B( 20-C , 21-C ) :   0.5625
B( 20-C , 26-C ) :   0.1986 B( 20-C , 32-C ) :   1.0575 B( 20-C , 35-H ) :   0.8591
B( 20-C , 36-H ) :   0.9233 B( 21-C , 22-H ) :   0.7298 B( 21-C , 23-H ) :   1.5271
B( 21-C , 29-C ) :   0.1590 B( 21-C , 32-C ) :   0.2262 B( 21-C , 39-O ) :   0.1149
B( 22-H , 23-H ) :   0.2076 B( 23-H , 39-O ) :  -0.1383 B( 26-C , 29-C ) :   0.4373
B( 26-C , 30-H ) :   0.9383 B( 26-C , 31-H ) :   1.0464 B( 26-C , 32-C ) :   0.1767
B( 26-C , 34-H ) :  -0.1106 B( 29-C , 32-C ) :   1.0569 B( 29-C , 33-H ) :   0.9308
B( 29-C , 34-H ) :   1.0039 B( 32-C , 37-H ) :   0.9284 B( 32-C , 38-H ) :   0.9417

Dispersion correction           -0.048737620
FINAL SINGLE POINT ENERGY     -1190.165070934461

DIPOLE MOMENT
-------------
                                X             Y             Z
Electronic contribution:    -16.38889       4.89807     -21.39876
Nuclear contribution   :     17.24138      -5.45913      20.34076
                        -----------------------------------------
Total Dipole Moment    :      0.85249      -0.56106      -1.05800
                        -----------------------------------------
Magnitude (a.u.)       :      1.47000
Magnitude (Debye)      :      3.73644

Rotational constants in cm-1:     0.014201     0.012275     0.007453
Rotational constants in MHz :   425.728191   368.008875   223.435232

                             ****ORCA TERMINATED NORMALLY****
TOTAL RUN TIME: 0 days 0 hours 2 minutes 29 seconds 378 msec
