                         Program Version 5.0.0 -  RELEASE  -
|  1> !PBE D3BJ RIJCOSX def2-TZVPD def2/J TightSCF xyzfile
|  2>
|  3> *xyzfile 0 1 D2.xyz
|  4>
|  5> %MaxCore 64000
|  6>
|  7> %pal nprocs 4
|  8> end
|  9>
| 10> %scf
| 11>   MaxIter 150
| 12> end
| 13>
| 14>
| 15>                          ****END OF INPUT****

CARTESIAN COORDINATES (ANGSTROEM)
---------------------------------
  C      4.490588    1.155899   -2.469290
  N      4.305394    1.222762   -3.908317
  C      4.906458   -3.102816   -5.954844
  C      3.511771   -2.806215   -6.492283
  H      2.736044   -3.373445   -5.973736
  H      3.444904   -3.040831   -7.555281
  S      3.004618   -1.096206   -6.389259
  C      4.631918    2.246365   -4.670958
  C      4.541686    2.143990   -5.987139
  N      5.084086    3.393584   -4.118545
  H      4.920675    3.570501   -3.135870
  H      5.254652    4.197390   -4.706956
  H      3.824530    0.449113   -4.350926
  H      4.343373    1.249318   -6.416646
  H      4.676712    2.956624   -6.574113
  F      4.128856   -0.329647   -6.953717
  O      1.781285   -1.000779   -7.136399
  C      5.942129    0.939500   -2.036893
  H      3.864305    0.328532   -2.136611
  H      4.076233    2.049994   -1.989010
  C      6.462677   -3.117775   -3.944671
  C      5.024977   -3.025679   -4.437625
  H      4.423321   -3.818693   -3.977648
  H      4.579350   -2.087131   -4.108727
  H      5.201533   -4.100207   -6.296905
  H      5.605922   -2.397822   -6.413368
  C      6.559957   -0.356290   -2.559086
  H      5.967976    0.952567   -0.942444
  H      6.547184    1.788331   -2.368849
  C      6.006283   -1.615917   -1.899301
  H      7.642360   -0.318000   -2.402059
  H      6.414855   -0.403433   -3.642587
  C      6.608718   -2.917014   -2.435655
  H      6.190324   -1.561115   -0.820948
  H      4.919250   -1.651245   -2.016586
  H      7.066975   -2.374258   -4.475514
  H      6.887808   -4.089747   -4.215332
  H      6.135197   -3.755573   -1.915159
  H      7.671142   -2.955503   -2.172291
  O      2.851546   -0.783683   -4.956789

 Total Charge           Charge          ....    0
 Multiplicity           Mult            ....    1
 Number of Electrons    NEL             ....  144
 Basis Dimension        Dim             ....  854

ORBITAL ENERGIES
----------------

  NO   OCC          E(Eh)            E(eV)
   0   2.0000     -88.278361     -2402.1763
   1   2.0000     -24.364949      -663.0040
   2   2.0000     -18.772779      -510.8333
   3   2.0000     -18.771013      -510.7852
   4   2.0000     -13.973013      -380.2250
   5   2.0000     -13.960551      -379.8859
   6   2.0000      -9.945284      -270.6249
   7   2.0000      -9.913322      -269.7552
   8   2.0000      -9.906510      -269.5698
   9   2.0000      -9.905128      -269.5322
  10   2.0000      -9.888091      -269.0686
  11   2.0000      -9.884066      -268.9591
  12   2.0000      -9.880242      -268.8551
  13   2.0000      -9.875557      -268.7276
  14   2.0000      -9.871861      -268.6270
  15   2.0000      -9.871636      -268.6209
  16   2.0000      -9.778168      -266.0775
  17   2.0000      -7.874356      -214.2721
  18   2.0000      -5.898766      -160.5136
  19   2.0000      -5.892318      -160.3381
  20   2.0000      -5.891809      -160.3243
  21   2.0000      -1.262236       -34.3472
  22   2.0000      -1.031542       -28.0697
  23   2.0000      -0.943139       -25.6641
  24   2.0000      -0.870095       -23.6765
  25   2.0000      -0.791427       -21.5358
  26   2.0000      -0.772438       -21.0191
  27   2.0000      -0.740577       -20.1521
  28   2.0000      -0.713320       -19.4104
  29   2.0000      -0.681192       -18.5362
  30   2.0000      -0.660451       -17.9718
  31   2.0000      -0.635550       -17.2942
  32   2.0000      -0.614103       -16.7106
  33   2.0000      -0.585100       -15.9214
  34   2.0000      -0.563888       -15.3442
  35   2.0000      -0.542974       -14.7751
  36   2.0000      -0.530346       -14.4315
  37   2.0000      -0.522929       -14.2296
  38   2.0000      -0.518651       -14.1132
  39   2.0000      -0.500602       -13.6221
  40   2.0000      -0.498341       -13.5605
  41   2.0000      -0.466279       -12.6881
  42   2.0000      -0.449304       -12.2262
  43   2.0000      -0.441163       -12.0047
  44   2.0000      -0.433142       -11.7864
  45   2.0000      -0.431611       -11.7447
  46   2.0000      -0.420319       -11.4375
  47   2.0000      -0.415227       -11.2989
  48   2.0000      -0.410720       -11.1763
  49   2.0000      -0.395619       -10.7653
  50   2.0000      -0.390515       -10.6265
  51   2.0000      -0.385697       -10.4953
  52   2.0000      -0.375380       -10.2146
  53   2.0000      -0.353707        -9.6249
  54   2.0000      -0.350128        -9.5275
  55   2.0000      -0.348315        -9.4781
  56   2.0000      -0.338961        -9.2236
  57   2.0000      -0.329285        -8.9603
  58   2.0000      -0.326042        -8.8721
  59   2.0000      -0.320587        -8.7236
  60   2.0000      -0.314496        -8.5579
  61   2.0000      -0.307559        -8.3691
  62   2.0000      -0.302724        -8.2375
  63   2.0000      -0.298118        -8.1122
  64   2.0000      -0.293562        -7.9882
  65   2.0000      -0.285806        -7.7772
  66   2.0000      -0.282924        -7.6988
  67   2.0000      -0.274798        -7.4776
  68   2.0000      -0.273311        -7.4372
  69   2.0000      -0.270074        -7.3491
  70   2.0000      -0.199243        -5.4217
  71   2.0000      -0.121325        -3.3014
  72   0.0000      -0.035810        -0.9744
  73   0.0000      -0.011598        -0.3156
  74   0.0000      -0.010035        -0.2731
  75   0.0000      -0.006984        -0.1900
  76   0.0000      -0.002040        -0.0555

MULLIKEN ATOMIC CHARGES
-----------------------
   0 C :   -0.798581
   1 N :    0.076848
   2 C :   -0.407072
   3 C :   -0.485964
   4 H :    0.239471
   5 H :    0.212168
   6 S :    1.054678
   7 C :    1.162630
   8 C :   -2.184376
   9 N :   -0.239400
  10 H :    0.143833
  11 H :    0.131801
  12 H :    0.024526
  13 H :    0.860265
  14 H :    0.154567
  15 F :   -0.097229
  16 O :   -0.517474
  17 C :   -0.187655
  18 H :    0.191328
  19 H :    0.248291
  20 C :   -0.312734
  21 C :   -0.098685
  22 H :    0.199727
  23 H :    0.093125
  24 H :    0.166084
  25 H :    0.176190
  26 C :   -0.166388
  27 H :    0.184230
  28 H :    0.258893
  29 C :   -0.378144
  30 H :    0.115728
  31 H :    0.131906
  32 C :   -0.439705
  33 H :    0.156777
  34 H :    0.214394
  35 H :    0.264728
  36 H :    0.162213
  37 H :    0.164289
  38 H :    0.164683
  39 O :   -0.639965
Sum of atomic charges:    0.0000000

LOEWDIN ATOMIC CHARGES
----------------------
   0 C :   -0.192933
   1 N :    0.044739
   2 C :   -0.224112
   3 C :   -0.226111
   4 H :    0.120851
   5 H :    0.107337
   6 S :    0.593060
   7 C :   -0.550637
   8 C :    0.008403
   9 N :    0.137469
  10 H :    0.083759
  11 H :    0.103742
  12 H :    0.057523
  13 H :   -0.030142
  14 H :    0.011953
  15 F :   -0.073207
  16 O :   -0.218570
  17 C :   -0.192898
  18 H :    0.115113
  19 H :    0.108803
  20 C :   -0.217281
  21 C :   -0.219950
  22 H :    0.131774
  23 H :    0.085023
  24 H :    0.123092
  25 H :    0.115447
  26 C :   -0.211396
  27 H :    0.110286
  28 H :    0.103419
  29 C :   -0.220039
  30 H :    0.117768
  31 H :    0.104986
  32 C :   -0.210634
  33 H :    0.115664
  34 H :    0.101440
  35 H :    0.110533
  36 H :    0.114594
  37 H :    0.110008
  38 H :    0.111009
  39 O :   -0.259883

  Mayer bond orders larger than 0.100000
B(  0-C ,  1-N ) :   1.0730 B(  0-C ,  7-C ) :  -0.1471 B(  0-C ,  9-N ) :   0.1250
B(  0-C , 12-H ) :  -0.1187 B(  0-C , 17-C ) :   0.8193 B(  0-C , 18-H ) :   0.9188
B(  0-C , 19-H ) :   0.8081 B(  0-C , 29-C ) :   0.1881 B(  1-N ,  7-C ) :   1.0097
B(  1-N , 12-H ) :   0.9842 B(  1-N , 17-C ) :   0.1524 B(  2-C ,  3-C ) :   1.0869
B(  2-C , 20-C ) :   0.4775 B(  2-C , 21-C ) :   0.5152 B(  2-C , 22-H ) :  -0.1185
B(  2-C , 24-H ) :   0.9694 B(  2-C , 25-H ) :   0.9108 B(  3-C ,  4-H ) :   0.8829
B(  3-C ,  5-H ) :   0.9832 B(  3-C ,  6-S ) :   0.8700 B(  3-C , 16-O ) :   0.1619
B(  3-C , 21-C ) :   0.2283 B(  6-S , 15-F ) :   0.9903 B(  6-S , 16-O ) :   1.5807
B(  6-S , 21-C ) :   0.1068 B(  6-S , 39-O ) :   1.6661 B(  7-C ,  8-C ) :   0.5060
B(  7-C ,  9-N ) :   1.0095 B(  7-C , 12-H ) :  -0.2965 B(  7-C , 14-H ) :  -0.1906
B(  8-C , 13-H ) :   0.1513 B(  8-C , 14-H ) :   1.1953 B(  9-N , 10-H ) :   0.9964
B(  9-N , 11-H ) :   1.0205 B( 12-H , 39-O ) :   0.1069 B( 13-H , 14-H ) :   0.1315
B( 13-H , 15-F ) :  -0.1730 B( 17-C , 26-C ) :   1.1713 B( 17-C , 27-H ) :   0.9685
B( 17-C , 28-H ) :   0.8542 B( 17-C , 29-C ) :   0.2508 B( 20-C , 21-C ) :   0.5498
B( 20-C , 26-C ) :   0.1769 B( 20-C , 32-C ) :   1.0695 B( 20-C , 35-H ) :   0.8660
B( 20-C , 36-H ) :   0.9210 B( 21-C , 22-H ) :   0.7335 B( 21-C , 23-H ) :   1.5840
B( 21-C , 29-C ) :   0.1420 B( 21-C , 32-C ) :   0.2483 B( 21-C , 39-O ) :   0.1226
B( 22-H , 23-H ) :   0.1864 B( 23-H , 39-O ) :  -0.1717 B( 26-C , 29-C ) :   0.3925
B( 26-C , 30-H ) :   0.9228 B( 26-C , 31-H ) :   1.0726 B( 26-C , 32-C ) :   0.2238
B( 26-C , 33-H ) :  -0.1003 B( 26-C , 34-H ) :  -0.1101 B( 29-C , 32-C ) :   1.0683
B( 29-C , 33-H ) :   0.9331 B( 29-C , 34-H ) :   0.9905 B( 32-C , 37-H ) :   0.9231
B( 32-C , 38-H ) :   0.9362

Dispersion correction           -0.048514984
FINAL SINGLE POINT ENERGY     -1190.168481076998

DIPOLE MOMENT
-------------
                                X             Y             Z
Electronic contribution:    -16.44138       4.00343     -19.60110
Nuclear contribution   :     17.27667      -5.32157      20.03034
                        -----------------------------------------
Total Dipole Moment    :      0.83529      -1.31814       0.42924
                        -----------------------------------------
Magnitude (a.u.)       :      1.61846
Magnitude (Debye)      :      4.11381

Rotational constants in cm-1:     0.014355     0.012269     0.007481
Rotational constants in MHz :   430.360270   367.823451   224.273399

                             ****ORCA TERMINATED NORMALLY****
TOTAL RUN TIME: 0 days 0 hours 2 minutes 34 seconds 475 msec
