                         Program Version 5.0.0 -  RELEASE  -
|  1> !PBE D3BJ RIJCOSX def2-TZVPD def2/J TightSCF xyzfile
|  2>
|  3> *xyzfile 0 1 D3.xyz
|  4>
|  5> %MaxCore 64000
|  6>
|  7> %pal nprocs 4
|  8> end
|  9>
| 10> %scf
| 11>   MaxIter 150
| 12> end
| 13>
| 14>
| 15>                          ****END OF INPUT****

CARTESIAN COORDINATES (ANGSTROEM)
---------------------------------
  C      4.490588    1.155899   -2.469290
  N      4.305394    1.222762   -3.908317
  C      4.906458   -3.102816   -5.954844
  C      3.511771   -2.806215   -6.492283
  H      2.736044   -3.373445   -5.973736
  H      3.444904   -3.040831   -7.555281
  S      3.004618   -1.096206   -6.389259
  C      4.631918    2.246365   -4.670958
  N      4.541686    2.143990   -5.987139
  C      5.084086    3.393584   -4.118545
  H      4.920675    3.570501   -3.135870
  H      5.254652    4.197390   -4.706956
  H      3.824530    0.449113   -4.350926
  H      4.343373    1.249318   -6.416646
  H      4.676712    2.956624   -6.574113
  F      4.128856   -0.329647   -6.953717
  O      1.781285   -1.000779   -7.136399
  C      5.942129    0.939500   -2.036893
  H      3.864305    0.328532   -2.136611
  H      4.076233    2.049994   -1.989010
  C      6.462677   -3.117775   -3.944671
  C      5.024977   -3.025679   -4.437625
  H      4.423321   -3.818693   -3.977648
  H      4.579350   -2.087131   -4.108727
  H      5.201533   -4.100207   -6.296905
  H      5.605922   -2.397822   -6.413368
  C      6.559957   -0.356290   -2.559086
  H      5.967976    0.952567   -0.942444
  H      6.547184    1.788331   -2.368849
  C      6.006283   -1.615917   -1.899301
  H      7.642360   -0.318000   -2.402059
  H      6.414855   -0.403433   -3.642587
  C      6.608718   -2.917014   -2.435655
  H      6.190324   -1.561115   -0.820948
  H      4.919250   -1.651245   -2.016586
  H      7.066975   -2.374258   -4.475514
  H      6.887808   -4.089747   -4.215332
  H      6.135197   -3.755573   -1.915159
  H      7.671142   -2.955503   -2.172291
  O      2.851546   -0.783683   -4.956789

 Total Charge           Charge          ....    0
 Multiplicity           Mult            ....    1
 Number of Electrons    NEL             ....  144
 Basis Dimension        Dim             ....  854

ORBITAL ENERGIES
----------------

  NO   OCC          E(Eh)            E(eV)
   0   2.0000     -88.293512     -2402.5886
   1   2.0000     -24.392307      -663.7484
   2   2.0000     -18.788260      -511.2545
   3   2.0000     -18.785111      -511.1689
   4   2.0000     -13.971270      -380.1776
   5   2.0000     -13.962157      -379.9296
   6   2.0000      -9.957078      -270.9459
   7   2.0000      -9.921668      -269.9823
   8   2.0000      -9.905904      -269.5534
   9   2.0000      -9.897050      -269.3124
  10   2.0000      -9.893275      -269.2097
  11   2.0000      -9.886928      -269.0370
  12   2.0000      -9.880489      -268.8618
  13   2.0000      -9.873467      -268.6707
  14   2.0000      -9.867619      -268.5116
  15   2.0000      -9.862119      -268.3619
  16   2.0000      -9.780424      -266.1389
  17   2.0000      -7.889864      -214.6941
  18   2.0000      -5.914521      -160.9423
  19   2.0000      -5.907623      -160.7546
  20   2.0000      -5.907115      -160.7408
  21   2.0000      -1.288507       -35.0621
  22   2.0000      -1.047247       -28.4970
  23   2.0000      -0.957686       -26.0600
  24   2.0000      -0.872565       -23.7437
  25   2.0000      -0.796803       -21.6821
  26   2.0000      -0.782048       -21.2806
  27   2.0000      -0.742829       -20.2134
  28   2.0000      -0.711649       -19.3649
  29   2.0000      -0.688285       -18.7292
  30   2.0000      -0.661779       -18.0079
  31   2.0000      -0.634449       -17.2642
  32   2.0000      -0.622075       -16.9275
  33   2.0000      -0.595222       -16.1968
  34   2.0000      -0.570038       -15.5115
  35   2.0000      -0.553519       -15.0620
  36   2.0000      -0.543076       -14.7778
  37   2.0000      -0.535629       -14.5752
  38   2.0000      -0.522352       -14.2139
  39   2.0000      -0.505948       -13.7675
  40   2.0000      -0.486523       -13.2390
  41   2.0000      -0.475540       -12.9401
  42   2.0000      -0.466555       -12.6956
  43   2.0000      -0.451414       -12.2836
  44   2.0000      -0.446513       -12.1502
  45   2.0000      -0.432189       -11.7605
  46   2.0000      -0.425485       -11.5780
  47   2.0000      -0.418244       -11.3810
  48   2.0000      -0.409845       -11.1525
  49   2.0000      -0.400321       -10.8933
  50   2.0000      -0.390038       -10.6135
  51   2.0000      -0.387286       -10.5386
  52   2.0000      -0.374701       -10.1961
  53   2.0000      -0.363478        -9.8907
  54   2.0000      -0.351318        -9.5599
  55   2.0000      -0.346394        -9.4258
  56   2.0000      -0.342256        -9.3132
  57   2.0000      -0.334110        -9.0916
  58   2.0000      -0.325455        -8.8561
  59   2.0000      -0.323632        -8.8065
  60   2.0000      -0.316013        -8.5991
  61   2.0000      -0.309381        -8.4187
  62   2.0000      -0.308731        -8.4010
  63   2.0000      -0.302882        -8.2418
  64   2.0000      -0.295739        -8.0475
  65   2.0000      -0.290069        -7.8932
  66   2.0000      -0.288803        -7.8587
  67   2.0000      -0.275051        -7.4845
  68   2.0000      -0.273108        -7.4316
  69   2.0000      -0.265082        -7.2133
  70   2.0000      -0.194418        -5.2904
  71   2.0000      -0.120602        -3.2817
  72   0.0000      -0.051276        -1.3953
  73   0.0000      -0.020908        -0.5689
  74   0.0000      -0.013809        -0.3758
  75   0.0000      -0.009733        -0.2649
  76   0.0000      -0.005735        -0.1561

MULLIKEN ATOMIC CHARGES
-----------------------
   0 C :   -0.819083
   1 N :    0.044167
   2 C :   -0.405191
   3 C :   -0.457936
   4 H :    0.246842
   5 H :    0.210327
   6 S :    1.025304
   7 C :    0.918508
   8 N :   -0.116556
   9 C :   -1.430802
  10 H :    0.240585
  11 H :    0.266579
  12 H :    0.126899
  13 H :    0.154974
  14 H :    0.111020
  15 F :   -0.261573
  16 O :   -0.503152
  17 C :   -0.243016
  18 H :    0.241385
  19 H :    0.221257
  20 C :   -0.315496
  21 C :   -0.132464
  22 H :    0.198281
  23 H :    0.124239
  24 H :    0.161848
  25 H :    0.181011
  26 C :   -0.148725
  27 H :    0.196096
  28 H :    0.271131
  29 C :   -0.361925
  30 H :    0.121600
  31 H :    0.076178
  32 C :   -0.450786
  33 H :    0.156927
  34 H :    0.203845
  35 H :    0.274984
  36 H :    0.165198
  37 H :    0.165291
  38 H :    0.166398
  39 O :   -0.624169
Sum of atomic charges:   -0.0000000

LOEWDIN ATOMIC CHARGES
----------------------
   0 C :   -0.188824
   1 N :    0.040929
   2 C :   -0.224155
   3 C :   -0.223798
   4 H :    0.122987
   5 H :    0.108029
   6 S :    0.593790
   7 C :   -0.561270
   8 N :    0.139487
   9 C :    0.009365
  10 H :   -0.002787
  11 H :    0.001141
  12 H :    0.052693
  13 H :    0.045831
  14 H :    0.113477
  15 F :   -0.069611
  16 O :   -0.214663
  17 C :   -0.188061
  18 H :    0.113943
  19 H :    0.114384
  20 C :   -0.217392
  21 C :   -0.219853
  22 H :    0.132376
  23 H :    0.085132
  24 H :    0.124262
  25 H :    0.114485
  26 C :   -0.212868
  27 H :    0.112485
  28 H :    0.103321
  29 C :   -0.220487
  30 H :    0.117667
  31 H :    0.101847
  32 C :   -0.210778
  33 H :    0.116160
  34 H :    0.100820
  35 H :    0.110136
  36 H :    0.114571
  37 H :    0.109773
  38 H :    0.111323
  39 O :   -0.255870

  Mayer bond orders larger than 0.100000
B(  0-C ,  1-N ) :   1.1079 B(  0-C ,  7-C ) :  -0.1138 B(  0-C ,  9-C ) :   0.1509
B(  0-C , 12-H ) :  -0.2055 B(  0-C , 17-C ) :   0.8596 B(  0-C , 18-H ) :   0.7819
B(  0-C , 19-H ) :   0.8457 B(  0-C , 29-C ) :   0.1935 B(  1-N ,  7-C ) :   0.9675
B(  1-N , 12-H ) :   0.9660 B(  1-N , 17-C ) :   0.1888 B(  2-C ,  3-C ) :   1.0839
B(  2-C , 20-C ) :   0.4795 B(  2-C , 21-C ) :   0.5124 B(  2-C , 22-H ) :  -0.1221
B(  2-C , 24-H ) :   0.9723 B(  2-C , 25-H ) :   0.9037 B(  3-C ,  4-H ) :   0.8782
B(  3-C ,  5-H ) :   0.9792 B(  3-C ,  6-S ) :   0.8527 B(  3-C , 16-O ) :   0.1612
B(  3-C , 21-C ) :   0.2268 B(  6-S , 15-F ) :   0.9539 B(  6-S , 16-O ) :   1.6101
B(  6-S , 21-C ) :   0.1075 B(  6-S , 39-O ) :   1.6979 B(  7-C ,  8-N ) :   0.9440
B(  7-C ,  9-C ) :   0.9265 B(  7-C , 11-H ) :  -0.1074 B(  7-C , 12-H ) :  -0.2998
B(  8-N , 13-H ) :   0.9248 B(  8-N , 14-H ) :   1.0211 B(  9-C , 10-H ) :   1.0263
B(  9-C , 11-H ) :   1.0444 B( 12-H , 39-O ) :   0.1395 B( 16-O , 39-O ) :   0.1052
B( 17-C , 26-C ) :   1.1699 B( 17-C , 27-H ) :   0.9229 B( 17-C , 28-H ) :   0.8890
B( 17-C , 29-C ) :   0.2470 B( 20-C , 21-C ) :   0.5620 B( 20-C , 26-C ) :   0.1773
B( 20-C , 32-C ) :   1.0756 B( 20-C , 35-H ) :   0.8612 B( 20-C , 36-H ) :   0.9172
B( 21-C , 22-H ) :   0.7319 B( 21-C , 23-H ) :   1.5641 B( 21-C , 29-C ) :   0.1450
B( 21-C , 32-C ) :   0.2500 B( 21-C , 39-O ) :   0.1260 B( 22-H , 23-H ) :   0.1977
B( 23-H , 39-O ) :  -0.1775 B( 26-C , 29-C ) :   0.4052 B( 26-C , 30-H ) :   0.9183
B( 26-C , 31-H ) :   1.0910 B( 26-C , 32-C ) :   0.2210 B( 26-C , 34-H ) :  -0.1041
B( 29-C , 32-C ) :   1.0632 B( 29-C , 33-H ) :   0.9331 B( 29-C , 34-H ) :   0.9889
B( 32-C , 37-H ) :   0.9212 B( 32-C , 38-H ) :   0.9377

Dispersion correction           -0.048456167
FINAL SINGLE POINT ENERGY     -1190.170657758791

DIPOLE MOMENT
-------------
                                X             Y             Z
Electronic contribution:    -16.93551       2.75767     -21.28121
Nuclear contribution   :     17.35766      -5.13497      20.30937
                        -----------------------------------------
Total Dipole Moment    :      0.42215      -2.37730      -0.97184
                        -----------------------------------------
Magnitude (a.u.)       :      2.60274
Magnitude (Debye)      :      6.61563

Rotational constants in cm-1:     0.014431     0.012329     0.007535
Rotational constants in MHz :   432.628327   369.619539   225.898827

                             ****ORCA TERMINATED NORMALLY****
TOTAL RUN TIME: 0 days 0 hours 2 minutes 46 seconds 952 msec
