                         Program Version 5.0.0 -  RELEASE  -
|  1> !PBE D3BJ RIJCOSX def2-TZVPD def2/J TightSCF xyzfile
|  2>
|  3> *xyzfile 0 1 D4.xyz
|  4>
|  5> %MaxCore 64000
|  6>
|  7> %pal nprocs 4
|  8> end
|  9>
| 10> %scf
| 11>   MaxIter 150
| 12> end
| 13>
| 14>
| 15>                          ****END OF INPUT****

CARTESIAN COORDINATES (ANGSTROEM)
---------------------------------
  C      4.490588    1.155899   -2.469290
  C      4.305394    1.222762   -3.908317
  C      4.906458   -3.102816   -5.954844
  C      3.511771   -2.806215   -6.492283
  H      2.736044   -3.373445   -5.973736
  H      3.444904   -3.040831   -7.555281
  S      3.004618   -1.096206   -6.389259
  C      4.631918    2.246365   -4.670958
  N      4.541686    2.143990   -5.987139
  N      5.084086    3.393584   -4.118545
  H      4.920675    3.570501   -3.135870
  H      5.254652    4.197390   -4.706956
  H      3.824530    0.449113   -4.350926
  H      4.343373    1.249318   -6.416646
  H      4.676712    2.956624   -6.574113
  O      4.128856   -0.329647   -6.953717
  F      1.781285   -1.000779   -7.136399
  C      5.942129    0.939500   -2.036893
  H      3.864305    0.328532   -2.136611
  H      4.076233    2.049994   -1.989010
  C      6.462677   -3.117775   -3.944671
  C      5.024977   -3.025679   -4.437625
  H      4.423321   -3.818693   -3.977648
  H      4.579350   -2.087131   -4.108727
  H      5.201533   -4.100207   -6.296905
  H      5.605922   -2.397822   -6.413368
  C      6.559957   -0.356290   -2.559086
  H      5.967976    0.952567   -0.942444
  H      6.547184    1.788331   -2.368849
  C      6.006283   -1.615917   -1.899301
  H      7.642360   -0.318000   -2.402059
  H      6.414855   -0.403433   -3.642587
  C      6.608718   -2.917014   -2.435655
  H      6.190324   -1.561115   -0.820948
  H      4.919250   -1.651245   -2.016586
  H      7.066975   -2.374258   -4.475514
  H      6.887808   -4.089747   -4.215332
  H      6.135197   -3.755573   -1.915159
  H      7.671142   -2.955503   -2.172291
  O      2.851546   -0.783683   -4.956789

 Total Charge           Charge          ....    0
 Multiplicity           Mult            ....    1
 Number of Electrons    NEL             ....  144
 Basis Dimension        Dim             ....  854

ORBITAL ENERGIES
----------------

  NO   OCC          E(Eh)            E(eV)
   0   2.0000     -88.283735     -2402.3226
   1   2.0000     -24.388266      -663.6385
   2   2.0000     -18.774317      -510.8751
   3   2.0000     -18.765808      -510.6436
   4   2.0000     -13.964556      -379.9949
   5   2.0000     -13.946174      -379.4947
   6   2.0000      -9.947468      -270.6844
   7   2.0000      -9.908794      -269.6320
   8   2.0000      -9.890675      -269.1390
   9   2.0000      -9.878167      -268.7986
  10   2.0000      -9.872995      -268.6578
  11   2.0000      -9.866901      -268.4920
  12   2.0000      -9.857209      -268.2283
  13   2.0000      -9.848513      -267.9917
  14   2.0000      -9.843374      -267.8518
  15   2.0000      -9.836726      -267.6709
  16   2.0000      -9.768815      -265.8230
  17   2.0000      -7.879771      -214.4195
  18   2.0000      -5.904047      -160.6573
  19   2.0000      -5.897712      -160.4849
  20   2.0000      -5.897245      -160.4722
  21   2.0000      -1.293516       -35.1984
  22   2.0000      -1.026354       -27.9285
  23   2.0000      -0.933731       -25.4081
  24   2.0000      -0.851015       -23.1573
  25   2.0000      -0.769748       -20.9459
  26   2.0000      -0.765669       -20.8349
  27   2.0000      -0.729790       -19.8586
  28   2.0000      -0.702776       -19.1235
  29   2.0000      -0.684282       -18.6203
  30   2.0000      -0.656769       -17.8716
  31   2.0000      -0.631623       -17.1873
  32   2.0000      -0.600467       -16.3395
  33   2.0000      -0.573899       -15.6166
  34   2.0000      -0.552268       -15.0280
  35   2.0000      -0.538297       -14.6478
  36   2.0000      -0.527892       -14.3647
  37   2.0000      -0.526917       -14.3381
  38   2.0000      -0.511758       -13.9256
  39   2.0000      -0.495823       -13.4920
  40   2.0000      -0.480226       -13.0676
  41   2.0000      -0.467733       -12.7277
  42   2.0000      -0.450234       -12.2515
  43   2.0000      -0.445013       -12.1094
  44   2.0000      -0.429548       -11.6886
  45   2.0000      -0.417828       -11.3697
  46   2.0000      -0.417173       -11.3519
  47   2.0000      -0.404617       -11.0102
  48   2.0000      -0.398039       -10.8312
  49   2.0000      -0.385698       -10.4954
  50   2.0000      -0.377941       -10.2843
  51   2.0000      -0.366680        -9.9779
  52   2.0000      -0.365261        -9.9392
  53   2.0000      -0.357662        -9.7325
  54   2.0000      -0.339107        -9.2276
  55   2.0000      -0.333393        -9.0721
  56   2.0000      -0.329731        -8.9724
  57   2.0000      -0.323380        -8.7996
  58   2.0000      -0.309973        -8.4348
  59   2.0000      -0.304775        -8.2933
  60   2.0000      -0.302736        -8.2379
  61   2.0000      -0.294177        -8.0050
  62   2.0000      -0.286828        -7.8050
  63   2.0000      -0.279798        -7.6137
  64   2.0000      -0.276192        -7.5156
  65   2.0000      -0.275259        -7.4902
  66   2.0000      -0.262838        -7.1522
  67   2.0000      -0.255858        -6.9623
  68   2.0000      -0.247070        -6.7231
  69   2.0000      -0.232836        -6.3358
  70   2.0000      -0.196660        -5.3514
  71   2.0000      -0.105907        -2.8819
  72   0.0000      -0.035788        -0.9738
  73   0.0000      -0.021240        -0.5780
  74   0.0000      -0.005408        -0.1471
  75   0.0000      -0.000772        -0.0210
  76   0.0000       0.001819         0.0495

MULLIKEN ATOMIC CHARGES
-----------------------
   0 C :   -0.746994
   1 C :   -1.358542
   2 C :   -0.384652
   3 C :   -0.574028
   4 H :    0.265254
   5 H :    0.260123
   6 S :    1.143004
   7 C :    0.197106
   8 N :   -0.116343
   9 N :   -0.194503
  10 H :    0.165783
  11 H :    0.090837
  12 H :    1.329060
  13 H :    0.127081
  14 H :    0.104575
  15 O :   -0.719185
  16 F :   -0.064018
  17 C :   -0.398314
  18 H :    0.144578
  19 H :    0.250876
  20 C :   -0.360298
  21 C :   -0.047510
  22 H :    0.180369
  23 H :    0.063348
  24 H :    0.157582
  25 H :    0.186811
  26 C :   -0.231653
  27 H :    0.132166
  28 H :    0.271869
  29 C :   -0.350705
  30 H :    0.116435
  31 H :    0.185880
  32 C :   -0.431205
  33 H :    0.160457
  34 H :    0.190353
  35 H :    0.290343
  36 H :    0.168640
  37 H :    0.160686
  38 H :    0.165116
  39 O :   -0.530383
Sum of atomic charges:   -0.0000000

LOEWDIN ATOMIC CHARGES
----------------------
   0 C :   -0.226928
   1 C :   -0.139583
   2 C :   -0.214651
   3 C :   -0.235088
   4 H :    0.111660
   5 H :    0.103724
   6 S :    0.613747
   7 C :   -0.531613
   8 N :    0.132260
   9 N :    0.140074
  10 H :    0.089771
  11 H :    0.088995
  12 H :    0.008110
  13 H :    0.027553
  14 H :    0.094832
  15 O :   -0.256984
  16 F :   -0.013601
  17 C :   -0.208591
  18 H :    0.104902
  19 H :    0.100158
  20 C :   -0.217022
  21 C :   -0.215243
  22 H :    0.129978
  23 H :    0.090416
  24 H :    0.124908
  25 H :    0.118239
  26 C :   -0.213867
  27 H :    0.104337
  28 H :    0.102476
  29 C :   -0.219033
  30 H :    0.114641
  31 H :    0.104265
  32 C :   -0.212996
  33 H :    0.114324
  34 H :    0.102306
  35 H :    0.111424
  36 H :    0.112795
  37 H :    0.107948
  38 H :    0.109559
  39 O :   -0.258201

  Mayer bond orders larger than 0.100000
B(  0-C ,  1-C ) :   1.4045 B(  0-C , 17-C ) :   0.7966 B(  0-C , 18-H ) :   1.0412
B(  0-C , 19-H ) :   0.8206 B(  0-C , 29-C ) :   0.1541 B(  1-C ,  6-S ) :  -0.1135
B(  1-C ,  7-C ) :   0.5235 B(  1-C , 10-H ) :  -0.1131 B(  1-C , 12-H ) :  -1.1808
B(  1-C , 17-C ) :   0.3553 B(  1-C , 26-C ) :   0.1040 B(  1-C , 39-O ) :   0.2445
B(  2-C ,  3-C ) :   1.1372 B(  2-C , 20-C ) :   0.4972 B(  2-C , 21-C ) :   0.5625
B(  2-C , 22-H ) :  -0.1338 B(  2-C , 24-H ) :   0.9697 B(  2-C , 25-H ) :   0.8609
B(  3-C ,  4-H ) :   0.8779 B(  3-C ,  5-H ) :   0.8812 B(  3-C ,  6-S ) :   0.8489
B(  3-C , 15-O ) :   0.1115 B(  3-C , 16-F ) :   0.1208 B(  3-C , 21-C ) :   0.2410
B(  3-C , 39-O ) :   0.1091 B(  6-S , 15-O ) :   1.5259 B(  6-S , 16-F ) :   0.9621
B(  6-S , 39-O ) :   1.7087 B(  7-C ,  8-N ) :   1.0424 B(  7-C ,  9-N ) :   1.1817
B(  7-C , 10-H ) :   0.1434 B(  7-C , 12-H ) :   0.6338 B(  8-N , 12-H ) :   0.1092
B(  8-N , 13-H ) :   0.9312 B(  8-N , 14-H ) :   1.0348 B(  9-N , 10-H ) :   0.9618
B(  9-N , 11-H ) :   1.0539 B(  9-N , 17-C ) :   0.1415 B( 12-H , 39-O ) :  -0.3595
B( 15-O , 39-O ) :   0.1587 B( 17-C , 26-C ) :   1.2336 B( 17-C , 27-H ) :   0.9856
B( 17-C , 28-H ) :   0.8191 B( 17-C , 29-C ) :   0.2774 B( 20-C , 21-C ) :   0.5663
B( 20-C , 26-C ) :   0.2010 B( 20-C , 32-C ) :   1.0572 B( 20-C , 35-H ) :   0.8539
B( 20-C , 36-H ) :   0.9216 B( 21-C , 22-H ) :   0.7340 B( 21-C , 23-H ) :   1.5199
B( 21-C , 29-C ) :   0.1556 B( 21-C , 32-C ) :   0.2238 B( 21-C , 39-O ) :   0.1258
B( 22-H , 23-H ) :   0.1957 B( 23-H , 39-O ) :  -0.1295 B( 26-C , 29-C ) :   0.4239
B( 26-C , 30-H ) :   0.9373 B( 26-C , 31-H ) :   1.0441 B( 26-C , 32-C ) :   0.1765
B( 26-C , 34-H ) :  -0.1108 B( 29-C , 32-C ) :   1.0535 B( 29-C , 33-H ) :   0.9325
B( 29-C , 34-H ) :   1.0024 B( 32-C , 37-H ) :   0.9289 B( 32-C , 38-H ) :   0.9415

Dispersion correction           -0.049033911
FINAL SINGLE POINT ENERGY     -1190.161863635961

DIPOLE MOMENT
-------------
                                X             Y             Z
Electronic contribution:    -20.56459       3.58094     -21.95609
Nuclear contribution   :     19.99734      -4.67125      20.55522
                        -----------------------------------------
Total Dipole Moment    :     -0.56725      -1.09031      -1.40087
                        -----------------------------------------
Magnitude (a.u.)       :      1.86359
Magnitude (Debye)      :      4.73688

Rotational constants in cm-1:     0.014213     0.012058     0.007367
Rotational constants in MHz :   426.102180   361.491761   220.844824

                             ****ORCA TERMINATED NORMALLY****
TOTAL RUN TIME: 0 days 0 hours 2 minutes 32 seconds 217 msec
