                         Program Version 5.0.0 -  RELEASE  -
|  1> !PBE D3BJ RIJCOSX def2-TZVPD def2/J TightSCF xyzfile
|  2>
|  3> *xyzfile 0 1 D5.xyz
|  4>
|  5> %MaxCore 64000
|  6>
|  7> %pal nprocs 4
|  8> end
|  9>
| 10> %scf
| 11>   MaxIter 150
| 12> end
| 13>
| 14>
| 15>                          ****END OF INPUT****

CARTESIAN COORDINATES (ANGSTROEM)
---------------------------------
  C      4.490588    1.155899   -2.469290
  N      4.305394    1.222762   -3.908317
  C      4.906458   -3.102816   -5.954844
  C      3.511771   -2.806215   -6.492283
  H      2.736044   -3.373445   -5.973736
  H      3.444904   -3.040831   -7.555281
  S      3.004618   -1.096206   -6.389259
  C      4.631918    2.246365   -4.670958
  C      4.541686    2.143990   -5.987139
  N      5.084086    3.393584   -4.118545
  H      4.920675    3.570501   -3.135870
  H      5.254652    4.197390   -4.706956
  H      3.824530    0.449113   -4.350926
  H      4.343373    1.249318   -6.416646
  H      4.676712    2.956624   -6.574113
  O      4.128856   -0.329647   -6.953717
  F      1.781285   -1.000779   -7.136399
  C      5.942129    0.939500   -2.036893
  H      3.864305    0.328532   -2.136611
  H      4.076233    2.049994   -1.989010
  C      6.462677   -3.117775   -3.944671
  C      5.024977   -3.025679   -4.437625
  H      4.423321   -3.818693   -3.977648
  H      4.579350   -2.087131   -4.108727
  H      5.201533   -4.100207   -6.296905
  H      5.605922   -2.397822   -6.413368
  C      6.559957   -0.356290   -2.559086
  H      5.967976    0.952567   -0.942444
  H      6.547184    1.788331   -2.368849
  C      6.006283   -1.615917   -1.899301
  H      7.642360   -0.318000   -2.402059
  H      6.414855   -0.403433   -3.642587
  C      6.608718   -2.917014   -2.435655
  H      6.190324   -1.561115   -0.820948
  H      4.919250   -1.651245   -2.016586
  H      7.066975   -2.374258   -4.475514
  H      6.887808   -4.089747   -4.215332
  H      6.135197   -3.755573   -1.915159
  H      7.671142   -2.955503   -2.172291
  O      2.851546   -0.783683   -4.956789

 Total Charge           Charge          ....    0
 Multiplicity           Mult            ....    1
 Number of Electrons    NEL             ....  144
 Basis Dimension        Dim             ....  854

ORBITAL ENERGIES
----------------

  NO   OCC          E(Eh)            E(eV)
   0   2.0000     -88.283017     -2402.3030
   1   2.0000     -24.387177      -663.6088
   2   2.0000     -18.773280      -510.8469
   3   2.0000     -18.763517      -510.5813
   4   2.0000     -13.960590      -379.8870
   5   2.0000     -13.949767      -379.5924
   6   2.0000      -9.947807      -270.6936
   7   2.0000      -9.911254      -269.6989
   8   2.0000      -9.897417      -269.3224
   9   2.0000      -9.890543      -269.1354
  10   2.0000      -9.884785      -268.9787
  11   2.0000      -9.879895      -268.8456
  12   2.0000      -9.876177      -268.7444
  13   2.0000      -9.870696      -268.5953
  14   2.0000      -9.865080      -268.4425
  15   2.0000      -9.864453      -268.4254
  16   2.0000      -9.756009      -265.4745
  17   2.0000      -7.878991      -214.3983
  18   2.0000      -5.903273      -160.6362
  19   2.0000      -5.896935      -160.4638
  20   2.0000      -5.896461      -160.4509
  21   2.0000      -1.292170       -35.1617
  22   2.0000      -1.025169       -27.8963
  23   2.0000      -0.932360       -25.3708
  24   2.0000      -0.857940       -23.3457
  25   2.0000      -0.780057       -21.2264
  26   2.0000      -0.770083       -20.9550
  27   2.0000      -0.736928       -20.0528
  28   2.0000      -0.710324       -19.3289
  29   2.0000      -0.683303       -18.5936
  30   2.0000      -0.659625       -17.9493
  31   2.0000      -0.633650       -17.2425
  32   2.0000      -0.605429       -16.4746
  33   2.0000      -0.580279       -15.7902
  34   2.0000      -0.560028       -15.2391
  35   2.0000      -0.538608       -14.6563
  36   2.0000      -0.532913       -14.5013
  37   2.0000      -0.527574       -14.3560
  38   2.0000      -0.519892       -14.1470
  39   2.0000      -0.504297       -13.7226
  40   2.0000      -0.492860       -13.4114
  41   2.0000      -0.461866       -12.5680
  42   2.0000      -0.452575       -12.3152
  43   2.0000      -0.440119       -11.9763
  44   2.0000      -0.428985       -11.6733
  45   2.0000      -0.423427       -11.5220
  46   2.0000      -0.415649       -11.3104
  47   2.0000      -0.413727       -11.2581
  48   2.0000      -0.400565       -10.8999
  49   2.0000      -0.397081       -10.8051
  50   2.0000      -0.385058       -10.4780
  51   2.0000      -0.378674       -10.3042
  52   2.0000      -0.368395       -10.0245
  53   2.0000      -0.352027        -9.5792
  54   2.0000      -0.344188        -9.3658
  55   2.0000      -0.342206        -9.3119
  56   2.0000      -0.332858        -9.0575
  57   2.0000      -0.327478        -8.9111
  58   2.0000      -0.316524        -8.6131
  59   2.0000      -0.313249        -8.5239
  60   2.0000      -0.311620        -8.4796
  61   2.0000      -0.302213        -8.2236
  62   2.0000      -0.296477        -8.0675
  63   2.0000      -0.291450        -7.9308
  64   2.0000      -0.283420        -7.7122
  65   2.0000      -0.275874        -7.5069
  66   2.0000      -0.271785        -7.3956
  67   2.0000      -0.269303        -7.3281
  68   2.0000      -0.264569        -7.1993
  69   2.0000      -0.249886        -6.7997
  70   2.0000      -0.187881        -5.1125
  71   2.0000      -0.105207        -2.8628
  72   0.0000      -0.034873        -0.9489
  73   0.0000      -0.022537        -0.6133
  74   0.0000      -0.006169        -0.1679
  75   0.0000      -0.002731        -0.0743
  76   0.0000       0.000224         0.0061

MULLIKEN ATOMIC CHARGES
-----------------------
   0 C :   -0.788792
   1 N :    0.061740
   2 C :   -0.385177
   3 C :   -0.586675
   4 H :    0.264603
   5 H :    0.269532
   6 S :    1.072851
   7 C :    1.078279
   8 C :   -2.106997
   9 N :   -0.241726
  10 H :    0.139675
  11 H :    0.131364
  12 H :    0.083142
  13 H :    0.882529
  14 H :    0.147268
  15 O :   -0.561044
  16 F :   -0.064789
  17 C :   -0.203046
  18 H :    0.184615
  19 H :    0.247887
  20 C :   -0.330670
  21 C :   -0.120013
  22 H :    0.199700
  23 H :    0.065871
  24 H :    0.163515
  25 H :    0.188650
  26 C :   -0.181460
  27 H :    0.186924
  28 H :    0.264042
  29 C :   -0.373350
  30 H :    0.114982
  31 H :    0.144944
  32 C :   -0.433797
  33 H :    0.158800
  34 H :    0.212088
  35 H :    0.270882
  36 H :    0.165674
  37 H :    0.163740
  38 H :    0.164214
  39 O :   -0.649973
Sum of atomic charges:   -0.0000000

LOEWDIN ATOMIC CHARGES
----------------------
   0 C :   -0.196305
   1 N :    0.046239
   2 C :   -0.213742
   3 C :   -0.236397
   4 H :    0.109871
   5 H :    0.105265
   6 S :    0.612975
   7 C :   -0.553228
   8 C :    0.008025
   9 N :    0.131126
  10 H :    0.080151
  11 H :    0.101445
  12 H :    0.061079
  13 H :   -0.048537
  14 H :    0.009923
  15 O :   -0.255818
  16 F :   -0.010263
  17 C :   -0.193673
  18 H :    0.113370
  19 H :    0.107057
  20 C :   -0.215783
  21 C :   -0.216843
  22 H :    0.130163
  23 H :    0.087106
  24 H :    0.125505
  25 H :    0.119653
  26 C :   -0.210789
  27 H :    0.108976
  28 H :    0.103347
  29 C :   -0.220928
  30 H :    0.117336
  31 H :    0.107144
  32 C :   -0.211256
  33 H :    0.114999
  34 H :    0.100754
  35 H :    0.112354
  36 H :    0.114247
  37 H :    0.109171
  38 H :    0.110799
  39 O :   -0.264517

  Mayer bond orders larger than 0.100000
B(  0-C ,  1-N ) :   1.0682 B(  0-C ,  7-C ) :  -0.1518 B(  0-C ,  9-N ) :   0.1277
B(  0-C , 12-H ) :  -0.1184 B(  0-C , 17-C ) :   0.8216 B(  0-C , 18-H ) :   0.9221
B(  0-C , 19-H ) :   0.8132 B(  0-C , 29-C ) :   0.1886 B(  1-N ,  7-C ) :   1.0172
B(  1-N , 12-H ) :   0.9669 B(  1-N , 17-C ) :   0.1546 B(  2-C ,  3-C ) :   1.1472
B(  2-C , 20-C ) :   0.4913 B(  2-C , 21-C ) :   0.5799 B(  2-C , 22-H ) :  -0.1262
B(  2-C , 24-H ) :   0.9629 B(  2-C , 25-H ) :   0.8687 B(  3-C ,  4-H ) :   0.8751
B(  3-C ,  5-H ) :   0.8851 B(  3-C ,  6-S ) :   0.8444 B(  3-C , 15-O ) :   0.1082
B(  3-C , 16-F ) :   0.1120 B(  3-C , 21-C ) :   0.2638 B(  3-C , 39-O ) :   0.1160
B(  6-S , 15-O ) :   1.6222 B(  6-S , 16-F ) :   0.9701 B(  6-S , 39-O ) :   1.6884
B(  7-C ,  8-C ) :   0.5445 B(  7-C ,  9-N ) :   1.0030 B(  7-C , 12-H ) :  -0.2784
B(  7-C , 14-H ) :  -0.2243 B(  8-C , 13-H ) :   0.2345 B(  8-C , 14-H ) :   1.2417
B(  8-C , 15-O ) :   0.1080 B(  9-N , 10-H ) :   1.0011 B(  9-N , 11-H ) :   1.0228
B( 13-H , 14-H ) :   0.1279 B( 13-H , 15-O ) :  -0.2358 B( 15-O , 39-O ) :   0.1781
B( 17-C , 26-C ) :   1.1731 B( 17-C , 27-H ) :   0.9734 B( 17-C , 28-H ) :   0.8552
B( 17-C , 29-C ) :   0.2567 B( 20-C , 21-C ) :   0.5507 B( 20-C , 26-C ) :   0.1799
B( 20-C , 32-C ) :   1.0698 B( 20-C , 35-H ) :   0.8641 B( 20-C , 36-H ) :   0.9168
B( 21-C , 22-H ) :   0.7378 B( 21-C , 23-H ) :   1.5803 B( 21-C , 29-C ) :   0.1389
B( 21-C , 32-C ) :   0.2466 B( 21-C , 39-O ) :   0.1422 B( 22-H , 23-H ) :   0.1747
B( 23-H , 39-O ) :  -0.1688 B( 26-C , 29-C ) :   0.3818 B( 26-C , 30-H ) :   0.9220
B( 26-C , 31-H ) :   1.0657 B( 26-C , 32-C ) :   0.2242 B( 26-C , 34-H ) :  -0.1098
B( 29-C , 32-C ) :   1.0648 B( 29-C , 33-H ) :   0.9335 B( 29-C , 34-H ) :   0.9891
B( 32-C , 37-H ) :   0.9241 B( 32-C , 38-H ) :   0.9361

Dispersion correction           -0.048812875
FINAL SINGLE POINT ENERGY     -1190.151962034023

DIPOLE MOMENT
-------------
                                X             Y             Z
Electronic contribution:    -20.58715       2.72050     -20.17369
Nuclear contribution   :     20.03262      -4.53368      20.24480
                        -----------------------------------------
Total Dipole Moment    :     -0.55453      -1.81319       0.07111
                        -----------------------------------------
Magnitude (a.u.)       :      1.89742
Magnitude (Debye)      :      4.82286

Rotational constants in cm-1:     0.014367     0.012055     0.007393
Rotational constants in MHz :   430.711297   361.391195   221.649333

                             ****ORCA TERMINATED NORMALLY****
TOTAL RUN TIME: 0 days 0 hours 2 minutes 33 seconds 949 msec
