                         Program Version 5.0.0 -  RELEASE  -
|  1> !PBE D3BJ RIJCOSX def2-TZVPD def2/J TightSCF xyzfile
|  2>
|  3> *xyzfile 0 1 D6.xyz
|  4>
|  5> %MaxCore 64000
|  6>
|  7> %pal nprocs 4
|  8> end
|  9>
| 10> %scf
| 11>   MaxIter 150
| 12> end
| 13>
| 14>
| 15>                          ****END OF INPUT****

CARTESIAN COORDINATES (ANGSTROEM)
---------------------------------
  C      4.490588    1.155899   -2.469290
  N      4.305394    1.222762   -3.908317
  C      4.906458   -3.102816   -5.954844
  C      3.511771   -2.806215   -6.492283
  H      2.736044   -3.373445   -5.973736
  H      3.444904   -3.040831   -7.555281
  S      3.004618   -1.096206   -6.389259
  C      4.631918    2.246365   -4.670958
  N      4.541686    2.143990   -5.987139
  C      5.084086    3.393584   -4.118545
  H      4.920675    3.570501   -3.135870
  H      5.254652    4.197390   -4.706956
  H      3.824530    0.449113   -4.350926
  H      4.343373    1.249318   -6.416646
  H      4.676712    2.956624   -6.574113
  O      4.128856   -0.329647   -6.953717
  F      1.781285   -1.000779   -7.136399
  C      5.942129    0.939500   -2.036893
  H      3.864305    0.328532   -2.136611
  H      4.076233    2.049994   -1.989010
  C      6.462677   -3.117775   -3.944671
  C      5.024977   -3.025679   -4.437625
  H      4.423321   -3.818693   -3.977648
  H      4.579350   -2.087131   -4.108727
  H      5.201533   -4.100207   -6.296905
  H      5.605922   -2.397822   -6.413368
  C      6.559957   -0.356290   -2.559086
  H      5.967976    0.952567   -0.942444
  H      6.547184    1.788331   -2.368849
  C      6.006283   -1.615917   -1.899301
  H      7.642360   -0.318000   -2.402059
  H      6.414855   -0.403433   -3.642587
  C      6.608718   -2.917014   -2.435655
  H      6.190324   -1.561115   -0.820948
  H      4.919250   -1.651245   -2.016586
  H      7.066975   -2.374258   -4.475514
  H      6.887808   -4.089747   -4.215332
  H      6.135197   -3.755573   -1.915159
  H      7.671142   -2.955503   -2.172291
  O      2.851546   -0.783683   -4.956789

 Total Charge           Charge          ....    0
 Multiplicity           Mult            ....    1
 Number of Electrons    NEL             ....  144
 Basis Dimension        Dim             ....  854

ORBITAL ENERGIES
----------------

  NO   OCC          E(Eh)            E(eV)
   0   2.0000     -88.301866     -2402.8159
   1   2.0000     -24.403571      -664.0549
   2   2.0000     -18.788937      -511.2730
   3   2.0000     -18.788769      -511.2684
   4   2.0000     -13.951723      -379.6457
   5   2.0000     -13.944820      -379.4578
   6   2.0000      -9.961330      -271.0616
   7   2.0000      -9.920699      -269.9559
   8   2.0000      -9.891549      -269.1627
   9   2.0000      -9.890755      -269.1411
  10   2.0000      -9.889467      -269.1061
  11   2.0000      -9.883278      -268.9377
  12   2.0000      -9.876806      -268.7616
  13   2.0000      -9.868898      -268.5464
  14   2.0000      -9.861035      -268.3324
  15   2.0000      -9.855026      -268.1689
  16   2.0000      -9.767341      -265.7829
  17   2.0000      -7.897876      -214.9121
  18   2.0000      -5.922086      -161.1481
  19   2.0000      -5.916020      -160.9831
  20   2.0000      -5.915231      -160.9616
  21   2.0000      -1.308697       -35.6115
  22   2.0000      -1.044904       -28.4333
  23   2.0000      -0.952802       -25.9271
  24   2.0000      -0.856849       -23.3160
  25   2.0000      -0.781931       -21.2774
  26   2.0000      -0.778986       -21.1973
  27   2.0000      -0.740559       -20.1516
  28   2.0000      -0.711809       -19.3693
  29   2.0000      -0.687364       -18.7041
  30   2.0000      -0.660666       -17.9776
  31   2.0000      -0.626927       -17.0596
  32   2.0000      -0.611507       -16.6400
  33   2.0000      -0.591917       -16.1069
  34   2.0000      -0.567620       -15.4457
  35   2.0000      -0.553970       -15.0743
  36   2.0000      -0.541395       -14.7321
  37   2.0000      -0.533552       -14.5187
  38   2.0000      -0.528570       -14.3831
  39   2.0000      -0.499816       -13.6007
  40   2.0000      -0.481596       -13.1049
  41   2.0000      -0.470554       -12.8044
  42   2.0000      -0.463525       -12.6131
  43   2.0000      -0.452276       -12.3071
  44   2.0000      -0.443313       -12.0632
  45   2.0000      -0.429352       -11.6833
  46   2.0000      -0.423604       -11.5269
  47   2.0000      -0.414184       -11.2705
  48   2.0000      -0.404841       -11.0163
  49   2.0000      -0.391554       -10.6547
  50   2.0000      -0.384574       -10.4648
  51   2.0000      -0.381757       -10.3881
  52   2.0000      -0.370798       -10.0899
  53   2.0000      -0.360297        -9.8042
  54   2.0000      -0.346440        -9.4271
  55   2.0000      -0.341088        -9.2815
  56   2.0000      -0.339712        -9.2440
  57   2.0000      -0.327511        -8.9120
  58   2.0000      -0.321556        -8.7500
  59   2.0000      -0.314709        -8.5637
  60   2.0000      -0.308613        -8.3978
  61   2.0000      -0.303528        -8.2594
  62   2.0000      -0.301076        -8.1927
  63   2.0000      -0.294749        -8.0205
  64   2.0000      -0.289362        -7.8739
  65   2.0000      -0.287165        -7.8142
  66   2.0000      -0.281848        -7.6695
  67   2.0000      -0.269690        -7.3386
  68   2.0000      -0.267156        -7.2697
  69   2.0000      -0.259083        -7.0500
  70   2.0000      -0.178622        -4.8605
  71   2.0000      -0.107238        -2.9181
  72   0.0000      -0.048802        -1.3280
  73   0.0000      -0.031944        -0.8692
  74   0.0000      -0.010434        -0.2839
  75   0.0000      -0.008715        -0.2372
  76   0.0000      -0.004294        -0.1168

MULLIKEN ATOMIC CHARGES
-----------------------
   0 C :   -0.810728
   1 N :    0.029540
   2 C :   -0.373084
   3 C :   -0.568554
   4 H :    0.270227
   5 H :    0.270077
   6 S :    1.088988
   7 C :    0.858370
   8 N :   -0.090697
   9 C :   -1.436188
  10 H :    0.240649
  11 H :    0.269495
  12 H :    0.182397
  13 H :    0.150456
  14 H :    0.109275
  15 O :   -0.712864
  16 F :   -0.066093
  17 C :   -0.258023
  18 H :    0.230784
  19 H :    0.224209
  20 C :   -0.336877
  21 C :   -0.160382
  22 H :    0.204130
  23 H :    0.096069
  24 H :    0.160390
  25 H :    0.194565
  26 C :   -0.157906
  27 H :    0.195893
  28 H :    0.278265
  29 C :   -0.355980
  30 H :    0.118035
  31 H :    0.086827
  32 C :   -0.443813
  33 H :    0.157977
  34 H :    0.199977
  35 H :    0.283684
  36 H :    0.166432
  37 H :    0.164172
  38 H :    0.166422
  39 O :   -0.626114
Sum of atomic charges:   -0.0000000

LOEWDIN ATOMIC CHARGES
----------------------
   0 C :   -0.191953
   1 N :    0.043747
   2 C :   -0.212892
   3 C :   -0.231972
   4 H :    0.112928
   5 H :    0.106343
   6 S :    0.619060
   7 C :   -0.563079
   8 N :    0.137748
   9 C :    0.002384
  10 H :   -0.007157
  11 H :   -0.001654
  12 H :    0.056281
  13 H :    0.020970
  14 H :    0.109368
  15 O :   -0.255428
  16 F :   -0.006955
  17 C :   -0.188782
  18 H :    0.112108
  19 H :    0.112727
  20 C :   -0.215737
  21 C :   -0.216566
  22 H :    0.130837
  23 H :    0.087290
  24 H :    0.126954
  25 H :    0.119251
  26 C :   -0.212034
  27 H :    0.111344
  28 H :    0.103110
  29 C :   -0.221373
  30 H :    0.117320
  31 H :    0.104304
  32 C :   -0.211311
  33 H :    0.115557
  34 H :    0.100103
  35 H :    0.112109
  36 H :    0.114280
  37 H :    0.108949
  38 H :    0.111192
  39 O :   -0.259367

  Mayer bond orders larger than 0.100000
B(  0-C ,  1-N ) :   1.0941 B(  0-C ,  7-C ) :  -0.1102 B(  0-C ,  9-C ) :   0.1600
B(  0-C , 12-H ) :  -0.2025 B(  0-C , 17-C ) :   0.8649 B(  0-C , 18-H ) :   0.7882
B(  0-C , 19-H ) :   0.8467 B(  0-C , 29-C ) :   0.1908 B(  1-N ,  7-C ) :   0.9799
B(  1-N , 12-H ) :   0.9482 B(  1-N , 17-C ) :   0.1973 B(  2-C ,  3-C ) :   1.1494
B(  2-C , 20-C ) :   0.4918 B(  2-C , 21-C ) :   0.5728 B(  2-C , 22-H ) :  -0.1263
B(  2-C , 24-H ) :   0.9622 B(  2-C , 25-H ) :   0.8644 B(  3-C ,  4-H ) :   0.8738
B(  3-C ,  5-H ) :   0.8785 B(  3-C ,  6-S ) :   0.8409 B(  3-C , 15-O ) :   0.1137
B(  3-C , 16-F ) :   0.1177 B(  3-C , 21-C ) :   0.2660 B(  3-C , 39-O ) :   0.1137
B(  6-S , 15-O ) :   1.5477 B(  6-S , 16-F ) :   0.9807 B(  6-S , 39-O ) :   1.7188
B(  7-C ,  8-N ) :   0.9827 B(  7-C ,  9-C ) :   0.9350 B(  7-C , 12-H ) :  -0.2728
B(  8-N , 13-H ) :   0.9119 B(  8-N , 14-H ) :   1.0208 B(  9-C , 10-H ) :   1.0345
B(  9-C , 11-H ) :   1.0402 B( 15-O , 39-O ) :   0.1501 B( 17-C , 26-C ) :   1.1731
B( 17-C , 27-H ) :   0.9259 B( 17-C , 28-H ) :   0.8920 B( 17-C , 29-C ) :   0.2536
B( 20-C , 21-C ) :   0.5651 B( 20-C , 26-C ) :   0.1784 B( 20-C , 32-C ) :   1.0748
B( 20-C , 35-H ) :   0.8572 B( 20-C , 36-H ) :   0.9161 B( 21-C , 22-H ) :   0.7343
B( 21-C , 23-H ) :   1.5642 B( 21-C , 29-C ) :   0.1417 B( 21-C , 32-C ) :   0.2492
B( 21-C , 39-O ) :   0.1396 B( 22-H , 23-H ) :   0.1840 B( 23-H , 39-O ) :  -0.1679
B( 26-C , 29-C ) :   0.3904 B( 26-C , 30-H ) :   0.9189 B( 26-C , 31-H ) :   1.0879
B( 26-C , 32-C ) :   0.2223 B( 26-C , 34-H ) :  -0.1038 B( 29-C , 32-C ) :   1.0603
B( 29-C , 33-H ) :   0.9346 B( 29-C , 34-H ) :   0.9896 B( 32-C , 37-H ) :   0.9227
B( 32-C , 38-H ) :   0.9365

Dispersion correction           -0.048747806
FINAL SINGLE POINT ENERGY     -1190.166055007434

DIPOLE MOMENT
-------------
                                X             Y             Z
Electronic contribution:    -21.10594       1.39694     -21.83506
Nuclear contribution   :     20.11362      -4.34709      20.52383
                        -----------------------------------------
Total Dipole Moment    :     -0.99232      -2.95014      -1.31124
                        -----------------------------------------
Magnitude (a.u.)       :      3.37748
Magnitude (Debye)      :      8.58488

Rotational constants in cm-1:     0.014449     0.012108     0.007447
Rotational constants in MHz :   433.168496   362.988632   223.260798

                             ****ORCA TERMINATED NORMALLY****
TOTAL RUN TIME: 0 days 0 hours 2 minutes 30 seconds 984 msec
