                         Program Version 5.0.0 -  RELEASE  -
|  1> !PBE D3BJ RIJCOSX def2-TZVPD def2/J TightSCF xyzfile
|  2>
|  3> *xyzfile 0 1 D7.xyz
|  4>
|  5> %MaxCore 64000
|  6>
|  7> %pal nprocs 4
|  8> end
|  9>
| 10> %scf
| 11>   MaxIter 150
| 12> end
| 13>
| 14>
| 15>                          ****END OF INPUT****

CARTESIAN COORDINATES (ANGSTROEM)
---------------------------------
  C      4.490588    1.155899   -2.469290
  C      4.305394    1.222762   -3.908317
  C      4.906458   -3.102816   -5.954844
  C      3.511771   -2.806215   -6.492283
  H      2.736044   -3.373445   -5.973736
  H      3.444904   -3.040831   -7.555281
  S      3.004618   -1.096206   -6.389259
  C      4.631918    2.246365   -4.670958
  N      4.541686    2.143990   -5.987139
  N      5.084086    3.393584   -4.118545
  H      4.920675    3.570501   -3.135870
  H      5.254652    4.197390   -4.706956
  H      3.824530    0.449113   -4.350926
  H      4.343373    1.249318   -6.416646
  H      4.676712    2.956624   -6.574113
  O      4.128856   -0.329647   -6.953717
  O      1.781285   -1.000779   -7.136399
  C      5.942129    0.939500   -2.036893
  H      3.864305    0.328532   -2.136611
  H      4.076233    2.049994   -1.989010
  C      6.462677   -3.117775   -3.944671
  C      5.024977   -3.025679   -4.437625
  H      4.423321   -3.818693   -3.977648
  H      4.579350   -2.087131   -4.108727
  H      5.201533   -4.100207   -6.296905
  H      5.605922   -2.397822   -6.413368
  C      6.559957   -0.356290   -2.559086
  H      5.967976    0.952567   -0.942444
  H      6.547184    1.788331   -2.368849
  C      6.006283   -1.615917   -1.899301
  H      7.642360   -0.318000   -2.402059
  H      6.414855   -0.403433   -3.642587
  C      6.608718   -2.917014   -2.435655
  H      6.190324   -1.561115   -0.820948
  H      4.919250   -1.651245   -2.016586
  H      7.066975   -2.374258   -4.475514
  H      6.887808   -4.089747   -4.215332
  H      6.135197   -3.755573   -1.915159
  H      7.671142   -2.955503   -2.172291
  F      2.851546   -0.783683   -4.956789

 Total Charge           Charge          ....    0
 Multiplicity           Mult            ....    1
 Number of Electrons    NEL             ....  144
 Basis Dimension        Dim             ....  854

ORBITAL ENERGIES
----------------

  NO   OCC          E(Eh)            E(eV)
   0   2.0000     -88.278181     -2402.1714
   1   2.0000     -24.364810      -663.0002
   2   2.0000     -18.773885      -510.8634
   3   2.0000     -18.770961      -510.7838
   4   2.0000     -13.976351      -380.3159
   5   2.0000     -13.955250      -379.7416
   6   2.0000      -9.944310      -270.5984
   7   2.0000      -9.907471      -269.5960
   8   2.0000      -9.905935      -269.5542
   9   2.0000      -9.889558      -269.1086
  10   2.0000      -9.880555      -268.8636
  11   2.0000      -9.874573      -268.7008
  12   2.0000      -9.866856      -268.4908
  13   2.0000      -9.858290      -268.2577
  14   2.0000      -9.854003      -268.1411
  15   2.0000      -9.850958      -268.0582
  16   2.0000      -9.789600      -266.3886
  17   2.0000      -7.874287      -214.2702
  18   2.0000      -5.898689      -160.5115
  19   2.0000      -5.892226      -160.3356
  20   2.0000      -5.891721      -160.3219
  21   2.0000      -1.262015       -34.3412
  22   2.0000      -1.032113       -28.0852
  23   2.0000      -0.944036       -25.6885
  24   2.0000      -0.862748       -23.4766
  25   2.0000      -0.778305       -21.1788
  26   2.0000      -0.769182       -20.9305
  27   2.0000      -0.735908       -20.0251
  28   2.0000      -0.709462       -19.3054
  29   2.0000      -0.686152       -18.6712
  30   2.0000      -0.653911       -17.7938
  31   2.0000      -0.640453       -17.4276
  32   2.0000      -0.606161       -16.4945
  33   2.0000      -0.581276       -15.8173
  34   2.0000      -0.561152       -15.2697
  35   2.0000      -0.533446       -14.5158
  36   2.0000      -0.525087       -14.2883
  37   2.0000      -0.518417       -14.1068
  38   2.0000      -0.515351       -14.0234
  39   2.0000      -0.496747       -13.5172
  40   2.0000      -0.489801       -13.3282
  41   2.0000      -0.475183       -12.9304
  42   2.0000      -0.447014       -12.1639
  43   2.0000      -0.438903       -11.9431
  44   2.0000      -0.435118       -11.8402
  45   2.0000      -0.427389       -11.6298
  46   2.0000      -0.424420       -11.5491
  47   2.0000      -0.410370       -11.1667
  48   2.0000      -0.402819       -10.9613
  49   2.0000      -0.394427       -10.7329
  50   2.0000      -0.383129       -10.4255
  51   2.0000      -0.377431       -10.2704
  52   2.0000      -0.374695       -10.1960
  53   2.0000      -0.357953        -9.7404
  54   2.0000      -0.349724        -9.5165
  55   2.0000      -0.339012        -9.2250
  56   2.0000      -0.333201        -9.0669
  57   2.0000      -0.328316        -8.9339
  58   2.0000      -0.321128        -8.7383
  59   2.0000      -0.313883        -8.5412
  60   2.0000      -0.303914        -8.2699
  61   2.0000      -0.301483        -8.2038
  62   2.0000      -0.295915        -8.0523
  63   2.0000      -0.289101        -7.8668
  64   2.0000      -0.287488        -7.8230
  65   2.0000      -0.281942        -7.6720
  66   2.0000      -0.280323        -7.6280
  67   2.0000      -0.266171        -7.2429
  68   2.0000      -0.259386        -7.0583
  69   2.0000      -0.254874        -6.9355
  70   2.0000      -0.206952        -5.6315
  71   2.0000      -0.121007        -3.2928
  72   0.0000      -0.033296        -0.9060
  73   0.0000      -0.013191        -0.3590
  74   0.0000      -0.010395        -0.2829
  75   0.0000      -0.006063        -0.1650
  76   0.0000       0.001145         0.0312

MULLIKEN ATOMIC CHARGES
-----------------------
   0 C :   -0.772496
   1 C :   -1.338768
   2 C :   -0.320764
   3 C :   -0.514785
   4 H :    0.234480
   5 H :    0.217254
   6 S :    1.191618
   7 C :    0.298192
   8 N :   -0.118544
   9 N :   -0.189231
  10 H :    0.167657
  11 H :    0.096499
  12 H :    1.149004
  13 H :    0.132493
  14 H :    0.110399
  15 O :   -0.724273
  16 O :   -0.510087
  17 C :   -0.390576
  18 H :    0.179698
  19 H :    0.250015
  20 C :   -0.380734
  21 C :   -0.070018
  22 H :    0.191395
  23 H :    0.031325
  24 H :    0.168092
  25 H :    0.187073
  26 C :   -0.227775
  27 H :    0.135127
  28 H :    0.276192
  29 C :   -0.350385
  30 H :    0.116755
  31 H :    0.188551
  32 C :   -0.424873
  33 H :    0.155076
  34 H :    0.191681
  35 H :    0.284993
  36 H :    0.167385
  37 H :    0.161557
  38 H :    0.165758
  39 F :   -0.114957
Sum of atomic charges:   -0.0000000

LOEWDIN ATOMIC CHARGES
----------------------
   0 C :   -0.229989
   1 C :   -0.142967
   2 C :   -0.224922
   3 C :   -0.227418
   4 H :    0.112062
   5 H :    0.115212
   6 S :    0.593987
   7 C :   -0.528499
   8 N :    0.137180
   9 N :    0.145624
  10 H :    0.092029
  11 H :    0.093293
  12 H :    0.024460
  13 H :    0.028681
  14 H :    0.099742
  15 O :   -0.255899
  16 O :   -0.222360
  17 C :   -0.207366
  18 H :    0.103321
  19 H :    0.101822
  20 C :   -0.215235
  21 C :   -0.219813
  22 H :    0.129976
  23 H :    0.088433
  24 H :    0.123558
  25 H :    0.116612
  26 C :   -0.213838
  27 H :    0.105819
  28 H :    0.103680
  29 C :   -0.220138
  30 H :    0.116065
  31 H :    0.103783
  32 C :   -0.212234
  33 H :    0.115198
  34 H :    0.099733
  35 H :    0.112227
  36 H :    0.114993
  37 H :    0.108663
  38 H :    0.110597
  39 F :   -0.076074

  Mayer bond orders larger than 0.100000
B(  0-C ,  1-C ) :   1.2000 B(  0-C , 17-C ) :   0.8111 B(  0-C , 18-H ) :   1.0222
B(  0-C , 19-H ) :   0.8405 B(  0-C , 29-C ) :   0.1552 B(  1-C ,  7-C ) :   0.4669
B(  1-C , 10-H ) :  -0.1099 B(  1-C , 12-H ) :  -0.9188 B(  1-C , 17-C ) :   0.3686
B(  1-C , 39-F ) :   0.3463 B(  2-C ,  3-C ) :   1.0704 B(  2-C , 20-C ) :   0.5076
B(  2-C , 21-C ) :   0.5251 B(  2-C , 22-H ) :  -0.1376 B(  2-C , 24-H ) :   0.9598
B(  2-C , 25-H ) :   0.8845 B(  3-C ,  4-H ) :   0.9105 B(  3-C ,  5-H ) :   0.9255
B(  3-C ,  6-S ) :   0.8721 B(  3-C , 16-O ) :   0.1777 B(  3-C , 21-C ) :   0.2660
B(  6-S , 15-O ) :   1.4576 B(  6-S , 16-O ) :   1.5218 B(  6-S , 39-F ) :   1.0670
B(  7-C ,  8-N ) :   1.0031 B(  7-C ,  9-N ) :   1.1960 B(  7-C , 10-H ) :   0.1354
B(  7-C , 12-H ) :   0.6391 B(  8-N , 12-H ) :   0.1438 B(  8-N , 13-H ) :   0.9318
B(  8-N , 14-H ) :   1.0232 B(  9-N , 10-H ) :   0.9593 B(  9-N , 11-H ) :   1.0489
B(  9-N , 17-C ) :   0.1367 B( 12-H , 15-O ) :   0.1568 B( 12-H , 39-F ) :  -0.4332
B( 17-C , 26-C ) :   1.2397 B( 17-C , 27-H ) :   0.9793 B( 17-C , 28-H ) :   0.8170
B( 17-C , 29-C ) :   0.2708 B( 20-C , 21-C ) :   0.6151 B( 20-C , 26-C ) :   0.1946
B( 20-C , 32-C ) :   1.0603 B( 20-C , 35-H ) :   0.8555 B( 20-C , 36-H ) :   0.9193
B( 21-C , 22-H ) :   0.7389 B( 21-C , 23-H ) :   1.4690 B( 21-C , 29-C ) :   0.1552
B( 21-C , 32-C ) :   0.2264 B( 21-C , 39-F ) :   0.1130 B( 22-H , 23-H ) :   0.1875
B( 26-C , 29-C ) :   0.4040 B( 26-C , 30-H ) :   0.9316 B( 26-C , 31-H ) :   1.0546
B( 26-C , 32-C ) :   0.1810 B( 26-C , 34-H ) :  -0.1153 B( 29-C , 32-C ) :   1.0627
B( 29-C , 33-H ) :   0.9372 B( 29-C , 34-H ) :   1.0010 B( 32-C , 37-H ) :   0.9303
B( 32-C , 38-H ) :   0.9379

Dispersion correction           -0.048638824
FINAL SINGLE POINT ENERGY     -1190.178455811902

DIPOLE MOMENT
-------------
                                X             Y             Z
Electronic contribution:    -18.44616       4.09810     -18.07063
Nuclear contribution   :     18.74089      -4.92611      17.99644
                        -----------------------------------------
Total Dipole Moment    :      0.29473      -0.82801      -0.07418
                        -----------------------------------------
Magnitude (a.u.)       :      0.88202
Magnitude (Debye)      :      2.24193

Rotational constants in cm-1:     0.014210     0.012324     0.007480
Rotational constants in MHz :   425.991442   369.455467   224.259162

                             ****ORCA TERMINATED NORMALLY****
TOTAL RUN TIME: 0 days 0 hours 2 minutes 49 seconds 689 msec
