                         Program Version 5.0.0 -  RELEASE  -
|  1> !PBE D3BJ RIJCOSX def2-TZVPD def2/J TightSCF xyzfile
|  2>
|  3> *xyzfile 0 1 D8.xyz
|  4>
|  5> %MaxCore 64000
|  6>
|  7> %pal nprocs 4
|  8> end
|  9>
| 10> %scf
| 11>   MaxIter 150
| 12> end
| 13>
| 14>
| 15>                          ****END OF INPUT****

CARTESIAN COORDINATES (ANGSTROEM)
---------------------------------
  C      4.490588    1.155899   -2.469290
  N      4.305394    1.222762   -3.908317
  C      4.906458   -3.102816   -5.954844
  C      3.511771   -2.806215   -6.492283
  H      2.736044   -3.373445   -5.973736
  H      3.444904   -3.040831   -7.555281
  S      3.004618   -1.096206   -6.389259
  C      4.631918    2.246365   -4.670958
  C      4.541686    2.143990   -5.987139
  N      5.084086    3.393584   -4.118545
  H      4.920675    3.570501   -3.135870
  H      5.254652    4.197390   -4.706956
  H      3.824530    0.449113   -4.350926
  H      4.343373    1.249318   -6.416646
  H      4.676712    2.956624   -6.574113
  O      4.128856   -0.329647   -6.953717
  O      1.781285   -1.000779   -7.136399
  C      5.942129    0.939500   -2.036893
  H      3.864305    0.328532   -2.136611
  H      4.076233    2.049994   -1.989010
  C      6.462677   -3.117775   -3.944671
  C      5.024977   -3.025679   -4.437625
  H      4.423321   -3.818693   -3.977648
  H      4.579350   -2.087131   -4.108727
  H      5.201533   -4.100207   -6.296905
  H      5.605922   -2.397822   -6.413368
  C      6.559957   -0.356290   -2.559086
  H      5.967976    0.952567   -0.942444
  H      6.547184    1.788331   -2.368849
  C      6.006283   -1.615917   -1.899301
  H      7.642360   -0.318000   -2.402059
  H      6.414855   -0.403433   -3.642587
  C      6.608718   -2.917014   -2.435655
  H      6.190324   -1.561115   -0.820948
  H      4.919250   -1.651245   -2.016586
  H      7.066975   -2.374258   -4.475514
  H      6.887808   -4.089747   -4.215332
  H      6.135197   -3.755573   -1.915159
  H      7.671142   -2.955503   -2.172291
  F      2.851546   -0.783683   -4.956789

 Total Charge           Charge          ....    0
 Multiplicity           Mult            ....    1
 Number of Electrons    NEL             ....  144
 Basis Dimension        Dim             ....  854

ORBITAL ENERGIES
----------------

  NO   OCC          E(Eh)            E(eV)
   0   2.0000     -88.272961     -2402.0294
   1   2.0000     -24.375638      -663.2948
   2   2.0000     -18.770290      -510.7655
   3   2.0000     -18.758742      -510.4513
   4   2.0000     -13.973326      -380.2335
   5   2.0000     -13.970805      -380.1649
   6   2.0000      -9.943341      -270.5721
   7   2.0000      -9.913212      -269.7522
   8   2.0000      -9.909344      -269.6470
   9   2.0000      -9.902371      -269.4572
  10   2.0000      -9.896515      -269.2979
  11   2.0000      -9.887712      -269.0583
  12   2.0000      -9.884208      -268.9630
  13   2.0000      -9.880921      -268.8735
  14   2.0000      -9.876013      -268.7400
  15   2.0000      -9.875523      -268.7266
  16   2.0000      -9.765680      -265.7377
  17   2.0000      -7.869407      -214.1374
  18   2.0000      -5.894047      -160.3852
  19   2.0000      -5.887003      -160.1935
  20   2.0000      -5.886763      -160.1870
  21   2.0000      -1.271544       -34.6005
  22   2.0000      -1.026655       -27.9367
  23   2.0000      -0.935438       -25.4546
  24   2.0000      -0.874305       -23.7910
  25   2.0000      -0.794395       -21.6166
  26   2.0000      -0.771786       -21.0014
  27   2.0000      -0.743475       -20.2310
  28   2.0000      -0.717039       -19.5116
  29   2.0000      -0.684768       -18.6335
  30   2.0000      -0.663725       -18.0609
  31   2.0000      -0.642685       -17.4883
  32   2.0000      -0.611362       -16.6360
  33   2.0000      -0.589088       -16.0299
  34   2.0000      -0.569191       -15.4885
  35   2.0000      -0.549246       -14.9457
  36   2.0000      -0.536561       -14.6006
  37   2.0000      -0.525742       -14.3062
  38   2.0000      -0.514122       -13.9900
  39   2.0000      -0.503721       -13.7070
  40   2.0000      -0.499916       -13.6034
  41   2.0000      -0.466589       -12.6965
  42   2.0000      -0.450427       -12.2567
  43   2.0000      -0.440359       -11.9828
  44   2.0000      -0.434366       -11.8197
  45   2.0000      -0.431685       -11.7467
  46   2.0000      -0.424156       -11.5419
  47   2.0000      -0.417564       -11.3625
  48   2.0000      -0.413250       -11.2451
  49   2.0000      -0.397608       -10.8195
  50   2.0000      -0.395363       -10.7584
  51   2.0000      -0.386683       -10.5222
  52   2.0000      -0.372046       -10.1239
  53   2.0000      -0.357722        -9.7341
  54   2.0000      -0.348837        -9.4923
  55   2.0000      -0.347271        -9.4497
  56   2.0000      -0.340181        -9.2568
  57   2.0000      -0.333078        -9.0635
  58   2.0000      -0.326637        -8.8883
  59   2.0000      -0.321530        -8.7493
  60   2.0000      -0.320432        -8.7194
  61   2.0000      -0.306728        -8.3465
  62   2.0000      -0.303899        -8.2695
  63   2.0000      -0.300322        -8.1722
  64   2.0000      -0.295194        -8.0326
  65   2.0000      -0.283040        -7.7019
  66   2.0000      -0.280287        -7.6270
  67   2.0000      -0.275616        -7.4999
  68   2.0000      -0.275124        -7.4865
  69   2.0000      -0.253655        -6.9023
  70   2.0000      -0.202719        -5.5163
  71   2.0000      -0.116627        -3.1736
  72   0.0000      -0.036445        -0.9917
  73   0.0000      -0.016339        -0.4446
  74   0.0000      -0.014501        -0.3946
  75   0.0000      -0.008105        -0.2205
  76   0.0000      -0.001761        -0.0479

MULLIKEN ATOMIC CHARGES
-----------------------
   0 C :   -0.795385
   1 N :    0.021677
   2 C :   -0.294222
   3 C :   -0.527772
   4 H :    0.232562
   5 H :    0.219676
   6 S :    1.084389
   7 C :    1.107730
   8 C :   -2.170430
   9 N :   -0.243134
  10 H :    0.140210
  11 H :    0.134943
  12 H :    0.090763
  13 H :    0.935446
  14 H :    0.142895
  15 O :   -0.563187
  16 O :   -0.513270
  17 C :   -0.205420
  18 H :    0.207808
  19 H :    0.245254
  20 C :   -0.356803
  21 C :   -0.131086
  22 H :    0.217551
  23 H :   -0.007866
  24 H :    0.172934
  25 H :    0.187066
  26 C :   -0.172689
  27 H :    0.186791
  28 H :    0.267878
  29 C :   -0.364623
  30 H :    0.114300
  31 H :    0.149905
  32 C :   -0.428066
  33 H :    0.154592
  34 H :    0.207902
  35 H :    0.268081
  36 H :    0.166081
  37 H :    0.166619
  38 H :    0.164159
  39 F :   -0.213259
Sum of atomic charges:    0.0000000

LOEWDIN ATOMIC CHARGES
----------------------
   0 C :   -0.196891
   1 N :    0.042911
   2 C :   -0.224492
   3 C :   -0.229883
   4 H :    0.109908
   5 H :    0.116050
   6 S :    0.586839
   7 C :   -0.552226
   8 C :    0.015639
   9 N :    0.132908
  10 H :    0.081175
  11 H :    0.104190
  12 H :    0.082891
  13 H :   -0.045970
  14 H :    0.015599
  15 O :   -0.255942
  16 O :   -0.221177
  17 C :   -0.192000
  18 H :    0.112005
  19 H :    0.109124
  20 C :   -0.213909
  21 C :   -0.221333
  22 H :    0.130226
  23 H :    0.085093
  24 H :    0.123976
  25 H :    0.117875
  26 C :   -0.210678
  27 H :    0.110658
  28 H :    0.104847
  29 C :   -0.222157
  30 H :    0.118907
  31 H :    0.106631
  32 C :   -0.210444
  33 H :    0.115920
  34 H :    0.097973
  35 H :    0.113179
  36 H :    0.116556
  37 H :    0.109937
  38 H :    0.111889
  39 F :   -0.075806

  Mayer bond orders larger than 0.100000
B(  0-C ,  1-N ) :   1.0546 B(  0-C ,  7-C ) :  -0.1559 B(  0-C ,  9-N ) :   0.1351
B(  0-C , 12-H ) :  -0.1027 B(  0-C , 17-C ) :   0.8360 B(  0-C , 18-H ) :   0.8950
B(  0-C , 19-H ) :   0.8223 B(  0-C , 29-C ) :   0.1916 B(  1-N ,  7-C ) :   1.0505
B(  1-N , 12-H ) :   0.9698 B(  1-N , 17-C ) :   0.1600 B(  2-C ,  3-C ) :   1.0621
B(  2-C , 20-C ) :   0.5065 B(  2-C , 21-C ) :   0.5361 B(  2-C , 22-H ) :  -0.1261
B(  2-C , 24-H ) :   0.9500 B(  2-C , 25-H ) :   0.8865 B(  3-C ,  4-H ) :   0.9108
B(  3-C ,  5-H ) :   0.9300 B(  3-C ,  6-S ) :   0.8822 B(  3-C , 16-O ) :   0.1648
B(  3-C , 21-C ) :   0.2935 B(  6-S , 15-O ) :   1.5579 B(  6-S , 16-O ) :   1.5353
B(  6-S , 21-C ) :   0.1150 B(  6-S , 39-F ) :   1.0703 B(  7-C ,  8-C ) :   0.4131
B(  7-C ,  9-N ) :   0.9991 B(  7-C , 12-H ) :  -0.2515 B(  7-C , 14-H ) :  -0.2372
B(  8-C , 13-H ) :   0.1798 B(  8-C , 14-H ) :   1.2463 B(  8-C , 15-O ) :   0.1323
B(  9-N , 10-H ) :   1.0005 B(  9-N , 11-H ) :   1.0194 B( 13-H , 14-H ) :   0.1522
B( 13-H , 15-O ) :  -0.2646 B( 15-O , 16-O ) :   0.1173 B( 17-C , 26-C ) :   1.1823
B( 17-C , 27-H ) :   0.9732 B( 17-C , 28-H ) :   0.8545 B( 17-C , 29-C ) :   0.2516
B( 20-C , 21-C ) :   0.5988 B( 20-C , 26-C ) :   0.1764 B( 20-C , 32-C ) :   1.0741
B( 20-C , 35-H ) :   0.8630 B( 20-C , 36-H ) :   0.9135 B( 21-C , 22-H ) :   0.7476
B( 21-C , 23-H ) :   1.5364 B( 21-C , 29-C ) :   0.1367 B( 21-C , 32-C ) :   0.2500
B( 21-C , 39-F ) :   0.1102 B( 22-H , 23-H ) :   0.1553 B( 23-H , 39-F ) :  -0.1083
B( 26-C , 29-C ) :   0.3562 B( 26-C , 30-H ) :   0.9163 B( 26-C , 31-H ) :   1.0776
B( 26-C , 32-C ) :   0.2281 B( 26-C , 33-H ) :  -0.1013 B( 26-C , 34-H ) :  -0.1174
B( 29-C , 32-C ) :   1.0720 B( 29-C , 33-H ) :   0.9367 B( 29-C , 34-H ) :   0.9931
B( 32-C , 37-H ) :   0.9239 B( 32-C , 38-H ) :   0.9326

Dispersion correction           -0.048422267
FINAL SINGLE POINT ENERGY     -1190.155310905725

DIPOLE MOMENT
-------------
                                X             Y             Z
Electronic contribution:    -18.46218       3.24548     -16.25488
Nuclear contribution   :     18.77618      -4.78855      17.68602
                        -----------------------------------------
Total Dipole Moment    :      0.31400      -1.54307       1.43115
                        -----------------------------------------
Magnitude (a.u.)       :      2.12787
Magnitude (Debye)      :      5.40861

Rotational constants in cm-1:     0.014368     0.012319     0.007509
Rotational constants in MHz :   430.738566   369.302170   225.105103

                             ****ORCA TERMINATED NORMALLY****
TOTAL RUN TIME: 0 days 0 hours 3 minutes 25 seconds 273 msec
