                         Program Version 5.0.0 -  RELEASE  -
|  1> !PBE D3BJ RIJCOSX def2-TZVPD def2/J TightSCF xyzfile
|  2>
|  3> *xyzfile 0 1 D9.xyz
|  4>
|  5> %MaxCore 64000
|  6>
|  7> %pal nprocs 4
|  8> end
|  9>
| 10> %scf
| 11>   MaxIter 150
| 12> end
| 13>
| 14>
| 15>                          ****END OF INPUT****

CARTESIAN COORDINATES (ANGSTROEM)
---------------------------------
  C      4.490588    1.155899   -2.469290
  N      4.305394    1.222762   -3.908317
  C      4.906458   -3.102816   -5.954844
  C      3.511771   -2.806215   -6.492283
  H      2.736044   -3.373445   -5.973736
  H      3.444904   -3.040831   -7.555281
  S      3.004618   -1.096206   -6.389259
  C      4.631918    2.246365   -4.670958
  N      4.541686    2.143990   -5.987139
  C      5.084086    3.393584   -4.118545
  H      4.920675    3.570501   -3.135870
  H      5.254652    4.197390   -4.706956
  H      3.824530    0.449113   -4.350926
  H      4.343373    1.249318   -6.416646
  H      4.676712    2.956624   -6.574113
  O      4.128856   -0.329647   -6.953717
  O      1.781285   -1.000779   -7.136399
  C      5.942129    0.939500   -2.036893
  H      3.864305    0.328532   -2.136611
  H      4.076233    2.049994   -1.989010
  C      6.462677   -3.117775   -3.944671
  C      5.024977   -3.025679   -4.437625
  H      4.423321   -3.818693   -3.977648
  H      4.579350   -2.087131   -4.108727
  H      5.201533   -4.100207   -6.296905
  H      5.605922   -2.397822   -6.413368
  C      6.559957   -0.356290   -2.559086
  H      5.967976    0.952567   -0.942444
  H      6.547184    1.788331   -2.368849
  C      6.006283   -1.615917   -1.899301
  H      7.642360   -0.318000   -2.402059
  H      6.414855   -0.403433   -3.642587
  C      6.608718   -2.917014   -2.435655
  H      6.190324   -1.561115   -0.820948
  H      4.919250   -1.651245   -2.016586
  H      7.066975   -2.374258   -4.475514
  H      6.887808   -4.089747   -4.215332
  H      6.135197   -3.755573   -1.915159
  H      7.671142   -2.955503   -2.172291
  F      2.851546   -0.783683   -4.956789

 Total Charge           Charge          ....    0
 Multiplicity           Mult            ....    1
 Number of Electrons    NEL             ....  144
 Basis Dimension        Dim             ....  854

ORBITAL ENERGIES
----------------

  NO   OCC          E(Eh)            E(eV)
   0   2.0000     -88.292376     -2402.5577
   1   2.0000     -24.389839      -663.6813
   2   2.0000     -18.787404      -511.2313
   3   2.0000     -18.784536      -511.1532
   4   2.0000     -13.976054      -380.3078
   5   2.0000     -13.952985      -379.6800
   6   2.0000      -9.956560      -270.9318
   7   2.0000      -9.918627      -269.8996
   8   2.0000      -9.905659      -269.5467
   9   2.0000      -9.904593      -269.5177
  10   2.0000      -9.902270      -269.4545
  11   2.0000      -9.891001      -269.1478
  12   2.0000      -9.884813      -268.9794
  13   2.0000      -9.879175      -268.8260
  14   2.0000      -9.871687      -268.6223
  15   2.0000      -9.866940      -268.4931
  16   2.0000      -9.779243      -266.1067
  17   2.0000      -7.888767      -214.6643
  18   2.0000      -5.913384      -160.9114
  19   2.0000      -5.906541      -160.7252
  20   2.0000      -5.906020      -160.7110
  21   2.0000      -1.286057       -34.9954
  22   2.0000      -1.046347       -28.4725
  23   2.0000      -0.957547       -26.0562
  24   2.0000      -0.873568       -23.7710
  25   2.0000      -0.792928       -21.5767
  26   2.0000      -0.781709       -21.2714
  27   2.0000      -0.746116       -20.3028
  28   2.0000      -0.715784       -19.4775
  29   2.0000      -0.687500       -18.7078
  30   2.0000      -0.667013       -18.1503
  31   2.0000      -0.635424       -17.2908
  32   2.0000      -0.621719       -16.9178
  33   2.0000      -0.599870       -16.3233
  34   2.0000      -0.577119       -15.7042
  35   2.0000      -0.548873       -14.9356
  36   2.0000      -0.542410       -14.7597
  37   2.0000      -0.536731       -14.6052
  38   2.0000      -0.521678       -14.1956
  39   2.0000      -0.508572       -13.8389
  40   2.0000      -0.483393       -13.1538
  41   2.0000      -0.474944       -12.9239
  42   2.0000      -0.462094       -12.5742
  43   2.0000      -0.456952       -12.4343
  44   2.0000      -0.444688       -12.1006
  45   2.0000      -0.439582       -11.9616
  46   2.0000      -0.425335       -11.5740
  47   2.0000      -0.423328       -11.5194
  48   2.0000      -0.407670       -11.0933
  49   2.0000      -0.404152       -10.9975
  50   2.0000      -0.392605       -10.6833
  51   2.0000      -0.391028       -10.6404
  52   2.0000      -0.372315       -10.1312
  53   2.0000      -0.365423        -9.9437
  54   2.0000      -0.354051        -9.6342
  55   2.0000      -0.349431        -9.5085
  56   2.0000      -0.341157        -9.2834
  57   2.0000      -0.334070        -9.0905
  58   2.0000      -0.327057        -8.8997
  59   2.0000      -0.321623        -8.7518
  60   2.0000      -0.315775        -8.5927
  61   2.0000      -0.313490        -8.5305
  62   2.0000      -0.309353        -8.4179
  63   2.0000      -0.303195        -8.2504
  64   2.0000      -0.301306        -8.1990
  65   2.0000      -0.294152        -8.0043
  66   2.0000      -0.292688        -7.9644
  67   2.0000      -0.280737        -7.6392
  68   2.0000      -0.278477        -7.5777
  69   2.0000      -0.270588        -7.3631
  70   2.0000      -0.193157        -5.2561
  71   2.0000      -0.119526        -3.2525
  72   0.0000      -0.047966        -1.3052
  73   0.0000      -0.023597        -0.6421
  74   0.0000      -0.016214        -0.4412
  75   0.0000      -0.008574        -0.2333
  76   0.0000      -0.003931        -0.1070

MULLIKEN ATOMIC CHARGES
-----------------------
   0 C :   -0.805236
   1 N :    0.001205
   2 C :   -0.299850
   3 C :   -0.510588
   4 H :    0.239389
   5 H :    0.226677
   6 S :    1.099458
   7 C :    0.865863
   8 N :   -0.081349
   9 C :   -1.429195
  10 H :    0.242871
  11 H :    0.266599
  12 H :    0.181438
  13 H :    0.147608
  14 H :    0.116138
  15 O :   -0.722746
  16 O :   -0.502818
  17 C :   -0.255454
  18 H :    0.243465
  19 H :    0.223172
  20 C :   -0.364499
  21 C :   -0.158660
  22 H :    0.219696
  23 H :    0.021221
  24 H :    0.169695
  25 H :    0.195459
  26 C :   -0.153254
  27 H :    0.194985
  28 H :    0.278380
  29 C :   -0.349683
  30 H :    0.119267
  31 H :    0.091910
  32 C :   -0.435162
  33 H :    0.154112
  34 H :    0.197238
  35 H :    0.279963
  36 H :    0.167031
  37 H :    0.166917
  38 H :    0.166527
  39 F :   -0.207790
Sum of atomic charges:   -0.0000000

LOEWDIN ATOMIC CHARGES
----------------------
   0 C :   -0.192400
   1 N :    0.040799
   2 C :   -0.223731
   3 C :   -0.225669
   4 H :    0.112894
   5 H :    0.117284
   6 S :    0.593582
   7 C :   -0.561777
   8 N :    0.141034
   9 C :    0.008214
  10 H :   -0.004663
  11 H :    0.002946
  12 H :    0.077385
  13 H :    0.021907
  14 H :    0.112942
  15 O :   -0.255134
  16 O :   -0.215390
  17 C :   -0.187062
  18 H :    0.110863
  19 H :    0.114730
  20 C :   -0.213912
  21 C :   -0.221148
  22 H :    0.130886
  23 H :    0.085126
  24 H :    0.125335
  25 H :    0.117475
  26 C :   -0.211767
  27 H :    0.112976
  28 H :    0.104741
  29 C :   -0.222535
  30 H :    0.118901
  31 H :    0.103883
  32 C :   -0.210493
  33 H :    0.116466
  34 H :    0.097411
  35 H :    0.112917
  36 H :    0.116573
  37 H :    0.109730
  38 H :    0.112261
  39 F :   -0.073583

  Mayer bond orders larger than 0.100000
B(  0-C ,  1-N ) :   1.0791 B(  0-C ,  7-C ) :  -0.1168 B(  0-C ,  9-C ) :   0.1629
B(  0-C , 12-H ) :  -0.1804 B(  0-C , 17-C ) :   0.8871 B(  0-C , 18-H ) :   0.7694
B(  0-C , 19-H ) :   0.8542 B(  0-C , 29-C ) :   0.1950 B(  1-N ,  7-C ) :   0.9985
B(  1-N , 12-H ) :   0.9577 B(  1-N , 17-C ) :   0.1957 B(  2-C ,  3-C ) :   1.0768
B(  2-C , 20-C ) :   0.5068 B(  2-C , 21-C ) :   0.5272 B(  2-C , 22-H ) :  -0.1278
B(  2-C , 24-H ) :   0.9518 B(  2-C , 25-H ) :   0.8811 B(  3-C ,  4-H ) :   0.9082
B(  3-C ,  5-H ) :   0.9214 B(  3-C ,  6-S ) :   0.8658 B(  3-C , 16-O ) :   0.1699
B(  3-C , 21-C ) :   0.2901 B(  6-S , 15-O ) :   1.5066 B(  6-S , 16-O ) :   1.5610
B(  6-S , 21-C ) :   0.1150 B(  6-S , 39-F ) :   1.0901 B(  7-C ,  8-N ) :   0.9669
B(  7-C ,  9-C ) :   0.9510 B(  7-C , 11-H ) :  -0.1016 B(  7-C , 12-H ) :  -0.2535
B(  8-N , 13-H ) :   0.9146 B(  8-N , 14-H ) :   1.0110 B(  9-C , 10-H ) :   1.0296
B(  9-C , 11-H ) :   1.0373 B( 17-C , 26-C ) :   1.1792 B( 17-C , 27-H ) :   0.9238
B( 17-C , 28-H ) :   0.8946 B( 17-C , 29-C ) :   0.2484 B( 20-C , 21-C ) :   0.6157
B( 20-C , 26-C ) :   0.1737 B( 20-C , 32-C ) :   1.0795 B( 20-C , 35-H ) :   0.8563
B( 20-C , 36-H ) :   0.9128 B( 21-C , 22-H ) :   0.7426 B( 21-C , 23-H ) :   1.5221
B( 21-C , 29-C ) :   0.1401 B( 21-C , 32-C ) :   0.2506 B( 21-C , 39-F ) :   0.1042
B( 22-H , 23-H ) :   0.1676 B( 23-H , 39-F ) :  -0.1077 B( 26-C , 29-C ) :   0.3676
B( 26-C , 30-H ) :   0.9130 B( 26-C , 31-H ) :   1.1016 B( 26-C , 32-C ) :   0.2263
B( 26-C , 34-H ) :  -0.1114 B( 29-C , 32-C ) :   1.0653 B( 29-C , 33-H ) :   0.9374
B( 29-C , 34-H ) :   0.9924 B( 32-C , 37-H ) :   0.9227 B( 32-C , 38-H ) :   0.9332

Dispersion correction           -0.048360153
FINAL SINGLE POINT ENERGY     -1190.171638466878

DIPOLE MOMENT
-------------
                                X             Y             Z
Electronic contribution:    -18.96835       1.94099     -17.88671
Nuclear contribution   :     18.85717      -4.60195      17.96505
                        -----------------------------------------
Total Dipole Moment    :     -0.11117      -2.66096       0.07834
                        -----------------------------------------
Magnitude (a.u.)       :      2.66443
Magnitude (Debye)      :      6.77245

Rotational constants in cm-1:     0.014436     0.012382     0.007563
Rotational constants in MHz :   432.785702   371.214592   226.743759

                             ****ORCA TERMINATED NORMALLY****
TOTAL RUN TIME: 0 days 0 hours 2 minutes 44 seconds 135 msec
