                         Program Version 5.0.0 -  RELEASE  -
|  1> !BLYP D3BJ RIJCOSX def2-SVPD def2/J TightSCF
|  2>
|  3> *xyz -1 1
|  4> C          2.95263        1.86308       -3.57485
|  5> C          4.12921        0.89839       -3.41895
|  6> H          3.73369       -0.10060       -3.23763
|  7> H          4.71910        0.86256       -4.33901
|  8> C          5.01734        1.31521       -2.22130
|  9> O          4.73706        0.85411       -1.12283
| 10> O          5.92815        2.16811       -2.49136
| 11> H          2.35067        1.56005       -4.40594
| 12> H          3.32277        2.85258       -3.74453
| 13> H          2.36134        1.85149       -2.68315
| 14> *
| 15> %MaxCore 64000
| 16>
| 17> %pal nprocs 4
| 18> end
| 19>
| 20> %scf
| 21>   MaxIter 150
| 22> end
| 23>
| 24>
| 25>                          ****END OF INPUT****

CARTESIAN COORDINATES (ANGSTROEM)
---------------------------------
  C      2.952630    1.863080   -3.574850
  C      4.129210    0.898390   -3.418950
  H      3.733690   -0.100600   -3.237630
  H      4.719100    0.862560   -4.339010
  C      5.017340    1.315210   -2.221300
  O      4.737060    0.854110   -1.122830
  O      5.928150    2.168110   -2.491360
  H      2.350670    1.560050   -4.405940
  H      3.322770    2.852580   -3.744530
  H      2.361340    1.851490   -2.683150

 Total Charge           Charge          ....   -1
 Multiplicity           Mult            ....    1
 Number of Electrons    NEL             ....   40
 Basis Dimension        Dim             ....  146

ORBITAL ENERGIES
----------------

  NO   OCC          E(Eh)            E(eV)
   0   2.0000     -18.537876      -504.4413
   1   2.0000     -18.528048      -504.1738
   2   2.0000      -9.802659      -266.7439
   3   2.0000      -9.761910      -265.6351
   4   2.0000      -9.745585      -265.1908
   5   2.0000      -0.723748       -19.6942
   6   2.0000      -0.632351       -17.2071
   7   2.0000      -0.521182       -14.1821
   8   2.0000      -0.395769       -10.7694
   9   2.0000      -0.261341        -7.1115
  10   2.0000      -0.238006        -6.4765
  11   2.0000      -0.203223        -5.5300
  12   2.0000      -0.180164        -4.9025
  13   2.0000      -0.160248        -4.3606
  14   2.0000      -0.159331        -4.3356
  15   2.0000      -0.129535        -3.5248
  16   2.0000      -0.122323        -3.3286
  17   2.0000      -0.011538        -0.3140
  18   2.0000       0.003903         0.1062
  19   2.0000       0.018383         0.5002
  20   0.0000       0.139094         3.7849
  21   0.0000       0.171790         4.6746
  22   0.0000       0.187508         5.1023
  23   0.0000       0.203746         5.5442
  24   0.0000       0.215590         5.8665

MULLIKEN ATOMIC CHARGES
-----------------------
   0 C :    0.867401
   1 C :   -0.004146
   2 H :   -0.150775
   3 H :   -0.171703
   4 C :    0.234619
   5 O :   -0.534520
   6 O :   -0.643893
   7 H :   -0.223154
   8 H :   -0.189115
   9 H :   -0.184715
Sum of atomic charges:   -1.0000000

LOEWDIN ATOMIC CHARGES
----------------------
   0 C :    0.111899
   1 C :   -0.033781
   2 H :   -0.011496
   3 H :   -0.006859
   4 C :   -0.333700
   5 O :   -0.286356
   6 O :   -0.329395
   7 H :   -0.050713
   8 H :   -0.030068
   9 H :   -0.029531

  Mayer bond orders larger than 0.100000
B(  0-C ,  1-C ) :   1.3214 B(  0-C ,  2-H ) :   0.1431 B(  0-C ,  3-H ) :   0.1314
B(  0-C ,  7-H ) :   0.7769 B(  0-C ,  8-H ) :   0.7561 B(  0-C ,  9-H ) :   0.7455
B(  1-C ,  2-H ) :   0.8721 B(  1-C ,  3-H ) :   0.8872 B(  1-C ,  4-C ) :   1.0463
B(  1-C ,  7-H ) :   0.2006 B(  1-C ,  8-H ) :   0.2353 B(  1-C ,  9-H ) :   0.2436
B(  2-H ,  4-C ) :   0.1290 B(  3-H ,  4-C ) :   0.1107 B(  4-C ,  5-O ) :   1.6126
B(  4-C ,  6-O ) :   1.5179

Dispersion correction           -0.013582833
FINAL SINGLE POINT ENERGY      -267.589827549698

DIPOLE MOMENT
-------------
                                X             Y             Z
Electronic contribution:      4.44868      -0.19670       3.93073
Nuclear contribution   :     -5.85873      -0.10793      -5.24103
                        -----------------------------------------
Total Dipole Moment    :     -1.41004      -0.30463      -1.31030
                        -----------------------------------------
Magnitude (a.u.)       :      1.94882
Magnitude (Debye)      :      4.95351

Rotational constants in cm-1:     0.292505     0.135951     0.110253
Rotational constants in MHz :  8769.065873  4075.717001  3305.311891

                             ****ORCA TERMINATED NORMALLY****
TOTAL RUN TIME: 0 days 0 hours 0 minutes 9 seconds 179 msec
