                         Program Version 5.0.0 -  RELEASE  -
|  1> !BLYP D3BJ RIJCOSX def2-SVPD def2/J TightSCF
|  2>
|  3> *xyz 1 1
|  4> C          3.34350        3.35457       -3.59200
|  5> C          2.95263        1.86308       -3.57485
|  6> C          4.25587        3.70385       -4.72605
|  7> N          3.73403        4.29378       -5.80077
|  8> N          5.51504        3.40725       -4.63718
|  9> H          6.14919        3.60120       -5.39905
| 10> H          5.81358        2.89950       -3.80879
| 11> H          2.74138        4.51311       -5.82470
| 12> H          4.28755        4.52126       -6.61434
| 13> H          3.86125        3.59725       -2.66298
| 14> H          2.44649        3.97346       -3.65656
| 15> H          2.44395        1.61721       -4.48352
| 16> H          2.30781        1.67290       -2.74242
| 17> H          3.83491        1.26414       -3.48670
| 18> *
| 19> %MaxCore 64000
| 20>
| 21> %pal nprocs 4
| 22> end
| 23>
| 24> %scf
| 25>   MaxIter 150
| 26> end
| 27>
| 28>
| 29>                          ****END OF INPUT****

CARTESIAN COORDINATES (ANGSTROEM)
---------------------------------
  C      3.343500    3.354570   -3.592000
  C      2.952630    1.863080   -3.574850
  C      4.255870    3.703850   -4.726050
  N      3.734030    4.293780   -5.800770
  N      5.515040    3.407250   -4.637180
  H      6.149190    3.601200   -5.399050
  H      5.813580    2.899500   -3.808790
  H      2.741380    4.513110   -5.824700
  H      4.287550    4.521260   -6.614340
  H      3.861250    3.597250   -2.662980
  H      2.446490    3.973460   -3.656560
  H      2.443950    1.617210   -4.483520
  H      2.307810    1.672900   -2.742420
  H      3.834910    1.264140   -3.486700

 Total Charge           Charge          ....    1
 Multiplicity           Mult            ....    1
 Number of Electrons    NEL             ....   40
 Basis Dimension        Dim             ....  172

ORBITAL ENERGIES
----------------

  NO   OCC          E(Eh)            E(eV)
   0   2.0000     -14.272878      -388.3847
   1   2.0000     -14.268738      -388.2721
   2   2.0000     -10.236397      -278.5465
   3   2.0000     -10.120800      -275.4010
   4   2.0000     -10.080303      -274.2990
   5   2.0000      -1.107041       -30.1241
   6   2.0000      -1.019311       -27.7369
   7   2.0000      -0.885111       -24.0851
   8   2.0000      -0.789781       -21.4910
   9   2.0000      -0.751189       -20.4409
  10   2.0000      -0.722491       -19.6600
  11   2.0000      -0.691470       -18.8159
  12   2.0000      -0.652767       -17.7627
  13   2.0000      -0.596965       -16.2442
  14   2.0000      -0.573390       -15.6027
  15   2.0000      -0.563708       -15.3393
  16   2.0000      -0.500228       -13.6119
  17   2.0000      -0.491538       -13.3754
  18   2.0000      -0.483848       -13.1662
  19   2.0000      -0.452183       -12.3045
  20   0.0000      -0.241348        -6.5674
  21   0.0000      -0.185635        -5.0514
  22   0.0000      -0.142516        -3.8781
  23   0.0000      -0.139882        -3.8064
  24   0.0000      -0.112393        -3.0584

MULLIKEN ATOMIC CHARGES
-----------------------
   0 C :   -0.007008
   1 C :    1.023307
   2 C :    0.449557
   3 N :    0.258835
   4 N :    0.436684
   5 H :   -0.239293
   6 H :    0.004897
   7 H :   -0.023527
   8 H :   -0.210879
   9 H :   -0.109369
  10 H :   -0.153280
  11 H :   -0.169384
  12 H :   -0.114925
  13 H :   -0.145617
Sum of atomic charges:    1.0000000

LOEWDIN ATOMIC CHARGES
----------------------
   0 C :    0.019637
   1 C :    0.188428
   2 C :   -0.066760
   3 N :    0.303471
   4 N :    0.305719
   5 H :    0.049089
   6 H :    0.056131
   7 H :    0.047705
   8 H :    0.038918
   9 H :    0.040380
  10 H :    0.034200
  11 H :   -0.006639
  12 H :    0.003897
  13 H :   -0.014177

  Mayer bond orders larger than 0.100000
B(  0-C ,  1-C ) :   1.2768 B(  0-C ,  2-C ) :   1.1424 B(  0-C ,  3-N ) :   0.1138
B(  0-C ,  4-N ) :   0.1096 B(  0-C ,  9-H ) :   0.8115 B(  0-C , 10-H ) :   0.8136
B(  0-C , 11-H ) :   0.2039 B(  0-C , 12-H ) :   0.2040 B(  0-C , 13-H ) :   0.2446
B(  1-C , 11-H ) :   0.7566 B(  1-C , 12-H ) :   0.7678 B(  1-C , 13-H ) :   0.7040
B(  2-C ,  3-N ) :   1.0976 B(  2-C ,  4-N ) :   1.3145 B(  2-C ,  5-H ) :  -0.1477
B(  2-C ,  8-H ) :  -0.2137 B(  2-C ,  9-H ) :   0.1207 B(  2-C , 10-H ) :   0.1801
B(  3-N ,  4-N ) :   0.1754 B(  3-N ,  7-H ) :   1.1028 B(  3-N ,  8-H ) :   1.3189
B(  4-N ,  5-H ) :   1.2649 B(  4-N ,  6-H ) :   1.0655 B(  5-H ,  6-H ) :  -0.1690
B(  7-H ,  8-H ) :  -0.1928 B( 11-H , 13-H ) :   0.1009

Dispersion correction           -0.020540732
FINAL SINGLE POINT ENERGY      -228.788923112093

DIPOLE MOMENT
-------------
                                X             Y             Z
Electronic contribution:      2.37785       2.57721      -2.28992
Nuclear contribution   :     -1.74195      -2.09431       1.58516
                        -----------------------------------------
Total Dipole Moment    :      0.63591       0.48291      -0.70476
                        -----------------------------------------
Magnitude (a.u.)       :      1.06502
Magnitude (Debye)      :      2.70706

Rotational constants in cm-1:     0.258965     0.126500     0.098780
Rotational constants in MHz :  7763.584551  3792.383135  2961.336502

                             ****ORCA TERMINATED NORMALLY****
TOTAL RUN TIME: 0 days 0 hours 0 minutes 9 seconds 393 msec
