                         Program Version 5.0.0 -  RELEASE  -
|  1> !BLYP D3BJ RIJCOSX def2-SVPD def2/J TightSCF xyzfile
|  2>
|  3> *xyzfile 0 1 B.xyz
|  4>
|  5> %MaxCore 64000
|  6>
|  7> %pal nprocs 4
|  8> end
|  9>
| 10> %scf
| 11>   MaxIter 150
| 12> end
| 13>
| 14>
| 15>                          ****END OF INPUT****

CARTESIAN COORDINATES (ANGSTROEM)
---------------------------------
  C      3.343500    3.354571   -3.591998
  C      2.952633    1.863077   -3.574849
  C      4.129209    0.898394   -3.418950
  H      3.733687   -0.100605   -3.237633
  H      4.719095    0.862556   -4.339005
  C      5.017344    1.315212   -2.221305
  C      4.255868    3.703851   -4.726054
  N      3.734032    4.293783   -5.800770
  N      5.515039    3.407255   -4.637185
  H      6.149187    3.601203   -5.399053
  H      5.813584    2.899504   -3.808785
  H      2.741380    4.513109   -5.824701
  H      4.287548    4.521260   -6.614341
  H      2.278938    1.735250   -2.725496
  H      2.377466    1.625787   -4.475869
  O      4.737055    0.854112   -1.122825
  O      5.928146    2.168108   -2.491365
  H      3.861246    3.597252   -2.662979
  H      2.446493    3.973461   -3.656556

 Total Charge           Charge          ....    0
 Multiplicity           Mult            ....    1
 Number of Electrons    NEL             ....   70
 Basis Dimension        Dim             ....  266

ORBITAL ENERGIES
----------------

  NO   OCC          E(Eh)            E(eV)
   0   2.0000     -18.705941      -509.0145
   1   2.0000     -18.693280      -508.6700
   2   2.0000     -14.122491      -384.2925
   3   2.0000     -14.082002      -383.1908
   4   2.0000     -10.075367      -274.1647
   5   2.0000      -9.967941      -271.2415
   6   2.0000      -9.965225      -271.1676
   7   2.0000      -9.941521      -270.5225
   8   2.0000      -9.901222      -269.4260
   9   2.0000      -0.946823       -25.7644
  10   2.0000      -0.891243       -24.2520
  11   2.0000      -0.858001       -23.3474
  12   2.0000      -0.807276       -21.9671
  13   2.0000      -0.738406       -20.0931
  14   2.0000      -0.659753       -17.9528
  15   2.0000      -0.609391       -16.5824
  16   2.0000      -0.567417       -15.4402
  17   2.0000      -0.563761       -15.3407
  18   2.0000      -0.524181       -14.2637
  19   2.0000      -0.490050       -13.3349
  20   2.0000      -0.448165       -12.1952
  21   2.0000      -0.429079       -11.6758
  22   2.0000      -0.412006       -11.2113
  23   2.0000      -0.391922       -10.6647
  24   2.0000      -0.374716       -10.1965
  25   2.0000      -0.345935        -9.4134
  26   2.0000      -0.333159        -9.0657
  27   2.0000      -0.323120        -8.7925
  28   2.0000      -0.317202        -8.6315
  29   2.0000      -0.294954        -8.0261
  30   2.0000      -0.287243        -7.8163
  31   2.0000      -0.284172        -7.7327
  32   2.0000      -0.181540        -4.9400
  33   2.0000      -0.169589        -4.6147
  34   2.0000      -0.146700        -3.9919
  35   0.0000      -0.084477        -2.2987
  36   0.0000      -0.054832        -1.4921
  37   0.0000      -0.017112        -0.4656
  38   0.0000       0.003497         0.0952
  39   0.0000       0.016696         0.4543

MULLIKEN ATOMIC CHARGES
-----------------------
   0 C :    0.413202
   1 C :    0.249247
   2 C :    0.579820
   3 H :   -0.345960
   4 H :   -0.045520
   5 C :    0.263138
   6 C :    0.459949
   7 N :    0.277136
   8 N :    0.740128
   9 H :   -0.264622
  10 H :   -0.369731
  11 H :   -0.098888
  12 H :   -0.251326
  13 H :   -0.090898
  14 H :   -0.322502
  15 O :   -0.446729
  16 O :   -0.523685
  17 H :    0.094168
  18 H :   -0.316926
Sum of atomic charges:    0.0000000

LOEWDIN ATOMIC CHARGES
----------------------
   0 C :    0.057526
   1 C :    0.006679
   2 C :    0.038320
   3 H :    0.015781
   4 H :    0.000238
   5 C :   -0.251554
   6 C :   -0.060574
   7 N :    0.264518
   8 N :    0.323323
   9 H :    0.032536
  10 H :   -0.141125
  11 H :    0.023458
  12 H :    0.016600
  13 H :    0.031603
  14 H :    0.012393
  15 O :   -0.193811
  16 O :   -0.231143
  17 H :    0.037311
  18 H :    0.017920

  Mayer bond orders larger than 0.100000
B(  0-C ,  1-C ) :   1.1832 B(  0-C ,  6-C ) :   1.0589 B(  0-C ,  8-N ) :   0.1027
B(  0-C , 13-H ) :   0.1643 B(  0-C , 14-H ) :   0.1692 B(  0-C , 17-H ) :   0.6410
B(  0-C , 18-H ) :   0.7789 B(  1-C ,  2-C ) :   1.2450 B(  1-C ,  3-H ) :   0.2416
B(  1-C ,  4-H ) :   0.2175 B(  1-C ,  5-C ) :   0.1018 B(  1-C , 13-H ) :   0.7613
B(  1-C , 14-H ) :   0.8154 B(  1-C , 17-H ) :   0.1813 B(  1-C , 18-H ) :   0.1901
B(  2-C ,  3-H ) :   0.6548 B(  2-C ,  4-H ) :   0.7613 B(  2-C ,  5-C ) :   0.9658
B(  2-C , 13-H ) :   0.1775 B(  2-C , 14-H ) :   0.1049 B(  3-H ,  5-C ) :   0.1978
B(  4-H ,  5-C ) :   0.1021 B(  5-C , 15-O ) :   1.6897 B(  5-C , 16-O ) :   1.3282
B(  6-C ,  7-N ) :   1.0483 B(  6-C ,  8-N ) :   1.2198 B(  6-C ,  9-H ) :  -0.2251
B(  6-C , 11-H ) :  -0.1423 B(  6-C , 12-H ) :  -0.1630 B(  6-C , 17-H ) :   0.1571
B(  6-C , 18-H ) :   0.1444 B(  7-N ,  8-N ) :   0.1834 B(  7-N , 11-H ) :   1.1909
B(  7-N , 12-H ) :   1.3065 B(  8-N ,  9-H ) :   1.2613 B(  8-N , 10-H ) :   1.0425
B(  9-H , 10-H ) :  -0.2576 B( 10-H , 16-O ) :   0.2954 B( 11-H , 12-H ) :  -0.1964
B( 15-O , 16-O ) :   0.1563

Dispersion correction           -0.038375268
FINAL SINGLE POINT ENERGY      -456.093425019441

DIPOLE MOMENT
-------------
                                X             Y             Z
Electronic contribution:      3.94677      -0.01555       2.68425
Nuclear contribution   :     -5.42217       2.65262      -7.07590
                        -----------------------------------------
Total Dipole Moment    :     -1.47540       2.63707      -4.39165
                        -----------------------------------------
Magnitude (a.u.)       :      5.33082
Magnitude (Debye)      :     13.54986

Rotational constants in cm-1:     0.107541     0.035862     0.030371
Rotational constants in MHz :  3223.996852  1075.120464   910.508313

                             ****ORCA TERMINATED NORMALLY****
TOTAL RUN TIME: 0 days 0 hours 0 minutes 18 seconds 997 msec
