                         Program Version 5.0.0 -  RELEASE  -
|  1> !BLYP D3BJ RIJCOSX def2-SVPD def2/J TightSCF
|  2>
|  3> *xyz 0 1
|  4> C          2.95263        1.86308       -3.57485
|  5> C          4.12921        0.89839       -3.41895
|  6> H          3.73369       -0.10060       -3.23763
|  7> H          4.71910        0.86256       -4.33901
|  8> C          5.01734        1.31521       -2.22130
|  9> F          4.73706        0.85411       -1.12283
| 10> O          5.92815        2.16811       -2.49136
| 11> H          2.35067        1.56005       -4.40594
| 12> H          3.32277        2.85258       -3.74453
| 13> H          2.36134        1.85149       -2.68315
| 14> *
| 15> %MaxCore 64000
| 16>
| 17> %pal nprocs 4
| 18> end
| 19>
| 20> %scf
| 21>   MaxIter 150
| 22> end
| 23>
| 24>
| 25>                          ****END OF INPUT****

CARTESIAN COORDINATES (ANGSTROEM)
---------------------------------
  C      2.952630    1.863080   -3.574850
  C      4.129210    0.898390   -3.418950
  H      3.733690   -0.100600   -3.237630
  H      4.719100    0.862560   -4.339010
  C      5.017340    1.315210   -2.221300
  F      4.737060    0.854110   -1.122830
  O      5.928150    2.168110   -2.491360
  H      2.350670    1.560050   -4.405940
  H      3.322770    2.852580   -3.744530
  H      2.361340    1.851490   -2.683150

 Total Charge           Charge          ....    0
 Multiplicity           Mult            ....    1
 Number of Electrons    NEL             ....   40
 Basis Dimension        Dim             ....  146

ORBITAL ENERGIES
----------------

  NO   OCC          E(Eh)            E(eV)
   0   2.0000     -24.389029      -663.6592
   1   2.0000     -18.795937      -511.4634
   2   2.0000     -10.099237      -274.8142
   3   2.0000      -9.953271      -270.8423
   4   2.0000      -9.932851      -270.2866
   5   2.0000      -1.222739       -33.2724
   6   2.0000      -0.919856       -25.0306
   7   2.0000      -0.716941       -19.5090
   8   2.0000      -0.618790       -16.8381
   9   2.0000      -0.579089       -15.7578
  10   2.0000      -0.502554       -13.6752
  11   2.0000      -0.485271       -13.2049
  12   2.0000      -0.445505       -12.1228
  13   2.0000      -0.413105       -11.2412
  14   2.0000      -0.383589       -10.4380
  15   2.0000      -0.354196        -9.6382
  16   2.0000      -0.331263        -9.0141
  17   2.0000      -0.327109        -8.9011
  18   2.0000      -0.303505        -8.2588
  19   2.0000      -0.236722        -6.4415
  20   0.0000      -0.068546        -1.8652
  21   0.0000      -0.005659        -0.1540
  22   0.0000       0.027256         0.7417
  23   0.0000       0.038137         1.0378
  24   0.0000       0.053064         1.4439

MULLIKEN ATOMIC CHARGES
-----------------------
   0 C :    0.903830
   1 C :   -0.004079
   2 H :   -0.129729
   3 H :   -0.140683
   4 C :    0.588055
   5 F :   -0.268961
   6 O :   -0.421057
   7 H :   -0.182326
   8 H :   -0.170567
   9 H :   -0.174484
Sum of atomic charges:   -0.0000000

LOEWDIN ATOMIC CHARGES
----------------------
   0 C :    0.151380
   1 C :    0.013338
   2 H :    0.014261
   3 H :    0.029695
   4 C :   -0.047450
   5 F :    0.011770
   6 O :   -0.128949
   7 H :   -0.016838
   8 H :   -0.011332
   9 H :   -0.015876

  Mayer bond orders larger than 0.100000
B(  0-C ,  1-C ) :   1.3360 B(  0-C ,  2-H ) :   0.1346 B(  0-C ,  3-H ) :   0.1219
B(  0-C ,  7-H ) :   0.7813 B(  0-C ,  8-H ) :   0.7594 B(  0-C ,  9-H ) :   0.7423
B(  1-C ,  2-H ) :   0.8603 B(  1-C ,  3-H ) :   0.8762 B(  1-C ,  4-C ) :   1.0539
B(  1-C ,  7-H ) :   0.1884 B(  1-C ,  8-H ) :   0.2112 B(  1-C ,  9-H ) :   0.2171
B(  4-C ,  5-F ) :   0.8481 B(  4-C ,  6-O ) :   1.8398 B(  5-F ,  6-O ) :   0.1431

Dispersion correction           -0.012840765
FINAL SINGLE POINT ENERGY      -292.116092504208

DIPOLE MOMENT
-------------
                                X             Y             Z
Electronic contribution:      5.07089      -1.16567       6.53045
Nuclear contribution   :     -6.06116       0.51860      -6.80802
                        -----------------------------------------
Total Dipole Moment    :     -0.99026      -0.64707      -0.27757
                        -----------------------------------------
Magnitude (a.u.)       :      1.21506
Magnitude (Debye)      :      3.08843

Rotational constants in cm-1:     0.276196     0.132056     0.105465
Rotational constants in MHz :  8280.156449  3958.940601  3161.775929

                             ****ORCA TERMINATED NORMALLY****
TOTAL RUN TIME: 0 days 0 hours 0 minutes 8 seconds 785 msec
