                         Program Version 5.0.0 -  RELEASE  -
|  1> !BLYP D3BJ RIJCOSX def2-SVPD def2/J TightSCF
|  2>
|  3> *xyz 0 1
|  4> C          3.34350        3.35457       -3.59200
|  5> C          2.95263        1.86308       -3.57485
|  6> C          4.25587        3.70385       -4.72605
|  7> C          3.73403        4.29378       -5.80077
|  8> N          5.51504        3.40725       -4.63718
|  9> H          6.14919        3.60120       -5.39905
| 10> H          5.81358        2.89950       -3.80879
| 11> H          2.74138        4.51311       -5.82470
| 12> H          4.28755        4.52126       -6.61434
| 13> H          3.86125        3.59725       -2.66298
| 14> H          2.44649        3.97346       -3.65656
| 15> H          2.44395        1.61721       -4.48352
| 16> H          2.30781        1.67290       -2.74242
| 17> H          3.83491        1.26414       -3.48670
| 18> *
| 19> %MaxCore 64000
| 20>
| 21> %pal nprocs 4
| 22> end
| 23>
| 24> %scf
| 25>   MaxIter 150
| 26> end
| 27>
| 28>
| 29>                          ****END OF INPUT****

CARTESIAN COORDINATES (ANGSTROEM)
---------------------------------
  C      3.343500    3.354570   -3.592000
  C      2.952630    1.863080   -3.574850
  C      4.255870    3.703850   -4.726050
  C      3.734030    4.293780   -5.800770
  N      5.515040    3.407250   -4.637180
  H      6.149190    3.601200   -5.399050
  H      5.813580    2.899500   -3.808790
  H      2.741380    4.513110   -5.824700
  H      4.287550    4.521260   -6.614340
  H      3.861250    3.597250   -2.662980
  H      2.446490    3.973460   -3.656560
  H      2.443950    1.617210   -4.483520
  H      2.307810    1.672900   -2.742420
  H      3.834910    1.264140   -3.486700

 Total Charge           Charge          ....    0
 Multiplicity           Mult            ....    1
 Number of Electrons    NEL             ....   40
 Basis Dimension        Dim             ....  172

ORBITAL ENERGIES
----------------

  NO   OCC          E(Eh)            E(eV)
   0   2.0000     -14.029483      -381.7616
   1   2.0000      -9.936901      -270.3968
   2   2.0000      -9.920948      -269.9627
   3   2.0000      -9.909938      -269.6631
   4   2.0000      -9.855147      -268.1722
   5   2.0000      -0.842523       -22.9262
   6   2.0000      -0.692847       -18.8533
   7   2.0000      -0.632330       -17.2066
   8   2.0000      -0.563382       -15.3304
   9   2.0000      -0.508286       -13.8312
  10   2.0000      -0.476509       -12.9665
  11   2.0000      -0.423347       -11.5199
  12   2.0000      -0.386846       -10.5266
  13   2.0000      -0.369943       -10.0667
  14   2.0000      -0.344166        -9.3652
  15   2.0000      -0.333876        -9.0852
  16   2.0000      -0.308892        -8.4054
  17   2.0000      -0.289667        -7.8822
  18   2.0000      -0.285910        -7.7800
  19   2.0000      -0.152930        -4.1614
  20   0.0000      -0.006353        -0.1729
  21   0.0000       0.017107         0.4655
  22   0.0000       0.032092         0.8733
  23   0.0000       0.039496         1.0747
  24   0.0000       0.046903         1.2763

MULLIKEN ATOMIC CHARGES
-----------------------
   0 C :    0.164262
   1 C :    1.032241
   2 C :   -0.223648
   3 C :    0.702964
   4 N :    0.563012
   5 H :   -0.284828
   6 H :   -0.182277
   7 H :   -0.268634
   8 H :   -0.676463
   9 H :   -0.212301
  10 H :   -0.087064
  11 H :   -0.201597
  12 H :   -0.151327
  13 H :   -0.174339
Sum of atomic charges:   -0.0000000

LOEWDIN ATOMIC CHARGES
----------------------
   0 C :   -0.022494
   1 C :    0.148834
   2 C :   -0.277494
   3 C :    0.191001
   4 N :    0.192532
   5 H :    0.007945
   6 H :    0.001244
   7 H :   -0.091239
   8 H :   -0.098968
   9 H :    0.010778
  10 H :    0.016711
  11 H :   -0.020683
  12 H :   -0.026217
  13 H :   -0.031949

  Mayer bond orders larger than 0.100000
B(  0-C ,  1-C ) :   1.2317 B(  0-C ,  2-C ) :   1.1649 B(  0-C ,  3-C ) :   0.2199
B(  0-C ,  4-N ) :   0.1154 B(  0-C ,  9-H ) :   0.7292 B(  0-C , 10-H ) :   0.7739
B(  0-C , 11-H ) :   0.2174 B(  0-C , 12-H ) :   0.2286 B(  0-C , 13-H ) :   0.2682
B(  1-C ,  9-H ) :   0.1006 B(  1-C , 10-H ) :   0.1115 B(  1-C , 11-H ) :   0.7681
B(  1-C , 12-H ) :   0.7359 B(  1-C , 13-H ) :   0.7079 B(  2-C ,  3-C ) :   1.4401
B(  2-C ,  4-N ) :   1.4166 B(  2-C ,  8-H ) :   0.1970 B(  2-C ,  9-H ) :   0.2199
B(  2-C , 10-H ) :   0.2180 B(  3-C ,  4-N ) :   0.2958 B(  3-C ,  7-H ) :   0.8802
B(  3-C ,  8-H ) :   0.5189 B(  4-N ,  5-H ) :   1.2045 B(  4-N ,  6-H ) :   1.0598
B(  5-H ,  6-H ) :  -0.1289

Dispersion correction           -0.021432508
FINAL SINGLE POINT ENERGY      -212.320831563588

DIPOLE MOMENT
-------------
                                X             Y             Z
Electronic contribution:      2.34867       1.49156      -0.87504
Nuclear contribution   :     -1.79713      -1.86925       1.28073
                        -----------------------------------------
Total Dipole Moment    :      0.55154      -0.37768       0.40569
                        -----------------------------------------
Magnitude (a.u.)       :      0.78194
Magnitude (Debye)      :      1.98753

Rotational constants in cm-1:     0.269040     0.129645     0.102087
Rotational constants in MHz :  8065.609820  3886.645139  3060.489045

                             ****ORCA TERMINATED NORMALLY****
TOTAL RUN TIME: 0 days 0 hours 0 minutes 11 seconds 988 msec
