                         Program Version 5.0.0 -  RELEASE  -
|  1> !BLYP D3BJ RIJCOSX def2-SVPD def2/J TightSCF
|  2>
|  3> *xyz 0 1
|  4> C          2.95263        1.86308       -3.57485
|  5> C          4.12921        0.89839       -3.41895
|  6> H          3.73369       -0.10060       -3.23763
|  7> H          4.71910        0.86256       -4.33901
|  8> C          5.01734        1.31521       -2.22130
|  9> O          4.73706        0.85411       -1.12283
| 10> F          5.92815        2.16811       -2.49136
| 11> H          2.35067        1.56005       -4.40594
| 12> H          3.32277        2.85258       -3.74453
| 13> H          2.36134        1.85149       -2.68315
| 14> *
| 15> %MaxCore 64000
| 16>
| 17> %pal nprocs 4
| 18> end
| 19>
| 20> %scf
| 21>   MaxIter 150
| 22> end
| 23>
| 24>
| 25>                          ****END OF INPUT****

CARTESIAN COORDINATES (ANGSTROEM)
---------------------------------
  C      2.952630    1.863080   -3.574850
  C      4.129210    0.898390   -3.418950
  H      3.733690   -0.100600   -3.237630
  H      4.719100    0.862560   -4.339010
  C      5.017340    1.315210   -2.221300
  O      4.737060    0.854110   -1.122830
  F      5.928150    2.168110   -2.491360
  H      2.350670    1.560050   -4.405940
  H      3.322770    2.852580   -3.744530
  H      2.361340    1.851490   -2.683150

 Total Charge           Charge          ....    0
 Multiplicity           Mult            ....    1
 Number of Electrons    NEL             ....   40
 Basis Dimension        Dim             ....  146

ORBITAL ENERGIES
----------------

  NO   OCC          E(Eh)            E(eV)
   0   2.0000     -24.368688      -663.1057
   1   2.0000     -18.805098      -511.7127
   2   2.0000     -10.095272      -274.7063
   3   2.0000      -9.952879      -270.8316
   4   2.0000      -9.933144      -270.2946
   5   2.0000      -1.182882       -32.1878
   6   2.0000      -0.952057       -25.9068
   7   2.0000      -0.716718       -19.5029
   8   2.0000      -0.607609       -16.5339
   9   2.0000      -0.567761       -15.4496
  10   2.0000      -0.483350       -13.1526
  11   2.0000      -0.467943       -12.7334
  12   2.0000      -0.443647       -12.0723
  13   2.0000      -0.411789       -11.2054
  14   2.0000      -0.385816       -10.4986
  15   2.0000      -0.356635        -9.7045
  16   2.0000      -0.338092        -9.2000
  17   2.0000      -0.327571        -8.9137
  18   2.0000      -0.318206        -8.6588
  19   2.0000      -0.248691        -6.7672
  20   0.0000      -0.063592        -1.7304
  21   0.0000      -0.004992        -0.1358
  22   0.0000       0.027582         0.7505
  23   0.0000       0.038845         1.0570
  24   0.0000       0.053334         1.4513

MULLIKEN ATOMIC CHARGES
-----------------------
   0 C :    0.903053
   1 C :    0.000685
   2 H :   -0.121739
   3 H :   -0.150478
   4 C :    0.574096
   5 O :   -0.343369
   6 F :   -0.334616
   7 H :   -0.182824
   8 H :   -0.182307
   9 H :   -0.162502
Sum of atomic charges:   -0.0000000

LOEWDIN ATOMIC CHARGES
----------------------
   0 C :    0.151255
   1 C :    0.015123
   2 H :    0.025306
   3 H :    0.019550
   4 C :   -0.045556
   5 O :   -0.093669
   6 F :   -0.027993
   7 H :   -0.016854
   8 H :   -0.016338
   9 H :   -0.010824

  Mayer bond orders larger than 0.100000
B(  0-C ,  1-C ) :   1.3363 B(  0-C ,  2-H ) :   0.1301 B(  0-C ,  3-H ) :   0.1246
B(  0-C ,  7-H ) :   0.7828 B(  0-C ,  8-H ) :   0.7502 B(  0-C ,  9-H ) :   0.7512
B(  1-C ,  2-H ) :   0.8643 B(  1-C ,  3-H ) :   0.8745 B(  1-C ,  4-C ) :   1.0400
B(  1-C ,  7-H ) :   0.1881 B(  1-C ,  8-H ) :   0.2077 B(  1-C ,  9-H ) :   0.2197
B(  2-H ,  4-C ) :   0.1030 B(  4-C ,  5-O ) :   1.9163 B(  4-C ,  6-F ) :   0.7695
B(  5-O ,  6-F ) :   0.1440

Dispersion correction           -0.012839962
FINAL SINGLE POINT ENERGY      -292.131581763148

DIPOLE MOMENT
-------------
                                X             Y             Z
Electronic contribution:      7.04106       1.00901       4.25730
Nuclear contribution   :     -7.35982      -0.91407      -5.31589
                        -----------------------------------------
Total Dipole Moment    :     -0.31876       0.09493      -1.05860
                        -----------------------------------------
Magnitude (a.u.)       :      1.10962
Magnitude (Debye)      :      2.82042

Rotational constants in cm-1:     0.275433     0.132201     0.105422
Rotational constants in MHz :  8257.268192  3963.279062  3160.465566

                             ****ORCA TERMINATED NORMALLY****
TOTAL RUN TIME: 0 days 0 hours 0 minutes 8 seconds 637 msec
