                         Program Version 5.0.0 -  RELEASE  -
|  1> !BLYP D3BJ RIJCOSX def2-SVPD def2/J TightSCF
|  2>
|  3> *xyz 0 1
|  4> C          3.34350        3.35457       -3.59200
|  5> C          2.95263        1.86308       -3.57485
|  6> C          4.25587        3.70385       -4.72605
|  7> N          3.73403        4.29378       -5.80077
|  8> C          5.51504        3.40725       -4.63718
|  9> H          6.14919        3.60120       -5.39905
| 10> H          5.81358        2.89950       -3.80879
| 11> H          2.74138        4.51311       -5.82470
| 12> H          4.28755        4.52126       -6.61434
| 13> H          3.86125        3.59725       -2.66298
| 14> H          2.44649        3.97346       -3.65656
| 15> H          2.44395        1.61721       -4.48352
| 16> H          2.30781        1.67290       -2.74242
| 17> H          3.83491        1.26414       -3.48670
| 18> *
| 19> %MaxCore 64000
| 20>
| 21> %pal nprocs 4
| 22> end
| 23>
| 24> %scf
| 25>   MaxIter 150
| 26> end
| 27>
| 28>
| 29>                          ****END OF INPUT****

CARTESIAN COORDINATES (ANGSTROEM)
---------------------------------
  C      3.343500    3.354570   -3.592000
  C      2.952630    1.863080   -3.574850
  C      4.255870    3.703850   -4.726050
  N      3.734030    4.293780   -5.800770
  C      5.515040    3.407250   -4.637180
  H      6.149190    3.601200   -5.399050
  H      5.813580    2.899500   -3.808790
  H      2.741380    4.513110   -5.824700
  H      4.287550    4.521260   -6.614340
  H      3.861250    3.597250   -2.662980
  H      2.446490    3.973460   -3.656560
  H      2.443950    1.617210   -4.483520
  H      2.307810    1.672900   -2.742420
  H      3.834910    1.264140   -3.486700

 Total Charge           Charge          ....    0
 Multiplicity           Mult            ....    1
 Number of Electrons    NEL             ....   40
 Basis Dimension        Dim             ....  172

ORBITAL ENERGIES
----------------

  NO   OCC          E(Eh)            E(eV)
   0   2.0000     -14.025775      -381.6607
   1   2.0000      -9.934807      -270.3398
   2   2.0000      -9.920697      -269.9559
   3   2.0000      -9.907922      -269.6083
   4   2.0000      -9.853865      -268.1373
   5   2.0000      -0.828520       -22.5452
   6   2.0000      -0.695209       -18.9176
   7   2.0000      -0.635798       -17.3009
   8   2.0000      -0.564141       -15.3510
   9   2.0000      -0.502581       -13.6759
  10   2.0000      -0.465488       -12.6666
  11   2.0000      -0.426577       -11.6077
  12   2.0000      -0.388133       -10.5616
  13   2.0000      -0.363594        -9.8939
  14   2.0000      -0.344521        -9.3749
  15   2.0000      -0.335113        -9.1189
  16   2.0000      -0.304716        -8.2917
  17   2.0000      -0.293808        -7.9949
  18   2.0000      -0.281668        -7.6646
  19   2.0000      -0.156500        -4.2586
  20   0.0000      -0.003872        -0.1054
  21   0.0000       0.017386         0.4731
  22   0.0000       0.031936         0.8690
  23   0.0000       0.039358         1.0710
  24   0.0000       0.049374         1.3435

MULLIKEN ATOMIC CHARGES
-----------------------
   0 C :    0.175299
   1 C :    0.985252
   2 C :   -0.025586
   3 N :    0.371448
   4 C :    0.655830
   5 H :   -0.622639
   6 H :   -0.246320
   7 H :   -0.176806
   8 H :   -0.263389
   9 H :   -0.058114
  10 H :   -0.270684
  11 H :   -0.202095
  12 H :   -0.141199
  13 H :   -0.180997
Sum of atomic charges:   -0.0000000

LOEWDIN ATOMIC CHARGES
----------------------
   0 C :   -0.022904
   1 C :    0.150065
   2 C :   -0.267884
   3 N :    0.192981
   4 C :    0.179457
   5 H :   -0.087809
   6 H :   -0.077981
   7 H :   -0.010167
   8 H :   -0.003925
   9 H :    0.018927
  10 H :    0.005878
  11 H :   -0.023633
  12 H :   -0.027058
  13 H :   -0.025944

  Mayer bond orders larger than 0.100000
B(  0-C ,  1-C ) :   1.2595 B(  0-C ,  2-C ) :   1.0937 B(  0-C ,  3-N ) :   0.1392
B(  0-C ,  4-C ) :   0.2347 B(  0-C ,  9-H ) :   0.7565 B(  0-C , 10-H ) :   0.7303
B(  0-C , 11-H ) :   0.2326 B(  0-C , 12-H ) :   0.2033 B(  0-C , 13-H ) :   0.2402
B(  1-C ,  9-H ) :   0.1039 B(  1-C , 10-H ) :   0.1290 B(  1-C , 11-H ) :   0.7495
B(  1-C , 12-H ) :   0.7404 B(  1-C , 13-H ) :   0.7559 B(  2-C ,  3-N ) :   1.2179
B(  2-C ,  4-C ) :   1.5993 B(  2-C ,  5-H ) :   0.2746 B(  2-C ,  6-H ) :   0.1626
B(  2-C ,  8-H ) :  -0.1293 B(  2-C ,  9-H ) :   0.1660 B(  2-C , 10-H ) :   0.1993
B(  3-N ,  4-C ) :   0.3035 B(  3-N ,  7-H ) :   1.0862 B(  3-N ,  8-H ) :   1.2821
B(  4-C ,  5-H ) :   0.5242 B(  4-C ,  6-H ) :   0.6874 B(  7-H ,  8-H ) :  -0.1746

Dispersion correction           -0.021459751
FINAL SINGLE POINT ENERGY      -212.320832951882

DIPOLE MOMENT
-------------
                                X             Y             Z
Electronic contribution:      0.79391       2.28160      -1.88066
Nuclear contribution   :     -1.38463      -2.07457       1.55023
                        -----------------------------------------
Total Dipole Moment    :     -0.59072       0.20703      -0.33043
                        -----------------------------------------
Magnitude (a.u.)       :      0.70781
Magnitude (Debye)      :      1.79911

Rotational constants in cm-1:     0.272312     0.128195     0.101724
Rotational constants in MHz :  8163.717141  3843.180148  3049.598073

                             ****ORCA TERMINATED NORMALLY****
TOTAL RUN TIME: 0 days 0 hours 0 minutes 12 seconds 990 msec
