                         Program Version 5.0.0 -  RELEASE  -
|  1> !BLYP D3BJ RIJCOSX def2-SVPD def2/J TightSCF xyzfile
|  2>
|  3> *xyzfile 0 1 D1.xyz
|  4>
|  5> %MaxCore 64000
|  6>
|  7> %pal nprocs 4
|  8> end
|  9>
| 10> %scf
| 11>   MaxIter 150
| 12> end
| 13>
| 14>
| 15>                          ****END OF INPUT****

CARTESIAN COORDINATES (ANGSTROEM)
---------------------------------
  C      3.343500    3.354571   -3.591998
  C      2.952633    1.863077   -3.574849
  C      4.129209    0.898394   -3.418950
  H      3.733687   -0.100605   -3.237633
  H      4.719095    0.862556   -4.339005
  C      5.017344    1.315212   -2.221305
  C      4.255868    3.703851   -4.726054
  C      3.734032    4.293783   -5.800770
  N      5.515039    3.407255   -4.637185
  H      6.149187    3.601203   -5.399053
  H      5.813584    2.899504   -3.808785
  H      2.741380    4.513109   -5.824701
  H      4.287548    4.521260   -6.614341
  H      2.278938    1.735250   -2.725496
  H      2.377466    1.625787   -4.475869
  F      4.737055    0.854112   -1.122825
  O      5.928146    2.168108   -2.491365
  H      3.861246    3.597252   -2.662979
  H      2.446493    3.973461   -3.656556

 Total Charge           Charge          ....    0
 Multiplicity           Mult            ....    1
 Number of Electrons    NEL             ....   70
 Basis Dimension        Dim             ....  266

ORBITAL ENERGIES
----------------

  NO   OCC          E(Eh)            E(eV)
   0   2.0000     -24.410302      -664.2381
   1   2.0000     -18.822805      -512.1946
   2   2.0000     -13.992425      -380.7533
   3   2.0000     -10.125150      -275.5193
   4   2.0000      -9.961151      -271.0567
   5   2.0000      -9.944698      -270.6090
   6   2.0000      -9.927323      -270.1362
   7   2.0000      -9.923123      -270.0219
   8   2.0000      -9.845516      -267.9101
   9   2.0000      -1.242869       -33.8202
  10   2.0000      -0.956705       -26.0333
  11   2.0000      -0.821857       -22.3639
  12   2.0000      -0.736939       -20.0531
  13   2.0000      -0.669169       -18.2090
  14   2.0000      -0.633351       -17.2344
  15   2.0000      -0.605129       -16.4664
  16   2.0000      -0.561520       -15.2797
  17   2.0000      -0.522888       -14.2285
  18   2.0000      -0.511243       -13.9116
  19   2.0000      -0.489275       -13.3139
  20   2.0000      -0.483755       -13.1636
  21   2.0000      -0.447564       -12.1788
  22   2.0000      -0.429355       -11.6833
  23   2.0000      -0.406562       -11.0631
  24   2.0000      -0.393039       -10.6951
  25   2.0000      -0.379085       -10.3154
  26   2.0000      -0.346712        -9.4345
  27   2.0000      -0.339058        -9.2262
  28   2.0000      -0.329948        -8.9783
  29   2.0000      -0.326193        -8.8762
  30   2.0000      -0.314530        -8.5588
  31   2.0000      -0.284848        -7.7511
  32   2.0000      -0.277672        -7.5558
  33   2.0000      -0.259255        -7.0547
  34   2.0000      -0.139914        -3.8073
  35   0.0000      -0.093547        -2.5455
  36   0.0000      -0.011163        -0.3038
  37   0.0000       0.015142         0.4120
  38   0.0000       0.022632         0.6159
  39   0.0000       0.027296         0.7428

MULLIKEN ATOMIC CHARGES
-----------------------
   0 C :    0.773413
   1 C :    0.239577
   2 C :    0.508865
   3 H :   -0.330534
   4 H :    0.015189
   5 C :    0.649934
   6 C :   -0.190315
   7 C :    0.553087
   8 N :    1.007198
   9 H :   -0.309411
  10 H :   -0.635207
  11 H :   -0.283007
  12 H :   -0.592416
  13 H :   -0.098133
  14 H :   -0.312581
  15 F :   -0.278079
  16 O :   -0.413146
  17 H :   -0.109978
  18 H :   -0.194455
Sum of atomic charges:   -0.0000000

LOEWDIN ATOMIC CHARGES
----------------------
   0 C :    0.028783
   1 C :    0.008079
   2 C :    0.070002
   3 H :    0.017421
   4 H :    0.028920
   5 C :    0.014678
   6 C :   -0.252627
   7 C :    0.183768
   8 N :    0.222849
   9 H :    0.010795
  10 H :   -0.149853
  11 H :   -0.098055
  12 H :   -0.099806
  13 H :    0.018015
  14 H :    0.028855
  15 F :    0.035428
  16 O :   -0.100738
  17 H :    0.012006
  18 H :    0.021482

  Mayer bond orders larger than 0.100000
B(  0-C ,  1-C ) :   1.0906 B(  0-C ,  6-C ) :   1.0965 B(  0-C ,  8-N ) :   0.1234
B(  0-C , 13-H ) :   0.1443 B(  0-C , 14-H ) :   0.1817 B(  0-C , 17-H ) :   0.4801
B(  0-C , 18-H ) :   0.7208 B(  1-C ,  2-C ) :   1.2464 B(  1-C ,  3-H ) :   0.2498
B(  1-C ,  4-H ) :   0.2107 B(  1-C ,  5-C ) :   0.1153 B(  1-C , 13-H ) :   0.7532
B(  1-C , 14-H ) :   0.8449 B(  1-C , 17-H ) :   0.2214 B(  1-C , 18-H ) :   0.1856
B(  2-C ,  3-H ) :   0.6752 B(  2-C ,  4-H ) :   0.7854 B(  2-C ,  5-C ) :   1.0462
B(  2-C , 13-H ) :   0.1554 B(  3-H ,  5-C ) :   0.1245 B(  5-C , 15-F ) :   0.8197
B(  5-C , 16-O ) :   1.6495 B(  6-C ,  7-C ) :   1.2961 B(  6-C ,  8-N ) :   1.2449
B(  6-C , 12-H ) :   0.1944 B(  6-C , 17-H ) :   0.2674 B(  6-C , 18-H ) :   0.2117
B(  7-C ,  8-N ) :   0.2419 B(  7-C , 11-H ) :   0.9044 B(  7-C , 12-H ) :   0.4867
B(  8-N ,  9-H ) :   1.1537 B(  8-N , 10-H ) :   0.7512 B(  9-H , 10-H ) :  -0.2215
B( 10-H , 16-O ) :   0.2396 B( 15-F , 16-O ) :   0.1331

Dispersion correction           -0.038462817
FINAL SINGLE POINT ENERGY      -463.985230958106

DIPOLE MOMENT
-------------
                                X             Y             Z
Electronic contribution:      5.57199      -5.90852      10.53236
Nuclear contribution   :     -5.86483       4.68058     -10.07545
                        -----------------------------------------
Total Dipole Moment    :     -0.29284      -1.22793       0.45691
                        -----------------------------------------
Magnitude (a.u.)       :      1.34252
Magnitude (Debye)      :      3.41240

Rotational constants in cm-1:     0.107256     0.035474     0.030113
Rotational constants in MHz :  3215.453922  1063.481574   902.777619

                             ****ORCA TERMINATED NORMALLY****
TOTAL RUN TIME: 0 days 0 hours 0 minutes 16 seconds 881 msec
