                         Program Version 5.0.0 -  RELEASE  -
|  1> !BLYP D3BJ RIJCOSX def2-SVPD def2/J TightSCF xyzfile
|  2>
|  3> *xyzfile 0 1 D3.xyz
|  4>
|  5> %MaxCore 64000
|  6>
|  7> %pal nprocs 4
|  8> end
|  9>
| 10> %scf
| 11>   MaxIter 150
| 12> end
| 13>
| 14>
| 15>                          ****END OF INPUT****

CARTESIAN COORDINATES (ANGSTROEM)
---------------------------------
  C      3.343500    3.354571   -3.591998
  C      2.952633    1.863077   -3.574849
  C      4.129209    0.898394   -3.418950
  H      3.733687   -0.100605   -3.237633
  H      4.719095    0.862556   -4.339005
  C      5.017344    1.315212   -2.221305
  C      4.255868    3.703851   -4.726054
  C      3.734032    4.293783   -5.800770
  N      5.515039    3.407255   -4.637185
  H      6.149187    3.601203   -5.399053
  H      5.813584    2.899504   -3.808785
  H      2.741380    4.513109   -5.824701
  H      4.287548    4.521260   -6.614341
  H      2.278938    1.735250   -2.725496
  H      2.377466    1.625787   -4.475869
  O      4.737055    0.854112   -1.122825
  F      5.928146    2.168108   -2.491365
  H      3.861246    3.597252   -2.662979
  H      2.446493    3.973461   -3.656556

 Total Charge           Charge          ....    0
 Multiplicity           Mult            ....    1
 Number of Electrons    NEL             ....   70
 Basis Dimension        Dim             ....  266

ORBITAL ENERGIES
----------------

  NO   OCC          E(Eh)            E(eV)
   0   2.0000     -24.398977      -663.9299
   1   2.0000     -18.821632      -512.1626
   2   2.0000     -14.018502      -381.4628
   3   2.0000     -10.111959      -275.1604
   4   2.0000      -9.957698      -270.9627
   5   2.0000      -9.943839      -270.5856
   6   2.0000      -9.940540      -270.4958
   7   2.0000      -9.931736      -270.2563
   8   2.0000      -9.858382      -268.2602
   9   2.0000      -1.218547       -33.1583
  10   2.0000      -0.968241       -26.3472
  11   2.0000      -0.843234       -22.9456
  12   2.0000      -0.737400       -20.0657
  13   2.0000      -0.674927       -18.3657
  14   2.0000      -0.642335       -17.4788
  15   2.0000      -0.606292       -16.4980
  16   2.0000      -0.570496       -15.5240
  17   2.0000      -0.522661       -14.2223
  18   2.0000      -0.509973       -13.8771
  19   2.0000      -0.490533       -13.3481
  20   2.0000      -0.468662       -12.7529
  21   2.0000      -0.447093       -12.1660
  22   2.0000      -0.429150       -11.6778
  23   2.0000      -0.417484       -11.3603
  24   2.0000      -0.397217       -10.8088
  25   2.0000      -0.374267       -10.1843
  26   2.0000      -0.354903        -9.6574
  27   2.0000      -0.350128        -9.5275
  28   2.0000      -0.339473        -9.2375
  29   2.0000      -0.331591        -9.0230
  30   2.0000      -0.318454        -8.6656
  31   2.0000      -0.293069        -7.9748
  32   2.0000      -0.290296        -7.8993
  33   2.0000      -0.262049        -7.1307
  34   2.0000      -0.155062        -4.2194
  35   0.0000      -0.080426        -2.1885
  36   0.0000      -0.008012        -0.2180
  37   0.0000       0.008243         0.2243
  38   0.0000       0.020979         0.5709
  39   0.0000       0.022318         0.6073

MULLIKEN ATOMIC CHARGES
-----------------------
   0 C :    0.722999
   1 C :    0.270235
   2 C :    0.504120
   3 H :   -0.334073
   4 H :    0.026811
   5 C :    0.559445
   6 C :   -0.142729
   7 C :    0.558532
   8 N :    0.987551
   9 H :   -0.302417
  10 H :   -0.558875
  11 H :   -0.273119
  12 H :   -0.599547
  13 H :   -0.085682
  14 H :   -0.312634
  15 O :   -0.298102
  16 F :   -0.398942
  17 H :   -0.131082
  18 H :   -0.192490
Sum of atomic charges:    0.0000000

LOEWDIN ATOMIC CHARGES
----------------------
   0 C :    0.028643
   1 C :    0.010099
   2 C :    0.065697
   3 H :    0.026880
   4 H :    0.018026
   5 C :   -0.019990
   6 C :   -0.253677
   7 C :    0.191451
   8 N :    0.220419
   9 H :    0.014493
  10 H :   -0.105866
  11 H :   -0.092257
  12 H :   -0.096595
  13 H :    0.024338
  14 H :    0.027811
  15 O :   -0.069424
  16 F :   -0.027803
  17 H :    0.014411
  18 H :    0.023343

  Mayer bond orders larger than 0.100000
B(  0-C ,  1-C ) :   1.1094 B(  0-C ,  6-C ) :   1.1047 B(  0-C ,  7-C ) :   0.1032
B(  0-C ,  8-N ) :   0.1307 B(  0-C , 13-H ) :   0.1418 B(  0-C , 14-H ) :   0.1894
B(  0-C , 17-H ) :   0.4879 B(  0-C , 18-H ) :   0.7257 B(  1-C ,  2-C ) :   1.2487
B(  1-C ,  3-H ) :   0.2378 B(  1-C ,  4-H ) :   0.2053 B(  1-C ,  5-C ) :   0.1245
B(  1-C , 13-H ) :   0.7625 B(  1-C , 14-H ) :   0.8295 B(  1-C , 17-H ) :   0.2207
B(  1-C , 18-H ) :   0.1796 B(  2-C ,  3-H ) :   0.6744 B(  2-C ,  4-H ) :   0.7813
B(  2-C ,  5-C ) :   1.0409 B(  2-C , 13-H ) :   0.1560 B(  2-C , 14-H ) :   0.1010
B(  2-C , 16-F ) :   0.1357 B(  3-H ,  5-C ) :   0.1701 B(  5-C , 15-O ) :   1.9286
B(  5-C , 16-F ) :   0.6404 B(  6-C ,  7-C ) :   1.2809 B(  6-C ,  8-N ) :   1.2248
B(  6-C , 10-H ) :   0.1070 B(  6-C , 12-H ) :   0.1899 B(  6-C , 17-H ) :   0.2431
B(  6-C , 18-H ) :   0.2225 B(  7-C ,  8-N ) :   0.2529 B(  7-C , 11-H ) :   0.9180
B(  7-C , 12-H ) :   0.4772 B(  8-N ,  9-H ) :   1.1758 B(  8-N , 10-H ) :   0.7780
B(  9-H , 10-H ) :  -0.2171 B( 10-H , 16-F ) :   0.1566 B( 15-O , 16-F ) :   0.1519

Dispersion correction           -0.038080121
FINAL SINGLE POINT ENERGY      -463.990197036595

DIPOLE MOMENT
-------------
                                X             Y             Z
Electronic contribution:      7.47155      -3.57101       8.05638
Nuclear contribution   :     -7.21688       3.18902      -8.52197
                        -----------------------------------------
Total Dipole Moment    :      0.25467      -0.38199      -0.46559
                        -----------------------------------------
Magnitude (a.u.)       :      0.65387
Magnitude (Debye)      :      1.66201

Rotational constants in cm-1:     0.103917     0.036987     0.030872
Rotational constants in MHz :  3115.342573  1108.839114   925.506342

                             ****ORCA TERMINATED NORMALLY****
TOTAL RUN TIME: 0 days 0 hours 0 minutes 17 seconds 647 msec
