                         Program Version 5.0.0 -  RELEASE  -
|  1> !BLYP D3BJ RIJCOSX def2-SVPD def2/J TightSCF xyzfile
|  2>
|  3> *xyzfile 0 1 D4.xyz
|  4>
|  5> %MaxCore 64000
|  6>
|  7> %pal nprocs 4
|  8> end
|  9>
| 10> %scf
| 11>   MaxIter 150
| 12> end
| 13>
| 14>
| 15>                          ****END OF INPUT****

CARTESIAN COORDINATES (ANGSTROEM)
---------------------------------
  C      3.343500    3.354571   -3.591998
  C      2.952633    1.863077   -3.574849
  C      4.129209    0.898394   -3.418950
  H      3.733687   -0.100605   -3.237633
  H      4.719095    0.862556   -4.339005
  C      5.017344    1.315212   -2.221305
  C      4.255868    3.703851   -4.726054
  N      3.734032    4.293783   -5.800770
  C      5.515039    3.407255   -4.637185
  H      6.149187    3.601203   -5.399053
  H      5.813584    2.899504   -3.808785
  H      2.741380    4.513109   -5.824701
  H      4.287548    4.521260   -6.614341
  H      2.278938    1.735250   -2.725496
  H      2.377466    1.625787   -4.475869
  O      4.737055    0.854112   -1.122825
  F      5.928146    2.168108   -2.491365
  H      3.861246    3.597252   -2.662979
  H      2.446493    3.973461   -3.656556

 Total Charge           Charge          ....    0
 Multiplicity           Mult            ....    1
 Number of Electrons    NEL             ....   70
 Basis Dimension        Dim             ....  266

ORBITAL ENERGIES
----------------

  NO   OCC          E(Eh)            E(eV)
   0   2.0000     -24.370361      -663.1512
   1   2.0000     -18.806216      -511.7432
   2   2.0000     -14.029579      -381.7642
   3   2.0000     -10.095890      -274.7231
   4   2.0000      -9.946095      -270.6470
   5   2.0000      -9.941321      -270.5171
   6   2.0000      -9.938592      -270.4428
   7   2.0000      -9.931849      -270.2593
   8   2.0000      -9.845825      -267.9185
   9   2.0000      -1.192078       -32.4381
  10   2.0000      -0.953046       -25.9337
  11   2.0000      -0.833180       -22.6720
  12   2.0000      -0.733822       -19.9683
  13   2.0000      -0.672489       -18.2994
  14   2.0000      -0.631328       -17.1793
  15   2.0000      -0.603049       -16.4098
  16   2.0000      -0.551891       -15.0177
  17   2.0000      -0.521229       -14.1834
  18   2.0000      -0.484421       -13.1818
  19   2.0000      -0.474219       -12.9042
  20   2.0000      -0.468160       -12.7393
  21   2.0000      -0.445443       -12.1211
  22   2.0000      -0.426347       -11.6015
  23   2.0000      -0.409111       -11.1325
  24   2.0000      -0.395474       -10.7614
  25   2.0000      -0.369228       -10.0472
  26   2.0000      -0.351455        -9.5636
  27   2.0000      -0.338532        -9.2119
  28   2.0000      -0.330353        -8.9894
  29   2.0000      -0.319600        -8.6968
  30   2.0000      -0.308598        -8.3974
  31   2.0000      -0.288653        -7.8547
  32   2.0000      -0.285507        -7.7690
  33   2.0000      -0.248157        -6.7527
  34   2.0000      -0.159997        -4.3537
  35   0.0000      -0.065348        -1.7782
  36   0.0000      -0.009506        -0.2587
  37   0.0000       0.008536         0.2323
  38   0.0000       0.015384         0.4186
  39   0.0000       0.025814         0.7024

MULLIKEN ATOMIC CHARGES
-----------------------
   0 C :    0.613799
   1 C :    0.291221
   2 C :    0.452482
   3 H :   -0.390739
   4 H :    0.104264
   5 C :    0.574024
   6 C :    0.065589
   7 N :    0.336023
   8 C :    1.141434
   9 H :   -0.880815
  10 H :   -0.344079
  11 H :   -0.198703
  12 H :   -0.266954
  13 H :   -0.110130
  14 H :   -0.307613
  15 O :   -0.318411
  16 F :   -0.418618
  17 H :    0.070586
  18 H :   -0.413360
Sum of atomic charges:    0.0000000

LOEWDIN ATOMIC CHARGES
----------------------
   0 C :    0.029015
   1 C :    0.007425
   2 C :    0.066844
   3 H :    0.024989
   4 H :    0.017609
   5 C :   -0.018762
   6 C :   -0.236560
   7 N :    0.192990
   8 C :    0.206748
   9 H :   -0.077049
  10 H :   -0.158797
  11 H :   -0.011113
  12 H :   -0.002760
  13 H :    0.023810
  14 H :    0.023745
  15 O :   -0.080218
  16 F :   -0.041377
  17 H :    0.021023
  18 H :    0.012438

  Mayer bond orders larger than 0.100000
B(  0-C ,  1-C ) :   1.1185 B(  0-C ,  6-C ) :   1.0654 B(  0-C ,  7-N ) :   0.1575
B(  0-C ,  8-C ) :   0.2282 B(  0-C , 13-H ) :   0.1447 B(  0-C , 14-H ) :   0.1567
B(  0-C , 17-H ) :   0.6496 B(  0-C , 18-H ) :   0.7148 B(  1-C ,  2-C ) :   1.2427
B(  1-C ,  3-H ) :   0.2346 B(  1-C ,  4-H ) :   0.1876 B(  1-C ,  5-C ) :   0.1341
B(  1-C , 13-H ) :   0.7219 B(  1-C , 14-H ) :   0.8089 B(  1-C , 17-H ) :   0.2028
B(  1-C , 18-H ) :   0.2117 B(  2-C ,  3-H ) :   0.7079 B(  2-C ,  4-H ) :   0.7622
B(  2-C ,  5-C ) :   1.0207 B(  2-C , 10-H ) :   0.1375 B(  2-C , 13-H ) :   0.1754
B(  2-C , 16-F ) :   0.1669 B(  3-H ,  5-C ) :   0.1749 B(  3-H , 10-H ) :  -0.1427
B(  4-H , 10-H ) :   0.1078 B(  5-C , 15-O ) :   1.9241 B(  5-C , 16-F ) :   0.6672
B(  6-C ,  7-N ) :   1.1229 B(  6-C ,  8-C ) :   1.7419 B(  6-C ,  9-H ) :   0.3568
B(  6-C , 10-H ) :   0.3483 B(  6-C , 12-H ) :  -0.1213 B(  6-C , 17-H ) :   0.1621
B(  6-C , 18-H ) :   0.1747 B(  7-N ,  8-C ) :   0.3513 B(  7-N , 11-H ) :   1.1427
B(  7-N , 12-H ) :   1.3124 B(  8-C ,  9-H ) :   0.4608 B(  8-C , 10-H ) :   0.2724
B(  9-H , 10-H ) :  -0.3549 B( 10-H , 16-F ) :   0.1434 B( 11-H , 12-H ) :  -0.1696
B( 15-O , 16-F ) :   0.1672

Dispersion correction           -0.038342107
FINAL SINGLE POINT ENERGY      -463.976861665127

DIPOLE MOMENT
-------------
                                X             Y             Z
Electronic contribution:      6.20232      -2.79838       7.10345
Nuclear contribution   :     -6.99695       3.07955      -8.37829
                        -----------------------------------------
Total Dipole Moment    :     -0.79463       0.28117      -1.27484
                        -----------------------------------------
Magnitude (a.u.)       :      1.52830
Magnitude (Debye)      :      3.88464

Rotational constants in cm-1:     0.106302     0.035771     0.030198
Rotational constants in MHz :  3186.860872  1072.397550   905.318354

                             ****ORCA TERMINATED NORMALLY****
TOTAL RUN TIME: 0 days 0 hours 0 minutes 15 seconds 80 msec
