                         Program Version 5.0.0 -  RELEASE  -
|  1> !LC-BLYP RIJCOSX def2-SVPD def2/J TightSCF
|  2> *xyz -1 1
|  3> C          2.49556        1.81615       -2.13636
|  4> C          1.87218        0.42790       -2.07750
|  5> H          2.61427       -0.36583       -2.19889
|  6> H          1.38995        0.27309       -1.11236
|  7> S          0.57902        0.14047       -3.29794
|  8> O          0.22886       -1.24687       -3.12787
|  9> O         -0.43927        1.11897       -3.01455
| 10> O          1.24788        0.40347       -4.59565
| 11> H          2.96535        1.95613       -3.08747
| 12> H          3.22581        1.91242       -1.36024
| 13> H          1.73350        2.55528       -2.00274
| 14> *
| 15>
| 16> %MaxCore 64000
| 17>
| 18> %pal nprocs 4
| 19> end
| 20>
| 21> %scf
| 22>   MaxIter 150
| 23> end
| 24>
| 25>
| 26>                          ****END OF INPUT****

CARTESIAN COORDINATES (ANGSTROEM)
---------------------------------
  C      2.495560    1.816150   -2.136360
  C      1.872180    0.427900   -2.077500
  H      2.614270   -0.365830   -2.198890
  H      1.389950    0.273090   -1.112360
  S      0.579020    0.140470   -3.297940
  O      0.228860   -1.246870   -3.127870
  O     -0.439270    1.118970   -3.014550
  O      1.247880    0.403470   -4.595650
  H      2.965350    1.956130   -3.087470
  H      3.225810    1.912420   -1.360240
  H      1.733500    2.555280   -2.002740

 Total Charge           Charge          ....   -1
 Multiplicity           Mult            ....    1
 Number of Electrons    NEL             ....   58
 Basis Dimension        Dim             ....  176

ORBITAL ENERGIES
----------------

  NO   OCC          E(Eh)            E(eV)
   0   2.0000     -88.309796     -2403.0317
   1   2.0000     -18.741940      -509.9941
   2   2.0000     -18.741898      -509.9930
   3   2.0000     -18.727302      -509.5958
   4   2.0000      -9.948302      -270.7071
   5   2.0000      -9.941906      -270.5330
   6   2.0000      -7.858835      -213.8498
   7   2.0000      -5.893161      -160.3611
   8   2.0000      -5.893024      -160.3573
   9   2.0000      -5.892564      -160.3448
  10   2.0000      -1.035204       -28.1693
  11   2.0000      -0.891969       -24.2717
  12   2.0000      -0.865307       -23.5462
  13   2.0000      -0.739952       -20.1351
  14   2.0000      -0.612935       -16.6788
  15   2.0000      -0.487965       -13.2782
  16   2.0000      -0.427513       -11.6332
  17   2.0000      -0.426115       -11.5952
  18   2.0000      -0.385489       -10.4897
  19   2.0000      -0.372444       -10.1347
  20   2.0000      -0.361254        -9.8302
  21   2.0000      -0.335113        -9.1189
  22   2.0000      -0.312713        -8.5093
  23   2.0000      -0.259623        -7.0647
  24   2.0000      -0.257831        -7.0159
  25   2.0000      -0.221699        -6.0327
  26   2.0000      -0.210077        -5.7165
  27   2.0000      -0.201371        -5.4796
  28   2.0000      -0.166639        -4.5345
  29   0.0000       0.191135         5.2010
  30   0.0000       0.212806         5.7908
  31   0.0000       0.217430         5.9166
  32   0.0000       0.222602         6.0573
  33   0.0000       0.244798         6.6613

MULLIKEN ATOMIC CHARGES
-----------------------
   0 C :    1.009388
   1 C :   -0.176328
   2 H :   -0.166717
   3 H :   -0.127361
   4 S :    1.111047
   5 O :   -0.710966
   6 O :   -0.716121
   7 O :   -0.766852
   8 H :   -0.138626
   9 H :   -0.188131
  10 H :   -0.129333
Sum of atomic charges:   -1.0000000

LOEWDIN ATOMIC CHARGES
----------------------
   0 C :    0.091314
   1 C :   -0.151988
   2 H :    0.011692
   3 H :    0.006797
   4 S :    0.797498
   5 O :   -0.558560
   6 O :   -0.555834
   7 O :   -0.578732
   8 H :   -0.017400
   9 H :   -0.029636
  10 H :   -0.015153

  Mayer bond orders larger than 0.100000
B(  0-C ,  1-C ) :   1.2675 B(  0-C ,  3-H ) :   0.1051 B(  0-C ,  8-H ) :   0.7707
B(  0-C ,  9-H ) :   0.6663 B(  0-C , 10-H ) :   0.7524 B(  1-C ,  2-H ) :   0.9749
B(  1-C ,  3-H ) :   0.9400 B(  1-C ,  4-S ) :   0.9191 B(  1-C ,  8-H ) :   0.2172
B(  1-C ,  9-H ) :   0.2653 B(  1-C , 10-H ) :   0.2257 B(  4-S ,  5-O ) :   1.4098
B(  4-S ,  6-O ) :   1.3636 B(  4-S ,  7-O ) :   1.3212

FINAL SINGLE POINT ENERGY      -701.945901723842

DIPOLE MOMENT
-------------
                                X             Y             Z
Electronic contribution:     -5.59873      -3.56227      -3.99858
Nuclear contribution   :      6.89220       4.11756       5.35566
                        -----------------------------------------
Total Dipole Moment    :      1.29347       0.55529       1.35708
                        -----------------------------------------
Magnitude (a.u.)       :      1.95527
Magnitude (Debye)      :      4.96991

Rotational constants in cm-1:     0.162183     0.084017     0.082390
Rotational constants in MHz :  4862.117324  2518.774315  2469.980309

                             ****ORCA TERMINATED NORMALLY****
TOTAL RUN TIME: 0 days 0 hours 0 minutes 20 seconds 330 msec
