                         Program Version 5.0.0 -  RELEASE  -
|  1> !LC-BLYP RIJCOSX def2-SVPD def2/J TightSCF
|  2> *xyz 1 1
|  3> C          3.38093        2.08304       -3.35013
|  4> N          4.53592        1.18245       -3.42852
|  5> C          2.49556        1.81615       -2.13636
|  6> C          4.67196        0.12227       -4.22060
|  7> N          5.86602       -0.50785       -4.22428
|  8> N          3.69888       -0.31284       -4.98699
|  9> H          2.73141       -0.05009       -4.84900
| 10> H          3.89005       -1.05517       -5.64373
| 11> H          5.25193        1.30346       -2.72101
| 12> H          6.69516       -0.06232       -3.85160
| 13> H          5.97538       -1.39688       -4.69141
| 14> H          2.80646        1.98651       -4.26848
| 15> H          3.77871        3.09828       -3.30738
| 16> H          2.11090        0.81901       -2.18783
| 17> H          1.68276        2.51198       -2.12786
| 18> H          3.07216        1.93031       -1.24227
| 19> *
| 20>
| 21> %MaxCore 64000
| 22>
| 23> %pal nprocs 4
| 24> end
| 25>
| 26> %scf
| 27>   MaxIter 150
| 28> end
| 29>
| 30>
| 31>                          ****END OF INPUT****

CARTESIAN COORDINATES (ANGSTROEM)
---------------------------------
  C      3.380930    2.083040   -3.350130
  N      4.535920    1.182450   -3.428520
  C      2.495560    1.816150   -2.136360
  C      4.671960    0.122270   -4.220600
  N      5.866020   -0.507850   -4.224280
  N      3.698880   -0.312840   -4.986990
  H      2.731410   -0.050090   -4.849000
  H      3.890050   -1.055170   -5.643730
  H      5.251930    1.303460   -2.721010
  H      6.695160   -0.062320   -3.851600
  H      5.975380   -1.396880   -4.691410
  H      2.806460    1.986510   -4.268480
  H      3.778710    3.098280   -3.307380
  H      2.110900    0.819010   -2.187830
  H      1.682760    2.511980   -2.127860
  H      3.072160    1.930310   -1.242270

 Total Charge           Charge          ....    1
 Multiplicity           Mult            ....    1
 Number of Electrons    NEL             ....   48
 Basis Dimension        Dim             ....  200

ORBITAL ENERGIES
----------------

  NO   OCC          E(Eh)            E(eV)
   0   2.0000     -14.415645      -392.2696
   1   2.0000     -14.410779      -392.1372
   2   2.0000     -14.407359      -392.0442
   3   2.0000     -10.424959      -283.6776
   4   2.0000     -10.290586      -280.0211
   5   2.0000     -10.220464      -278.1130
   6   2.0000      -1.308666       -35.6106
   7   2.0000      -1.198800       -32.6210
   8   2.0000      -1.183350       -32.2006
   9   2.0000      -1.033980       -28.1360
  10   2.0000      -0.943627       -25.6774
  11   2.0000      -0.908117       -24.7111
  12   2.0000      -0.894499       -24.3406
  13   2.0000      -0.846682       -23.0394
  14   2.0000      -0.799963       -21.7681
  15   2.0000      -0.795417       -21.6444
  16   2.0000      -0.748314       -20.3627
  17   2.0000      -0.740112       -20.1395
  18   2.0000      -0.707711       -19.2578
  19   2.0000      -0.661834       -18.0094
  20   2.0000      -0.629714       -17.1354
  21   2.0000      -0.612200       -16.6588
  22   2.0000      -0.578651       -15.7459
  23   2.0000      -0.544997       -14.8301
  24   0.0000      -0.095461        -2.5976
  25   0.0000      -0.089748        -2.4422
  26   0.0000      -0.060009        -1.6329
  27   0.0000      -0.052800        -1.4368
  28   0.0000      -0.026733        -0.7275

MULLIKEN ATOMIC CHARGES
-----------------------
   0 C :    0.447023
   1 N :   -0.288239
   2 C :    0.899148
   3 C :    1.056733
   4 N :    0.146711
   5 N :    0.194723
   6 H :   -0.109692
   7 H :   -0.115496
   8 H :   -0.257861
   9 H :   -0.112618
  10 H :   -0.064444
  11 H :   -0.208756
  12 H :   -0.281513
  13 H :   -0.142990
  14 H :   -0.041045
  15 H :   -0.121682
Sum of atomic charges:    1.0000000

LOEWDIN ATOMIC CHARGES
----------------------
   0 C :    0.026488
   1 N :    0.054781
   2 C :    0.146765
   3 C :   -0.059855
   4 N :    0.267995
   5 N :    0.287465
   6 H :    0.033469
   7 H :    0.043208
   8 H :    0.062710
   9 H :    0.036677
  10 H :    0.033558
  11 H :    0.025054
  12 H :    0.045302
  13 H :   -0.008992
  14 H :    0.007625
  15 H :   -0.002249

  Mayer bond orders larger than 0.100000
B(  0-C ,  1-N ) :   1.0099 B(  0-C ,  2-C ) :   1.2568 B(  0-C ,  8-H ) :  -0.2171
B(  0-C , 11-H ) :   0.8193 B(  0-C , 12-H ) :   0.8530 B(  0-C , 13-H ) :   0.2208
B(  0-C , 14-H ) :   0.1952 B(  0-C , 15-H ) :   0.2490 B(  1-N ,  3-C ) :   1.0765
B(  1-N ,  4-N ) :   0.2482 B(  1-N ,  5-N ) :   0.2576 B(  1-N ,  8-H ) :   1.3198
B(  1-N , 11-H ) :   0.1595 B(  1-N , 12-H ) :   0.1686 B(  2-C , 13-H ) :   0.7681
B(  2-C , 14-H ) :   0.7470 B(  2-C , 15-H ) :   0.7423 B(  3-C ,  4-N ) :   0.9156
B(  3-C ,  5-N ) :   1.0510 B(  3-C ,  6-H ) :  -0.1935 B(  3-C ,  7-H ) :  -0.1557
B(  3-C ,  8-H ) :  -0.2757 B(  3-C ,  9-H ) :  -0.1859 B(  3-C , 10-H ) :  -0.1095
B(  4-N ,  5-N ) :   0.1666 B(  4-N ,  9-H ) :   1.2193 B(  4-N , 10-H ) :   1.1813
B(  5-N ,  6-H ) :   1.1966 B(  5-N ,  7-H ) :   1.2384 B(  6-H ,  7-H ) :  -0.2063
B(  9-H , 10-H ) :  -0.1840

FINAL SINGLE POINT ENERGY      -283.483475661474

DIPOLE MOMENT
-------------
                                X             Y             Z
Electronic contribution:      3.56573      -2.65292      -2.82562
Nuclear contribution   :     -2.93277       1.85779       2.25966
                        -----------------------------------------
Total Dipole Moment    :      0.63297      -0.79512      -0.56596
                        -----------------------------------------
Magnitude (a.u.)       :      1.16326
Magnitude (Debye)      :      2.95678

Rotational constants in cm-1:     0.245511     0.068839     0.059711
Rotational constants in MHz :  7360.233487  2063.743353  1790.088408

                             ****ORCA TERMINATED NORMALLY****
TOTAL RUN TIME: 0 days 0 hours 0 minutes 24 seconds 192 msec
