                         Program Version 5.0.0 -  RELEASE  -
|  1> !LC-BLYP RIJCOSX def2-SVPD def2/J TightSCF xyzfile
|  2>
|  3> *xyzfile 0 1 B.xyz
|  4>
|  5> %MaxCore 64000
|  6>
|  7> %pal nprocs 4
|  8> end
|  9>
| 10> %scf
| 11>   MaxIter 150
| 12> end
| 13>
| 14>
| 15>                          ****END OF INPUT****

CARTESIAN COORDINATES (ANGSTROEM)
---------------------------------
  C      3.380928    2.083045   -3.350127
  N      4.535924    1.182447   -3.428518
  C      2.495557    1.816150   -2.136364
  C      1.872181    0.427903   -2.077497
  H      2.614270   -0.365825   -2.198894
  H      1.389953    0.273087   -1.112360
  S      0.579024    0.140472   -3.297943
  C      4.671956    0.122273   -4.220598
  N      5.866023   -0.507849   -4.224284
  N      3.698881   -0.312844   -4.986988
  H      2.731405   -0.050091   -4.849000
  H      3.890046   -1.055172   -5.643730
  H      5.251933    1.303459   -2.721014
  H      6.695165   -0.062322   -3.851596
  H      5.975383   -1.396884   -4.691414
  O      0.228860   -1.246868   -3.127871
  O     -0.439269    1.118966   -3.014550
  O      1.247881    0.403474   -4.595647
  H      1.697003    2.561969   -2.141109
  H      3.080787    1.987436   -1.225838
  H      2.806463    1.986511   -4.268484
  H      3.778714    3.098282   -3.307383

 Total Charge           Charge          ....    0
 Multiplicity           Mult            ....    1
 Number of Electrons    NEL             ....   96
 Basis Dimension        Dim             ....  324

ORBITAL ENERGIES
----------------

  NO   OCC          E(Eh)            E(eV)
   0   2.0000     -88.456888     -2407.0343
   1   2.0000     -18.892978      -514.1041
   2   2.0000     -18.877721      -513.6889
   3   2.0000     -18.877563      -513.6846
   4   2.0000     -14.285532      -388.7291
   5   2.0000     -14.280006      -388.5787
   6   2.0000     -14.249128      -387.7385
   7   2.0000     -10.287257      -279.9305
   8   2.0000     -10.150296      -276.2036
   9   2.0000     -10.103201      -274.9221
  10   2.0000     -10.090192      -274.5681
  11   2.0000      -8.004947      -217.8257
  12   2.0000      -6.039979      -164.3562
  13   2.0000      -6.038743      -164.3226
  14   2.0000      -6.038526      -164.3167
  15   2.0000      -1.181369       -32.1467
  16   2.0000      -1.172361       -31.9016
  17   2.0000      -1.064556       -28.9681
  18   2.0000      -1.047822       -28.5127
  19   2.0000      -1.027893       -27.9704
  20   2.0000      -1.025293       -27.8996
  21   2.0000      -0.917189       -24.9580
  22   2.0000      -0.846941       -23.0464
  23   2.0000      -0.791496       -21.5377
  24   2.0000      -0.761285       -20.7156
  25   2.0000      -0.749839       -20.4042
  26   2.0000      -0.712377       -19.3848
  27   2.0000      -0.672430       -18.2977
  28   2.0000      -0.656896       -17.8751
  29   2.0000      -0.638113       -17.3639
  30   2.0000      -0.621575       -16.9139
  31   2.0000      -0.593652       -16.1541
  32   2.0000      -0.582983       -15.8638
  33   2.0000      -0.561393       -15.2763
  34   2.0000      -0.546210       -14.8631
  35   2.0000      -0.527790       -14.3619
  36   2.0000      -0.506385       -13.7794
  37   2.0000      -0.484673       -13.1886
  38   2.0000      -0.478751       -13.0275
  39   2.0000      -0.465566       -12.6687
  40   2.0000      -0.442534       -12.0420
  41   2.0000      -0.412614       -11.2278
  42   2.0000      -0.406569       -11.0633
  43   2.0000      -0.399657       -10.8752
  44   2.0000      -0.365583        -9.9480
  45   2.0000      -0.356388        -9.6978
  46   2.0000      -0.346717        -9.4346
  47   2.0000      -0.315515        -8.5856
  48   0.0000       0.015258         0.4152
  49   0.0000       0.039802         1.0831
  50   0.0000       0.050350         1.3701
  51   0.0000       0.068928         1.8756
  52   0.0000       0.086590         2.3562

MULLIKEN ATOMIC CHARGES
-----------------------
   0 C :    1.050468
   1 N :   -0.375487
   2 C :    0.365260
   3 C :    0.338151
   4 H :   -0.041538
   5 H :   -0.270324
   6 S :    1.204954
   7 C :    0.957987
   8 N :    0.157935
   9 N :    0.633673
  10 H :   -0.489194
  11 H :   -0.183429
  12 H :   -0.221309
  13 H :   -0.141894
  14 H :   -0.077296
  15 O :   -0.674131
  16 O :   -0.710325
  17 O :   -0.818571
  18 H :   -0.068191
  19 H :   -0.141544
  20 H :   -0.100974
  21 H :   -0.394222
Sum of atomic charges:    0.0000000

LOEWDIN ATOMIC CHARGES
----------------------
   0 C :    0.071000
   1 N :    0.054414
   2 C :   -0.027778
   3 C :   -0.085491
   4 H :    0.007502
   5 H :    0.026073
   6 S :    0.878564
   7 C :   -0.068093
   8 N :    0.244998
   9 N :    0.321286
  10 H :   -0.140977
  11 H :    0.039489
  12 H :    0.049953
  13 H :    0.017991
  14 H :    0.019758
  15 O :   -0.509481
  16 O :   -0.501426
  17 O :   -0.516413
  18 H :    0.041816
  19 H :    0.027703
  20 H :    0.013453
  21 H :    0.035659

  Mayer bond orders larger than 0.100000
B(  0-C ,  1-N ) :   0.9913 B(  0-C ,  2-C ) :   1.0713 B(  0-C , 12-H ) :  -0.1912
B(  0-C , 18-H ) :   0.1538 B(  0-C , 19-H ) :   0.1544 B(  0-C , 20-H ) :   0.6595
B(  0-C , 21-H ) :   0.7629 B(  1-N ,  7-C ) :   1.0149 B(  1-N ,  8-N ) :   0.2607
B(  1-N ,  9-N ) :   0.2009 B(  1-N , 12-H ) :   1.2917 B(  1-N , 20-H ) :   0.2119
B(  1-N , 21-H ) :   0.1522 B(  2-C ,  3-C ) :   1.2275 B(  2-C ,  4-H ) :   0.1599
B(  2-C ,  5-H ) :   0.1906 B(  2-C , 18-H ) :   0.7953 B(  2-C , 19-H ) :   0.7117
B(  2-C , 20-H ) :   0.1871 B(  3-C ,  4-H ) :   0.9137 B(  3-C ,  5-H ) :   0.7465
B(  3-C ,  6-S ) :   0.8743 B(  3-C , 17-O ) :   0.1634 B(  3-C , 18-H ) :   0.1711
B(  3-C , 19-H ) :   0.1511 B(  5-H ,  6-S ) :   0.1262 B(  6-S , 15-O ) :   1.4160
B(  6-S , 16-O ) :   1.4311 B(  6-S , 17-O ) :   1.1470 B(  7-C ,  8-N ) :   0.9154
B(  7-C ,  9-N ) :   1.1748 B(  7-C , 10-H ) :  -0.2829 B(  7-C , 11-H ) :  -0.1685
B(  7-C , 12-H ) :  -0.2548 B(  7-C , 13-H ) :  -0.1767 B(  7-C , 14-H ) :  -0.1003
B(  8-N ,  9-N ) :   0.1639 B(  8-N , 13-H ) :   1.2325 B(  8-N , 14-H ) :   1.1862
B(  9-N , 10-H ) :   1.1593 B(  9-N , 11-H ) :   1.1769 B( 10-H , 11-H ) :  -0.2518
B( 10-H , 17-O ) :   0.3014 B( 13-H , 14-H ) :  -0.1879 B( 17-O , 20-H ) :   0.1240
B( 20-H , 21-H ) :  -0.1782

FINAL SINGLE POINT ENERGY      -945.241240851809

DIPOLE MOMENT
-------------
                                X             Y             Z
Electronic contribution:     -6.97272      -3.17249      -2.38995
Nuclear contribution   :     13.40759       3.44219       2.21042
                        -----------------------------------------
Total Dipole Moment    :      6.43487       0.26971      -0.17953
                        -----------------------------------------
Magnitude (a.u.)       :      6.44302
Magnitude (Debye)      :     16.37686

Rotational constants in cm-1:     0.059860     0.020817     0.017914
Rotational constants in MHz :  1794.564877   624.092098   537.039275

                             ****ORCA TERMINATED NORMALLY****
TOTAL RUN TIME: 0 days 0 hours 1 minutes 43 seconds 570 msec
