                         Program Version 5.0.0 -  RELEASE  -
|  1> !LC-BLYP RIJCOSX def2-SVPD def2/J TightSCF
|  2> *xyz 0 1
|  3> C          2.49556        1.81615       -2.13636
|  4> C          1.87218        0.42790       -2.07750
|  5> H          2.61427       -0.36583       -2.19889
|  6> H          1.38995        0.27309       -1.11236
|  7> S          0.57902        0.14047       -3.29794
|  8> F          0.22886       -1.24687       -3.12787
|  9> O         -0.43927        1.11897       -3.01455
| 10> O          1.24788        0.40347       -4.59565
| 11> H          2.96535        1.95613       -3.08747
| 12> H          3.22581        1.91242       -1.36024
| 13> H          1.73350        2.55528       -2.00274
| 14> *
| 15>
| 16> %MaxCore 64000
| 17>
| 18> %pal nprocs 4
| 19> end
| 20>
| 21> %scf
| 22>   MaxIter 150
| 23> end
| 24>
| 25>
| 26>                          ****END OF INPUT****

CARTESIAN COORDINATES (ANGSTROEM)
---------------------------------
  C      2.495560    1.816150   -2.136360
  C      1.872180    0.427900   -2.077500
  H      2.614270   -0.365830   -2.198890
  H      1.389950    0.273090   -1.112360
  S      0.579020    0.140470   -3.297940
  F      0.228860   -1.246870   -3.127870
  O     -0.439270    1.118970   -3.014550
  O      1.247880    0.403470   -4.595650
  H      2.965350    1.956130   -3.087470
  H      3.225810    1.912420   -1.360240
  H      1.733500    2.555280   -2.002740

 Total Charge           Charge          ....    0
 Multiplicity           Mult            ....    1
 Number of Electrons    NEL             ....   58
 Basis Dimension        Dim             ....  176

ORBITAL ENERGIES
----------------

  NO   OCC          E(Eh)            E(eV)
   0   2.0000     -88.567739     -2410.0507
   1   2.0000     -24.598457      -669.3580
   2   2.0000     -18.975091      -516.3385
   3   2.0000     -18.959980      -515.9273
   4   2.0000     -10.150484      -276.2087
   5   2.0000     -10.104953      -274.9697
   6   2.0000      -8.117722      -220.8944
   7   2.0000      -6.156538      -167.5279
   8   2.0000      -6.149683      -167.3414
   9   2.0000      -6.148161      -167.3000
  10   2.0000      -1.464579       -39.8532
  11   2.0000      -1.209618       -32.9154
  12   2.0000      -1.100335       -29.9416
  13   2.0000      -0.931671       -25.3521
  14   2.0000      -0.845880       -23.0176
  15   2.0000      -0.785159       -21.3653
  16   2.0000      -0.698262       -19.0007
  17   2.0000      -0.697002       -18.9664
  18   2.0000      -0.663312       -18.0496
  19   2.0000      -0.604227       -16.4419
  20   2.0000      -0.593004       -16.1365
  21   2.0000      -0.549306       -14.9474
  22   2.0000      -0.536731       -14.6052
  23   2.0000      -0.513948       -13.9852
  24   2.0000      -0.493746       -13.4355
  25   2.0000      -0.488426       -13.2907
  26   2.0000      -0.438362       -11.9284
  27   2.0000      -0.424013       -11.5380
  28   2.0000      -0.408460       -11.1148
  29   0.0000       0.044675         1.2157
  30   0.0000       0.071970         1.9584
  31   0.0000       0.079890         2.1739
  32   0.0000       0.080471         2.1897
  33   0.0000       0.109041         2.9672

MULLIKEN ATOMIC CHARGES
-----------------------
   0 C :    1.017282
   1 C :   -0.219332
   2 H :   -0.111995
   3 H :   -0.070700
   4 S :    1.300119
   5 F :   -0.352755
   6 O :   -0.566015
   7 O :   -0.613692
   8 H :   -0.118773
   9 H :   -0.153541
  10 H :   -0.110599
Sum of atomic charges:    0.0000000

LOEWDIN ATOMIC CHARGES
----------------------
   0 C :    0.134881
   1 C :   -0.115246
   2 H :    0.029806
   3 H :    0.025054
   4 S :    1.065034
   5 F :   -0.236412
   6 O :   -0.443127
   7 O :   -0.464895
   8 H :    0.000889
   9 H :    0.001383
  10 H :    0.002635

  Mayer bond orders larger than 0.100000
B(  0-C ,  1-C ) :   1.3294 B(  0-C ,  3-H ) :   0.1012 B(  0-C ,  8-H ) :   0.7663
B(  0-C ,  9-H ) :   0.6808 B(  0-C , 10-H ) :   0.7473 B(  1-C ,  2-H ) :   0.9627
B(  1-C ,  3-H ) :   0.9294 B(  1-C ,  4-S ) :   0.9548 B(  1-C ,  8-H ) :   0.2134
B(  1-C ,  9-H ) :   0.2567 B(  1-C , 10-H ) :   0.2200 B(  4-S ,  5-F ) :   0.7740
B(  4-S ,  6-O ) :   1.5719 B(  4-S ,  7-O ) :   1.5286 B(  8-H , 10-H ) :   0.1027

FINAL SINGLE POINT ENERGY      -726.413676084637

DIPOLE MOMENT
-------------
                                X             Y             Z
Electronic contribution:     -6.76545      -6.40173      -4.02901
Nuclear contribution   :      7.60530       5.82028       5.38743
                        -----------------------------------------
Total Dipole Moment    :      0.83984      -0.58145       1.35842
                        -----------------------------------------
Magnitude (a.u.)       :      1.69963
Magnitude (Debye)      :      4.32011

Rotational constants in cm-1:     0.157861     0.081452     0.078859
Rotational constants in MHz :  4732.562506  2441.865430  2364.129821

                             ****ORCA TERMINATED NORMALLY****
TOTAL RUN TIME: 0 days 0 hours 0 minutes 18 seconds 953 msec
