                         Program Version 5.0.0 -  RELEASE  -
|  1> !LC-BLYP RIJCOSX def2-SVPD def2/J TightSCF
|  2> *xyz 0 1
|  3> C          3.38093        2.08304       -3.35013
|  4> C          4.53592        1.18245       -3.42852
|  5> C          2.49556        1.81615       -2.13636
|  6> C          4.67196        0.12227       -4.22060
|  7> N          5.86602       -0.50785       -4.22428
|  8> N          3.69888       -0.31284       -4.98699
|  9> H          2.73141       -0.05009       -4.84900
| 10> H          3.89005       -1.05517       -5.64373
| 11> H          5.25193        1.30346       -2.72101
| 12> H          6.69516       -0.06232       -3.85160
| 13> H          5.97538       -1.39688       -4.69141
| 14> H          2.80646        1.98651       -4.26848
| 15> H          3.77871        3.09828       -3.30738
| 16> H          2.11090        0.81901       -2.18783
| 17> H          1.68276        2.51198       -2.12786
| 18> H          3.07216        1.93031       -1.24227
| 19> *
| 20>
| 21> %MaxCore 64000
| 22>
| 23> %pal nprocs 4
| 24> end
| 25>
| 26> %scf
| 27>   MaxIter 150
| 28> end
| 29>
| 30>
| 31>                          ****END OF INPUT****

CARTESIAN COORDINATES (ANGSTROEM)
---------------------------------
  C      3.380930    2.083040   -3.350130
  C      4.535920    1.182450   -3.428520
  C      2.495560    1.816150   -2.136360
  C      4.671960    0.122270   -4.220600
  N      5.866020   -0.507850   -4.224280
  N      3.698880   -0.312840   -4.986990
  H      2.731410   -0.050090   -4.849000
  H      3.890050   -1.055170   -5.643730
  H      5.251930    1.303460   -2.721010
  H      6.695160   -0.062320   -3.851600
  H      5.975380   -1.396880   -4.691410
  H      2.806460    1.986510   -4.268480
  H      3.778710    3.098280   -3.307380
  H      2.110900    0.819010   -2.187830
  H      1.682760    2.511980   -2.127860
  H      3.072160    1.930310   -1.242270

 Total Charge           Charge          ....    0
 Multiplicity           Mult            ....    1
 Number of Electrons    NEL             ....   48
 Basis Dimension        Dim             ....  200

ORBITAL ENERGIES
----------------

  NO   OCC          E(Eh)            E(eV)
   0   2.0000     -14.192014      -386.1843
   1   2.0000     -14.184159      -385.9706
   2   2.0000     -10.130676      -275.6697
   3   2.0000     -10.058351      -273.7016
   4   2.0000     -10.050507      -273.4882
   5   2.0000     -10.008003      -272.3316
   6   2.0000      -1.055327       -28.7169
   7   2.0000      -0.961733       -26.1701
   8   2.0000      -0.874287       -23.7906
   9   2.0000      -0.795989       -21.6600
  10   2.0000      -0.719209       -19.5707
  11   2.0000      -0.682941       -18.5838
  12   2.0000      -0.650088       -17.6898
  13   2.0000      -0.609732       -16.5916
  14   2.0000      -0.581888       -15.8340
  15   2.0000      -0.546065       -14.8592
  16   2.0000      -0.520192       -14.1551
  17   2.0000      -0.500985       -13.6325
  18   2.0000      -0.479182       -13.0392
  19   2.0000      -0.453044       -12.3280
  20   2.0000      -0.424572       -11.5532
  21   2.0000      -0.417236       -11.3536
  22   2.0000      -0.365389        -9.9427
  23   2.0000      -0.251922        -6.8551
  24   0.0000       0.069517         1.8917
  25   0.0000       0.092974         2.5300
  26   0.0000       0.105990         2.8841
  27   0.0000       0.119170         3.2428
  28   0.0000       0.133738         3.6392

MULLIKEN ATOMIC CHARGES
-----------------------
   0 C :    0.067406
   1 C :   -0.306938
   2 C :    0.858039
   3 C :    0.787571
   4 N :    0.181123
   5 N :    0.250177
   6 H :   -0.134030
   7 H :   -0.266665
   8 H :   -0.470702
   9 H :   -0.121197
  10 H :   -0.173238
  11 H :   -0.194528
  12 H :   -0.120759
  13 H :   -0.166483
  14 H :   -0.076728
  15 H :   -0.113048
Sum of atomic charges:   -0.0000000

LOEWDIN ATOMIC CHARGES
----------------------
   0 C :   -0.107931
   1 C :   -0.042789
   2 C :    0.103155
   3 C :   -0.242738
   4 N :    0.188771
   5 N :    0.204856
   6 H :    0.000443
   7 H :   -0.006828
   8 H :   -0.044866
   9 H :    0.001535
  10 H :   -0.017750
  11 H :    0.003652
  12 H :    0.018166
  13 H :   -0.019844
  14 H :   -0.022137
  15 H :   -0.015693

  Mayer bond orders larger than 0.100000
B(  0-C ,  1-C ) :   1.1928 B(  0-C ,  2-C ) :   1.2135 B(  0-C ,  8-H ) :   0.2788
B(  0-C , 11-H ) :   0.7978 B(  0-C , 12-H ) :   0.7917 B(  0-C , 13-H ) :   0.2194
B(  0-C , 14-H ) :   0.1991 B(  0-C , 15-H ) :   0.2342 B(  1-C ,  3-C ) :   1.5936
B(  1-C ,  4-N ) :   0.4775 B(  1-C ,  5-N ) :   0.3174 B(  1-C ,  8-H ) :   0.8010
B(  1-C , 11-H ) :   0.3154 B(  1-C , 12-H ) :   0.1857 B(  2-C , 13-H ) :   0.7942
B(  2-C , 14-H ) :   0.7550 B(  2-C , 15-H ) :   0.7481 B(  3-C ,  4-N ) :   0.7987
B(  3-C ,  5-N ) :   1.0742 B(  3-C ,  7-H ) :  -0.1747 B(  3-C ,  9-H ) :  -0.1552
B(  3-C , 11-H ) :  -0.1157 B(  4-N ,  5-N ) :   0.1001 B(  4-N ,  9-H ) :   1.2248
B(  4-N , 10-H ) :   1.1584 B(  5-N ,  6-H ) :   1.1751 B(  5-N ,  7-H ) :   1.3027
B(  6-H ,  7-H ) :  -0.1996 B(  9-H , 10-H ) :  -0.1731

FINAL SINGLE POINT ENERGY      -267.018035049358

DIPOLE MOMENT
-------------
                                X             Y             Z
Electronic contribution:      2.98548      -2.77106      -2.88257
Nuclear contribution   :     -2.84307       1.95814       2.32378
                        -----------------------------------------
Total Dipole Moment    :      0.14241      -0.81292      -0.55879
                        -----------------------------------------
Magnitude (a.u.)       :      0.99668
Magnitude (Debye)      :      2.53335

Rotational constants in cm-1:     0.248902     0.068887     0.059904
Rotational constants in MHz :  7461.898926  2065.183281  1795.882140

                             ****ORCA TERMINATED NORMALLY****
TOTAL RUN TIME: 0 days 0 hours 0 minutes 26 seconds 436 msec
