                         Program Version 5.0.0 -  RELEASE  -
|  1> !LC-BLYP RIJCOSX def2-SVPD def2/J TightSCF
|  2> *xyz 0 1
|  3> C          2.49556        1.81615       -2.13636
|  4> C          1.87218        0.42790       -2.07750
|  5> H          2.61427       -0.36583       -2.19889
|  6> H          1.38995        0.27309       -1.11236
|  7> S          0.57902        0.14047       -3.29794
|  8> O          0.22886       -1.24687       -3.12787
|  9> F         -0.43927        1.11897       -3.01455
| 10> O          1.24788        0.40347       -4.59565
| 11> H          2.96535        1.95613       -3.08747
| 12> H          3.22581        1.91242       -1.36024
| 13> H          1.73350        2.55528       -2.00274
| 14> *
| 15>
| 16> %MaxCore 64000
| 17>
| 18> %pal nprocs 4
| 19> end
| 20>
| 21> %scf
| 22>   MaxIter 150
| 23> end
| 24>
| 25>
| 26>                          ****END OF INPUT****

CARTESIAN COORDINATES (ANGSTROEM)
---------------------------------
  C      2.495560    1.816150   -2.136360
  C      1.872180    0.427900   -2.077500
  H      2.614270   -0.365830   -2.198890
  H      1.389950    0.273090   -1.112360
  S      0.579020    0.140470   -3.297940
  O      0.228860   -1.246870   -3.127870
  F     -0.439270    1.118970   -3.014550
  O      1.247880    0.403470   -4.595650
  H      2.965350    1.956130   -3.087470
  H      3.225810    1.912420   -1.360240
  H      1.733500    2.555280   -2.002740

 Total Charge           Charge          ....    0
 Multiplicity           Mult            ....    1
 Number of Electrons    NEL             ....   58
 Basis Dimension        Dim             ....  176

ORBITAL ENERGIES
----------------

  NO   OCC          E(Eh)            E(eV)
   0   2.0000     -88.567846     -2410.0536
   1   2.0000     -24.598375      -669.3558
   2   2.0000     -18.975303      -516.3442
   3   2.0000     -18.960526      -515.9421
   4   2.0000     -10.150367      -276.2055
   5   2.0000     -10.108399      -275.0635
   6   2.0000      -8.117781      -220.8960
   7   2.0000      -6.156703      -167.5324
   8   2.0000      -6.149673      -167.3411
   9   2.0000      -6.148211      -167.3013
  10   2.0000      -1.464937       -39.8630
  11   2.0000      -1.208997       -32.8985
  12   2.0000      -1.101366       -29.9697
  13   2.0000      -0.934634       -25.4327
  14   2.0000      -0.841560       -22.9000
  15   2.0000      -0.789638       -21.4871
  16   2.0000      -0.709131       -19.2964
  17   2.0000      -0.696359       -18.9489
  18   2.0000      -0.655455       -17.8358
  19   2.0000      -0.604013       -16.4360
  20   2.0000      -0.588456       -16.0127
  21   2.0000      -0.560922       -15.2635
  22   2.0000      -0.540005       -14.6943
  23   2.0000      -0.513746       -13.9797
  24   2.0000      -0.503099       -13.6900
  25   2.0000      -0.482938       -13.1414
  26   2.0000      -0.437794       -11.9130
  27   2.0000      -0.423798       -11.5321
  28   2.0000      -0.410595       -11.1729
  29   0.0000       0.042914         1.1677
  30   0.0000       0.073729         2.0063
  31   0.0000       0.078308         2.1309
  32   0.0000       0.081471         2.2169
  33   0.0000       0.109095         2.9686

MULLIKEN ATOMIC CHARGES
-----------------------
   0 C :    1.040516
   1 C :   -0.195410
   2 H :   -0.116067
   3 H :   -0.087617
   4 S :    1.273106
   5 O :   -0.555909
   6 F :   -0.340415
   7 O :   -0.617991
   8 H :   -0.114957
   9 H :   -0.152793
  10 H :   -0.132462
Sum of atomic charges:   -0.0000000

LOEWDIN ATOMIC CHARGES
----------------------
   0 C :    0.120551
   1 C :   -0.104495
   2 H :    0.043682
   3 H :    0.025464
   4 S :    1.062578
   5 O :   -0.443462
   6 F :   -0.234812
   7 O :   -0.462831
   8 H :   -0.001534
   9 H :   -0.000489
  10 H :   -0.004650

  Mayer bond orders larger than 0.100000
B(  0-C ,  1-C ) :   1.2904 B(  0-C ,  8-H ) :   0.7740 B(  0-C ,  9-H ) :   0.6719
B(  0-C , 10-H ) :   0.7385 B(  1-C ,  2-H ) :   0.9752 B(  1-C ,  3-H ) :   0.9417
B(  1-C ,  4-S ) :   0.9788 B(  1-C ,  8-H ) :   0.2152 B(  1-C ,  9-H ) :   0.2548
B(  1-C , 10-H ) :   0.2177 B(  4-S ,  5-O ) :   1.6204 B(  4-S ,  6-F ) :   0.7495
B(  4-S ,  7-O ) :   1.5419

FINAL SINGLE POINT ENERGY      -726.413714704861

DIPOLE MOMENT
-------------
                                X             Y             Z
Electronic contribution:     -7.88415      -2.38584      -3.83036
Nuclear contribution   :      8.30151       3.35500       5.26935
                        -----------------------------------------
Total Dipole Moment    :      0.41736       0.96916       1.43899
                        -----------------------------------------
Magnitude (a.u.)       :      1.78442
Magnitude (Debye)      :      4.53565

Rotational constants in cm-1:     0.152913     0.083043     0.080351
Rotational constants in MHz :  4584.227971  2489.580280  2408.872860

                             ****ORCA TERMINATED NORMALLY****
TOTAL RUN TIME: 0 days 0 hours 0 minutes 18 seconds 783 msec
