                         Program Version 5.0.0 -  RELEASE  -
|  1> !LC-BLYP RIJCOSX def2-SVPD def2/J TightSCF
|  2> *xyz 0 1
|  3> C          3.38093        2.08304       -3.35013
|  4> N          4.53592        1.18245       -3.42852
|  5> C          2.49556        1.81615       -2.13636
|  6> C          4.67196        0.12227       -4.22060
|  7> C          5.86602       -0.50785       -4.22428
|  8> N          3.69888       -0.31284       -4.98699
|  9> H          2.73141       -0.05009       -4.84900
| 10> H          3.89005       -1.05517       -5.64373
| 11> H          5.25193        1.30346       -2.72101
| 12> H          6.69516       -0.06232       -3.85160
| 13> H          5.97538       -1.39688       -4.69141
| 14> H          2.80646        1.98651       -4.26848
| 15> H          3.77871        3.09828       -3.30738
| 16> H          2.11090        0.81901       -2.18783
| 17> H          1.68276        2.51198       -2.12786
| 18> H          3.07216        1.93031       -1.24227
| 19> *
| 20>
| 21> %MaxCore 64000
| 22>
| 23> %pal nprocs 4
| 24> end
| 25>
| 26> %scf
| 27>   MaxIter 150
| 28> end
| 29>
| 30>
| 31>                          ****END OF INPUT****

CARTESIAN COORDINATES (ANGSTROEM)
---------------------------------
  C      3.380930    2.083040   -3.350130
  N      4.535920    1.182450   -3.428520
  C      2.495560    1.816150   -2.136360
  C      4.671960    0.122270   -4.220600
  C      5.866020   -0.507850   -4.224280
  N      3.698880   -0.312840   -4.986990
  H      2.731410   -0.050090   -4.849000
  H      3.890050   -1.055170   -5.643730
  H      5.251930    1.303460   -2.721010
  H      6.695160   -0.062320   -3.851600
  H      5.975380   -1.396880   -4.691410
  H      2.806460    1.986510   -4.268480
  H      3.778710    3.098280   -3.307380
  H      2.110900    0.819010   -2.187830
  H      1.682760    2.511980   -2.127860
  H      3.072160    1.930310   -1.242270

 Total Charge           Charge          ....    0
 Multiplicity           Mult            ....    1
 Number of Electrons    NEL             ....   48
 Basis Dimension        Dim             ....  200

ORBITAL ENERGIES
----------------

  NO   OCC          E(Eh)            E(eV)
   0   2.0000     -14.191646      -386.1743
   1   2.0000     -14.187433      -386.0597
   2   2.0000     -10.134985      -275.7870
   3   2.0000     -10.124917      -275.5130
   4   2.0000     -10.078927      -274.2615
   5   2.0000      -9.993239      -271.9299
   6   2.0000      -1.062850       -28.9216
   7   2.0000      -0.981383       -26.7048
   8   2.0000      -0.874994       -23.8098
   9   2.0000      -0.798627       -21.7317
  10   2.0000      -0.730287       -19.8721
  11   2.0000      -0.708197       -19.2710
  12   2.0000      -0.649844       -17.6832
  13   2.0000      -0.602546       -16.3961
  14   2.0000      -0.584720       -15.9110
  15   2.0000      -0.550613       -14.9830
  16   2.0000      -0.533556       -14.5188
  17   2.0000      -0.504981       -13.7412
  18   2.0000      -0.490553       -13.3486
  19   2.0000      -0.468003       -12.7350
  20   2.0000      -0.462289       -12.5795
  21   2.0000      -0.453676       -12.3452
  22   2.0000      -0.353013        -9.6060
  23   2.0000      -0.251472        -6.8429
  24   0.0000       0.064188         1.7466
  25   0.0000       0.096118         2.6155
  26   0.0000       0.100427         2.7328
  27   0.0000       0.104735         2.8500
  28   0.0000       0.132707         3.6111

MULLIKEN ATOMIC CHARGES
-----------------------
   0 C :    0.440303
   1 N :   -0.158593
   2 C :    0.902344
   3 C :    0.549880
   4 C :    0.612332
   5 N :    0.312039
   6 H :   -0.220339
   7 H :   -0.134927
   8 H :   -0.309249
   9 H :   -0.524599
  10 H :   -0.497953
  11 H :   -0.243687
  12 H :   -0.344554
  13 H :   -0.166031
  14 H :   -0.068565
  15 H :   -0.148401
Sum of atomic charges:   -0.0000000

LOEWDIN ATOMIC CHARGES
----------------------
   0 C :   -0.003996
   1 N :    0.000637
   2 C :    0.117767
   3 C :   -0.255524
   4 C :    0.132890
   5 N :    0.204581
   6 H :   -0.013224
   7 H :    0.010973
   8 H :    0.036579
   9 H :   -0.105845
  10 H :   -0.109726
  11 H :    0.010482
  12 H :    0.020977
  13 H :   -0.016516
  14 H :   -0.014749
  15 H :   -0.015307

  Mayer bond orders larger than 0.100000
B(  0-C ,  1-N ) :   0.9947 B(  0-C ,  2-C ) :   1.2315 B(  0-C ,  8-H ) :  -0.2297
B(  0-C , 11-H ) :   0.8331 B(  0-C , 12-H ) :   0.8501 B(  0-C , 13-H ) :   0.2370
B(  0-C , 14-H ) :   0.2131 B(  0-C , 15-H ) :   0.2617 B(  1-N ,  3-C ) :   1.0932
B(  1-N ,  4-C ) :   0.2478 B(  1-N ,  5-N ) :   0.1853 B(  1-N ,  8-H ) :   1.2782
B(  1-N , 11-H ) :   0.1742 B(  1-N , 12-H ) :   0.1655 B(  2-C , 13-H ) :   0.7744
B(  2-C , 14-H ) :   0.7316 B(  2-C , 15-H ) :   0.7366 B(  3-C ,  4-C ) :   1.3163
B(  3-C ,  5-N ) :   1.1044 B(  3-C ,  6-H ) :  -0.1170 B(  3-C ,  8-H ) :  -0.2539
B(  3-C , 10-H ) :   0.2153 B(  4-C ,  5-N ) :   0.2135 B(  4-C ,  9-H ) :   0.8101
B(  4-C , 10-H ) :   0.6622 B(  5-N ,  6-H ) :   1.1956 B(  5-N ,  7-H ) :   1.2012
B(  6-H ,  7-H ) :  -0.1989

FINAL SINGLE POINT ENERGY      -267.006483633270

DIPOLE MOMENT
-------------
                                X             Y             Z
Electronic contribution:      1.49525      -1.09576      -2.04043
Nuclear contribution   :     -2.56090       1.59955       2.15496
                        -----------------------------------------
Total Dipole Moment    :     -1.06566       0.50379       0.11453
                        -----------------------------------------
Magnitude (a.u.)       :      1.18429
Magnitude (Debye)      :      3.01022

Rotational constants in cm-1:     0.249834     0.071381     0.061833
Rotational constants in MHz :  7489.842787  2139.945635  1853.706310

                             ****ORCA TERMINATED NORMALLY****
TOTAL RUN TIME: 0 days 0 hours 0 minutes 24 seconds 624 msec
