                         Program Version 5.0.0 -  RELEASE  -
|  1> !LC-BLYP RIJCOSX def2-SVPD def2/J TightSCF
|  2> *xyz 0 1
|  3> C          2.49556        1.81615       -2.13636
|  4> C          1.87218        0.42790       -2.07750
|  5> H          2.61427       -0.36583       -2.19889
|  6> H          1.38995        0.27309       -1.11236
|  7> S          0.57902        0.14047       -3.29794
|  8> O          0.22886       -1.24687       -3.12787
|  9> O         -0.43927        1.11897       -3.01455
| 10> F          1.24788        0.40347       -4.59565
| 11> H          2.96535        1.95613       -3.08747
| 12> H          3.22581        1.91242       -1.36024
| 13> H          1.73350        2.55528       -2.00274
| 14> *
| 15>
| 16> %MaxCore 64000
| 17>
| 18> %pal nprocs 4
| 19> end
| 20>
| 21> %scf
| 22>   MaxIter 150
| 23> end
| 24>
| 25>
| 26>                          ****END OF INPUT****

CARTESIAN COORDINATES (ANGSTROEM)
---------------------------------
  C      2.495560    1.816150   -2.136360
  C      1.872180    0.427900   -2.077500
  H      2.614270   -0.365830   -2.198890
  H      1.389950    0.273090   -1.112360
  S      0.579020    0.140470   -3.297940
  O      0.228860   -1.246870   -3.127870
  O     -0.439270    1.118970   -3.014550
  F      1.247880    0.403470   -4.595650
  H      2.965350    1.956130   -3.087470
  H      3.225810    1.912420   -1.360240
  H      1.733500    2.555280   -2.002740

 Total Charge           Charge          ....    0
 Multiplicity           Mult            ....    1
 Number of Electrons    NEL             ....   58
 Basis Dimension        Dim             ....  176

ORBITAL ENERGIES
----------------

  NO   OCC          E(Eh)            E(eV)
   0   2.0000     -88.565688     -2409.9949
   1   2.0000     -24.576580      -668.7627
   2   2.0000     -18.975009      -516.3362
   3   2.0000     -18.974715      -516.3283
   4   2.0000     -10.149103      -276.1711
   5   2.0000     -10.108853      -275.0759
   6   2.0000      -8.115519      -220.8345
   7   2.0000      -6.154215      -167.4647
   8   2.0000      -6.147681      -167.2869
   9   2.0000      -6.146147      -167.2452
  10   2.0000      -1.429073       -38.8870
  11   2.0000      -1.218535       -33.1580
  12   2.0000      -1.122343       -30.5405
  13   2.0000      -0.933843       -25.4112
  14   2.0000      -0.828424       -22.5426
  15   2.0000      -0.782404       -21.2903
  16   2.0000      -0.693234       -18.8639
  17   2.0000      -0.671859       -18.2822
  18   2.0000      -0.652940       -17.7674
  19   2.0000      -0.605442       -16.4749
  20   2.0000      -0.584784       -15.9128
  21   2.0000      -0.563449       -15.3322
  22   2.0000      -0.544596       -14.8192
  23   2.0000      -0.515435       -14.0257
  24   2.0000      -0.508423       -13.8349
  25   2.0000      -0.484487       -13.1836
  26   2.0000      -0.446597       -12.1525
  27   2.0000      -0.432980       -11.7820
  28   2.0000      -0.425419       -11.5762
  29   0.0000       0.045701         1.2436
  30   0.0000       0.075331         2.0499
  31   0.0000       0.079118         2.1529
  32   0.0000       0.081539         2.2188
  33   0.0000       0.111278         3.0280

MULLIKEN ATOMIC CHARGES
-----------------------
   0 C :    1.036789
   1 C :   -0.194765
   2 H :   -0.126494
   3 H :   -0.074799
   4 S :    1.275771
   5 O :   -0.568305
   6 O :   -0.582793
   7 F :   -0.365043
   8 H :   -0.140166
   9 H :   -0.154823
  10 H :   -0.105373
Sum of atomic charges:    0.0000000

LOEWDIN ATOMIC CHARGES
----------------------
   0 C :    0.120410
   1 C :   -0.103956
   2 H :    0.031579
   3 H :    0.038649
   4 S :    1.059698
   5 O :   -0.443843
   6 O :   -0.441897
   7 F :   -0.253722
   8 H :   -0.005771
   9 H :   -0.000456
  10 H :   -0.000691

  Mayer bond orders larger than 0.100000
B(  0-C ,  1-C ) :   1.2895 B(  0-C ,  8-H ) :   0.7574 B(  0-C ,  9-H ) :   0.6724
B(  0-C , 10-H ) :   0.7563 B(  1-C ,  2-H ) :   0.9815 B(  1-C ,  3-H ) :   0.9385
B(  1-C ,  4-S ) :   0.9799 B(  1-C ,  8-H ) :   0.2078 B(  1-C ,  9-H ) :   0.2560
B(  1-C , 10-H ) :   0.2219 B(  4-S ,  5-O ) :   1.6169 B(  4-S ,  6-O ) :   1.5802
B(  4-S ,  7-F ) :   0.7001 B(  5-O ,  6-O ) :   0.1016

FINAL SINGLE POINT ENERGY      -726.432560501619

DIPOLE MOMENT
-------------
                                X             Y             Z
Electronic contribution:     -5.01454      -3.59091      -6.52836
Nuclear contribution   :      6.54345       4.10057       6.91691
                        -----------------------------------------
Total Dipole Moment    :      1.52891       0.50967       0.38855
                        -----------------------------------------
Magnitude (a.u.)       :      1.65780
Magnitude (Debye)      :      4.21378

Rotational constants in cm-1:     0.152835     0.082826     0.080611
Rotational constants in MHz :  4581.878371  2483.049050  2416.647141

                             ****ORCA TERMINATED NORMALLY****
TOTAL RUN TIME: 0 days 0 hours 0 minutes 18 seconds 982 msec
