                         Program Version 5.0.0 -  RELEASE  -
|  1> !LC-BLYP RIJCOSX def2-SVPD def2/J TightSCF
|  2> *xyz 0 1
|  3> C          3.38093        2.08304       -3.35013
|  4> N          4.53592        1.18245       -3.42852
|  5> C          2.49556        1.81615       -2.13636
|  6> C          4.67196        0.12227       -4.22060
|  7> N          5.86602       -0.50785       -4.22428
|  8> C          3.69888       -0.31284       -4.98699
|  9> H          2.73141       -0.05009       -4.84900
| 10> H          3.89005       -1.05517       -5.64373
| 11> H          5.25193        1.30346       -2.72101
| 12> H          6.69516       -0.06232       -3.85160
| 13> H          5.97538       -1.39688       -4.69141
| 14> H          2.80646        1.98651       -4.26848
| 15> H          3.77871        3.09828       -3.30738
| 16> H          2.11090        0.81901       -2.18783
| 17> H          1.68276        2.51198       -2.12786
| 18> H          3.07216        1.93031       -1.24227
| 19> *
| 20>
| 21> %MaxCore 64000
| 22>
| 23> %pal nprocs 4
| 24> end
| 25>
| 26> %scf
| 27>   MaxIter 150
| 28> end
| 29>
| 30>
| 31>                          ****END OF INPUT****

CARTESIAN COORDINATES (ANGSTROEM)
---------------------------------
  C      3.380930    2.083040   -3.350130
  N      4.535920    1.182450   -3.428520
  C      2.495560    1.816150   -2.136360
  C      4.671960    0.122270   -4.220600
  N      5.866020   -0.507850   -4.224280
  C      3.698880   -0.312840   -4.986990
  H      2.731410   -0.050090   -4.849000
  H      3.890050   -1.055170   -5.643730
  H      5.251930    1.303460   -2.721010
  H      6.695160   -0.062320   -3.851600
  H      5.975380   -1.396880   -4.691410
  H      2.806460    1.986510   -4.268480
  H      3.778710    3.098280   -3.307380
  H      2.110900    0.819010   -2.187830
  H      1.682760    2.511980   -2.127860
  H      3.072160    1.930310   -1.242270

 Total Charge           Charge          ....    0
 Multiplicity           Mult            ....    1
 Number of Electrons    NEL             ....   48
 Basis Dimension        Dim             ....  200

ORBITAL ENERGIES
----------------

  NO   OCC          E(Eh)            E(eV)
   0   2.0000     -14.188177      -386.0799
   1   2.0000     -14.184958      -385.9923
   2   2.0000     -10.132697      -275.7247
   3   2.0000     -10.116417      -275.2817
   4   2.0000     -10.071310      -274.0543
   5   2.0000      -9.999081      -272.0888
   6   2.0000      -1.056718       -28.7548
   7   2.0000      -0.973181       -26.4816
   8   2.0000      -0.858998       -23.3745
   9   2.0000      -0.813589       -22.1389
  10   2.0000      -0.743039       -20.2191
  11   2.0000      -0.668210       -18.1829
  12   2.0000      -0.650781       -17.7086
  13   2.0000      -0.618005       -16.8168
  14   2.0000      -0.561882       -15.2896
  15   2.0000      -0.554290       -15.0830
  16   2.0000      -0.527512       -14.3543
  17   2.0000      -0.503531       -13.7018
  18   2.0000      -0.481373       -13.0988
  19   2.0000      -0.475196       -12.9307
  20   2.0000      -0.455596       -12.3974
  21   2.0000      -0.448040       -12.1918
  22   2.0000      -0.345709        -9.4072
  23   2.0000      -0.264703        -7.2029
  24   0.0000       0.071070         1.9339
  25   0.0000       0.091589         2.4923
  26   0.0000       0.104457         2.8424
  27   0.0000       0.109330         2.9750
  28   0.0000       0.134964         3.6726

MULLIKEN ATOMIC CHARGES
-----------------------
   0 C :    0.409885
   1 N :   -0.234721
   2 C :    0.886090
   3 C :    0.751943
   4 N :    0.245488
   5 C :    0.327617
   6 H :   -0.319973
   7 H :   -0.537442
   8 H :   -0.378501
   9 H :   -0.235330
  10 H :   -0.071260
  11 H :   -0.133309
  12 H :   -0.335061
  13 H :   -0.160848
  14 H :   -0.077474
  15 H :   -0.137103
Sum of atomic charges:    0.0000000

LOEWDIN ATOMIC CHARGES
----------------------
   0 C :    0.004464
   1 N :   -0.009225
   2 C :    0.121080
   3 C :   -0.255130
   4 N :    0.192086
   5 C :    0.143958
   6 H :   -0.100163
   7 H :   -0.096093
   8 H :    0.022343
   9 H :   -0.013931
  10 H :    0.000043
  11 H :    0.016195
  12 H :    0.020880
  13 H :   -0.013289
  14 H :   -0.014336
  15 H :   -0.018884

  Mayer bond orders larger than 0.100000
B(  0-C ,  1-N ) :   0.9898 B(  0-C ,  2-C ) :   1.2262 B(  0-C ,  8-H ) :  -0.2055
B(  0-C , 11-H ) :   0.8399 B(  0-C , 12-H ) :   0.8627 B(  0-C , 13-H ) :   0.2287
B(  0-C , 14-H ) :   0.2129 B(  0-C , 15-H ) :   0.2375 B(  1-N ,  3-C ) :   0.9741
B(  1-N ,  4-N ) :   0.1610 B(  1-N ,  5-C ) :   0.4110 B(  1-N ,  8-H ) :   1.3504
B(  1-N , 11-H ) :   0.1419 B(  1-N , 12-H ) :   0.1575 B(  2-C , 13-H ) :   0.7917
B(  2-C , 14-H ) :   0.7390 B(  2-C , 15-H ) :   0.7541 B(  3-C ,  4-N ) :   0.9814
B(  3-C ,  5-C ) :   1.4454 B(  3-C ,  6-H ) :   0.1178 B(  3-C ,  7-H ) :   0.1667
B(  3-C ,  8-H ) :  -0.3061 B(  3-C ,  9-H ) :  -0.1278 B(  4-N ,  5-C ) :   0.2859
B(  4-N ,  9-H ) :   1.2293 B(  4-N , 10-H ) :   1.1480 B(  5-C ,  6-H ) :   0.6630
B(  5-C ,  7-H ) :   0.8086 B(  9-H , 10-H ) :  -0.1840

FINAL SINGLE POINT ENERGY      -267.011626055203

DIPOLE MOMENT
-------------
                                X             Y             Z
Electronic contribution:      3.65720      -1.32116      -1.36050
Nuclear contribution   :     -3.02065       1.64092       1.99316
                        -----------------------------------------
Total Dipole Moment    :      0.63655       0.31976       0.63266
                        -----------------------------------------
Magnitude (a.u.)       :      0.95273
Magnitude (Debye)      :      2.42166

Rotational constants in cm-1:     0.259304     0.069422     0.060943
Rotational constants in MHz :  7773.747720  2081.225169  1827.013389

                             ****ORCA TERMINATED NORMALLY****
TOTAL RUN TIME: 0 days 0 hours 0 minutes 24 seconds 432 msec
