                         Program Version 5.0.0 -  RELEASE  -
|  1> !LC-BLYP RIJCOSX def2-SVPD def2/J TightSCF xyzfile
|  2>
|  3> *xyzfile 0 1 D1.xyz
|  4>
|  5> %MaxCore 64000
|  6>
|  7> %pal nprocs 4
|  8> end
|  9>
| 10> %scf
| 11>   MaxIter 150
| 12> end
| 13>
| 14>
| 15>                          ****END OF INPUT****

CARTESIAN COORDINATES (ANGSTROEM)
---------------------------------
  C      3.380928    2.083045   -3.350127
  C      4.535924    1.182447   -3.428518
  C      2.495557    1.816150   -2.136364
  C      1.872181    0.427903   -2.077497
  H      2.614270   -0.365825   -2.198894
  H      1.389953    0.273087   -1.112360
  S      0.579024    0.140472   -3.297943
  C      4.671956    0.122273   -4.220598
  N      5.866023   -0.507849   -4.224284
  N      3.698881   -0.312844   -4.986988
  H      2.731405   -0.050091   -4.849000
  H      3.890046   -1.055172   -5.643730
  H      5.251933    1.303459   -2.721014
  H      6.695165   -0.062322   -3.851596
  H      5.975383   -1.396884   -4.691414
  F      0.228860   -1.246868   -3.127871
  O     -0.439269    1.118966   -3.014550
  O      1.247881    0.403474   -4.595647
  H      1.697003    2.561969   -2.141109
  H      3.080787    1.987436   -1.225838
  H      2.806463    1.986511   -4.268484
  H      3.778714    3.098282   -3.307383

 Total Charge           Charge          ....    0
 Multiplicity           Mult            ....    1
 Number of Electrons    NEL             ....   96
 Basis Dimension        Dim             ....  324

ORBITAL ENERGIES
----------------

  NO   OCC          E(Eh)            E(eV)
   0   2.0000     -88.578212     -2410.3357
   1   2.0000     -24.605349      -669.5456
   2   2.0000     -18.982517      -516.5406
   3   2.0000     -18.976877      -516.3871
   4   2.0000     -14.182636      -385.9292
   5   2.0000     -14.165307      -385.4576
   6   2.0000     -10.142292      -275.9858
   7   2.0000     -10.128832      -275.6195
   8   2.0000     -10.096959      -274.7522
   9   2.0000     -10.062216      -273.8068
  10   2.0000     -10.007804      -272.3262
  11   2.0000      -8.127421      -221.1584
  12   2.0000      -6.166261      -167.7925
  13   2.0000      -6.159791      -167.6164
  14   2.0000      -6.157544      -167.5553
  15   2.0000      -1.471444       -40.0400
  16   2.0000      -1.221151       -33.2292
  17   2.0000      -1.118794       -30.4439
  18   2.0000      -1.047034       -28.4912
  19   2.0000      -0.953425       -25.9440
  20   2.0000      -0.934903       -25.4400
  21   2.0000      -0.872278       -23.7359
  22   2.0000      -0.832933       -22.6653
  23   2.0000      -0.788702       -21.4617
  24   2.0000      -0.737244       -20.0614
  25   2.0000      -0.709071       -19.2948
  26   2.0000      -0.698262       -19.0007
  27   2.0000      -0.685641       -18.6572
  28   2.0000      -0.659263       -17.9395
  29   2.0000      -0.643501       -17.5106
  30   2.0000      -0.623116       -16.9559
  31   2.0000      -0.596245       -16.2247
  32   2.0000      -0.594625       -16.1806
  33   2.0000      -0.574501       -15.6330
  34   2.0000      -0.559724       -15.2309
  35   2.0000      -0.541696       -14.7403
  36   2.0000      -0.512627       -13.9493
  37   2.0000      -0.510322       -13.8866
  38   2.0000      -0.499053       -13.5799
  39   2.0000      -0.487288       -13.2598
  40   2.0000      -0.461741       -12.5646
  41   2.0000      -0.455456       -12.3936
  42   2.0000      -0.438837       -11.9414
  43   2.0000      -0.436500       -11.8778
  44   2.0000      -0.418995       -11.4014
  45   2.0000      -0.409886       -11.1536
  46   2.0000      -0.355849        -9.6831
  47   2.0000      -0.252787        -6.8787
  48   0.0000       0.044420         1.2087
  49   0.0000       0.071901         1.9565
  50   0.0000       0.073238         1.9929
  51   0.0000       0.082535         2.2459
  52   0.0000       0.097853         2.6627

MULLIKEN ATOMIC CHARGES
-----------------------
   0 C :    0.649150
   1 C :   -0.091701
   2 C :    0.362414
   3 C :    0.252648
   4 H :   -0.020144
   5 H :   -0.181853
   6 S :    1.375189
   7 C :    0.656856
   8 N :    0.183623
   9 N :    0.771278
  10 H :   -0.538765
  11 H :   -0.295396
  12 H :   -0.524008
  13 H :   -0.140405
  14 H :   -0.160110
  15 F :   -0.358142
  16 O :   -0.591938
  17 O :   -0.712217
  18 H :   -0.085927
  19 H :   -0.101778
  20 H :   -0.240923
  21 H :   -0.207850
Sum of atomic charges:   -0.0000000

LOEWDIN ATOMIC CHARGES
----------------------
   0 C :   -0.046249
   1 C :   -0.035574
   2 C :   -0.026969
   3 C :   -0.052435
   4 H :    0.024815
   5 H :    0.026356
   6 S :    1.119065
   7 C :   -0.233681
   8 N :    0.190582
   9 N :    0.239007
  10 H :   -0.154721
  11 H :   -0.000641
  12 H :   -0.048312
  13 H :   -0.000284
  14 H :   -0.017116
  15 F :   -0.226236
  16 O :   -0.425449
  17 O :   -0.435523
  18 H :    0.032842
  19 H :    0.043531
  20 H :    0.000817
  21 H :    0.026176

  Mayer bond orders larger than 0.100000
B(  0-C ,  1-C ) :   1.0728 B(  0-C ,  2-C ) :   1.0937 B(  0-C ,  7-C ) :   0.1225
B(  0-C , 12-H ) :   0.2526 B(  0-C , 18-H ) :   0.1903 B(  0-C , 19-H ) :   0.1681
B(  0-C , 20-H ) :   0.6726 B(  0-C , 21-H ) :   0.6770 B(  1-C ,  2-C ) :   0.1461
B(  1-C ,  7-C ) :   1.5854 B(  1-C ,  8-N ) :   0.4202 B(  1-C ,  9-N ) :   0.2438
B(  1-C , 10-H ) :  -0.1143 B(  1-C , 12-H ) :   0.7181 B(  1-C , 20-H ) :   0.3592
B(  1-C , 21-H ) :   0.1496 B(  2-C ,  3-C ) :   1.2850 B(  2-C ,  4-H ) :   0.1721
B(  2-C ,  5-H ) :   0.1914 B(  2-C , 18-H ) :   0.7480 B(  2-C , 19-H ) :   0.7072
B(  2-C , 20-H ) :   0.2028 B(  2-C , 21-H ) :   0.1181 B(  3-C ,  4-H ) :   0.9332
B(  3-C ,  5-H ) :   0.7100 B(  3-C ,  6-S ) :   0.9100 B(  3-C , 17-O ) :   0.1503
B(  3-C , 18-H ) :   0.1746 B(  3-C , 19-H ) :   0.1659 B(  5-H ,  6-S ) :   0.1145
B(  6-S , 15-F ) :   0.7372 B(  6-S , 16-O ) :   1.6152 B(  6-S , 17-O ) :   1.4024
B(  7-C ,  8-N ) :   0.8368 B(  7-C ,  9-N ) :   1.1020 B(  7-C , 10-H ) :  -0.1403
B(  7-C , 11-H ) :  -0.1891 B(  7-C , 13-H ) :  -0.1893 B(  7-C , 20-H ) :  -0.1649
B(  8-N , 12-H ) :   0.1290 B(  8-N , 13-H ) :   1.2490 B(  8-N , 14-H ) :   1.1490
B(  9-N , 10-H ) :   1.1325 B(  9-N , 11-H ) :   1.1672 B( 10-H , 11-H ) :  -0.2031
B( 10-H , 17-O ) :   0.2150 B( 13-H , 14-H ) :  -0.1747 B( 18-H , 19-H ) :  -0.1075

FINAL SINGLE POINT ENERGY      -953.107497527568

DIPOLE MOMENT
-------------
                                X             Y             Z
Electronic contribution:    -15.24762      -6.68243      -1.08937
Nuclear contribution   :     15.92508       5.34175       1.81950
                        -----------------------------------------
Total Dipole Moment    :      0.67746      -1.34068       0.73013
                        -----------------------------------------
Magnitude (a.u.)       :      1.67017
Magnitude (Debye)      :      4.24524

Rotational constants in cm-1:     0.058561     0.020662     0.017762
Rotational constants in MHz :  1755.621534   619.433801   532.501507

                             ****ORCA TERMINATED NORMALLY****
TOTAL RUN TIME: 0 days 0 hours 1 minutes 39 seconds 104 msec
