                         Program Version 5.0.0 -  RELEASE  -
|  1> !LC-BLYP RIJCOSX def2-SVPD def2/J TightSCF xyzfile
|  2>
|  3> *xyzfile 0 1 D2.xyz
|  4>
|  5> %MaxCore 64000
|  6>
|  7> %pal nprocs 4
|  8> end
|  9>
| 10> %scf
| 11>   MaxIter 150
| 12> end
| 13>
| 14>
| 15>                          ****END OF INPUT****

CARTESIAN COORDINATES (ANGSTROEM)
---------------------------------
  C      3.380928    2.083045   -3.350127
  N      4.535924    1.182447   -3.428518
  C      2.495557    1.816150   -2.136364
  C      1.872181    0.427903   -2.077497
  H      2.614270   -0.365825   -2.198894
  H      1.389953    0.273087   -1.112360
  S      0.579024    0.140472   -3.297943
  C      4.671956    0.122273   -4.220598
  C      5.866023   -0.507849   -4.224284
  N      3.698881   -0.312844   -4.986988
  H      2.731405   -0.050091   -4.849000
  H      3.890046   -1.055172   -5.643730
  H      5.251933    1.303459   -2.721014
  H      6.695165   -0.062322   -3.851596
  H      5.975383   -1.396884   -4.691414
  F      0.228860   -1.246868   -3.127871
  O     -0.439269    1.118966   -3.014550
  O      1.247881    0.403474   -4.595647
  H      1.697003    2.561969   -2.141109
  H      3.080787    1.987436   -1.225838
  H      2.806463    1.986511   -4.268484
  H      3.778714    3.098282   -3.307383

 Total Charge           Charge          ....    0
 Multiplicity           Mult            ....    1
 Number of Electrons    NEL             ....   96
 Basis Dimension        Dim             ....  324

ORBITAL ENERGIES
----------------

  NO   OCC          E(Eh)            E(eV)
   0   2.0000     -88.591949     -2410.7095
   1   2.0000     -24.616595      -669.8516
   2   2.0000     -18.995244      -516.8869
   3   2.0000     -18.988732      -516.7097
   4   2.0000     -14.190065      -386.1313
   5   2.0000     -14.162285      -385.3754
   6   2.0000     -10.160900      -276.4921
   7   2.0000     -10.128619      -275.6137
   8   2.0000     -10.128378      -275.6072
   9   2.0000     -10.124407      -275.4991
  10   2.0000      -9.987689      -271.7788
  11   2.0000      -8.140983      -221.5274
  12   2.0000      -6.179764      -168.1599
  13   2.0000      -6.173304      -167.9841
  14   2.0000      -6.171292      -167.9294
  15   2.0000      -1.482664       -40.3453
  16   2.0000      -1.233874       -33.5754
  17   2.0000      -1.131192       -30.7813
  18   2.0000      -1.057856       -28.7857
  19   2.0000      -0.977301       -26.5937
  20   2.0000      -0.944211       -25.6933
  21   2.0000      -0.879169       -23.9234
  22   2.0000      -0.834146       -22.6983
  23   2.0000      -0.794748       -21.6262
  24   2.0000      -0.746273       -20.3071
  25   2.0000      -0.718390       -19.5484
  26   2.0000      -0.705063       -19.1857
  27   2.0000      -0.702994       -19.1294
  28   2.0000      -0.689384       -18.7591
  29   2.0000      -0.654712       -17.8156
  30   2.0000      -0.620114       -16.8742
  31   2.0000      -0.598485       -16.2856
  32   2.0000      -0.595048       -16.1921
  33   2.0000      -0.588319       -16.0090
  34   2.0000      -0.569469       -15.4960
  35   2.0000      -0.551523       -15.0077
  36   2.0000      -0.523396       -14.2423
  37   2.0000      -0.515509       -14.0277
  38   2.0000      -0.509831       -13.8732
  39   2.0000      -0.491564       -13.3761
  40   2.0000      -0.486293       -13.2327
  41   2.0000      -0.472061       -12.8454
  42   2.0000      -0.458714       -12.4823
  43   2.0000      -0.449985       -12.2447
  44   2.0000      -0.439601       -11.9622
  45   2.0000      -0.426357       -11.6018
  46   2.0000      -0.347364        -9.4523
  47   2.0000      -0.246910        -6.7188
  48   0.0000       0.037167         1.0114
  49   0.0000       0.060417         1.6440
  50   0.0000       0.070305         1.9131
  51   0.0000       0.073668         2.0046
  52   0.0000       0.090416         2.4603

MULLIKEN ATOMIC CHARGES
-----------------------
   0 C :    1.083489
   1 N :   -0.173742
   2 C :    0.350535
   3 C :    0.290558
   4 H :    0.042661
   5 H :   -0.233647
   6 S :    1.368118
   7 C :    0.301864
   8 C :    0.549154
   9 N :    0.915247
  10 H :   -0.644016
  11 H :   -0.218112
  12 H :   -0.252771
  13 H :   -0.506355
  14 H :   -0.391477
  15 F :   -0.353183
  16 O :   -0.585468
  17 O :   -0.723136
  18 H :   -0.081171
  19 H :   -0.121906
  20 H :   -0.183289
  21 H :   -0.433355
Sum of atomic charges:   -0.0000000

LOEWDIN ATOMIC CHARGES
----------------------
   0 C :    0.058902
   1 N :    0.009920
   2 C :   -0.018186
   3 C :   -0.050792
   4 H :    0.029924
   5 H :    0.028872
   6 S :    1.121856
   7 C :   -0.256911
   8 C :    0.129002
   9 N :    0.238657
  10 H :   -0.162728
  11 H :    0.016389
  12 H :    0.036133
  13 H :   -0.110283
  14 H :   -0.110249
  15 F :   -0.219861
  16 O :   -0.423151
  17 O :   -0.436157
  18 H :    0.037973
  19 H :    0.042698
  20 H :    0.007594
  21 H :    0.030397

  Mayer bond orders larger than 0.100000
B(  0-C ,  1-N ) :   1.0026 B(  0-C ,  2-C ) :   1.0512 B(  0-C , 12-H ) :  -0.2034
B(  0-C , 18-H ) :   0.1640 B(  0-C , 19-H ) :   0.1529 B(  0-C , 20-H ) :   0.6616
B(  0-C , 21-H ) :   0.7611 B(  1-N ,  7-C ) :   1.0973 B(  1-N ,  8-C ) :   0.2244
B(  1-N ,  9-N ) :   0.1269 B(  1-N , 12-H ) :   1.2290 B(  1-N , 20-H ) :   0.2639
B(  1-N , 21-H ) :   0.1497 B(  2-C ,  3-C ) :   1.2700 B(  2-C ,  4-H ) :   0.1679
B(  2-C ,  5-H ) :   0.1917 B(  2-C , 18-H ) :   0.7942 B(  2-C , 19-H ) :   0.7274
B(  2-C , 20-H ) :   0.1856 B(  2-C , 21-H ) :   0.1032 B(  3-C ,  4-H ) :   0.9085
B(  3-C ,  5-H ) :   0.7109 B(  3-C ,  6-S ) :   0.9122 B(  3-C , 17-O ) :   0.1527
B(  3-C , 18-H ) :   0.1356 B(  3-C , 19-H ) :   0.1507 B(  5-H ,  6-S ) :   0.1049
B(  6-S , 15-F ) :   0.7456 B(  6-S , 16-O ) :   1.6165 B(  6-S , 17-O ) :   1.4037
B(  7-C ,  8-C ) :   1.3561 B(  7-C ,  9-N ) :   1.1392 B(  7-C , 12-H ) :  -0.2190
B(  7-C , 13-H ) :   0.1261 B(  7-C , 14-H ) :   0.2220 B(  8-C ,  9-N ) :   0.1325
B(  8-C , 13-H ) :   0.6657 B(  8-C , 14-H ) :   0.7073 B(  9-N , 10-H ) :   0.9120
B(  9-N , 11-H ) :   1.1091 B(  9-N , 20-H ) :   0.1241 B( 10-H , 11-H ) :  -0.2253
B( 10-H , 17-O ) :   0.2249 B( 13-H , 14-H ) :   0.1420 B( 17-O , 20-H ) :   0.1113
B( 20-H , 21-H ) :  -0.1820

FINAL SINGLE POINT ENERGY      -953.091283683476

DIPOLE MOMENT
-------------
                                X             Y             Z
Electronic contribution:    -16.71176      -5.23115      -0.31995
Nuclear contribution   :     16.05479       5.17692       1.74190
                        -----------------------------------------
Total Dipole Moment    :     -0.65697      -0.05423       1.42195
                        -----------------------------------------
Magnitude (a.u.)       :      1.56732
Magnitude (Debye)      :      3.98382

Rotational constants in cm-1:     0.058652     0.021107     0.018077
Rotational constants in MHz :  1758.344290   632.763813   541.920558

                             ****ORCA TERMINATED NORMALLY****
TOTAL RUN TIME: 0 days 0 hours 1 minutes 44 seconds 439 msec
