                         Program Version 5.0.0 -  RELEASE  -
|  1> !LC-BLYP RIJCOSX def2-SVPD def2/J TightSCF xyzfile
|  2>
|  3> *xyzfile 0 1 D3.xyz
|  4>
|  5> %MaxCore 64000
|  6>
|  7> %pal nprocs 4
|  8> end
|  9>
| 10> %scf
| 11>   MaxIter 150
| 12> end
| 13>
| 14>
| 15>                          ****END OF INPUT****

CARTESIAN COORDINATES (ANGSTROEM)
---------------------------------
  C      3.380928    2.083045   -3.350127
  N      4.535924    1.182447   -3.428518
  C      2.495557    1.816150   -2.136364
  C      1.872181    0.427903   -2.077497
  H      2.614270   -0.365825   -2.198894
  H      1.389953    0.273087   -1.112360
  S      0.579024    0.140472   -3.297943
  C      4.671956    0.122273   -4.220598
  N      5.866023   -0.507849   -4.224284
  C      3.698881   -0.312844   -4.986988
  H      2.731405   -0.050091   -4.849000
  H      3.890046   -1.055172   -5.643730
  H      5.251933    1.303459   -2.721014
  H      6.695165   -0.062322   -3.851596
  H      5.975383   -1.396884   -4.691414
  F      0.228860   -1.246868   -3.127871
  O     -0.439269    1.118966   -3.014550
  O      1.247881    0.403474   -4.595647
  H      1.697003    2.561969   -2.141109
  H      3.080787    1.987436   -1.225838
  H      2.806463    1.986511   -4.268484
  H      3.778714    3.098282   -3.307383

 Total Charge           Charge          ....    0
 Multiplicity           Mult            ....    1
 Number of Electrons    NEL             ....   96
 Basis Dimension        Dim             ....  324

ORBITAL ENERGIES
----------------

  NO   OCC          E(Eh)            E(eV)
   0   2.0000     -88.570137     -2410.1159
   1   2.0000     -24.597859      -669.3418
   2   2.0000     -18.975342      -516.3453
   3   2.0000     -18.959197      -515.9060
   4   2.0000     -14.191044      -386.1579
   5   2.0000     -14.181330      -385.8936
   6   2.0000     -10.146392      -276.0974
   7   2.0000     -10.125541      -275.5300
   8   2.0000     -10.121829      -275.4290
   9   2.0000     -10.115870      -275.2668
  10   2.0000      -9.977287      -271.4958
  11   2.0000      -8.119089      -220.9317
  12   2.0000      -6.157925      -167.5656
  13   2.0000      -6.151297      -167.3853
  14   2.0000      -6.149474      -167.3357
  15   2.0000      -1.463607       -39.8268
  16   2.0000      -1.211628       -32.9701
  17   2.0000      -1.105956       -30.0946
  18   2.0000      -1.056839       -28.7580
  19   2.0000      -0.976621       -26.5752
  20   2.0000      -0.930972       -25.3330
  21   2.0000      -0.860884       -23.4259
  22   2.0000      -0.821884       -22.3646
  23   2.0000      -0.800480       -21.7822
  24   2.0000      -0.753353       -20.4998
  25   2.0000      -0.698600       -19.0099
  26   2.0000      -0.695283       -18.9196
  27   2.0000      -0.678522       -18.4635
  28   2.0000      -0.662364       -18.0238
  29   2.0000      -0.643840       -17.5198
  30   2.0000      -0.623117       -16.9559
  31   2.0000      -0.604460       -16.4482
  32   2.0000      -0.597504       -16.2589
  33   2.0000      -0.560537       -15.2530
  34   2.0000      -0.558729       -15.2038
  35   2.0000      -0.553321       -15.0566
  36   2.0000      -0.512466       -13.9449
  37   2.0000      -0.501842       -13.6558
  38   2.0000      -0.495758       -13.4903
  39   2.0000      -0.484457       -13.1827
  40   2.0000      -0.481570       -13.1042
  41   2.0000      -0.471193       -12.8218
  42   2.0000      -0.452715       -12.3190
  43   2.0000      -0.437630       -11.9085
  44   2.0000      -0.418807       -11.3963
  45   2.0000      -0.380191       -10.3455
  46   2.0000      -0.347810        -9.4644
  47   2.0000      -0.258108        -7.0235
  48   0.0000       0.048223         1.3122
  49   0.0000       0.065139         1.7725
  50   0.0000       0.077506         2.1091
  51   0.0000       0.080853         2.2001
  52   0.0000       0.098284         2.6744

MULLIKEN ATOMIC CHARGES
-----------------------
   0 C :    1.078558
   1 N :   -0.388734
   2 C :    0.333692
   3 C :    0.342559
   4 H :   -0.004806
   5 H :   -0.235852
   6 S :    1.354228
   7 C :    0.744421
   8 N :    0.262240
   9 C :    1.040476
  10 H :   -1.131065
  11 H :   -0.480129
  12 H :   -0.301854
  13 H :   -0.191082
  14 H :   -0.055530
  15 F :   -0.356589
  16 O :   -0.600099
  17 O :   -0.709683
  18 H :   -0.103027
  19 H :   -0.119027
  20 H :   -0.065227
  21 H :   -0.413469
Sum of atomic charges:   -0.0000000

LOEWDIN ATOMIC CHARGES
----------------------
   0 C :    0.066556
   1 N :   -0.001304
   2 C :   -0.017296
   3 C :   -0.051476
   4 H :    0.025176
   5 H :    0.025658
   6 S :    1.113521
   7 C :   -0.250372
   8 N :    0.188840
   9 C :    0.180474
  10 H :   -0.217247
  11 H :   -0.081342
  12 H :    0.021583
  13 H :   -0.017382
  14 H :   -0.001261
  15 F :   -0.224449
  16 O :   -0.435134
  17 O :   -0.445444
  18 H :    0.037549
  19 H :    0.038689
  20 H :    0.014061
  21 H :    0.030601

  Mayer bond orders larger than 0.100000
B(  0-C ,  1-N ) :   0.9667 B(  0-C ,  2-C ) :   1.0315 B(  0-C ,  3-C ) :   0.1073
B(  0-C , 12-H ) :  -0.1770 B(  0-C , 18-H ) :   0.1510 B(  0-C , 19-H ) :   0.1324
B(  0-C , 20-H ) :   0.6463 B(  0-C , 21-H ) :   0.7936 B(  1-N ,  7-C ) :   0.9454
B(  1-N ,  8-N ) :   0.1801 B(  1-N ,  9-C ) :   0.3459 B(  1-N , 12-H ) :   1.3649
B(  1-N , 20-H ) :   0.1953 B(  1-N , 21-H ) :   0.1412 B(  2-C ,  3-C ) :   1.2612
B(  2-C ,  4-H ) :   0.1700 B(  2-C ,  5-H ) :   0.1996 B(  2-C , 18-H ) :   0.8085
B(  2-C , 19-H ) :   0.7433 B(  2-C , 20-H ) :   0.1808 B(  2-C , 21-H ) :   0.1004
B(  3-C ,  4-H ) :   0.9322 B(  3-C ,  5-H ) :   0.6821 B(  3-C ,  6-S ) :   0.9236
B(  3-C , 17-O ) :   0.1496 B(  3-C , 18-H ) :   0.1423 B(  3-C , 19-H ) :   0.1504
B(  5-H ,  6-S ) :   0.1006 B(  6-S , 15-F ) :   0.7304 B(  6-S , 16-O ) :   1.5981
B(  6-S , 17-O ) :   1.4441 B(  7-C ,  8-N ) :   0.9654 B(  7-C ,  9-C ) :   1.7713
B(  7-C , 10-H ) :  -0.1590 B(  7-C , 11-H ) :   0.4024 B(  7-C , 12-H ) :  -0.3026
B(  7-C , 20-H ) :  -0.1170 B(  8-N ,  9-C ) :   0.3728 B(  8-N , 11-H ) :   0.1217
B(  8-N , 13-H ) :   1.1686 B(  8-N , 14-H ) :   1.1424 B(  9-C , 10-H ) :  -0.1122
B(  9-C , 11-H ) :   0.5520 B( 10-H , 17-O ) :   0.2692 B( 13-H , 14-H ) :  -0.1853
B( 17-O , 20-H ) :   0.1082 B( 20-H , 21-H ) :  -0.2153

FINAL SINGLE POINT ENERGY      -953.074453788200

DIPOLE MOMENT
-------------
                                X             Y             Z
Electronic contribution:    -14.64639      -5.47890       0.08914
Nuclear contribution   :     15.84345       5.19593       1.66752
                        -----------------------------------------
Total Dipole Moment    :      1.19707      -0.28297       1.75666
                        -----------------------------------------
Magnitude (a.u.)       :      2.14451
Magnitude (Debye)      :      5.45090

Rotational constants in cm-1:     0.059060     0.020573     0.017713
Rotational constants in MHz :  1770.576058   616.749938   531.036486

                             ****ORCA TERMINATED NORMALLY****
TOTAL RUN TIME: 0 days 0 hours 1 minutes 39 seconds 269 msec
