                         Program Version 5.0.0 -  RELEASE  -
|  1> !LC-BLYP RIJCOSX def2-SVPD def2/J TightSCF xyzfile
|  2>
|  3> *xyzfile 0 1 D5.xyz
|  4>
|  5> %MaxCore 64000
|  6>
|  7> %pal nprocs 4
|  8> end
|  9>
| 10> %scf
| 11>   MaxIter 150
| 12> end
| 13>
| 14>
| 15>                          ****END OF INPUT****

CARTESIAN COORDINATES (ANGSTROEM)
---------------------------------
  C      3.380928    2.083045   -3.350127
  N      4.535924    1.182447   -3.428518
  C      2.495557    1.816150   -2.136364
  C      1.872181    0.427903   -2.077497
  H      2.614270   -0.365825   -2.198894
  H      1.389953    0.273087   -1.112360
  S      0.579024    0.140472   -3.297943
  C      4.671956    0.122273   -4.220598
  C      5.866023   -0.507849   -4.224284
  N      3.698881   -0.312844   -4.986988
  H      2.731405   -0.050091   -4.849000
  H      3.890046   -1.055172   -5.643730
  H      5.251933    1.303459   -2.721014
  H      6.695165   -0.062322   -3.851596
  H      5.975383   -1.396884   -4.691414
  O      0.228860   -1.246868   -3.127871
  F     -0.439269    1.118966   -3.014550
  O      1.247881    0.403474   -4.595647
  H      1.697003    2.561969   -2.141109
  H      3.080787    1.987436   -1.225838
  H      2.806463    1.986511   -4.268484
  H      3.778714    3.098282   -3.307383

 Total Charge           Charge          ....    0
 Multiplicity           Mult            ....    1
 Number of Electrons    NEL             ....   96
 Basis Dimension        Dim             ....  324

ORBITAL ENERGIES
----------------

  NO   OCC          E(Eh)            E(eV)
   0   2.0000     -88.591572     -2410.6992
   1   2.0000     -24.617497      -669.8762
   2   2.0000     -18.994282      -516.8607
   3   2.0000     -18.988448      -516.7019
   4   2.0000     -14.190774      -386.1506
   5   2.0000     -14.160913      -385.3380
   6   2.0000     -10.160586      -276.4836
   7   2.0000     -10.130922      -275.6764
   8   2.0000     -10.127348      -275.5791
   9   2.0000     -10.127301      -275.5779
  10   2.0000      -9.986445      -271.7450
  11   2.0000      -8.140545      -221.5155
  12   2.0000      -6.179420      -168.1506
  13   2.0000      -6.172859      -167.9720
  14   2.0000      -6.170781      -167.9155
  15   2.0000      -1.483727       -40.3743
  16   2.0000      -1.232569       -33.5399
  17   2.0000      -1.130808       -30.7709
  18   2.0000      -1.057618       -28.7793
  19   2.0000      -0.977638       -26.6029
  20   2.0000      -0.945839       -25.7376
  21   2.0000      -0.876539       -23.8518
  22   2.0000      -0.836077       -22.7508
  23   2.0000      -0.795758       -21.6537
  24   2.0000      -0.745574       -20.2881
  25   2.0000      -0.720825       -19.6146
  26   2.0000      -0.717974       -19.5371
  27   2.0000      -0.702146       -19.1064
  28   2.0000      -0.680187       -18.5088
  29   2.0000      -0.649324       -17.6690
  30   2.0000      -0.619384       -16.8543
  31   2.0000      -0.604562       -16.4510
  32   2.0000      -0.595934       -16.2162
  33   2.0000      -0.585986       -15.9455
  34   2.0000      -0.566158       -15.4059
  35   2.0000      -0.556484       -15.1427
  36   2.0000      -0.526598       -14.3295
  37   2.0000      -0.518442       -14.1075
  38   2.0000      -0.510687       -13.8965
  39   2.0000      -0.493869       -13.4389
  40   2.0000      -0.486238       -13.2312
  41   2.0000      -0.468397       -12.7457
  42   2.0000      -0.455888       -12.4053
  43   2.0000      -0.443741       -12.0748
  44   2.0000      -0.439654       -11.9636
  45   2.0000      -0.432688       -11.7740
  46   2.0000      -0.346773        -9.4362
  47   2.0000      -0.245749        -6.6872
  48   0.0000       0.034436         0.9371
  49   0.0000       0.061503         1.6736
  50   0.0000       0.068820         1.8727
  51   0.0000       0.074389         2.0242
  52   0.0000       0.088144         2.3985

MULLIKEN ATOMIC CHARGES
-----------------------
   0 C :    1.089051
   1 N :   -0.179111
   2 C :    0.389857
   3 C :    0.309152
   4 H :    0.031942
   5 H :   -0.239731
   6 S :    1.389118
   7 C :    0.304834
   8 C :    0.547949
   9 N :    0.910919
  10 H :   -0.641633
  11 H :   -0.211793
  12 H :   -0.246844
  13 H :   -0.510119
  14 H :   -0.389404
  15 O :   -0.544809
  16 F :   -0.397872
  17 O :   -0.750201
  18 H :   -0.103985
  19 H :   -0.139221
  20 H :   -0.180329
  21 H :   -0.437770
Sum of atomic charges:   -0.0000000

LOEWDIN ATOMIC CHARGES
----------------------
   0 C :    0.054615
   1 N :    0.010604
   2 C :   -0.033255
   3 C :   -0.041896
   4 H :    0.043319
   5 H :    0.029253
   6 S :    1.118721
   7 C :   -0.255207
   8 C :    0.130252
   9 N :    0.242180
  10 H :   -0.154554
  11 H :    0.019066
  12 H :    0.036155
  13 H :   -0.110334
  14 H :   -0.108782
  15 O :   -0.420216
  16 F :   -0.221778
  17 O :   -0.441715
  18 H :    0.031013
  19 H :    0.039838
  20 H :    0.003625
  21 H :    0.029095

  Mayer bond orders larger than 0.100000
B(  0-C ,  1-N ) :   1.0025 B(  0-C ,  2-C ) :   1.0585 B(  0-C , 12-H ) :  -0.1999
B(  0-C , 18-H ) :   0.1657 B(  0-C , 19-H ) :   0.1504 B(  0-C , 20-H ) :   0.6602
B(  0-C , 21-H ) :   0.7578 B(  1-N ,  7-C ) :   1.0934 B(  1-N ,  8-C ) :   0.2276
B(  1-N ,  9-N ) :   0.1266 B(  1-N , 12-H ) :   1.2243 B(  1-N , 20-H ) :   0.2611
B(  1-N , 21-H ) :   0.1529 B(  2-C ,  3-C ) :   1.2265 B(  2-C ,  4-H ) :   0.1559
B(  2-C ,  5-H ) :   0.1772 B(  2-C , 18-H ) :   0.7753 B(  2-C , 19-H ) :   0.7295
B(  2-C , 20-H ) :   0.1853 B(  2-C , 21-H ) :   0.1058 B(  3-C ,  4-H ) :   0.9286
B(  3-C ,  5-H ) :   0.7268 B(  3-C ,  6-S ) :   0.9406 B(  3-C , 17-O ) :   0.1337
B(  3-C , 18-H ) :   0.1288 B(  3-C , 19-H ) :   0.1393 B(  5-H ,  6-S ) :   0.1119
B(  6-S , 15-O ) :   1.6147 B(  6-S , 16-F ) :   0.7250 B(  6-S , 17-O ) :   1.3974
B(  7-C ,  8-C ) :   1.3525 B(  7-C ,  9-N ) :   1.1449 B(  7-C , 12-H ) :  -0.2163
B(  7-C , 13-H ) :   0.1202 B(  7-C , 14-H ) :   0.2246 B(  8-C ,  9-N ) :   0.1354
B(  8-C , 13-H ) :   0.6698 B(  8-C , 14-H ) :   0.7028 B(  9-N , 10-H ) :   0.9074
B(  9-N , 11-H ) :   1.1070 B(  9-N , 20-H ) :   0.1223 B( 10-H , 11-H ) :  -0.2261
B( 10-H , 17-O ) :   0.2382 B( 13-H , 14-H ) :   0.1382 B( 17-O , 20-H ) :   0.1030
B( 20-H , 21-H ) :  -0.1779

FINAL SINGLE POINT ENERGY      -953.090164293717

DIPOLE MOMENT
-------------
                                X             Y             Z
Electronic contribution:    -17.83680      -1.16437      -0.12999
Nuclear contribution   :     16.78714       2.58368       1.61768
                        -----------------------------------------
Total Dipole Moment    :     -1.04966       1.41931       1.48769
                        -----------------------------------------
Magnitude (a.u.)       :      2.30856
Magnitude (Debye)      :      5.86790

Rotational constants in cm-1:     0.059928     0.020911     0.017993
Rotational constants in MHz :  1796.610847   626.896941   539.414615

                             ****ORCA TERMINATED NORMALLY****
TOTAL RUN TIME: 0 days 0 hours 1 minutes 41 seconds 169 msec
