                         Program Version 5.0.0 -  RELEASE  -
|  1> !LC-BLYP RIJCOSX def2-SVPD def2/J TightSCF xyzfile
|  2>
|  3> *xyzfile 0 1 D6.xyz
|  4>
|  5> %MaxCore 64000
|  6>
|  7> %pal nprocs 4
|  8> end
|  9>
| 10> %scf
| 11>   MaxIter 150
| 12> end
| 13>
| 14>
| 15>                          ****END OF INPUT****

CARTESIAN COORDINATES (ANGSTROEM)
---------------------------------
  C      3.380928    2.083045   -3.350127
  N      4.535924    1.182447   -3.428518
  C      2.495557    1.816150   -2.136364
  C      1.872181    0.427903   -2.077497
  H      2.614270   -0.365825   -2.198894
  H      1.389953    0.273087   -1.112360
  S      0.579024    0.140472   -3.297943
  C      4.671956    0.122273   -4.220598
  N      5.866023   -0.507849   -4.224284
  C      3.698881   -0.312844   -4.986988
  H      2.731405   -0.050091   -4.849000
  H      3.890046   -1.055172   -5.643730
  H      5.251933    1.303459   -2.721014
  H      6.695165   -0.062322   -3.851596
  H      5.975383   -1.396884   -4.691414
  O      0.228860   -1.246868   -3.127871
  F     -0.439269    1.118966   -3.014550
  O      1.247881    0.403474   -4.595647
  H      1.697003    2.561969   -2.141109
  H      3.080787    1.987436   -1.225838
  H      2.806463    1.986511   -4.268484
  H      3.778714    3.098282   -3.307383

 Total Charge           Charge          ....    0
 Multiplicity           Mult            ....    1
 Number of Electrons    NEL             ....   96
 Basis Dimension        Dim             ....  324

ORBITAL ENERGIES
----------------

  NO   OCC          E(Eh)            E(eV)
   0   2.0000     -88.569077     -2410.0871
   1   2.0000     -24.597754      -669.3389
   2   2.0000     -18.974578      -516.3245
   3   2.0000     -18.960698      -515.9468
   4   2.0000     -14.191347      -386.1662
   5   2.0000     -14.179650      -385.8479
   6   2.0000     -10.146189      -276.0918
   7   2.0000     -10.124115      -275.4912
   8   2.0000     -10.123885      -275.4849
   9   2.0000     -10.118924      -275.3499
  10   2.0000      -9.976763      -271.4815
  11   2.0000      -8.118090      -220.9045
  12   2.0000      -6.157058      -167.5421
  13   2.0000      -6.150198      -167.3554
  14   2.0000      -6.148455      -167.3080
  15   2.0000      -1.464127       -39.8409
  16   2.0000      -1.210219       -32.9317
  17   2.0000      -1.106315       -30.1044
  18   2.0000      -1.056357       -28.7449
  19   2.0000      -0.976553       -26.5734
  20   2.0000      -0.933441       -25.4002
  21   2.0000      -0.857332       -23.3292
  22   2.0000      -0.824179       -22.4271
  23   2.0000      -0.800293       -21.7771
  24   2.0000      -0.753608       -20.5067
  25   2.0000      -0.708674       -19.2840
  26   2.0000      -0.698389       -19.0041
  27   2.0000      -0.673106       -18.3161
  28   2.0000      -0.661792       -18.0083
  29   2.0000      -0.639280       -17.3957
  30   2.0000      -0.621109       -16.9012
  31   2.0000      -0.605090       -16.4653
  32   2.0000      -0.593554       -16.1514
  33   2.0000      -0.570540       -15.5252
  34   2.0000      -0.556730       -15.1494
  35   2.0000      -0.549756       -14.9596
  36   2.0000      -0.522897       -14.2288
  37   2.0000      -0.504616       -13.7313
  38   2.0000      -0.496043       -13.4980
  39   2.0000      -0.488045       -13.2804
  40   2.0000      -0.477676       -12.9982
  41   2.0000      -0.470545       -12.8042
  42   2.0000      -0.454843       -12.3769
  43   2.0000      -0.424194       -11.5429
  44   2.0000      -0.410737       -11.1767
  45   2.0000      -0.394765       -10.7421
  46   2.0000      -0.347577        -9.4580
  47   2.0000      -0.256547        -6.9810
  48   0.0000       0.044946         1.2231
  49   0.0000       0.066361         1.8058
  50   0.0000       0.077013         2.0956
  51   0.0000       0.079772         2.1707
  52   0.0000       0.095399         2.5959

MULLIKEN ATOMIC CHARGES
-----------------------
   0 C :    1.079533
   1 N :   -0.389118
   2 C :    0.371958
   3 C :    0.375647
   4 H :   -0.020992
   5 H :   -0.243854
   6 S :    1.374216
   7 C :    0.751010
   8 N :    0.263901
   9 C :    1.029913
  10 H :   -1.117480
  11 H :   -0.488078
  12 H :   -0.299665
  13 H :   -0.191989
  14 H :   -0.054929
  15 O :   -0.552603
  16 F :   -0.405930
  17 O :   -0.740718
  18 H :   -0.127375
  19 H :   -0.137885
  20 H :   -0.057960
  21 H :   -0.417602
Sum of atomic charges:    0.0000000

LOEWDIN ATOMIC CHARGES
----------------------
   0 C :    0.062196
   1 N :   -0.001087
   2 C :   -0.032268
   3 C :   -0.042448
   4 H :    0.038738
   5 H :    0.026154
   6 S :    1.109892
   7 C :   -0.249027
   8 N :    0.189313
   9 C :    0.185948
  10 H :   -0.208687
  11 H :   -0.077967
  12 H :    0.021415
  13 H :   -0.017767
  14 H :   -0.000382
  15 O :   -0.428492
  16 F :   -0.231058
  17 O :   -0.450415
  18 H :    0.030692
  19 H :    0.035905
  20 H :    0.010050
  21 H :    0.029297

  Mayer bond orders larger than 0.100000
B(  0-C ,  1-N ) :   0.9697 B(  0-C ,  2-C ) :   1.0398 B(  0-C ,  3-C ) :   0.1028
B(  0-C , 12-H ) :  -0.1755 B(  0-C , 18-H ) :   0.1514 B(  0-C , 19-H ) :   0.1310
B(  0-C , 20-H ) :   0.6459 B(  0-C , 21-H ) :   0.7931 B(  1-N ,  7-C ) :   0.9409
B(  1-N ,  8-N ) :   0.1802 B(  1-N ,  9-C ) :   0.3467 B(  1-N , 12-H ) :   1.3616
B(  1-N , 20-H ) :   0.1918 B(  1-N , 21-H ) :   0.1428 B(  2-C ,  3-C ) :   1.2140
B(  2-C ,  4-H ) :   0.1613 B(  2-C ,  5-H ) :   0.1864 B(  2-C , 18-H ) :   0.7876
B(  2-C , 19-H ) :   0.7473 B(  2-C , 20-H ) :   0.1797 B(  2-C , 21-H ) :   0.1034
B(  3-C ,  4-H ) :   0.9503 B(  3-C ,  5-H ) :   0.6893 B(  3-C ,  6-S ) :   0.9476
B(  3-C , 17-O ) :   0.1313 B(  3-C , 18-H ) :   0.1352 B(  3-C , 19-H ) :   0.1381
B(  5-H ,  6-S ) :   0.1098 B(  6-S , 15-O ) :   1.5941 B(  6-S , 16-F ) :   0.7094
B(  6-S , 17-O ) :   1.4384 B(  7-C ,  8-N ) :   0.9670 B(  7-C ,  9-C ) :   1.7677
B(  7-C , 10-H ) :  -0.1585 B(  7-C , 11-H ) :   0.4026 B(  7-C , 12-H ) :  -0.3014
B(  7-C , 20-H ) :  -0.1146 B(  8-N ,  9-C ) :   0.3715 B(  8-N , 11-H ) :   0.1182
B(  8-N , 13-H ) :   1.1686 B(  8-N , 14-H ) :   1.1419 B(  9-C , 10-H ) :  -0.1139
B(  9-C , 11-H ) :   0.5519 B( 10-H , 17-O ) :   0.2915 B( 10-H , 20-H ) :   0.1048
B( 13-H , 14-H ) :  -0.1853 B( 20-H , 21-H ) :  -0.2134

FINAL SINGLE POINT ENERGY      -953.074010906742

DIPOLE MOMENT
-------------
                                X             Y             Z
Electronic contribution:    -15.78404      -1.40047       0.27640
Nuclear contribution   :     16.57580       2.60270       1.54331
                        -----------------------------------------
Total Dipole Moment    :      0.79176       1.20223       1.81971
                        -----------------------------------------
Magnitude (a.u.)       :      2.32025
Magnitude (Debye)      :      5.89761

Rotational constants in cm-1:     0.060402     0.020377     0.017632
Rotational constants in MHz :  1810.792194   610.900365   528.582827

                             ****ORCA TERMINATED NORMALLY****
TOTAL RUN TIME: 0 days 0 hours 1 minutes 41 seconds 37 msec
