                         Program Version 5.0.0 -  RELEASE  -
|  1> !DLPNO-CCSD(T) aug-cc-pVTZ aug-cc-pVTZ/C TightSCF TightPNO RIJCOSX def2/J
|  2> *xyz 0 1
|  3> C          3.91385       -1.65829        3.01513
|  4> C          5.03927       -0.90115        2.49282
|  5> C          6.21038       -1.41726        2.17824
|  6> N          6.53591       -2.67712        2.55608
|  7> N          7.07675       -0.70082        1.47891
|  8> H          7.95464       -1.12155        1.20755
|  9> H          6.75616        0.10664        0.96028
| 10> H          4.84217        0.01761        2.11519
| 11> H          5.99388       -3.12692        3.28278
| 12> H          7.49844       -2.97548        2.46878
| 13> C          3.13916       -2.37657        1.91061
| 14> H          3.26723       -0.93940        3.52069
| 15> H          4.24720       -2.35509        3.79006
| 16> C          2.39995       -1.38958        1.00949
| 17> H          2.44075       -3.08712        2.36298
| 18> H          3.84448       -2.97046        1.31868
| 19> H          1.87065       -1.92698        0.25058
| 20> H          3.10498       -0.72749        0.55181
| 21> H          1.70633       -0.82279        1.59477
| 22> *
| 23> %MaxCore 64000
| 24> %pal nprocs 2
| 25> end
| 26> %scf
| 27>   MaxIter 150
| 28> end
| 29>
| 30>
| 31>                          ****END OF INPUT****

CARTESIAN COORDINATES (ANGSTROEM)
---------------------------------
  C      3.913850   -1.658290    3.015130
  C      5.039270   -0.901150    2.492820
  C      6.210380   -1.417260    2.178240
  N      6.535910   -2.677120    2.556080
  N      7.076750   -0.700820    1.478910
  H      7.954640   -1.121550    1.207550
  H      6.756160    0.106640    0.960280
  H      4.842170    0.017610    2.115190
  H      5.993880   -3.126920    3.282780
  H      7.498440   -2.975480    2.468780
  C      3.139160   -2.376570    1.910610
  H      3.267230   -0.939400    3.520690
  H      4.247200   -2.355090    3.790060
  C      2.399950   -1.389580    1.009490
  H      2.440750   -3.087120    2.362980
  H      3.844480   -2.970460    1.318680
  H      1.870650   -1.926980    0.250580
  H      3.104980   -0.727490    0.551810
  H      1.706330   -0.822790    1.594770

 Total Charge           Charge          ....    0
 Multiplicity           Mult            ....    1
 Number of Electrons    NEL             ....   56
 Basis Dimension        Dim             ....  598

ORBITAL ENERGIES
----------------

  NO   OCC          E(Eh)            E(eV)
   0   2.0000     -15.562282      -423.4712
   1   2.0000     -15.560524      -423.4234
   2   2.0000     -11.281591      -306.9877
   3   2.0000     -11.197004      -304.6860
   4   2.0000     -11.194649      -304.6219
   5   2.0000     -11.188254      -304.4479
   6   2.0000     -11.137879      -303.0771
   7   2.0000      -1.277047       -34.7502
   8   2.0000      -1.163907       -31.6715
   9   2.0000      -1.064492       -28.9663
  10   2.0000      -0.983422       -26.7603
  11   2.0000      -0.897498       -24.4222
  12   2.0000      -0.808495       -22.0003
  13   2.0000      -0.768728       -20.9181
  14   2.0000      -0.720558       -19.6074
  15   2.0000      -0.691458       -18.8155
  16   2.0000      -0.640388       -17.4258
  17   2.0000      -0.605501       -16.4765
  18   2.0000      -0.601578       -16.3698
  19   2.0000      -0.567892       -15.4531
  20   2.0000      -0.551367       -15.0034
  21   2.0000      -0.521316       -14.1857
  22   2.0000      -0.510002       -13.8779
  23   2.0000      -0.468167       -12.7395
  24   2.0000      -0.454886       -12.3781
  25   2.0000      -0.449138       -12.2217
  26   2.0000      -0.416999       -11.3471
  27   2.0000      -0.261074        -7.1042
  28   0.0000       0.023876         0.6497
  29   0.0000       0.034465         0.9378
  30   0.0000       0.038723         1.0537
  31   0.0000       0.043193         1.1753
  32   0.0000       0.050776         1.3817

MULLIKEN ATOMIC CHARGES
-----------------------
   0 C :   -0.177764
   1 C :   -0.373318
   2 C :    0.552228
   3 N :   -0.447367
   4 N :   -0.586651
   5 H :    0.077909
   6 H :    0.079415
   7 H :    0.302176
   8 H :    0.114987
   9 H :    0.118843
  10 C :   -0.520853
  11 H :    0.204843
  12 H :    0.260983
  13 C :   -1.002108
  14 H :    0.305451
  15 H :    0.200109
  16 H :    0.271402
  17 H :    0.370152
  18 H :    0.249563
Sum of atomic charges:   -0.0000000

LOEWDIN ATOMIC CHARGES
----------------------
   0 C :    0.218984
   1 C :    0.184214
   2 C :   -0.422407
   3 N :    0.875481
   4 N :    0.850693
   5 H :   -0.284141
   6 H :   -0.267259
   7 H :   -0.267487
   8 H :   -0.302870
   9 H :   -0.283727
  10 C :    0.269413
  11 H :   -0.149655
  12 H :   -0.163654
  13 C :    0.597437
  14 H :   -0.148416
  15 H :   -0.149054
  16 H :   -0.184806
  17 H :   -0.190501
  18 H :   -0.182246

  Mayer bond orders larger than 0.100000
B(  0-C ,  1-C ) :   0.6852 B(  0-C , 10-C ) :   0.8971 B(  0-C , 11-H ) :   1.0625
B(  0-C , 12-H ) :   0.8844 B(  1-C ,  2-C ) :   1.0993 B(  1-C ,  3-N ) :  -0.1467
B(  1-C ,  4-N ) :  -0.1374 B(  1-C ,  7-H ) :   0.8866 B(  1-C , 10-C ) :   0.1565
B(  2-C ,  3-N ) :   0.8251 B(  2-C ,  4-N ) :   0.6955 B(  2-C ,  7-H ) :   0.1516
B(  3-N ,  4-N ) :  -0.1421 B(  3-N ,  8-H ) :   1.1104 B(  3-N ,  9-H ) :   1.0436
B(  4-N ,  5-H ) :   1.1380 B(  4-N ,  6-H ) :   1.1476 B( 10-C , 13-C ) :   0.8206
B( 10-C , 14-H ) :   0.9248 B( 10-C , 15-H ) :   0.9834 B( 13-C , 16-H ) :   0.9942
B( 13-C , 17-H ) :   0.8960 B( 13-C , 18-H ) :   0.9919

E(0)                                       ...   -305.301235116
E(0)                                       ...   -305.301235116
E(CORR)(strong-pairs)                      ...     -1.353967708
E(CORR)(weak-pairs)                        ...     -0.001656018
E(CORR)(corrected)                         ...     -1.355623726
E(TOT)                                     ...   -306.656858842
E(CCSD(T))                                 ...   -306.712296760
FINAL SINGLE POINT ENERGY      -306.712296760499

DIPOLE MOMENT
-------------
                                X             Y             Z
Electronic contribution:      6.11817       0.38502       1.06225
Nuclear contribution   :     -5.20491      -0.66934      -1.34917
                        -----------------------------------------
Total Dipole Moment    :      0.91327      -0.28432      -0.28692
                        -----------------------------------------
Magnitude (a.u.)       :      0.99861
Magnitude (Debye)      :      2.53827

Rotational constants in cm-1:     0.160002     0.049848     0.044470
Rotational constants in MHz :  4796.743477  1494.412607  1333.165890

                             ****ORCA TERMINATED NORMALLY****
TOTAL RUN TIME: 0 days 2 hours 16 minutes 3 seconds 129 msec
