                         Program Version 5.0.0 -  RELEASE  -
|  1> !DLPNO-CCSD(T) aug-cc-pVTZ aug-cc-pVTZ/C TightSCF TightPNO RIJCOSX def2/J
|  2> *xyz 0 1
|  3> C          4.08422        1.74208       -2.11472
|  4> C          4.26524        2.50052       -0.79589
|  5> H          4.86853        3.39267       -0.98113
|  6> H          3.30764        2.82457       -0.38781
|  7> C          4.98224        1.65026        0.24742
|  8> O          4.36806        1.38927        1.31371
|  9> F          6.12892        1.23351       -0.04562
| 10> C          3.41275        0.37689       -1.96550
| 11> H          5.06847        1.59850       -2.56573
| 12> H          3.50336        2.36394       -2.80457
| 13> H          3.32456       -0.08422       -2.92701
| 14> H          2.43923        0.50287       -1.53972
| 15> H          4.00446       -0.24355       -1.32531
| 16> *
| 17> %MaxCore 64000
| 18> %pal nprocs 8
| 19> end
| 20> %scf
| 21>   MaxIter 150
| 22> end
| 23>
| 24>
| 25>                          ****END OF INPUT****

CARTESIAN COORDINATES (ANGSTROEM)
---------------------------------
  C      4.084220    1.742080   -2.114720
  C      4.265240    2.500520   -0.795890
  H      4.868530    3.392670   -0.981130
  H      3.307640    2.824570   -0.387810
  C      4.982240    1.650260    0.247420
  O      4.368060    1.389270    1.313710
  F      6.128920    1.233510   -0.045620
  C      3.412750    0.376890   -1.965500
  H      5.068470    1.598500   -2.565730
  H      3.503360    2.363940   -2.804570
  H      3.324560   -0.084220   -2.927010
  H      2.439230    0.502870   -1.539720
  H      4.004460   -0.243550   -1.325310

 Total Charge           Charge          ....    0
 Multiplicity           Mult            ....    1
 Number of Electrons    NEL             ....   48
 Basis Dimension        Dim             ....  437

ORBITAL ENERGIES
----------------

  NO   OCC          E(Eh)            E(eV)
   0   2.0000     -26.376072      -717.7294
   1   2.0000     -20.561431      -559.5050
   2   2.0000     -11.428274      -310.9791
   3   2.0000     -11.258731      -306.3656
   4   2.0000     -11.245371      -306.0021
   5   2.0000     -11.219659      -305.3024
   6   2.0000      -1.730612       -47.0924
   7   2.0000      -1.371140       -37.3106
   8   2.0000      -1.098586       -29.8941
   9   2.0000      -0.989438       -26.9240
  10   2.0000      -0.904556       -24.6142
  11   2.0000      -0.840076       -22.8596
  12   2.0000      -0.775769       -21.1097
  13   2.0000      -0.768641       -20.9158
  14   2.0000      -0.697921       -18.9914
  15   2.0000      -0.645349       -17.5608
  16   2.0000      -0.629889       -17.1402
  17   2.0000      -0.588844       -16.0233
  18   2.0000      -0.570403       -15.5215
  19   2.0000      -0.523352       -14.2411
  20   2.0000      -0.517911       -14.0931
  21   2.0000      -0.498812       -13.5734
  22   2.0000      -0.484653       -13.1881
  23   2.0000      -0.455712       -12.4005
  24   0.0000       0.025769         0.7012
  25   0.0000       0.035448         0.9646
  26   0.0000       0.039130         1.0648
  27   0.0000       0.045204         1.2301
  28   0.0000       0.058305         1.5866

MULLIKEN ATOMIC CHARGES
-----------------------
   0 C :   -0.409438
   1 C :   -0.327786
   2 H :    0.295045
   3 H :    0.279469
   4 C :    0.818415
   5 O :   -0.747745
   6 F :   -0.348036
   7 C :   -0.983957
   8 H :    0.273834
   9 H :    0.285431
  10 H :    0.295628
  11 H :    0.290500
  12 H :    0.278640
Sum of atomic charges:    0.0000000

LOEWDIN ATOMIC CHARGES
----------------------
   0 C :    0.255142
   1 C :    0.256777
   2 H :   -0.157694
   3 H :   -0.160057
   4 C :   -0.936262
   5 O :    0.387415
   6 F :    0.592415
   7 C :    0.600512
   8 H :   -0.154104
   9 H :   -0.140457
  10 H :   -0.177590
  11 H :   -0.175377
  12 H :   -0.190721

  Mayer bond orders larger than 0.100000
B(  0-C ,  1-C ) :   0.8921 B(  0-C ,  4-C ) :   0.1040 B(  0-C ,  7-C ) :   0.8087
B(  0-C ,  8-H ) :   0.9400 B(  0-C ,  9-H ) :   0.9118 B(  1-C ,  2-H ) :   0.9432
B(  1-C ,  3-H ) :   0.9344 B(  1-C ,  4-C ) :   0.7922 B(  1-C ,  6-F ) :   0.1274
B(  4-C ,  5-O ) :   1.5404 B(  4-C ,  6-F ) :   0.7422 B(  7-C , 10-H ) :   0.9575
B(  7-C , 11-H ) :   0.9434 B(  7-C , 12-H ) :   0.9361

E(0)                                       ...   -329.974859184
E(0)                                       ...   -329.974859184
E(CORR)(strong-pairs)                      ...     -1.211823782
E(CORR)(weak-pairs)                        ...     -0.001154348
E(CORR)(corrected)                         ...     -1.212978129
E(TOT)                                     ...   -331.187837313
E(CCSD(T))                                 ...   -331.235622438
FINAL SINGLE POINT ENERGY      -331.235622438059

DIPOLE MOMENT
-------------
                                X             Y             Z
Electronic contribution:      6.74837       0.15473       7.35380
Nuclear contribution   :     -6.73491       0.34384      -8.67711
                        -----------------------------------------
Total Dipole Moment    :      0.01346       0.49858      -1.32331
                        -----------------------------------------
Magnitude (a.u.)       :      1.41418
Magnitude (Debye)      :      3.59455

Rotational constants in cm-1:     0.183378     0.080817     0.077085
Rotational constants in MHz :  5497.543257  2422.830825  2310.936171

                             ****ORCA TERMINATED NORMALLY****
TOTAL RUN TIME: 0 days 0 hours 13 minutes 0 seconds 465 msec
