                         Program Version 5.0.0 -  RELEASE  -
|  1> !DLPNO-CCSD(T) aug-cc-pVTZ aug-cc-pVTZ/C TightSCF TightPNO RIJCOSX def2/J
|  2> *xyz 0 1
|  3> C          3.91385       -1.65829        3.01513
|  4> N          5.03927       -0.90115        2.49282
|  5> C          6.21038       -1.41726        2.17824
|  6> C          6.53591       -2.67712        2.55608
|  7> N          7.07675       -0.70082        1.47891
|  8> H          7.95464       -1.12155        1.20755
|  9> H          6.75616        0.10664        0.96028
| 10> H          4.84217        0.01761        2.11519
| 11> H          5.99388       -3.12692        3.28278
| 12> H          7.49844       -2.97548        2.46878
| 13> C          3.13916       -2.37657        1.91061
| 14> H          3.26723       -0.93940        3.52069
| 15> H          4.24720       -2.35509        3.79006
| 16> C          2.39995       -1.38958        1.00949
| 17> H          2.44075       -3.08712        2.36298
| 18> H          3.84448       -2.97046        1.31868
| 19> H          1.87065       -1.92698        0.25058
| 20> H          3.10498       -0.72749        0.55181
| 21> H          1.70633       -0.82279        1.59477
| 22> *
| 23> %MaxCore 64000
| 24> %pal nprocs 2
| 25> end
| 26> %scf
| 27>   MaxIter 150
| 28> end
| 29>
| 30>
| 31>                          ****END OF INPUT****

CARTESIAN COORDINATES (ANGSTROEM)
---------------------------------
  C      3.913850   -1.658290    3.015130
  N      5.039270   -0.901150    2.492820
  C      6.210380   -1.417260    2.178240
  C      6.535910   -2.677120    2.556080
  N      7.076750   -0.700820    1.478910
  H      7.954640   -1.121550    1.207550
  H      6.756160    0.106640    0.960280
  H      4.842170    0.017610    2.115190
  H      5.993880   -3.126920    3.282780
  H      7.498440   -2.975480    2.468780
  C      3.139160   -2.376570    1.910610
  H      3.267230   -0.939400    3.520690
  H      4.247200   -2.355090    3.790060
  C      2.399950   -1.389580    1.009490
  H      2.440750   -3.087120    2.362980
  H      3.844480   -2.970460    1.318680
  H      1.870650   -1.926980    0.250580
  H      3.104980   -0.727490    0.551810
  H      1.706330   -0.822790    1.594770

 Total Charge           Charge          ....    0
 Multiplicity           Mult            ....    1
 Number of Electrons    NEL             ....   56
 Basis Dimension        Dim             ....  598

ORBITAL ENERGIES
----------------

  NO   OCC          E(Eh)            E(eV)
   0   2.0000     -15.564912      -423.5428
   1   2.0000     -15.563650      -423.5084
   2   2.0000     -11.290714      -307.2360
   3   2.0000     -11.257802      -306.3404
   4   2.0000     -11.214380      -305.1588
   5   2.0000     -11.206750      -304.9512
   6   2.0000     -11.127589      -302.7971
   7   2.0000      -1.294050       -35.2129
   8   2.0000      -1.189303       -32.3626
   9   2.0000      -1.050434       -28.5838
  10   2.0000      -0.968270       -26.3480
  11   2.0000      -0.933142       -25.3921
  12   2.0000      -0.826127       -22.4801
  13   2.0000      -0.760710       -20.7000
  14   2.0000      -0.734377       -19.9834
  15   2.0000      -0.701981       -19.1019
  16   2.0000      -0.643377       -17.5072
  17   2.0000      -0.615643       -16.7525
  18   2.0000      -0.592619       -16.1260
  19   2.0000      -0.564478       -15.3602
  20   2.0000      -0.559772       -15.2322
  21   2.0000      -0.538454       -14.6521
  22   2.0000      -0.524687       -14.2775
  23   2.0000      -0.495107       -13.4726
  24   2.0000      -0.483935       -13.1685
  25   2.0000      -0.476404       -12.9636
  26   2.0000      -0.393185       -10.6991
  27   2.0000      -0.264342        -7.1931
  28   0.0000       0.024670         0.6713
  29   0.0000       0.034068         0.9270
  30   0.0000       0.039101         1.0640
  31   0.0000       0.039268         1.0685
  32   0.0000       0.050470         1.3734

MULLIKEN ATOMIC CHARGES
-----------------------
   0 C :   -0.386466
   1 N :   -0.199492
   2 C :    0.798285
   3 C :   -1.317019
   4 N :   -0.619222
   5 H :    0.073206
   6 H :    0.122657
   7 H :    0.094407
   8 H :    0.588236
   9 H :    0.195964
  10 C :   -0.482565
  11 H :    0.372525
  12 H :    0.327410
  13 C :   -1.011758
  14 H :    0.346031
  15 H :    0.218303
  16 H :    0.269039
  17 H :    0.367082
  18 H :    0.243377
Sum of atomic charges:   -0.0000000

LOEWDIN ATOMIC CHARGES
----------------------
   0 C :    0.210573
   1 N :    0.563843
   2 C :   -0.453972
   3 C :    0.552202
   4 N :    0.856955
   5 H :   -0.270766
   6 H :   -0.277615
   7 H :   -0.265084
   8 H :   -0.336336
   9 H :   -0.314656
  10 C :    0.282757
  11 H :   -0.140739
  12 H :   -0.156158
  13 C :    0.597536
  14 H :   -0.142679
  15 H :   -0.149851
  16 H :   -0.181082
  17 H :   -0.190369
  18 H :   -0.184560

  Mayer bond orders larger than 0.100000
B(  0-C ,  1-N ) :   0.9657 B(  0-C ,  2-C ) :  -0.1551 B(  0-C , 10-C ) :   0.9244
B(  0-C , 11-H ) :   0.8914 B(  0-C , 12-H ) :   0.9221 B(  1-N ,  2-C ) :   0.7714
B(  1-N ,  3-C ) :  -0.1192 B(  1-N ,  4-N ) :  -0.1463 B(  1-N ,  7-H ) :   1.0646
B(  2-C ,  3-C ) :   1.0669 B(  2-C ,  4-N ) :   0.7891 B(  2-C ,  7-H ) :  -0.1153
B(  3-C ,  8-H ) :   0.5778 B(  3-C ,  9-H ) :   1.2260 B(  4-N ,  5-H ) :   1.1577
B(  4-N ,  6-H ) :   1.0773 B( 10-C , 13-C ) :   0.8083 B( 10-C , 14-H ) :   0.8760
B( 10-C , 15-H ) :   1.0152 B( 13-C , 16-H ) :   1.0084 B( 13-C , 17-H ) :   0.8783
B( 13-C , 18-H ) :   0.9929

E(0)                                       ...   -305.294525336
E(0)                                       ...   -305.294525336
E(CORR)(strong-pairs)                      ...     -1.351126477
E(CORR)(weak-pairs)                        ...     -0.001619114
E(CORR)(corrected)                         ...     -1.352745591
E(TOT)                                     ...   -306.647270928
E(CCSD(T))                                 ...   -306.702755634
FINAL SINGLE POINT ENERGY      -306.702755634180

DIPOLE MOMENT
-------------
                                X             Y             Z
Electronic contribution:      4.48582       2.03126       0.86929
Nuclear contribution   :     -4.87706      -1.05838      -1.33532
                        -----------------------------------------
Total Dipole Moment    :     -0.39124       0.97288      -0.46603
                        -----------------------------------------
Magnitude (a.u.)       :      1.14750
Magnitude (Debye)      :      2.91670

Rotational constants in cm-1:     0.163042     0.050484     0.045356
Rotational constants in MHz :  4887.864082  1513.473419  1359.735450

                             ****ORCA TERMINATED NORMALLY****
TOTAL RUN TIME: 0 days 2 hours 8 minutes 35 seconds 310 msec
