                         Program Version 5.0.0 -  RELEASE  -
|  1> !DLPNO-CCSD(T) aug-cc-pVTZ aug-cc-pVTZ/C TightSCF TightPNO RIJCOSX def2/J
|  2>
|  3> *xyzfile 0 1 D1.xyz
|  4>
|  5> %MaxCore 64000
|  6>
|  7> %pal nprocs 18
|  8> end
|  9>
| 10> %scf
| 11>   MaxIter 150
| 12> end
| 13>
| 14>
| 15>                          ****END OF INPUT****

CARTESIAN COORDINATES (ANGSTROEM)
---------------------------------
  C      3.913853   -1.658291    3.015134
  C      5.039266   -0.901154    2.492821
  C      4.084215    1.742081   -2.114724
  C      4.265245    2.500518   -0.795890
  H      4.868534    3.392674   -0.981134
  H      3.307640    2.824571   -0.387809
  C      4.982240    1.650257    0.247422
  C      6.210384   -1.417261    2.178244
  N      6.535913   -2.677122    2.556078
  N      7.076754   -0.700820    1.478906
  H      7.954643   -1.121554    1.207554
  H      6.756161    0.106637    0.960278
  H      4.842168    0.017609    2.115191
  H      5.993876   -3.126918    3.282784
  H      7.498441   -2.975482    2.468776
  F      4.368065    1.389270    1.313706
  O      6.128919    1.233512   -0.045620
  C      3.139159   -2.376572    1.910609
  H      3.267235   -0.939401    3.520693
  H      4.247195   -2.355095    3.790065
  C      1.997274    0.430918   -1.399218
  C      3.412746    0.376886   -1.965497
  H      4.047407   -0.246590   -1.326706
  H      3.390774   -0.118719   -2.942839
  H      5.068475    1.598504   -2.565728
  H      3.503356    2.363939   -2.804565
  C      2.399946   -1.389579    1.009490
  H      2.440750   -3.087118    2.362976
  H      3.844475   -2.970462    1.318677
  C      2.070177   -1.936705   -0.372401
  H      1.481611   -1.061542    1.509912
  H      3.008628   -0.490001    0.897451
  C      1.322238   -0.935775   -1.256413
  H      1.472747   -2.850902   -0.283997
  H      3.003539   -2.234041   -0.862535
  H      1.376444    1.058920   -2.047420
  H      2.015341    0.929780   -0.426535
  H      0.316648   -0.787213   -0.848278
  H      1.185611   -1.379252   -2.248613

 Total Charge           Charge          ....    0
 Multiplicity           Mult            ....    1
 Number of Electrons    NEL             ....  126
 Basis Dimension        Dim             .... 1265

ORBITAL ENERGIES
----------------

  NO   OCC          E(Eh)            E(eV)
   0   2.0000     -26.387481      -718.0399
   1   2.0000     -20.580981      -560.0370
   2   2.0000     -15.544401      -422.9846
   3   2.0000     -15.515937      -422.2101
   4   2.0000     -11.451049      -311.5989
   5   2.0000     -11.267078      -306.5928
   6   2.0000     -11.259658      -306.3909
   7   2.0000     -11.244181      -305.9697
   8   2.0000     -11.226880      -305.4989
   9   2.0000     -11.221508      -305.3528
  10   2.0000     -11.214888      -305.1726
  11   2.0000     -11.206530      -304.9452
  12   2.0000     -11.199448      -304.7525
  13   2.0000     -11.190569      -304.5109
  14   2.0000     -11.184658      -304.3500
  15   2.0000     -11.109850      -302.3144
  16   2.0000      -1.747338       -47.5475
  17   2.0000      -1.403614       -38.1943
  18   2.0000      -1.251584       -34.0573
  19   2.0000      -1.138535       -30.9811
  20   2.0000      -1.115191       -30.3459
  21   2.0000      -1.082409       -29.4539
  22   2.0000      -1.048862       -28.5410
  23   2.0000      -1.011733       -27.5307
  24   2.0000      -0.965683       -26.2776
  25   2.0000      -0.935859       -25.4660
  26   2.0000      -0.902231       -24.5510
  27   2.0000      -0.868621       -23.6364
  28   2.0000      -0.827941       -22.5294
  29   2.0000      -0.805968       -21.9315
  30   2.0000      -0.787409       -21.4265
  31   2.0000      -0.785669       -21.3792
  32   2.0000      -0.764203       -20.7950
  33   2.0000      -0.757353       -20.6086
  34   2.0000      -0.723534       -19.6884
  35   2.0000      -0.695445       -18.9240
  36   2.0000      -0.667393       -18.1607
  37   2.0000      -0.655255       -17.8304
  38   2.0000      -0.647339       -17.6150
  39   2.0000      -0.631638       -17.1877
  40   2.0000      -0.615519       -16.7491
  41   2.0000      -0.609440       -16.5837
  42   2.0000      -0.590458       -16.0672
  43   2.0000      -0.578286       -15.7360
  44   2.0000      -0.576632       -15.6910
  45   2.0000      -0.565171       -15.3791
  46   2.0000      -0.546259       -14.8645
  47   2.0000      -0.541563       -14.7367
  48   2.0000      -0.521892       -14.2014
  49   2.0000      -0.517580       -14.0841
  50   2.0000      -0.515747       -14.0342
  51   2.0000      -0.507088       -13.7986
  52   2.0000      -0.493180       -13.4201
  53   2.0000      -0.481880       -13.1126
  54   2.0000      -0.478188       -13.0122
  55   2.0000      -0.475882       -12.9494
  56   2.0000      -0.451886       -12.2964
  57   2.0000      -0.449252       -12.2248
  58   2.0000      -0.441243       -12.0068
  59   2.0000      -0.434580       -11.8255
  60   2.0000      -0.427821       -11.6416
  61   2.0000      -0.389322       -10.5940
  62   2.0000      -0.239988        -6.5304
  63   0.0000       0.023151         0.6300
  64   0.0000       0.031196         0.8489
  65   0.0000       0.032162         0.8752
  66   0.0000       0.033075         0.9000
  67   0.0000       0.041664         1.1337

MULLIKEN ATOMIC CHARGES
-----------------------
   0 C :   -0.531324
   1 C :   -0.837875
   2 C :   -0.634549
   3 C :   -0.207741
   4 H :    0.409518
   5 H :    0.178548
   6 C :    1.043060
   7 C :    0.987498
   8 N :   -0.630062
   9 N :   -0.651876
  10 H :    0.057167
  11 H :    0.357589
  12 H :    0.754341
  13 H :    0.102016
  14 H :    0.086170
  15 F :   -0.515698
  16 O :   -0.985528
  17 C :   -0.554225
  18 H :    0.166404
  19 H :    0.217455
  20 C :   -0.311685
  21 C :   -0.400875
  22 H :    0.258467
  23 H :    0.348025
  24 H :    0.133686
  25 H :    0.301254
  26 C :   -0.526232
  27 H :    0.234130
  28 H :    0.114179
  29 C :   -0.397123
  30 H :    0.230760
  31 H :    0.597898
  32 C :   -0.761284
  33 H :    0.539304
  34 H :    0.016423
  35 H :    0.469070
  36 H :    0.075791
  37 H :    0.109942
  38 H :    0.157382
Sum of atomic charges:   -0.0000000

LOEWDIN ATOMIC CHARGES
----------------------
   0 C :    0.235787
   1 C :    0.189809
   2 C :    0.292570
   3 C :    0.296103
   4 H :   -0.143379
   5 H :   -0.167646
   6 C :   -0.767099
   7 C :   -0.400798
   8 N :    0.875574
   9 N :    0.865628
  10 H :   -0.274045
  11 H :   -0.606876
  12 H :   -0.510805
  13 H :   -0.306542
  14 H :   -0.285920
  15 F :    0.744471
  16 O :    0.584533
  17 C :    0.300051
  18 H :   -0.144198
  19 H :   -0.163077
  20 C :    0.281838
  21 C :    0.284478
  22 H :   -0.162732
  23 H :   -0.122785
  24 H :   -0.143969
  25 H :   -0.132940
  26 C :    0.278204
  27 H :   -0.141060
  28 H :   -0.145398
  29 C :    0.289618
  30 H :   -0.122384
  31 H :   -0.215340
  32 C :    0.301520
  33 H :   -0.131557
  34 H :   -0.148136
  35 H :   -0.132332
  36 H :   -0.169750
  37 H :   -0.140264
  38 H :   -0.141152

  Mayer bond orders larger than 0.100000
B(  0-C ,  1-C ) :   0.8127 B(  0-C , 17-C ) :   0.9800 B(  0-C , 18-H ) :   1.1823
B(  0-C , 19-H ) :   0.9363 B(  1-C ,  7-C ) :   1.2315 B(  1-C ,  8-N ) :  -0.1778
B(  1-C , 12-H ) :   0.5026 B(  1-C , 15-F ) :  -0.1340 B(  1-C , 17-C ) :   0.1586
B(  1-C , 18-H ) :  -0.1837 B(  2-C ,  3-C ) :   0.9680 B(  2-C ,  6-C ) :   0.1310
B(  2-C , 21-C ) :   0.8765 B(  2-C , 24-H ) :   1.1098 B(  2-C , 25-H ) :   0.8883
B(  3-C ,  4-H ) :   0.8816 B(  3-C ,  5-H ) :   1.0449 B(  3-C ,  6-C ) :   0.5753
B(  4-H ,  6-C ) :  -0.1300 B(  6-C , 15-F ) :   0.6675 B(  6-C , 16-O ) :   1.1846
B(  7-C ,  8-N ) :   0.6033 B(  7-C ,  9-N ) :   0.5755 B(  7-C , 14-H ) :  -0.1103
B(  8-N ,  9-N ) :  -0.1208 B(  8-N , 13-H ) :   1.1335 B(  8-N , 14-H ) :   1.1028
B(  9-N , 10-H ) :   1.1627 B(  9-N , 11-H ) :   0.8518 B( 12-H , 15-F ) :  -0.2801
B( 17-C , 26-C ) :   0.8161 B( 17-C , 27-H ) :   0.9963 B( 17-C , 28-H ) :   1.0255
B( 20-C , 21-C ) :   0.8129 B( 20-C , 32-C ) :   0.9168 B( 20-C , 35-H ) :   0.7671
B( 20-C , 36-H ) :   1.1168 B( 21-C , 22-H ) :   1.0113 B( 21-C , 23-H ) :   0.8978
B( 26-C , 29-C ) :   0.7545 B( 26-C , 30-H ) :   1.0368 B( 26-C , 31-H ) :   0.7748
B( 29-C , 32-C ) :   0.9180 B( 29-C , 33-H ) :   0.7022 B( 29-C , 34-H ) :   1.2015
B( 32-C , 37-H ) :   1.1387 B( 32-C , 38-H ) :   1.0592

E(0)                                       ...   -751.220150446
E(0)                                       ...   -751.220150446
E(CORR)(strong-pairs)                      ...     -3.111180629
E(CORR)(weak-pairs)                        ...     -0.006237822
E(CORR)(corrected)                         ...     -3.117418451
E(TOT)                                     ...   -754.337568897
E(CCSD(T))                                 ...   -754.467854041
FINAL SINGLE POINT ENERGY      -754.467854041308

DIPOLE MOMENT
-------------
                                X             Y             Z
Electronic contribution:     11.19429       9.02168       5.84063
Nuclear contribution   :    -11.48003      -8.36271      -6.78621
                        -----------------------------------------
Total Dipole Moment    :     -0.28574       0.65896      -0.94558
                        -----------------------------------------
Magnitude (a.u.)       :      1.18744
Magnitude (Debye)      :      3.01823

Rotational constants in cm-1:     0.020055     0.013548     0.009477
Rotational constants in MHz :   601.234832   406.162779   284.104317

                             ****ORCA TERMINATED NORMALLY****
TOTAL RUN TIME: 0 days 6 hours 5 minutes 22 seconds 360 msec
