                         Program Version 5.0.0 -  RELEASE  -
|  1> !DLPNO-CCSD(T) aug-cc-pVTZ aug-cc-pVTZ/C TightSCF TightPNO RIJCOSX def2/J
|  2>
|  3> *xyzfile 0 1 D2.xyz
|  4>
|  5> %MaxCore 64000
|  6>
|  7> %pal nprocs 18
|  8> end
|  9>
| 10> %scf
| 11>   MaxIter 150
| 12> end
| 13>
| 14>
| 15>                          ****END OF INPUT****

CARTESIAN COORDINATES (ANGSTROEM)
---------------------------------
  C      3.913853   -1.658291    3.015134
  N      5.039266   -0.901154    2.492821
  C      4.084215    1.742081   -2.114724
  C      4.265245    2.500518   -0.795890
  H      4.868534    3.392674   -0.981134
  H      3.307640    2.824571   -0.387809
  C      4.982240    1.650257    0.247422
  C      6.210384   -1.417261    2.178244
  C      6.535913   -2.677122    2.556078
  N      7.076754   -0.700820    1.478906
  H      7.954643   -1.121554    1.207554
  H      6.756161    0.106637    0.960278
  H      4.842168    0.017609    2.115191
  H      5.993876   -3.126918    3.282784
  H      7.498441   -2.975482    2.468776
  F      4.368065    1.389270    1.313706
  O      6.128919    1.233512   -0.045620
  C      3.139159   -2.376572    1.910609
  H      3.267235   -0.939401    3.520693
  H      4.247195   -2.355095    3.790065
  C      1.997274    0.430918   -1.399218
  C      3.412746    0.376886   -1.965497
  H      4.047407   -0.246590   -1.326706
  H      3.390774   -0.118719   -2.942839
  H      5.068475    1.598504   -2.565728
  H      3.503356    2.363939   -2.804565
  C      2.399946   -1.389579    1.009490
  H      2.440750   -3.087118    2.362976
  H      3.844475   -2.970462    1.318677
  C      2.070177   -1.936705   -0.372401
  H      1.481611   -1.061542    1.509912
  H      3.008628   -0.490001    0.897451
  C      1.322238   -0.935775   -1.256413
  H      1.472747   -2.850902   -0.283997
  H      3.003539   -2.234041   -0.862535
  H      1.376444    1.058920   -2.047420
  H      2.015341    0.929780   -0.426535
  H      0.316648   -0.787213   -0.848278
  H      1.185611   -1.379252   -2.248613

 Total Charge           Charge          ....    0
 Multiplicity           Mult            ....    1
 Number of Electrons    NEL             ....  126
 Basis Dimension        Dim             .... 1265

ORBITAL ENERGIES
----------------

  NO   OCC          E(Eh)            E(eV)
   0   2.0000     -26.417516      -718.8572
   1   2.0000     -20.597653      -560.4906
   2   2.0000     -15.538339      -422.8197
   3   2.0000     -15.518012      -422.2666
   4   2.0000     -11.468041      -312.0613
   5   2.0000     -11.279674      -306.9355
   6   2.0000     -11.265749      -306.5566
   7   2.0000     -11.254132      -306.2405
   8   2.0000     -11.246785      -306.0406
   9   2.0000     -11.236808      -305.7691
  10   2.0000     -11.231617      -305.6278
  11   2.0000     -11.224553      -305.4356
  12   2.0000     -11.217857      -305.2534
  13   2.0000     -11.216064      -305.2046
  14   2.0000     -11.206850      -304.9539
  15   2.0000     -11.104513      -302.1692
  16   2.0000      -1.776142       -48.3313
  17   2.0000      -1.420007       -38.6404
  18   2.0000      -1.269253       -34.5381
  19   2.0000      -1.162016       -31.6201
  20   2.0000      -1.126600       -30.6563
  21   2.0000      -1.090703       -29.6795
  22   2.0000      -1.048407       -28.5286
  23   2.0000      -1.005503       -27.3611
  24   2.0000      -0.965981       -26.2857
  25   2.0000      -0.946488       -25.7553
  26   2.0000      -0.925889       -25.1947
  27   2.0000      -0.889661       -24.2089
  28   2.0000      -0.847697       -23.0670
  29   2.0000      -0.822545       -22.3826
  30   2.0000      -0.813227       -22.1290
  31   2.0000      -0.807054       -21.9610
  32   2.0000      -0.775828       -21.1114
  33   2.0000      -0.757240       -20.6056
  34   2.0000      -0.733560       -19.9612
  35   2.0000      -0.697788       -18.9878
  36   2.0000      -0.675755       -18.3882
  37   2.0000      -0.663842       -18.0641
  38   2.0000      -0.659434       -17.9441
  39   2.0000      -0.645944       -17.5770
  40   2.0000      -0.625848       -17.0302
  41   2.0000      -0.610556       -16.6141
  42   2.0000      -0.601895       -16.3784
  43   2.0000      -0.588802       -16.0221
  44   2.0000      -0.576860       -15.6972
  45   2.0000      -0.566976       -15.4282
  46   2.0000      -0.559822       -15.2335
  47   2.0000      -0.545900       -14.8547
  48   2.0000      -0.540372       -14.7043
  49   2.0000      -0.525962       -14.3121
  50   2.0000      -0.520360       -14.1597
  51   2.0000      -0.512570       -13.9477
  52   2.0000      -0.507022       -13.7968
  53   2.0000      -0.502929       -13.6854
  54   2.0000      -0.489235       -13.3128
  55   2.0000      -0.485578       -13.2132
  56   2.0000      -0.470305       -12.7977
  57   2.0000      -0.468503       -12.7486
  58   2.0000      -0.455278       -12.3888
  59   2.0000      -0.454257       -12.3610
  60   2.0000      -0.446082       -12.1385
  61   2.0000      -0.366064        -9.9611
  62   2.0000      -0.241547        -6.5728
  63   0.0000       0.017578         0.4783
  64   0.0000       0.027374         0.7449
  65   0.0000       0.027816         0.7569
  66   0.0000       0.034359         0.9350
  67   0.0000       0.040678         1.1069

MULLIKEN ATOMIC CHARGES
-----------------------
   0 C :   -0.642710
   1 N :   -0.195072
   2 C :   -0.623095
   3 C :   -0.233500
   4 H :    0.400871
   5 H :    0.180286
   6 C :    1.072798
   7 C :    0.432092
   8 C :   -1.433653
   9 N :   -0.676526
  10 H :    0.034105
  11 H :    0.415075
  12 H :    0.753780
  13 H :    0.521925
  14 H :    0.181935
  15 F :   -0.502474
  16 O :   -0.943372
  17 C :   -0.546708
  18 H :    0.232010
  19 H :    0.261325
  20 C :   -0.304822
  21 C :   -0.397975
  22 H :    0.253299
  23 H :    0.330066
  24 H :    0.138092
  25 H :    0.297233
  26 C :   -0.513490
  27 H :    0.269194
  28 H :    0.174266
  29 C :   -0.383824
  30 H :    0.252300
  31 H :    0.556696
  32 C :   -0.723339
  33 H :    0.530667
  34 H :    0.009955
  35 H :    0.488764
  36 H :    0.049025
  37 H :    0.110076
  38 H :    0.174724
Sum of atomic charges:   -0.0000000

LOEWDIN ATOMIC CHARGES
----------------------
   0 C :    0.225987
   1 N :    0.581631
   2 C :    0.294727
   3 C :    0.297107
   4 H :   -0.141886
   5 H :   -0.167528
   6 C :   -0.767096
   7 C :   -0.437978
   8 C :    0.545797
   9 N :    0.872606
  10 H :   -0.260584
  11 H :   -0.615253
  12 H :   -0.519641
  13 H :   -0.342956
  14 H :   -0.319323
  15 F :    0.747642
  16 O :    0.587356
  17 C :    0.312368
  18 H :   -0.136100
  19 H :   -0.155428
  20 C :    0.281668
  21 C :    0.285041
  22 H :   -0.163425
  23 H :   -0.121175
  24 H :   -0.142678
  25 H :   -0.131452
  26 C :    0.274342
  27 H :   -0.135150
  28 H :   -0.146782
  29 C :    0.292511
  30 H :   -0.123635
  31 H :   -0.216893
  32 C :    0.303386
  33 H :   -0.129429
  34 H :   -0.146482
  35 H :   -0.131228
  36 H :   -0.170996
  37 H :   -0.139635
  38 H :   -0.139437

  Mayer bond orders larger than 0.100000
B(  0-C ,  1-N ) :   1.1737 B(  0-C ,  7-C ) :  -0.1986 B(  0-C ,  8-C ) :  -0.1184
B(  0-C , 12-H ) :  -0.1850 B(  0-C , 17-C ) :   1.0181 B(  0-C , 18-H ) :   1.0561
B(  0-C , 19-H ) :   0.9214 B(  0-C , 26-C ) :   0.1064 B(  1-N ,  7-C ) :   0.9452
B(  1-N , 12-H ) :   0.1248 B(  1-N , 15-F ) :  -0.2021 B(  2-C ,  3-C ) :   0.9691
B(  2-C ,  6-C ) :   0.1319 B(  2-C , 21-C ) :   0.8823 B(  2-C , 24-H ) :   1.1015
B(  2-C , 25-H ) :   0.8837 B(  3-C ,  4-H ) :   0.8862 B(  3-C ,  5-H ) :   1.0512
B(  3-C ,  6-C ) :   0.5972 B(  4-H ,  6-C ) :  -0.1240 B(  6-C , 15-F ) :   0.5309
B(  6-C , 16-O ) :   1.1903 B(  7-C ,  8-C ) :   1.0037 B(  7-C ,  9-N ) :   0.6795
B(  7-C , 10-H ) :  -0.1160 B(  7-C , 11-H ) :  -0.1690 B(  7-C , 12-H ) :  -0.3111
B(  7-C , 13-H ) :  -0.1092 B(  8-C ,  9-N ) :  -0.1320 B(  8-C , 13-H ) :   0.7125
B(  8-C , 14-H ) :   1.2313 B(  9-N , 10-H ) :   1.2075 B(  9-N , 11-H ) :   0.7816
B( 12-H , 15-F ) :  -0.1690 B( 17-C , 26-C ) :   0.8450 B( 17-C , 27-H ) :   0.9409
B( 17-C , 28-H ) :   1.0635 B( 20-C , 21-C ) :   0.8235 B( 20-C , 32-C ) :   0.9158
B( 20-C , 35-H ) :   0.7494 B( 20-C , 36-H ) :   1.1384 B( 21-C , 22-H ) :   0.9984
B( 21-C , 23-H ) :   0.9166 B( 26-C , 29-C ) :   0.7535 B( 26-C , 30-H ) :   1.0422
B( 26-C , 31-H ) :   0.7622 B( 29-C , 32-C ) :   0.9289 B( 29-C , 33-H ) :   0.6990
B( 29-C , 34-H ) :   1.2022 B( 32-C , 37-H ) :   1.1242 B( 32-C , 38-H ) :   1.0436

E(0)                                       ...   -751.219554444
E(0)                                       ...   -751.219554444
E(CORR)(strong-pairs)                      ...     -3.107666942
E(CORR)(weak-pairs)                        ...     -0.006225262
E(CORR)(corrected)                         ...     -3.113892204
E(TOT)                                     ...   -754.333446647
E(CCSD(T))                                 ...   -754.463673538
FINAL SINGLE POINT ENERGY      -754.463673537646

DIPOLE MOMENT
-------------
                                X             Y             Z
Electronic contribution:      9.58541      10.70617       5.46334
Nuclear contribution   :    -11.22009      -8.67117      -6.77523
                        -----------------------------------------
Total Dipole Moment    :     -1.63468       2.03500      -1.31189
                        -----------------------------------------
Magnitude (a.u.)       :      2.92138
Magnitude (Debye)      :      7.42556

Rotational constants in cm-1:     0.020086     0.013778     0.009581
Rotational constants in MHz :   602.172053   413.051122   287.243919

                             ****ORCA TERMINATED NORMALLY****
TOTAL RUN TIME: 0 days 6 hours 6 minutes 3 seconds 637 msec
