                         Program Version 5.0.0 -  RELEASE  -
|  1> !LC-BLYP RIJCOSX def2-TZVP def2/J TightSCF
|  2> *xyz -1 1
|  3> C         -0.87096        0.24804       -2.66280
|  4> C         -0.47749        0.60819       -4.10105
|  5> H          0.20677        1.45830       -4.11875
|  6> H         -1.36844        0.92942       -4.64785
|  7> C          0.18467       -0.50664       -4.91676
|  8> O         -0.15869       -1.70109       -4.65798
|  9> O          1.05594       -0.17441       -5.74037
| 10> H         -1.54056       -0.58646       -2.67455
| 11> H         -1.35339        1.08600       -2.20455
| 12> H          0.00660       -0.00662       -2.10609
| 13> *
| 14>
| 15> %MaxCore 64000
| 16>
| 17> %pal nprocs 4
| 18> end
| 19>
| 20> %scf
| 21>   MaxIter 150
| 22> end
| 23>
| 24>
| 25>                          ****END OF INPUT****

CARTESIAN COORDINATES (ANGSTROEM)
---------------------------------
  C     -0.870960    0.248040   -2.662800
  C     -0.477490    0.608190   -4.101050
  H      0.206770    1.458300   -4.118750
  H     -1.368440    0.929420   -4.647850
  C      0.184670   -0.506640   -4.916760
  O     -0.158690   -1.701090   -4.657980
  O      1.055940   -0.174410   -5.740370
  H     -1.540560   -0.586460   -2.674550
  H     -1.353390    1.086000   -2.204550
  H      0.006600   -0.006620   -2.106090

 Total Charge           Charge          ....   -1
 Multiplicity           Mult            ....    1
 Number of Electrons    NEL             ....   40
 Basis Dimension        Dim             ....  185

ORBITAL ENERGIES
----------------

  NO   OCC          E(Eh)            E(eV)
   0   2.0000     -18.663329      -507.8550
   1   2.0000     -18.659881      -507.7612
   2   2.0000      -9.945816      -270.6394
   3   2.0000      -9.900128      -269.3962
   4   2.0000      -9.891399      -269.1586
   5   2.0000      -0.904875       -24.6229
   6   2.0000      -0.809381       -22.0244
   7   2.0000      -0.710325       -19.3289
   8   2.0000      -0.580270       -15.7899
   9   2.0000      -0.419313       -11.4101
  10   2.0000      -0.397316       -10.8115
  11   2.0000      -0.358135        -9.7453
  12   2.0000      -0.328122        -8.9286
  13   2.0000      -0.313889        -8.5414
  14   2.0000      -0.302429        -8.2295
  15   2.0000      -0.272555        -7.4166
  16   2.0000      -0.256330        -6.9751
  17   2.0000      -0.138817        -3.7774
  18   2.0000      -0.133378        -3.6294
  19   2.0000      -0.118709        -3.2302
  20   0.0000       0.245941         6.6924
  21   0.0000       0.288714         7.8563
  22   0.0000       0.307550         8.3688
  23   0.0000       0.312744         8.5102
  24   0.0000       0.333313         9.0699

MULLIKEN ATOMIC CHARGES
-----------------------
   0 C :   -0.355262
   1 C :   -0.208210
   2 H :    0.068258
   3 H :    0.060748
   4 C :    0.073618
   5 O :   -0.478650
   6 O :   -0.439564
   7 H :    0.112050
   8 H :    0.068011
   9 H :    0.099001
Sum of atomic charges:   -1.0000000

LOEWDIN ATOMIC CHARGES
----------------------
   0 C :   -0.342188
   1 C :   -0.304000
   2 H :    0.125603
   3 H :    0.127210
   4 C :   -0.723499
   5 O :   -0.121857
   6 O :   -0.084532
   7 H :    0.114989
   8 H :    0.096610
   9 H :    0.111665

  Mayer bond orders larger than 0.100000
B(  0-C ,  1-C ) :   0.9121 B(  0-C ,  7-H ) :   0.9735 B(  0-C ,  8-H ) :   0.9746
B(  0-C ,  9-H ) :   0.9815 B(  1-C ,  2-H ) :   0.9709 B(  1-C ,  3-H ) :   0.9667
B(  1-C ,  4-C ) :   0.9180 B(  4-C ,  5-O ) :   1.9171 B(  4-C ,  6-O ) :   1.9920

FINAL SINGLE POINT ENERGY      -267.347454615795

DIPOLE MOMENT
-------------
                                X             Y             Z
Electronic contribution:      2.64598      -2.92647      -4.59395
Nuclear contribution   :     -3.54611       4.15440       5.90446
                        -----------------------------------------
Total Dipole Moment    :     -0.90013       1.22793       1.31052
                        -----------------------------------------
Magnitude (a.u.)       :      2.00885
Magnitude (Debye)      :      5.10610

Rotational constants in cm-1:     0.332789     0.132085     0.101080
Rotational constants in MHz :  9976.755824  3959.803182  3030.288811

                             ****ORCA TERMINATED NORMALLY****
TOTAL RUN TIME: 0 days 0 hours 0 minutes 24 seconds 793 msec
