                         Program Version 5.0.0 -  RELEASE  -
|  1> !LC-BLYP RIJCOSX def2-TZVP def2/J TightSCF
|  2> *xyz 1 1
|  3> C          2.48645       -2.67712       -2.56345
|  4> C          3.03764       -2.36672       -3.92351
|  5> N          2.28036       -2.45441       -4.96769
|  6> N          4.32174       -2.01793       -4.01664
|  7> H          4.87994       -1.91167       -3.17382
|  8> H          4.71015       -1.67088       -4.88356
|  9> H          1.27042       -2.41265       -4.86614
| 10> H          2.58183       -2.05528       -5.84688
| 11> C          2.49799       -1.46946       -1.61030
| 12> H          1.47259       -3.05153       -2.69437
| 13> H          3.08320       -3.49064       -2.14147
| 14> H          1.91240       -0.67831       -2.02991
| 15> H          3.50450       -1.13364       -1.47227
| 16> H          2.08509       -1.75655       -0.66585
| 17> *
| 18>
| 19> %MaxCore 64000
| 20>
| 21> %pal nprocs 4
| 22> end
| 23>
| 24> %scf
| 25>   MaxIter 150
| 26> end
| 27>
| 28>
| 29>                          ****END OF INPUT****

CARTESIAN COORDINATES (ANGSTROEM)
---------------------------------
  C      2.486450   -2.677120   -2.563450
  C      3.037640   -2.366720   -3.923510
  N      2.280360   -2.454410   -4.967690
  N      4.321740   -2.017930   -4.016640
  H      4.879940   -1.911670   -3.173820
  H      4.710150   -1.670880   -4.883560
  H      1.270420   -2.412650   -4.866140
  H      2.581830   -2.055280   -5.846880
  C      2.497990   -1.469460   -1.610300
  H      1.472590   -3.051530   -2.694370
  H      3.083200   -3.490640   -2.141470
  H      1.912400   -0.678310   -2.029910
  H      3.504500   -1.133640   -1.472270
  H      2.085090   -1.756550   -0.665850

 Total Charge           Charge          ....    1
 Multiplicity           Mult            ....    1
 Number of Electrons    NEL             ....   40
 Basis Dimension        Dim             ....  209

ORBITAL ENERGIES
----------------

  NO   OCC          E(Eh)            E(eV)
   0   2.0000     -14.418942      -392.3594
   1   2.0000     -14.413334      -392.2068
   2   2.0000     -10.396094      -282.8921
   3   2.0000     -10.267449      -279.3915
   4   2.0000     -10.224612      -278.2258
   5   2.0000      -1.309884       -35.6437
   6   2.0000      -1.212410       -32.9914
   7   2.0000      -1.079365       -29.3710
   8   2.0000      -0.972996       -26.4766
   9   2.0000      -0.923321       -25.1248
  10   2.0000      -0.879950       -23.9447
  11   2.0000      -0.855755       -23.2863
  12   2.0000      -0.802821       -21.8459
  13   2.0000      -0.761998       -20.7350
  14   2.0000      -0.727218       -19.7886
  15   2.0000      -0.713962       -19.4279
  16   2.0000      -0.648904       -17.6576
  17   2.0000      -0.637960       -17.3598
  18   2.0000      -0.626915       -17.0592
  19   2.0000      -0.595444       -16.2029
  20   0.0000      -0.131500        -3.5783
  21   0.0000      -0.095630        -2.6022
  22   0.0000      -0.051365        -1.3977
  23   0.0000      -0.049717        -1.3529
  24   0.0000      -0.012629        -0.3437

MULLIKEN ATOMIC CHARGES
-----------------------
   0 C :   -0.347844
   1 C :    0.302318
   2 N :   -0.282631
   3 N :   -0.319790
   4 H :    0.299763
   5 H :    0.281698
   6 H :    0.300854
   7 H :    0.276869
   8 C :   -0.378741
   9 H :    0.168104
  10 H :    0.209865
  11 H :    0.160747
  12 H :    0.136826
  13 H :    0.191963
Sum of atomic charges:    1.0000000

LOEWDIN ATOMIC CHARGES
----------------------
   0 C :   -0.228744
   1 C :   -0.295625
   2 N :    0.126127
   3 N :    0.103559
   4 H :    0.209549
   5 H :    0.198520
   6 H :    0.215401
   7 H :    0.203160
   8 C :   -0.274978
   9 H :    0.162769
  10 H :    0.176508
  11 H :    0.133809
  12 H :    0.125678
  13 H :    0.144266

  Mayer bond orders larger than 0.100000
B(  0-C ,  1-C ) :   0.9272 B(  0-C ,  8-C ) :   0.9180 B(  0-C ,  9-H ) :   0.9821
B(  0-C , 10-H ) :   0.9376 B(  1-C ,  2-N ) :   1.4777 B(  1-C ,  3-N ) :   1.4187
B(  2-N ,  6-H ) :   0.8856 B(  2-N ,  7-H ) :   0.8975 B(  3-N ,  4-H ) :   0.8924
B(  3-N ,  5-H ) :   0.8968 B(  8-C , 11-H ) :   0.9582 B(  8-C , 12-H ) :   0.9675
B(  8-C , 13-H ) :   0.9674

FINAL SINGLE POINT ENERGY      -228.504278974389

DIPOLE MOMENT
-------------
                                X             Y             Z
Electronic contribution:      1.05523      -1.06659      -3.93267
Nuclear contribution   :     -0.84604       1.34287       2.92710
                        -----------------------------------------
Total Dipole Moment    :      0.20918       0.27628      -1.00558
                        -----------------------------------------
Magnitude (a.u.)       :      1.06361
Magnitude (Debye)      :      2.70349

Rotational constants in cm-1:     0.265816     0.126189     0.097583
Rotational constants in MHz :  7968.948902  3783.040103  2925.457702

                             ****ORCA TERMINATED NORMALLY****
TOTAL RUN TIME: 0 days 0 hours 0 minutes 29 seconds 525 msec
