                         Program Version 5.0.0 -  RELEASE  -
|  1> !LC-BLYP RIJCOSX def2-TZVP def2/J TightSCF xyzfile
|  2>
|  3> *xyzfile 0 1 B.xyz
|  4>
|  5> %MaxCore 64000
|  6>
|  7> %pal nprocs 18
|  8> end
|  9>
| 10> %scf
| 11>   MaxIter 150
| 12> end
| 13>
| 14>
| 15>                          ****END OF INPUT****

CARTESIAN COORDINATES (ANGSTROEM)
---------------------------------
  C      2.486452   -2.677121   -2.563447
  C     -0.870963    0.248043   -2.662804
  C     -0.477492    0.608191   -4.101052
  H      0.206773    1.458299   -4.118748
  H     -1.368442    0.929419   -4.647855
  C      0.184673   -0.506640   -4.916760
  C      3.037640   -2.366715   -3.923509
  N      2.280360   -2.454408   -4.967692
  N      4.321736   -2.017932   -4.016641
  H      4.879940   -1.911668   -3.173823
  H      4.710148   -1.670882   -4.883561
  H      1.270423   -2.412650   -4.866143
  H      2.581829   -2.055282   -5.846878
  O     -0.158685   -1.701088   -4.657981
  O      1.055938   -0.174410   -5.740373
  C      2.497991   -1.469464   -1.610303
  C      1.582841   -0.321986   -2.042619
  H      2.193083   -1.833912   -0.625420
  H      3.523356   -1.103982   -1.490392
  C      0.100160   -0.673551   -1.915815
  H      1.822311   -0.040361   -3.072834
  H      1.813180    0.557019   -1.433266
  H     -0.063284   -1.679120   -2.301112
  H     -0.168820   -0.691680   -0.853831
  H     -1.001048    1.181040   -2.104071
  H     -1.844645   -0.246592   -2.663281
  H      1.472592   -3.051527   -2.694366
  H      3.083201   -3.490638   -2.141472

 Total Charge           Charge          ....    0
 Multiplicity           Mult            ....    1
 Number of Electrons    NEL             ....   94
 Basis Dimension        Dim             ....  468

ORBITAL ENERGIES
----------------

  NO   OCC          E(Eh)            E(eV)
   0   2.0000     -18.847110      -512.8559
   1   2.0000     -18.839788      -512.6567
   2   2.0000     -14.252148      -387.8207
   3   2.0000     -14.215159      -386.8141
   4   2.0000     -10.220823      -278.1227
   5   2.0000     -10.119300      -275.3601
   6   2.0000     -10.113380      -275.1991
   7   2.0000     -10.095206      -274.7045
   8   2.0000     -10.064416      -273.8667
   9   2.0000     -10.045978      -273.3649
  10   2.0000     -10.041502      -273.2431
  11   2.0000     -10.029614      -272.9197
  12   2.0000      -1.134501       -30.8713
  13   2.0000      -1.090989       -29.6873
  14   2.0000      -1.034433       -28.1483
  15   2.0000      -0.994175       -27.0529
  16   2.0000      -0.942173       -25.6378
  17   2.0000      -0.887750       -24.1569
  18   2.0000      -0.842928       -22.9372
  19   2.0000      -0.786504       -21.4019
  20   2.0000      -0.767776       -20.8922
  21   2.0000      -0.724912       -19.7259
  22   2.0000      -0.713202       -19.4072
  23   2.0000      -0.685218       -18.6457
  24   2.0000      -0.663329       -18.0501
  25   2.0000      -0.629018       -17.1165
  26   2.0000      -0.609042       -16.5729
  27   2.0000      -0.585082       -15.9209
  28   2.0000      -0.563798       -15.3417
  29   2.0000      -0.558359       -15.1937
  30   2.0000      -0.549533       -14.9536
  31   2.0000      -0.527387       -14.3509
  32   2.0000      -0.514943       -14.0123
  33   2.0000      -0.510845       -13.9008
  34   2.0000      -0.493345       -13.4246
  35   2.0000      -0.480957       -13.0875
  36   2.0000      -0.469569       -12.7776
  37   2.0000      -0.456940       -12.4340
  38   2.0000      -0.450284       -12.2529
  39   2.0000      -0.434525       -11.8240
  40   2.0000      -0.421572       -11.4716
  41   2.0000      -0.410866       -11.1802
  42   2.0000      -0.402572       -10.9545
  43   2.0000      -0.392274       -10.6743
  44   2.0000      -0.323173        -8.7940
  45   2.0000      -0.309664        -8.4264
  46   2.0000      -0.298451        -8.1213
  47   0.0000       0.037574         1.0224
  48   0.0000       0.049486         1.3466
  49   0.0000       0.089976         2.4484
  50   0.0000       0.111244         3.0271
  51   0.0000       0.118557         3.2261

MULLIKEN ATOMIC CHARGES
-----------------------
   0 C :   -0.355628
   1 C :   -0.191122
   2 C :   -0.292090
   3 H :    0.132069
   4 H :    0.128568
   5 C :    0.137960
   6 C :    0.236124
   7 N :   -0.225579
   8 N :   -0.358697
   9 H :    0.262767
  10 H :    0.261097
  11 H :    0.275662
  12 H :    0.248933
  13 O :   -0.472393
  14 O :   -0.417678
  15 C :   -0.258733
  16 C :   -0.284800
  17 H :    0.146269
  18 H :    0.125317
  19 C :   -0.268329
  20 H :    0.169535
  21 H :    0.129213
  22 H :    0.149773
  23 H :    0.115928
  24 H :    0.112585
  25 H :    0.119118
  26 H :    0.196583
  27 H :    0.177545
Sum of atomic charges:   -0.0000000

LOEWDIN ATOMIC CHARGES
----------------------
   0 C :   -0.216104
   1 C :   -0.274558
   2 C :   -0.261421
   3 H :    0.142453
   4 H :    0.149618
   5 C :   -0.676546
   6 C :   -0.323424
   7 N :    0.150439
   8 N :    0.055034
   9 H :    0.190503
  10 H :    0.186478
  11 H :    0.160276
  12 H :    0.187092
  13 O :   -0.069260
  14 O :   -0.047194
  15 C :   -0.265510
  16 C :   -0.267009
  17 H :    0.149836
  18 H :    0.133511
  19 C :   -0.281950
  20 H :    0.153262
  21 H :    0.141192
  22 H :    0.142813
  23 H :    0.135024
  24 H :    0.135376
  25 H :    0.143475
  26 H :    0.166311
  27 H :    0.160282

  Mayer bond orders larger than 0.100000
B(  0-C ,  6-C ) :   0.9256 B(  0-C , 15-C ) :   0.9010 B(  0-C , 26-H ) :   0.9817
B(  0-C , 27-H ) :   0.9679 B(  1-C ,  2-C ) :   0.8965 B(  1-C , 19-C ) :   0.9414
B(  1-C , 24-H ) :   0.9812 B(  1-C , 25-H ) :   0.9774 B(  2-C ,  3-H ) :   0.9773
B(  2-C ,  4-H ) :   0.9646 B(  2-C ,  5-C ) :   0.9245 B(  5-C , 13-O ) :   1.6835
B(  5-C , 14-O ) :   1.9267 B(  6-C ,  7-N ) :   1.6153 B(  6-C ,  8-N ) :   1.2947
B(  7-N , 11-H ) :   0.7390 B(  7-N , 12-H ) :   0.8977 B(  8-N ,  9-H ) :   0.9090
B(  8-N , 10-H ) :   0.9100 B( 11-H , 13-O ) :   0.2600 B( 15-C , 16-C ) :   0.9064
B( 15-C , 17-H ) :   0.9750 B( 15-C , 18-H ) :   0.9930 B( 16-C , 19-C ) :   0.8726
B( 16-C , 20-H ) :   0.9803 B( 16-C , 21-H ) :   0.9763 B( 19-C , 22-H ) :   0.9848
B( 19-C , 23-H ) :   0.9705

FINAL SINGLE POINT ENERGY      -573.272981790215

DIPOLE MOMENT
-------------
                                X             Y             Z
Electronic contribution:      1.74870      -2.91166      -8.82648
Nuclear contribution   :      1.39386       1.90489      10.36520
                        -----------------------------------------
Total Dipole Moment    :      3.14256      -1.00677       1.53873
                        -----------------------------------------
Magnitude (a.u.)       :      3.64101
Magnitude (Debye)      :      9.25471

Rotational constants in cm-1:     0.041165     0.025922     0.019001
Rotational constants in MHz :  1234.086888   777.109255   569.639629

                             ****ORCA TERMINATED NORMALLY****
TOTAL RUN TIME: 0 days 0 hours 0 minutes 56 seconds 52 msec
