                         Program Version 5.0.0 -  RELEASE  -
|  1> !LC-BLYP RIJCOSX def2-TZVP def2/J TightSCF
|  2> *xyz 0 1
|  3> C         -0.87096        0.24804       -2.66280
|  4> C         -0.47749        0.60819       -4.10105
|  5> H          0.20677        1.45830       -4.11875
|  6> H         -1.36844        0.92942       -4.64785
|  7> C          0.18467       -0.50664       -4.91676
|  8> F         -0.15869       -1.70109       -4.65798
|  9> O          1.05594       -0.17441       -5.74037
| 10> H         -1.54056       -0.58646       -2.67455
| 11> H         -1.35339        1.08600       -2.20455
| 12> H          0.00660       -0.00662       -2.10609
| 13> *
| 14>
| 15> %MaxCore 64000
| 16>
| 17> %pal nprocs 4
| 18> end
| 19>
| 20> %scf
| 21>   MaxIter 150
| 22> end
| 23>
| 24>
| 25>                          ****END OF INPUT****

CARTESIAN COORDINATES (ANGSTROEM)
---------------------------------
  C     -0.870960    0.248040   -2.662800
  C     -0.477490    0.608190   -4.101050
  H      0.206770    1.458300   -4.118750
  H     -1.368440    0.929420   -4.647850
  C      0.184670   -0.506640   -4.916760
  F     -0.158690   -1.701090   -4.657980
  O      1.055940   -0.174410   -5.740370
  H     -1.540560   -0.586460   -2.674550
  H     -1.353390    1.086000   -2.204550
  H      0.006600   -0.006620   -2.106090

 Total Charge           Charge          ....    0
 Multiplicity           Mult            ....    1
 Number of Electrons    NEL             ....   40
 Basis Dimension        Dim             ....  185

ORBITAL ENERGIES
----------------

  NO   OCC          E(Eh)            E(eV)
   0   2.0000     -24.519220      -667.2019
   1   2.0000     -18.945253      -515.5265
   2   2.0000     -10.248739      -278.8824
   3   2.0000     -10.101934      -274.8876
   4   2.0000     -10.075810      -274.1767
   5   2.0000      -1.389219       -37.8026
   6   2.0000      -1.132245       -30.8100
   7   2.0000      -0.913156       -24.8482
   8   2.0000      -0.791816       -21.5464
   9   2.0000      -0.746634       -20.3169
  10   2.0000      -0.653679       -17.7875
  11   2.0000      -0.645016       -17.5518
  12   2.0000      -0.599072       -16.3016
  13   2.0000      -0.572206       -15.5705
  14   2.0000      -0.536059       -14.5869
  15   2.0000      -0.505229       -13.7480
  16   2.0000      -0.489499       -13.3199
  17   2.0000      -0.478572       -13.0226
  18   2.0000      -0.450730       -12.2650
  19   2.0000      -0.393045       -10.6953
  20   0.0000       0.057165         1.5555
  21   0.0000       0.089366         2.4318
  22   0.0000       0.136684         3.7194
  23   0.0000       0.157569         4.2877
  24   0.0000       0.163225         4.4416

MULLIKEN ATOMIC CHARGES
-----------------------
   0 C :   -0.392715
   1 C :   -0.284055
   2 H :    0.159449
   3 H :    0.147202
   4 C :    0.281325
   5 F :   -0.077797
   6 O :   -0.256678
   7 H :    0.138191
   8 H :    0.142213
   9 H :    0.142864
Sum of atomic charges:   -0.0000000

LOEWDIN ATOMIC CHARGES
----------------------
   0 C :   -0.311456
   1 C :   -0.269153
   2 H :    0.158680
   3 H :    0.157783
   4 C :   -0.520830
   5 F :    0.320000
   6 O :    0.090855
   7 H :    0.123701
   8 H :    0.125533
   9 H :    0.124887

  Mayer bond orders larger than 0.100000
B(  0-C ,  1-C ) :   0.9208 B(  0-C ,  7-H ) :   0.9672 B(  0-C ,  8-H ) :   0.9732
B(  0-C ,  9-H ) :   0.9725 B(  1-C ,  2-H ) :   0.9669 B(  1-C ,  3-H ) :   0.9430
B(  1-C ,  4-C ) :   0.9750 B(  4-C ,  5-F ) :   1.1885 B(  4-C ,  6-O ) :   2.1477

FINAL SINGLE POINT ENERGY      -291.906161083197

DIPOLE MOMENT
-------------
                                X             Y             Z
Electronic contribution:      2.60798      -5.34621      -5.29945
Nuclear contribution   :     -3.42837       5.66737       6.17046
                        -----------------------------------------
Total Dipole Moment    :     -0.82038       0.32116       0.87101
                        -----------------------------------------
Magnitude (a.u.)       :      1.23888
Magnitude (Debye)      :      3.14899

Rotational constants in cm-1:     0.304660     0.130969     0.097716
Rotational constants in MHz :  9133.464515  3926.366384  2929.457090

                             ****ORCA TERMINATED NORMALLY****
TOTAL RUN TIME: 0 days 0 hours 0 minutes 29 seconds 32 msec
