                         Program Version 5.0.0 -  RELEASE  -
|  1> !LC-BLYP RIJCOSX def2-TZVP def2/J TightSCF
|  2> *xyz 0 1
|  3> C          2.48645       -2.67712       -2.56345
|  4> C          3.03764       -2.36672       -3.92351
|  5> C          2.28036       -2.45441       -4.96769
|  6> N          4.32174       -2.01793       -4.01664
|  7> H          4.87994       -1.91167       -3.17382
|  8> H          4.71015       -1.67088       -4.88356
|  9> H          1.27042       -2.41265       -4.86614
| 10> H          2.58183       -2.05528       -5.84688
| 11> C          2.49799       -1.46946       -1.61030
| 12> H          1.47259       -3.05153       -2.69437
| 13> H          3.08320       -3.49064       -2.14147
| 14> H          1.91240       -0.67831       -2.02991
| 15> H          3.50450       -1.13364       -1.47227
| 16> H          2.08509       -1.75655       -0.66585
| 17> *
| 18>
| 19> %MaxCore 64000
| 20>
| 21> %pal nprocs 4
| 22> end
| 23>
| 24> %scf
| 25>   MaxIter 150
| 26> end
| 27>
| 28>
| 29>                          ****END OF INPUT****

CARTESIAN COORDINATES (ANGSTROEM)
---------------------------------
  C      2.486450   -2.677120   -2.563450
  C      3.037640   -2.366720   -3.923510
  C      2.280360   -2.454410   -4.967690
  N      4.321740   -2.017930   -4.016640
  H      4.879940   -1.911670   -3.173820
  H      4.710150   -1.670880   -4.883560
  H      1.270420   -2.412650   -4.866140
  H      2.581830   -2.055280   -5.846880
  C      2.497990   -1.469460   -1.610300
  H      1.472590   -3.051530   -2.694370
  H      3.083200   -3.490640   -2.141470
  H      1.912400   -0.678310   -2.029910
  H      3.504500   -1.133640   -1.472270
  H      2.085090   -1.756550   -0.665850

 Total Charge           Charge          ....    0
 Multiplicity           Mult            ....    1
 Number of Electrons    NEL             ....   40
 Basis Dimension        Dim             ....  209

ORBITAL ENERGIES
----------------

  NO   OCC          E(Eh)            E(eV)
   0   2.0000     -14.167852      -385.5268
   1   2.0000     -10.090131      -274.5664
   2   2.0000     -10.067274      -273.9444
   3   2.0000     -10.056074      -273.6397
   4   2.0000      -9.996951      -272.0309
   5   2.0000      -1.026560       -27.9341
   6   2.0000      -0.887933       -24.1619
   7   2.0000      -0.832443       -22.6519
   8   2.0000      -0.743987       -20.2449
   9   2.0000      -0.672228       -18.2922
  10   2.0000      -0.628905       -17.1134
  11   2.0000      -0.583473       -15.8771
  12   2.0000      -0.540588       -14.7102
  13   2.0000      -0.535970       -14.5845
  14   2.0000      -0.489184       -13.3114
  15   2.0000      -0.484882       -13.1943
  16   2.0000      -0.452880       -12.3235
  17   2.0000      -0.433028       -11.7833
  18   2.0000      -0.425040       -11.5659
  19   2.0000      -0.292167        -7.9503
  20   0.0000       0.088089         2.3970
  21   0.0000       0.116567         3.1720
  22   0.0000       0.136624         3.7177
  23   0.0000       0.142556         3.8792
  24   0.0000       0.154221         4.1966

MULLIKEN ATOMIC CHARGES
-----------------------
   0 C :   -0.289700
   1 C :    0.217650
   2 C :   -0.406943
   3 N :   -0.427433
   4 H :    0.225306
   5 H :    0.228763
   6 H :    0.098608
   7 H :    0.080640
   8 C :   -0.369062
   9 H :    0.131687
  10 H :    0.131544
  11 H :    0.137669
  12 H :    0.105902
  13 H :    0.135371
Sum of atomic charges:   -0.0000000

LOEWDIN ATOMIC CHARGES
----------------------
   0 C :   -0.245587
   1 C :   -0.365038
   2 C :   -0.283529
   3 N :   -0.008750
   4 H :    0.168952
   5 H :    0.171410
   6 H :    0.112789
   7 H :    0.103820
   8 C :   -0.308311
   9 H :    0.150799
  10 H :    0.144840
  11 H :    0.123977
  12 H :    0.113830
  13 H :    0.120799

  Mayer bond orders larger than 0.100000
B(  0-C ,  1-C ) :   0.9260 B(  0-C ,  8-C ) :   0.9221 B(  0-C ,  9-H ) :   0.9928
B(  0-C , 10-H ) :   0.9733 B(  1-C ,  2-C ) :   1.7929 B(  1-C ,  3-N ) :   1.1323
B(  2-C ,  6-H ) :   0.9942 B(  2-C ,  7-H ) :   0.9990 B(  3-N ,  4-H ) :   0.9358
B(  3-N ,  5-H ) :   0.9285 B(  8-C , 11-H ) :   0.9742 B(  8-C , 12-H ) :   0.9751
B(  8-C , 13-H ) :   0.9828

FINAL SINGLE POINT ENERGY      -212.037282594686

DIPOLE MOMENT
-------------
                                X             Y             Z
Electronic contribution:      1.55252      -0.87255      -2.12395
Nuclear contribution   :     -0.99743       1.27863       2.57190
                        -----------------------------------------
Total Dipole Moment    :      0.55508       0.40608       0.44795
                        -----------------------------------------
Magnitude (a.u.)       :      0.82078
Magnitude (Debye)      :      2.08625

Rotational constants in cm-1:     0.274050     0.130114     0.100964
Rotational constants in MHz :  8215.815505  3900.722919  3026.834930

                             ****ORCA TERMINATED NORMALLY****
TOTAL RUN TIME: 0 days 0 hours 0 minutes 33 seconds 212 msec
