                         Program Version 5.0.0 -  RELEASE  -
|  1> !LC-BLYP RIJCOSX def2-TZVP def2/J TightSCF
|  2> *xyz 0 1
|  3> C         -0.87096        0.24804       -2.66280
|  4> C         -0.47749        0.60819       -4.10105
|  5> H          0.20677        1.45830       -4.11875
|  6> H         -1.36844        0.92942       -4.64785
|  7> C          0.18467       -0.50664       -4.91676
|  8> O         -0.15869       -1.70109       -4.65798
|  9> F          1.05594       -0.17441       -5.74037
| 10> H         -1.54056       -0.58646       -2.67455
| 11> H         -1.35339        1.08600       -2.20455
| 12> H          0.00660       -0.00662       -2.10609
| 13> *
| 14>
| 15> %MaxCore 64000
| 16>
| 17> %pal nprocs 4
| 18> end
| 19>
| 20> %scf
| 21>   MaxIter 150
| 22> end
| 23>
| 24>
| 25>                          ****END OF INPUT****

CARTESIAN COORDINATES (ANGSTROEM)
---------------------------------
  C     -0.870960    0.248040   -2.662800
  C     -0.477490    0.608190   -4.101050
  H      0.206770    1.458300   -4.118750
  H     -1.368440    0.929420   -4.647850
  C      0.184670   -0.506640   -4.916760
  O     -0.158690   -1.701090   -4.657980
  F      1.055940   -0.174410   -5.740370
  H     -1.540560   -0.586460   -2.674550
  H     -1.353390    1.086000   -2.204550
  H      0.006600   -0.006620   -2.106090

 Total Charge           Charge          ....    0
 Multiplicity           Mult            ....    1
 Number of Electrons    NEL             ....   40
 Basis Dimension        Dim             ....  185

ORBITAL ENERGIES
----------------

  NO   OCC          E(Eh)            E(eV)
   0   2.0000     -24.528505      -667.4546
   1   2.0000     -18.941936      -515.4363
   2   2.0000     -10.251276      -278.9514
   3   2.0000     -10.103206      -274.9222
   4   2.0000     -10.069709      -274.0107
   5   2.0000      -1.407601       -38.3028
   6   2.0000      -1.117826       -30.4176
   7   2.0000      -0.909137       -24.7389
   8   2.0000      -0.801061       -21.7980
   9   2.0000      -0.745541       -20.2872
  10   2.0000      -0.661651       -18.0044
  11   2.0000      -0.644003       -17.5242
  12   2.0000      -0.611725       -16.6459
  13   2.0000      -0.571959       -15.5638
  14   2.0000      -0.535105       -14.5609
  15   2.0000      -0.496512       -13.5108
  16   2.0000      -0.475271       -12.9328
  17   2.0000      -0.473921       -12.8961
  18   2.0000      -0.446999       -12.1635
  19   2.0000      -0.391143       -10.6435
  20   0.0000       0.054426         1.4810
  21   0.0000       0.094247         2.5646
  22   0.0000       0.136349         3.7103
  23   0.0000       0.154904         4.2152
  24   0.0000       0.163719         4.4550

MULLIKEN ATOMIC CHARGES
-----------------------
   0 C :   -0.384809
   1 C :   -0.281964
   2 H :    0.138288
   3 H :    0.148750
   4 C :    0.294373
   5 O :   -0.290803
   6 F :   -0.051967
   7 H :    0.154172
   8 H :    0.136310
   9 H :    0.137651
Sum of atomic charges:   -0.0000000

LOEWDIN ATOMIC CHARGES
----------------------
   0 C :   -0.301444
   1 C :   -0.273319
   2 H :    0.146847
   3 H :    0.159220
   4 C :   -0.525491
   5 O :    0.057958
   6 F :    0.358117
   7 H :    0.129610
   8 H :    0.123181
   9 H :    0.125322

  Mayer bond orders larger than 0.100000
B(  0-C ,  1-C ) :   0.9422 B(  0-C ,  7-H ) :   0.9653 B(  0-C ,  8-H ) :   0.9715
B(  0-C ,  9-H ) :   0.9754 B(  1-C ,  2-H ) :   0.9643 B(  1-C ,  3-H ) :   0.9358
B(  1-C ,  4-C ) :   0.9689 B(  4-C ,  5-O ) :   2.0956 B(  4-C ,  6-F ) :   1.2271

FINAL SINGLE POINT ENERGY      -291.899438171231

DIPOLE MOMENT
-------------
                                X             Y             Z
Electronic contribution:      4.64541      -2.82622      -7.12899
Nuclear contribution   :     -4.75269       4.00281       7.35060
                        -----------------------------------------
Total Dipole Moment    :     -0.10728       1.17660       0.22161
                        -----------------------------------------
Magnitude (a.u.)       :      1.20208
Magnitude (Debye)      :      3.05545

Rotational constants in cm-1:     0.323805     0.124913     0.096140
Rotational constants in MHz :  9707.430323  3744.789513  2882.191141

                             ****ORCA TERMINATED NORMALLY****
TOTAL RUN TIME: 0 days 0 hours 0 minutes 32 seconds 738 msec
