                         Program Version 5.0.0 -  RELEASE  -
|  1> !LC-BLYP RIJCOSX def2-TZVP def2/J TightSCF
|  2> *xyz 0 1
|  3> C          2.48645       -2.67712       -2.56345
|  4> C          3.03764       -2.36672       -3.92351
|  5> N          2.28036       -2.45441       -4.96769
|  6> C          4.32174       -2.01793       -4.01664
|  7> H          4.87994       -1.91167       -3.17382
|  8> H          4.71015       -1.67088       -4.88356
|  9> H          1.27042       -2.41265       -4.86614
| 10> H          2.58183       -2.05528       -5.84688
| 11> C          2.49799       -1.46946       -1.61030
| 12> H          1.47259       -3.05153       -2.69437
| 13> H          3.08320       -3.49064       -2.14147
| 14> H          1.91240       -0.67831       -2.02991
| 15> H          3.50450       -1.13364       -1.47227
| 16> H          2.08509       -1.75655       -0.66585
| 17> *
| 18>
| 19> %MaxCore 64000
| 20>
| 21> %pal nprocs 4
| 22> end
| 23>
| 24> %scf
| 25>   MaxIter 150
| 26> end
| 27>
| 28>
| 29>                          ****END OF INPUT****

CARTESIAN COORDINATES (ANGSTROEM)
---------------------------------
  C      2.486450   -2.677120   -2.563450
  C      3.037640   -2.366720   -3.923510
  N      2.280360   -2.454410   -4.967690
  C      4.321740   -2.017930   -4.016640
  H      4.879940   -1.911670   -3.173820
  H      4.710150   -1.670880   -4.883560
  H      1.270420   -2.412650   -4.866140
  H      2.581830   -2.055280   -5.846880
  C      2.497990   -1.469460   -1.610300
  H      1.472590   -3.051530   -2.694370
  H      3.083200   -3.490640   -2.141470
  H      1.912400   -0.678310   -2.029910
  H      3.504500   -1.133640   -1.472270
  H      2.085090   -1.756550   -0.665850

 Total Charge           Charge          ....    0
 Multiplicity           Mult            ....    1
 Number of Electrons    NEL             ....   40
 Basis Dimension        Dim             ....  209

ORBITAL ENERGIES
----------------

  NO   OCC          E(Eh)            E(eV)
   0   2.0000     -14.171768      -385.6334
   1   2.0000     -10.090537      -274.5775
   2   2.0000     -10.067959      -273.9631
   3   2.0000     -10.052089      -273.5313
   4   2.0000      -9.997294      -272.0402
   5   2.0000      -1.041229       -28.3333
   6   2.0000      -0.889916       -24.2158
   7   2.0000      -0.816201       -22.2099
   8   2.0000      -0.749628       -20.3984
   9   2.0000      -0.675219       -18.3736
  10   2.0000      -0.625818       -17.0294
  11   2.0000      -0.587617       -15.9899
  12   2.0000      -0.551344       -15.0028
  13   2.0000      -0.511038       -13.9060
  14   2.0000      -0.497687       -13.5428
  15   2.0000      -0.478650       -13.0247
  16   2.0000      -0.451183       -12.2773
  17   2.0000      -0.435505       -11.8507
  18   2.0000      -0.433909       -11.8073
  19   2.0000      -0.282354        -7.6832
  20   0.0000       0.089516         2.4359
  21   0.0000       0.110553         3.0083
  22   0.0000       0.135906         3.6982
  23   0.0000       0.141190         3.8420
  24   0.0000       0.157201         4.2776

MULLIKEN ATOMIC CHARGES
-----------------------
   0 C :   -0.295332
   1 C :    0.212140
   2 N :   -0.392351
   3 C :   -0.448258
   4 H :    0.097185
   5 H :    0.098283
   6 H :    0.223073
   7 H :    0.228395
   8 C :   -0.362033
   9 H :    0.106483
  10 H :    0.148069
  11 H :    0.124310
  12 H :    0.131757
  13 H :    0.128280
Sum of atomic charges:   -0.0000000

LOEWDIN ATOMIC CHARGES
----------------------
   0 C :   -0.246143
   1 C :   -0.377863
   2 N :    0.011679
   3 C :   -0.288777
   4 H :    0.107064
   5 H :    0.098362
   6 H :    0.170972
   7 H :    0.175548
   8 C :   -0.302741
   9 H :    0.136200
  10 H :    0.154413
  11 H :    0.120810
  12 H :    0.122354
  13 H :    0.118122

  Mayer bond orders larger than 0.100000
B(  0-C ,  1-C ) :   0.8888 B(  0-C ,  8-C ) :   0.9351 B(  0-C ,  9-H ) :   1.0029
B(  0-C , 10-H ) :   0.9820 B(  1-C ,  2-N ) :   1.1912 B(  1-C ,  3-C ) :   1.7117
B(  2-N ,  6-H ) :   0.9291 B(  2-N ,  7-H ) :   0.9299 B(  3-C ,  4-H ) :   1.0038
B(  3-C ,  5-H ) :   0.9932 B(  8-C , 11-H ) :   0.9748 B(  8-C , 12-H ) :   0.9750
B(  8-C , 13-H ) :   0.9814

FINAL SINGLE POINT ENERGY      -212.037165145473

DIPOLE MOMENT
-------------
                                X             Y             Z
Electronic contribution:     -0.28762      -1.19318      -2.98154
Nuclear contribution   :     -0.52463       1.37972       2.79217
                        -----------------------------------------
Total Dipole Moment    :     -0.81226       0.18654      -0.18937
                        -----------------------------------------
Magnitude (a.u.)       :      0.85465
Magnitude (Debye)      :      2.17234

Rotational constants in cm-1:     0.281086     0.127387     0.100311
Rotational constants in MHz :  8426.743103  3818.969834  3007.238026

                             ****ORCA TERMINATED NORMALLY****
TOTAL RUN TIME: 0 days 0 hours 0 minutes 39 seconds 762 msec
