                         Program Version 5.0.0 -  RELEASE  -
|  1> !LC-BLYP RIJCOSX def2-TZVP def2/J TightSCF xyzfile
|  2>
|  3> *xyzfile 0 1 D4.xyz
|  4>
|  5> %MaxCore 64000
|  6>
|  7> %pal nprocs 18
|  8> end
|  9>
| 10> %scf
| 11>   MaxIter 150
| 12> end
| 13>
| 14>
| 15>                          ****END OF INPUT****

CARTESIAN COORDINATES (ANGSTROEM)
---------------------------------
  C      2.486452   -2.677121   -2.563447
  C     -0.870963    0.248043   -2.662804
  C     -0.477492    0.608191   -4.101052
  H      0.206773    1.458299   -4.118748
  H     -1.368442    0.929419   -4.647855
  C      0.184673   -0.506640   -4.916760
  C      3.037640   -2.366715   -3.923509
  N      2.280360   -2.454408   -4.967692
  C      4.321736   -2.017932   -4.016641
  H      4.879940   -1.911668   -3.173823
  H      4.710148   -1.670882   -4.883561
  H      1.270423   -2.412650   -4.866143
  H      2.581829   -2.055282   -5.846878
  O     -0.158685   -1.701088   -4.657981
  F      1.055938   -0.174410   -5.740373
  C      2.497991   -1.469464   -1.610303
  C      1.582841   -0.321986   -2.042619
  H      2.193083   -1.833912   -0.625420
  H      3.523356   -1.103982   -1.490392
  C      0.100160   -0.673551   -1.915815
  H      1.822311   -0.040361   -3.072834
  H      1.813180    0.557019   -1.433266
  H     -0.063284   -1.679120   -2.301112
  H     -0.168820   -0.691680   -0.853831
  H     -1.001048    1.181040   -2.104071
  H     -1.844645   -0.246592   -2.663281
  H      1.472592   -3.051527   -2.694366
  H      3.083201   -3.490638   -2.141472

 Total Charge           Charge          ....    0
 Multiplicity           Mult            ....    1
 Number of Electrons    NEL             ....   94
 Basis Dimension        Dim             ....  468

ORBITAL ENERGIES
----------------

  NO   OCC          E(Eh)            E(eV)
   0   2.0000     -24.550788      -668.0609
   1   2.0000     -18.968792      -516.1671
   2   2.0000     -14.136617      -384.6769
   3   2.0000     -10.277186      -279.6565
   4   2.0000     -10.113512      -275.2027
   5   2.0000     -10.087682      -274.4998
   6   2.0000     -10.075689      -274.1734
   7   2.0000     -10.066767      -273.9306
   8   2.0000     -10.066569      -273.9253
   9   2.0000     -10.061432      -273.7855
  10   2.0000     -10.056193      -273.6429
  11   2.0000      -9.982380      -271.6344
  12   2.0000      -1.430552       -38.9273
  13   2.0000      -1.153868       -31.3983
  14   2.0000      -1.019007       -27.7286
  15   2.0000      -0.942003       -25.6332
  16   2.0000      -0.902679       -24.5631
  17   2.0000      -0.860988       -23.4287
  18   2.0000      -0.818098       -22.2616
  19   2.0000      -0.791093       -21.5267
  20   2.0000      -0.771704       -20.9991
  21   2.0000      -0.731033       -19.8924
  22   2.0000      -0.694719       -18.9043
  23   2.0000      -0.686287       -18.6748
  24   2.0000      -0.664077       -18.0705
  25   2.0000      -0.652717       -17.7613
  26   2.0000      -0.632880       -17.2215
  27   2.0000      -0.603747       -16.4288
  28   2.0000      -0.590144       -16.0586
  29   2.0000      -0.583481       -15.8773
  30   2.0000      -0.575877       -15.6704
  31   2.0000      -0.549829       -14.9616
  32   2.0000      -0.528884       -14.3917
  33   2.0000      -0.514215       -13.9925
  34   2.0000      -0.509162       -13.8550
  35   2.0000      -0.495926       -13.4948
  36   2.0000      -0.481804       -13.1106
  37   2.0000      -0.473937       -12.8965
  38   2.0000      -0.460955       -12.5432
  39   2.0000      -0.458796       -12.4845
  40   2.0000      -0.439578       -11.9615
  41   2.0000      -0.434394       -11.8205
  42   2.0000      -0.419871       -11.4253
  43   2.0000      -0.418680       -11.3929
  44   2.0000      -0.411729       -11.2037
  45   2.0000      -0.395710       -10.7678
  46   2.0000      -0.264562        -7.1991
  47   0.0000       0.029086         0.7915
  48   0.0000       0.084877         2.3096
  49   0.0000       0.109309         2.9745
  50   0.0000       0.116583         3.1724
  51   0.0000       0.120406         3.2764

MULLIKEN ATOMIC CHARGES
-----------------------
   0 C :   -0.343469
   1 C :   -0.202638
   2 C :   -0.346555
   3 H :    0.175186
   4 H :    0.172072
   5 C :    0.307792
   6 C :    0.147430
   7 N :   -0.365908
   8 C :   -0.432013
   9 H :    0.085133
  10 H :    0.089425
  11 H :    0.242270
  12 H :    0.209021
  13 O :   -0.311116
  14 F :   -0.044609
  15 C :   -0.222747
  16 C :   -0.266086
  17 H :    0.119613
  18 H :    0.138228
  19 C :   -0.309395
  20 H :    0.141253
  21 H :    0.130502
  22 H :    0.165318
  23 H :    0.134849
  24 H :    0.139747
  25 H :    0.141859
  26 H :    0.150076
  27 H :    0.154762
Sum of atomic charges:    0.0000000

LOEWDIN ATOMIC CHARGES
----------------------
   0 C :   -0.221082
   1 C :   -0.263930
   2 C :   -0.246448
   3 H :    0.154741
   4 H :    0.164913
   5 C :   -0.511251
   6 C :   -0.388532
   7 N :    0.024766
   8 C :   -0.305506
   9 H :    0.103819
  10 H :    0.095999
  11 H :    0.140512
  12 H :    0.164158
  13 O :    0.074554
  14 F :    0.373016
  15 C :   -0.261524
  16 C :   -0.268543
  17 H :    0.140547
  18 H :    0.143124
  19 C :   -0.278380
  20 H :    0.143549
  21 H :    0.140457
  22 H :    0.144688
  23 H :    0.142933
  24 H :    0.146240
  25 H :    0.148488
  26 H :    0.142139
  27 H :    0.156554

  Mayer bond orders larger than 0.100000
B(  0-C ,  6-C ) :   0.8666 B(  0-C , 15-C ) :   0.9115 B(  0-C , 26-H ) :   1.0205
B(  0-C , 27-H ) :   0.9839 B(  1-C ,  2-C ) :   0.9064 B(  1-C , 19-C ) :   0.9211
B(  1-C , 24-H ) :   0.9783 B(  1-C , 25-H ) :   0.9790 B(  2-C ,  3-H ) :   0.9586
B(  2-C ,  4-H ) :   0.9450 B(  2-C ,  5-C ) :   0.9691 B(  5-C , 13-O ) :   1.9635
B(  5-C , 14-F ) :   1.2302 B(  6-C ,  7-N ) :   1.2288 B(  6-C ,  8-C ) :   1.7116
B(  7-N , 11-H ) :   0.8712 B(  7-N , 12-H ) :   0.9372 B(  8-C ,  9-H ) :   0.9979
B(  8-C , 10-H ) :   0.9954 B( 11-H , 13-O ) :   0.1199 B( 15-C , 16-C ) :   0.9446
B( 15-C , 17-H ) :   0.9807 B( 15-C , 18-H ) :   0.9796 B( 16-C , 19-C ) :   0.8757
B( 16-C , 20-H ) :   0.9715 B( 16-C , 21-H ) :   0.9785 B( 19-C , 22-H ) :   0.9873
B( 19-C , 23-H ) :   0.9761

FINAL SINGLE POINT ENERGY      -581.171907635631

DIPOLE MOMENT
-------------
                                X             Y             Z
Electronic contribution:     -3.45303       0.81180     -12.74527
Nuclear contribution   :      2.21030       0.63135      12.80988
                        -----------------------------------------
Total Dipole Moment    :     -1.24273       1.44315       0.06462
                        -----------------------------------------
Magnitude (a.u.)       :      1.90558
Magnitude (Debye)      :      4.84361

Rotational constants in cm-1:     0.039980     0.026547     0.019089
Rotational constants in MHz :  1198.568620   795.867393   572.288555

                             ****ORCA TERMINATED NORMALLY****
TOTAL RUN TIME: 0 days 0 hours 0 minutes 45 seconds 548 msec
