                         Program Version 5.0.0 -  RELEASE  -
|  1> !LC-BLYP RIJCOSX def2-SVPD def2/J TightSCF
|  2> *xyz -1 1
|  3> C         -0.05915        1.50352        3.41058
|  4> C          1.08303        0.74964        4.08571
|  5> O          2.22817        1.26348        4.01983
|  6> O          0.81003       -0.34541        4.63627
|  7> H          0.31461        2.41205        2.98658
|  8> H         -0.81316        1.73160        4.13470
|  9> H         -0.47977        0.89552        2.63708
| 10> *
| 11>
| 12> %MaxCore 64000
| 13>
| 14> %pal nprocs 4
| 15> end
| 16>
| 17> %scf
| 18>   MaxIter 150
| 19> end
| 20>
| 21>
| 22>                          ****END OF INPUT****

CARTESIAN COORDINATES (ANGSTROEM)
---------------------------------
  C     -0.059150    1.503520    3.410580
  C      1.083030    0.749640    4.085710
  O      2.228170    1.263480    4.019830
  O      0.810030   -0.345410    4.636270
  H      0.314610    2.412050    2.986580
  H     -0.813160    1.731600    4.134700
  H     -0.479770    0.895520    2.637080

 Total Charge           Charge          ....   -1
 Multiplicity           Mult            ....    1
 Number of Electrons    NEL             ....   32
 Basis Dimension        Dim             ....  110

ORBITAL ENERGIES
----------------

  NO   OCC          E(Eh)            E(eV)
   0   2.0000     -18.693624      -508.6794
   1   2.0000     -18.693129      -508.6659
   2   2.0000      -9.974766      -271.4272
   3   2.0000      -9.899613      -269.3822
   4   2.0000      -0.904619       -24.6159
   5   2.0000      -0.809305       -22.0223
   6   2.0000      -0.649568       -17.6756
   7   2.0000      -0.406907       -11.0725
   8   2.0000      -0.369371       -10.0511
   9   2.0000      -0.350664        -9.5420
  10   2.0000      -0.329922        -8.9776
  11   2.0000      -0.287029        -7.8105
  12   2.0000      -0.272799        -7.4233
  13   2.0000      -0.148337        -4.0365
  14   2.0000      -0.142848        -3.8871
  15   2.0000      -0.126723        -3.4483
  16   0.0000       0.221219         6.0197
  17   0.0000       0.257212         6.9991
  18   0.0000       0.280698         7.6382
  19   0.0000       0.291721         7.9381
  20   0.0000       0.316767         8.6197

MULLIKEN ATOMIC CHARGES
-----------------------
   0 C :    0.708011
   1 C :   -0.203528
   2 O :   -0.532202
   3 O :   -0.549945
   4 H :   -0.149186
   5 H :   -0.135975
   6 H :   -0.137174
Sum of atomic charges:   -1.0000000

LOEWDIN ATOMIC CHARGES
----------------------
   0 C :    0.130992
   1 C :   -0.378409
   2 O :   -0.324317
   3 O :   -0.325483
   4 H :   -0.039021
   5 H :   -0.032313
   6 H :   -0.031448

  Mayer bond orders larger than 0.100000
B(  0-C ,  1-C ) :   1.1880 B(  0-C ,  4-H ) :   0.8156 B(  0-C ,  5-H ) :   0.7669
B(  0-C ,  6-H ) :   0.7717 B(  1-C ,  2-O ) :   1.6215 B(  1-C ,  3-O ) :   1.6357
B(  1-C ,  4-H ) :   0.2876 B(  1-C ,  5-H ) :   0.1941 B(  1-C ,  6-H ) :   0.1898

FINAL SINGLE POINT ENERGY      -227.895181472129

DIPOLE MOMENT
-------------
                                X             Y             Z
Electronic contribution:      2.64435      -1.74064       1.55258
Nuclear contribution   :     -3.75920       2.48542      -2.19871
                        -----------------------------------------
Total Dipole Moment    :     -1.11485       0.74478      -0.64613
                        -----------------------------------------
Magnitude (a.u.)       :      1.48832
Magnitude (Debye)      :      3.78300

Rotational constants in cm-1:     0.392838     0.334689     0.186890
Rotational constants in MHz : 11776.984954 10033.729666  5602.815156

                             ****ORCA TERMINATED NORMALLY****
TOTAL RUN TIME: 0 days 0 hours 0 minutes 7 seconds 142 msec
