                         Program Version 5.0.0 -  RELEASE  -
|  1> !LC-BLYP RIJCOSX def2-SVPD def2/J TightSCF
|  2> *xyz 1 1
|  3> C          4.60295       -2.44010        2.63478
|  4> C          3.86085       -1.59157        3.62289
|  5> N          2.75650       -2.04616        4.16633
|  6> N          4.25433       -0.36291        3.86046
|  7> H          3.56526        0.31099        4.16898
|  8> H          5.05429       -0.01606        3.33784
|  9> H          2.43970       -2.97389        3.89740
| 10> H          2.06687       -1.41253        4.54981
| 11> H          5.47239       -1.91604        2.29664
| 12> H          3.96816       -2.65362        1.80030
| 13> H          4.89801       -3.35632        3.10209
| 14> *
| 15>
| 16> %MaxCore 64000
| 17>
| 18> %pal nprocs 4
| 19> end
| 20>
| 21> %scf
| 22>   MaxIter 150
| 23> end
| 24>
| 25>
| 26>                          ****END OF INPUT****

CARTESIAN COORDINATES (ANGSTROEM)
---------------------------------
  C      4.602950   -2.440100    2.634780
  C      3.860850   -1.591570    3.622890
  N      2.756500   -2.046160    4.166330
  N      4.254330   -0.362910    3.860460
  H      3.565260    0.310990    4.168980
  H      5.054290   -0.016060    3.337840
  H      2.439700   -2.973890    3.897400
  H      2.066870   -1.412530    4.549810
  H      5.472390   -1.916040    2.296640
  H      3.968160   -2.653620    1.800300
  H      4.898010   -3.356320    3.102090

 Total Charge           Charge          ....    1
 Multiplicity           Mult            ....    1
 Number of Electrons    NEL             ....   32
 Basis Dimension        Dim             ....  136

ORBITAL ENERGIES
----------------

  NO   OCC          E(Eh)            E(eV)
   0   2.0000     -14.441464      -392.9722
   1   2.0000     -14.440723      -392.9521
   2   2.0000     -10.422587      -283.6130
   3   2.0000     -10.287433      -279.9353
   4   2.0000      -1.310510       -35.6608
   5   2.0000      -1.210916       -32.9507
   6   2.0000      -1.061684       -28.8899
   7   2.0000      -0.948436       -25.8083
   8   2.0000      -0.885964       -24.1083
   9   2.0000      -0.878986       -23.9184
  10   2.0000      -0.805628       -21.9222
  11   2.0000      -0.778648       -21.1881
  12   2.0000      -0.723875       -19.6976
  13   2.0000      -0.707293       -19.2464
  14   2.0000      -0.679000       -18.4765
  15   2.0000      -0.603125       -16.4119
  16   0.0000      -0.145435        -3.9575
  17   0.0000      -0.104663        -2.8480
  18   0.0000      -0.060542        -1.6474
  19   0.0000      -0.057157        -1.5553
  20   0.0000      -0.033936        -0.9234

MULLIKEN ATOMIC CHARGES
-----------------------
   0 C :    0.814819
   1 C :   -0.034674
   2 N :    0.305285
   3 N :    0.215471
   4 H :   -0.077183
   5 H :    0.052022
   6 H :    0.029243
   7 H :   -0.159585
   8 H :   -0.048991
   9 H :   -0.072033
  10 H :   -0.024374
Sum of atomic charges:    1.0000000

LOEWDIN ATOMIC CHARGES
----------------------
   0 C :    0.224538
   1 C :   -0.091620
   2 N :    0.287718
   3 N :    0.290826
   4 H :    0.052697
   5 H :    0.054869
   6 H :    0.060997
   7 H :    0.052373
   8 H :    0.011030
   9 H :    0.029742
  10 H :    0.026829

  Mayer bond orders larger than 0.100000
B(  0-C ,  1-C ) :   1.3423 B(  0-C ,  8-H ) :   0.7344 B(  0-C ,  9-H ) :   0.7825
B(  0-C , 10-H ) :   0.6253 B(  1-C ,  2-N ) :   1.2729 B(  1-C ,  3-N ) :   1.2122
B(  1-C ,  4-H ) :  -0.1254 B(  1-C ,  7-H ) :  -0.1441 B(  1-C ,  8-H ) :   0.2926
B(  1-C ,  9-H ) :   0.1569 B(  1-C , 10-H ) :   0.2829 B(  2-N ,  3-N ) :   0.1613
B(  2-N ,  6-H ) :   1.0524 B(  2-N ,  7-H ) :   1.2356 B(  3-N ,  4-H ) :   1.2093
B(  3-N ,  5-H ) :   1.0185 B(  4-H ,  5-H ) :  -0.1441 B(  6-H ,  7-H ) :  -0.1572
B(  8-H , 10-H ) :   0.1199

FINAL SINGLE POINT ENERGY      -189.091789512045

DIPOLE MOMENT
-------------
                                X             Y             Z
Electronic contribution:     -0.95799       1.14819       1.60770
Nuclear contribution   :      0.47466      -0.79212      -1.71537
                        -----------------------------------------
Total Dipole Moment    :     -0.48333       0.35607      -0.10767
                        -----------------------------------------
Magnitude (a.u.)       :      0.60991
Magnitude (Debye)      :      1.55026

Rotational constants in cm-1:     0.335502     0.299428     0.163704
Rotational constants in MHz : 10058.111638  8976.630214  4907.722182

                             ****ORCA TERMINATED NORMALLY****
TOTAL RUN TIME: 0 days 0 hours 0 minutes 11 seconds 420 msec
