                         Program Version 5.0.0 -  RELEASE  -
|  1> !LC-BLYP RIJCOSX def2-SVPD def2/J TightSCF
|  2> *xyz 0 1
|  3> C         -0.05915        1.50352        3.41058
|  4> C          1.08303        0.74964        4.08571
|  5> F          2.22817        1.26348        4.01983
|  6> O          0.81003       -0.34541        4.63627
|  7> H          0.31461        2.41205        2.98658
|  8> H         -0.81316        1.73160        4.13470
|  9> H         -0.47977        0.89552        2.63708
| 10> *
| 11>
| 12> %MaxCore 64000
| 13>
| 14> %pal nprocs 4
| 15> end
| 16>
| 17> %scf
| 18>   MaxIter 150
| 19> end
| 20>
| 21>
| 22>                          ****END OF INPUT****

CARTESIAN COORDINATES (ANGSTROEM)
---------------------------------
  C     -0.059150    1.503520    3.410580
  C      1.083030    0.749640    4.085710
  F      2.228170    1.263480    4.019830
  O      0.810030   -0.345410    4.636270
  H      0.314610    2.412050    2.986580
  H     -0.813160    1.731600    4.134700
  H     -0.479770    0.895520    2.637080

 Total Charge           Charge          ....    0
 Multiplicity           Mult            ....    1
 Number of Electrons    NEL             ....   32
 Basis Dimension        Dim             ....  110

ORBITAL ENERGIES
----------------

  NO   OCC          E(Eh)            E(eV)
   0   2.0000     -24.551098      -668.0693
   1   2.0000     -18.971233      -516.2335
   2   2.0000     -10.277914      -279.6763
   3   2.0000     -10.115451      -275.2554
   4   2.0000      -1.391466       -37.8637
   5   2.0000      -1.123410       -30.5695
   6   2.0000      -0.880227       -23.9522
   7   2.0000      -0.764591       -20.8056
   8   2.0000      -0.662999       -18.0411
   9   2.0000      -0.654951       -17.8221
  10   2.0000      -0.609269       -16.5790
  11   2.0000      -0.551622       -15.0104
  12   2.0000      -0.539005       -14.6671
  13   2.0000      -0.508470       -13.8362
  14   2.0000      -0.462057       -12.5732
  15   2.0000      -0.401428       -10.9234
  16   0.0000       0.047089         1.2814
  17   0.0000       0.061202         1.6654
  18   0.0000       0.103368         2.8128
  19   0.0000       0.137362         3.7378
  20   0.0000       0.140066         3.8114

MULLIKEN ATOMIC CHARGES
-----------------------
   0 C :    0.649399
   1 C :    0.167971
   2 F :   -0.253297
   3 O :   -0.338676
   4 H :   -0.113688
   5 H :   -0.056529
   6 H :   -0.055180
Sum of atomic charges:    0.0000000

LOEWDIN ATOMIC CHARGES
----------------------
   0 C :    0.203484
   1 C :   -0.077971
   2 F :   -0.016449
   3 O :   -0.118707
   4 H :   -0.008429
   5 H :    0.008805
   6 H :    0.009267

  Mayer bond orders larger than 0.100000
B(  0-C ,  1-C ) :   1.2426 B(  0-C ,  4-H ) :   0.8348 B(  0-C ,  5-H ) :   0.7626
B(  0-C ,  6-H ) :   0.7677 B(  1-C ,  2-F ) :   0.9300 B(  1-C ,  3-O ) :   1.9496
B(  1-C ,  4-H ) :   0.1919 B(  1-C ,  5-H ) :   0.1708 B(  1-C ,  6-H ) :   0.1655

FINAL SINGLE POINT ENERGY      -252.412976890986

DIPOLE MOMENT
-------------
                                X             Y             Z
Electronic contribution:      4.66331      -1.01427       1.55750
Nuclear contribution   :     -5.01294       1.99942      -2.18092
                        -----------------------------------------
Total Dipole Moment    :     -0.34963       0.98516      -0.62342
                        -----------------------------------------
Magnitude (a.u.)       :      1.21714
Magnitude (Debye)      :      3.09372

Rotational constants in cm-1:     0.368501     0.321908     0.177384
Rotational constants in MHz : 11047.396090  9650.552559  5317.833075

                             ****ORCA TERMINATED NORMALLY****
TOTAL RUN TIME: 0 days 0 hours 0 minutes 8 seconds 500 msec
