                         Program Version 5.0.0 -  RELEASE  -
|  1> !LC-BLYP RIJCOSX def2-SVPD def2/J TightSCF
|  2> *xyz 0 1
|  3> C          4.60295       -2.44010        2.63478
|  4> C          3.86085       -1.59157        3.62289
|  5> C          2.75650       -2.04616        4.16633
|  6> N          4.25433       -0.36291        3.86046
|  7> H          3.56526        0.31099        4.16898
|  8> H          5.05429       -0.01606        3.33784
|  9> H          2.43970       -2.97389        3.89740
| 10> H          2.06687       -1.41253        4.54981
| 11> H          5.47239       -1.91604        2.29664
| 12> H          3.96816       -2.65362        1.80030
| 13> H          4.89801       -3.35632        3.10209
| 14> *
| 15>
| 16> %MaxCore 64000
| 17>
| 18> %pal nprocs 4
| 19> end
| 20>
| 21> %scf
| 22>   MaxIter 150
| 23> end
| 24>
| 25>
| 26>                          ****END OF INPUT****

CARTESIAN COORDINATES (ANGSTROEM)
---------------------------------
  C      4.602950   -2.440100    2.634780
  C      3.860850   -1.591570    3.622890
  C      2.756500   -2.046160    4.166330
  N      4.254330   -0.362910    3.860460
  H      3.565260    0.310990    4.168980
  H      5.054290   -0.016060    3.337840
  H      2.439700   -2.973890    3.897400
  H      2.066870   -1.412530    4.549810
  H      5.472390   -1.916040    2.296640
  H      3.968160   -2.653620    1.800300
  H      4.898010   -3.356320    3.102090

 Total Charge           Charge          ....    0
 Multiplicity           Mult            ....    1
 Number of Electrons    NEL             ....   32
 Basis Dimension        Dim             ....  136

ORBITAL ENERGIES
----------------

  NO   OCC          E(Eh)            E(eV)
   0   2.0000     -14.189941      -386.1279
   1   2.0000     -10.108980      -275.0793
   2   2.0000     -10.078183      -274.2413
   3   2.0000     -10.015453      -272.5343
   4   2.0000      -1.028546       -27.9882
   5   2.0000      -0.860475       -23.4147
   6   2.0000      -0.794105       -21.6087
   7   2.0000      -0.674368       -18.3505
   8   2.0000      -0.630754       -17.1637
   9   2.0000      -0.578067       -15.7300
  10   2.0000      -0.540461       -14.7067
  11   2.0000      -0.500739       -13.6258
  12   2.0000      -0.489345       -13.3158
  13   2.0000      -0.462539       -12.5863
  14   2.0000      -0.434180       -11.8146
  15   2.0000      -0.287057        -7.8112
  16   0.0000       0.071829         1.9546
  17   0.0000       0.108418         2.9502
  18   0.0000       0.112231         3.0540
  19   0.0000       0.113738         3.0950
  20   0.0000       0.147036         4.0011

MULLIKEN ATOMIC CHARGES
-----------------------
   0 C :    0.995122
   1 C :   -0.554623
   2 C :    0.480655
   3 N :    0.323322
   4 H :   -0.099064
   5 H :   -0.097265
   6 H :   -0.217188
   7 H :   -0.498115
   8 H :   -0.181992
   9 H :   -0.118096
  10 H :   -0.032755
Sum of atomic charges:   -0.0000000

LOEWDIN ATOMIC CHARGES
----------------------
   0 C :    0.157373
   1 C :   -0.305063
   2 C :    0.151259
   3 N :    0.174605
   4 H :    0.008438
   5 H :   -0.003376
   6 H :   -0.074195
   7 H :   -0.082876
   8 H :   -0.023678
   9 H :   -0.000757
  10 H :   -0.001729

  Mayer bond orders larger than 0.100000
B(  0-C ,  1-C ) :   1.2120 B(  0-C ,  8-H ) :   0.6220 B(  0-C ,  9-H ) :   0.7541
B(  0-C , 10-H ) :   0.6222 B(  1-C ,  2-C ) :   1.8688 B(  1-C ,  3-N ) :   1.1529
B(  1-C ,  6-H ) :   0.1485 B(  1-C ,  7-H ) :   0.1539 B(  1-C ,  8-H ) :   0.3554
B(  1-C ,  9-H ) :   0.1659 B(  1-C , 10-H ) :   0.2852 B(  2-C ,  3-N ) :   0.2572
B(  2-C ,  6-H ) :   0.7240 B(  2-C ,  7-H ) :   0.7587 B(  3-N ,  4-H ) :   1.1232
B(  3-N ,  5-H ) :   1.0338 B(  4-H ,  5-H ) :  -0.1307 B(  6-H ,  7-H ) :   0.1081
B(  8-H , 10-H ) :   0.1087

FINAL SINGLE POINT ENERGY      -172.640093957891

DIPOLE MOMENT
-------------
                                X             Y             Z
Electronic contribution:      0.12440       1.44725       1.06146
Nuclear contribution   :      0.22927      -0.89318      -1.58153
                        -----------------------------------------
Total Dipole Moment    :      0.35367       0.55407      -0.52007
                        -----------------------------------------
Magnitude (a.u.)       :      0.83818
Magnitude (Debye)      :      2.13048

Rotational constants in cm-1:     0.356805     0.302813     0.169682
Rotational constants in MHz : 10696.748191  9078.116910  5086.926242

                             ****ORCA TERMINATED NORMALLY****
TOTAL RUN TIME: 0 days 0 hours 0 minutes 12 seconds 294 msec
