                         Program Version 5.0.0 -  RELEASE  -
|  1> !LC-BLYP RIJCOSX def2-SVPD def2/J TightSCF
|  2> *xyz 0 1
|  3> C         -0.05915        1.50352        3.41058
|  4> C          1.08303        0.74964        4.08571
|  5> O          2.22817        1.26348        4.01983
|  6> F          0.81003       -0.34541        4.63627
|  7> H          0.31461        2.41205        2.98658
|  8> H         -0.81316        1.73160        4.13470
|  9> H         -0.47977        0.89552        2.63708
| 10> *
| 11>
| 12> %MaxCore 64000
| 13>
| 14> %pal nprocs 4
| 15> end
| 16>
| 17> %scf
| 18>   MaxIter 150
| 19> end
| 20>
| 21>
| 22>                          ****END OF INPUT****

CARTESIAN COORDINATES (ANGSTROEM)
---------------------------------
  C     -0.059150    1.503520    3.410580
  C      1.083030    0.749640    4.085710
  O      2.228170    1.263480    4.019830
  F      0.810030   -0.345410    4.636270
  H      0.314610    2.412050    2.986580
  H     -0.813160    1.731600    4.134700
  H     -0.479770    0.895520    2.637080

 Total Charge           Charge          ....    0
 Multiplicity           Mult            ....    1
 Number of Electrons    NEL             ....   32
 Basis Dimension        Dim             ....  110

ORBITAL ENERGIES
----------------

  NO   OCC          E(Eh)            E(eV)
   0   2.0000     -24.551841      -668.0896
   1   2.0000     -18.971000      -516.2271
   2   2.0000     -10.277788      -279.6728
   3   2.0000     -10.115168      -275.2477
   4   2.0000      -1.392337       -37.8874
   5   2.0000      -1.122853       -30.5544
   6   2.0000      -0.880094       -23.9486
   7   2.0000      -0.764954       -20.8155
   8   2.0000      -0.664166       -18.0729
   9   2.0000      -0.654958       -17.8223
  10   2.0000      -0.608505       -16.5583
  11   2.0000      -0.550638       -14.9836
  12   2.0000      -0.539688       -14.6856
  13   2.0000      -0.508137       -13.8271
  14   2.0000      -0.464379       -12.6364
  15   2.0000      -0.399426       -10.8689
  16   0.0000       0.050372         1.3707
  17   0.0000       0.061307         1.6682
  18   0.0000       0.103147         2.8068
  19   0.0000       0.134661         3.6643
  20   0.0000       0.142646         3.8816

MULLIKEN ATOMIC CHARGES
-----------------------
   0 C :    0.668189
   1 C :    0.184474
   2 O :   -0.320923
   3 F :   -0.277280
   4 H :   -0.125134
   5 H :   -0.065203
   6 H :   -0.064123
Sum of atomic charges:   -0.0000000

LOEWDIN ATOMIC CHARGES
----------------------
   0 C :    0.202860
   1 C :   -0.079484
   2 O :   -0.119264
   3 F :   -0.013869
   4 H :    0.003901
   5 H :    0.002429
   6 H :    0.003426

  Mayer bond orders larger than 0.100000
B(  0-C ,  1-C ) :   1.2216 B(  0-C ,  4-H ) :   0.8347 B(  0-C ,  5-H ) :   0.7653
B(  0-C ,  6-H ) :   0.7684 B(  1-C ,  2-O ) :   1.9692 B(  1-C ,  3-F ) :   0.8930
B(  1-C ,  4-H ) :   0.2450 B(  1-C ,  5-H ) :   0.1561 B(  1-C ,  6-H ) :   0.1535

FINAL SINGLE POINT ENERGY      -252.412913353815

DIPOLE MOMENT
-------------
                                X             Y             Z
Electronic contribution:      2.34831      -3.64044       2.56330
Nuclear contribution   :     -3.54758       3.66189      -2.81789
                        -----------------------------------------
Total Dipole Moment    :     -1.19927       0.02145      -0.25459
                        -----------------------------------------
Magnitude (a.u.)       :      1.22619
Magnitude (Debye)      :      3.11671

Rotational constants in cm-1:     0.369278     0.321254     0.177365
Rotational constants in MHz : 11070.686557  9630.951649  5317.254673

                             ****ORCA TERMINATED NORMALLY****
TOTAL RUN TIME: 0 days 0 hours 0 minutes 8 seconds 276 msec
