                         Program Version 5.0.0 -  RELEASE  -
|  1> !LC-BLYP RIJCOSX def2-SVPD def2/J TightSCF
|  2> *xyz 0 1
|  3> C          4.60295       -2.44010        2.63478
|  4> C          3.86085       -1.59157        3.62289
|  5> N          2.75650       -2.04616        4.16633
|  6> C          4.25433       -0.36291        3.86046
|  7> H          3.56526        0.31099        4.16898
|  8> H          5.05429       -0.01606        3.33784
|  9> H          2.43970       -2.97389        3.89740
| 10> H          2.06687       -1.41253        4.54981
| 11> H          5.47239       -1.91604        2.29664
| 12> H          3.96816       -2.65362        1.80030
| 13> H          4.89801       -3.35632        3.10209
| 14> *
| 15>
| 16> %MaxCore 64000
| 17>
| 18> %pal nprocs 4
| 19> end
| 20>
| 21> %scf
| 22>   MaxIter 150
| 23> end
| 24>
| 25>
| 26>                          ****END OF INPUT****

CARTESIAN COORDINATES (ANGSTROEM)
---------------------------------
  C      4.602950   -2.440100    2.634780
  C      3.860850   -1.591570    3.622890
  N      2.756500   -2.046160    4.166330
  C      4.254330   -0.362910    3.860460
  H      3.565260    0.310990    4.168980
  H      5.054290   -0.016060    3.337840
  H      2.439700   -2.973890    3.897400
  H      2.066870   -1.412530    4.549810
  H      5.472390   -1.916040    2.296640
  H      3.968160   -2.653620    1.800300
  H      4.898010   -3.356320    3.102090

 Total Charge           Charge          ....    0
 Multiplicity           Mult            ....    1
 Number of Electrons    NEL             ....   32
 Basis Dimension        Dim             ....  136

ORBITAL ENERGIES
----------------

  NO   OCC          E(Eh)            E(eV)
   0   2.0000     -14.190043      -386.1307
   1   2.0000     -10.110319      -275.1158
   2   2.0000     -10.077950      -274.2350
   3   2.0000     -10.017537      -272.5910
   4   2.0000      -1.027819       -27.9684
   5   2.0000      -0.861112       -23.4320
   6   2.0000      -0.795222       -21.6391
   7   2.0000      -0.677559       -18.4373
   8   2.0000      -0.629411       -17.1271
   9   2.0000      -0.577110       -15.7040
  10   2.0000      -0.542325       -14.7574
  11   2.0000      -0.500157       -13.6100
  12   2.0000      -0.490922       -13.3587
  13   2.0000      -0.461160       -12.5488
  14   2.0000      -0.432174       -11.7600
  15   2.0000      -0.289795        -7.8857
  16   0.0000       0.071927         1.9572
  17   0.0000       0.108789         2.9603
  18   0.0000       0.114267         3.1094
  19   0.0000       0.115255         3.1363
  20   0.0000       0.149319         4.0632

MULLIKEN ATOMIC CHARGES
-----------------------
   0 C :    0.990696
   1 C :   -0.625411
   2 N :    0.420807
   3 C :    0.492251
   4 H :   -0.498807
   5 H :   -0.175262
   6 H :   -0.146993
   7 H :   -0.187809
   8 H :   -0.046366
   9 H :   -0.124224
  10 H :   -0.098884
Sum of atomic charges:   -0.0000000

LOEWDIN ATOMIC CHARGES
----------------------
   0 C :    0.155856
   1 C :   -0.309340
   2 N :    0.173796
   3 C :    0.156915
   4 H :   -0.081461
   5 H :   -0.081472
   6 H :    0.002757
   7 H :    0.007906
   8 H :   -0.010502
   9 H :   -0.003960
  10 H :   -0.010493

  Mayer bond orders larger than 0.100000
B(  0-C ,  1-C ) :   1.3638 B(  0-C ,  8-H ) :   0.7507 B(  0-C ,  9-H ) :   0.6387
B(  0-C , 10-H ) :   0.5687 B(  1-C ,  2-N ) :   1.2225 B(  1-C ,  3-C ) :   1.8657
B(  1-C ,  4-H ) :   0.2035 B(  1-C ,  8-H ) :   0.2815 B(  1-C ,  9-H ) :   0.3031
B(  1-C , 10-H ) :   0.3323 B(  2-N ,  3-C ) :   0.2634 B(  2-N ,  6-H ) :   1.0821
B(  2-N ,  7-H ) :   1.1617 B(  3-C ,  4-H ) :   0.6924 B(  3-C ,  5-H ) :   0.8542
B(  4-H ,  5-H ) :   0.1242 B(  6-H ,  7-H ) :  -0.1361 B(  8-H ,  9-H ) :   0.1057
B(  8-H , 10-H ) :   0.1032

FINAL SINGLE POINT ENERGY      -172.641027808212

DIPOLE MOMENT
-------------
                                X             Y             Z
Electronic contribution:     -1.18555      -0.01193       1.35973
Nuclear contribution   :      0.56519      -0.51568      -1.65012
                        -----------------------------------------
Total Dipole Moment    :     -0.62036      -0.52761      -0.29040
                        -----------------------------------------
Magnitude (a.u.)       :      0.86461
Magnitude (Debye)      :      2.19767

Rotational constants in cm-1:     0.356673     0.303029     0.169717
Rotational constants in MHz : 10692.789749  9084.577259  5087.998414

                             ****ORCA TERMINATED NORMALLY****
TOTAL RUN TIME: 0 days 0 hours 0 minutes 13 seconds 78 msec
