                         Program Version 5.0.0 -  RELEASE  -
|  1> !LC-BLYP RIJCOSX def2-SVPD def2/J TightSCF xyzfile
|  2>
|  3> *xyzfile 0 1 D4.xyz
|  4>
|  5> %MaxCore 64000
|  6>
|  7> %pal nprocs 4
|  8> end
|  9>
| 10> %scf
| 11>   MaxIter 150
| 12> end
| 13>
| 14>
| 15>                          ****END OF INPUT****

CARTESIAN COORDINATES (ANGSTROEM)
---------------------------------
  C      4.602954   -2.440100    2.634780
  C     -0.914947    0.615112    2.505538
  C     -0.059146    1.503524    3.410578
  H      0.365364    2.344315    2.861161
  H     -0.692261    1.920207    4.198985
  C      1.083027    0.749640    4.085705
  C      3.860851   -1.591565    3.622893
  N      2.756502   -2.046159    4.166333
  C      4.254325   -0.362905    3.860455
  H      3.565256    0.310994    4.168983
  H      5.054292   -0.016059    3.337838
  H      2.439696   -2.973894    3.897395
  H      2.066869   -1.412532    4.549813
  O      2.228167    1.263475    4.019826
  F      0.810034   -0.345411    4.636269
  C      3.744685   -2.580557    1.361882
  C      0.772139    0.636882    0.562129
  C     -0.130740   -0.193985    1.470763
  H     -0.840563   -0.760165    0.856377
  H      0.466691   -0.938942    2.006959
  H     -1.647961    1.245963    1.991076
  H     -1.478180   -0.081046    3.130424
  C      3.203721   -1.256004    0.826211
  H      2.898939   -3.239289    1.583074
  H      4.334962   -3.095523    0.600188
  C      2.107815   -1.442385   -0.216865
  H      2.786775   -0.672760    1.650711
  H      4.021008   -0.652993    0.414046
  C      1.390662   -0.145912   -0.602422
  H      1.372179   -2.152184    0.176151
  H      2.523302   -1.906787   -1.117115
  H      1.561361    1.100094    1.161831
  H      0.195516    1.468325    0.142758
  H      0.602893   -0.398214   -1.319716
  H      2.087247    0.508272   -1.137335
  H      5.561557   -1.971347    2.407084
  H      4.810498   -3.422552    3.063099

 Total Charge           Charge          ....    0
 Multiplicity           Mult            ....    1
 Number of Electrons    NEL             ....  118
 Basis Dimension        Dim             ....  482

ORBITAL ENERGIES
----------------

  NO   OCC          E(Eh)            E(eV)
   0   2.0000     -24.576823      -668.7694
   1   2.0000     -18.982415      -516.5378
   2   2.0000     -14.167594      -385.5198
   3   2.0000     -10.287809      -279.9455
   4   2.0000     -10.124866      -275.5116
   5   2.0000     -10.108070      -275.0546
   6   2.0000     -10.093625      -274.6615
   7   2.0000     -10.084378      -274.4099
   8   2.0000     -10.082896      -274.3696
   9   2.0000     -10.079739      -274.2836
  10   2.0000     -10.074947      -274.1533
  11   2.0000     -10.074028      -274.1282
  12   2.0000     -10.069955      -274.0174
  13   2.0000     -10.066528      -273.9242
  14   2.0000      -9.982159      -271.6283
  15   2.0000      -1.419278       -38.6205
  16   2.0000      -1.140416       -31.0323
  17   2.0000      -1.010912       -27.5083
  18   2.0000      -0.942852       -25.6563
  19   2.0000      -0.912144       -24.8207
  20   2.0000      -0.885849       -24.1052
  21   2.0000      -0.847913       -23.0729
  22   2.0000      -0.822440       -22.3797
  23   2.0000      -0.797106       -21.6904
  24   2.0000      -0.786226       -21.3943
  25   2.0000      -0.753014       -20.4906
  26   2.0000      -0.722049       -19.6479
  27   2.0000      -0.697381       -18.9767
  28   2.0000      -0.688431       -18.7332
  29   2.0000      -0.681647       -18.5486
  30   2.0000      -0.659508       -17.9461
  31   2.0000      -0.647796       -17.6274
  32   2.0000      -0.625193       -17.0124
  33   2.0000      -0.607235       -16.5237
  34   2.0000      -0.596462       -16.2306
  35   2.0000      -0.592007       -16.1093
  36   2.0000      -0.567752       -15.4493
  37   2.0000      -0.553314       -15.0564
  38   2.0000      -0.547522       -14.8988
  39   2.0000      -0.541934       -14.7468
  40   2.0000      -0.527158       -14.3447
  41   2.0000      -0.519324       -14.1315
  42   2.0000      -0.513001       -13.9595
  43   2.0000      -0.495430       -13.4813
  44   2.0000      -0.485317       -13.2061
  45   2.0000      -0.478266       -13.0143
  46   2.0000      -0.475226       -12.9315
  47   2.0000      -0.462400       -12.5825
  48   2.0000      -0.457555       -12.4507
  49   2.0000      -0.448611       -12.2073
  50   2.0000      -0.445224       -12.1152
  51   2.0000      -0.430211       -11.7066
  52   2.0000      -0.423589       -11.5264
  53   2.0000      -0.420036       -11.4298
  54   2.0000      -0.409076       -11.1315
  55   2.0000      -0.406220       -11.0538
  56   2.0000      -0.401052       -10.9132
  57   2.0000      -0.369760       -10.0617
  58   2.0000      -0.265887        -7.2352
  59   0.0000       0.031173         0.8483
  60   0.0000       0.058644         1.5958
  61   0.0000       0.074563         2.0290
  62   0.0000       0.080854         2.2002
  63   0.0000       0.085918         2.3380

MULLIKEN ATOMIC CHARGES
-----------------------
   0 C :    0.821796
   1 C :    0.715614
   2 C :    0.366833
   3 H :    0.103020
   4 H :   -0.255399
   5 C :    0.391662
   6 C :   -0.666964
   7 N :    0.736684
   8 C :    1.233601
   9 H :   -0.991384
  10 H :   -0.221818
  11 H :    0.029519
  12 H :   -0.642396
  13 O :   -0.326905
  14 F :   -0.358277
  15 C :    0.362354
  16 C :   -0.004618
  17 C :    0.076734
  18 H :   -0.271094
  19 H :   -0.239754
  20 H :   -0.156311
  21 H :   -0.070764
  22 C :    0.545710
  23 H :    0.010921
  24 H :   -0.446377
  25 C :    0.187125
  26 H :   -0.725103
  27 H :   -0.084811
  28 C :    0.997105
  29 H :    0.089896
  30 H :   -0.467707
  31 H :    0.043916
  32 H :   -0.609470
  33 H :    0.003227
  34 H :   -0.092491
  35 H :    0.089696
  36 H :   -0.173769
Sum of atomic charges:   -0.0000000

LOEWDIN ATOMIC CHARGES
----------------------
   0 C :    0.005913
   1 C :   -0.033875
   2 C :    0.050224
   3 H :    0.041032
   4 H :    0.047569
   5 C :    0.011303
   6 C :   -0.274509
   7 N :    0.215646
   8 C :    0.187588
   9 H :   -0.173282
  10 H :   -0.066900
  11 H :    0.005051
  12 H :   -0.077611
  13 O :   -0.086320
  14 F :   -0.002875
  15 C :   -0.032851
  16 C :   -0.042948
  17 C :   -0.042507
  18 H :    0.037907
  19 H :    0.012869
  20 H :    0.034780
  21 H :    0.029602
  22 C :   -0.036992
  23 H :    0.014624
  24 H :    0.026931
  25 C :   -0.051618
  26 H :   -0.011557
  27 H :    0.045644
  28 C :   -0.038352
  29 H :    0.018425
  30 H :    0.029449
  31 H :    0.017484
  32 H :    0.030356
  33 H :    0.026200
  34 H :    0.029890
  35 H :    0.029216
  36 H :    0.024498

  Mayer bond orders larger than 0.100000
B(  0-C ,  6-C ) :   1.3442 B(  0-C ,  8-C ) :   0.1421 B(  0-C , 15-C ) :   1.0631
B(  0-C , 22-C ) :   0.1050 B(  0-C , 23-H ) :   0.1177 B(  0-C , 24-H ) :   0.1352
B(  0-C , 35-H ) :   0.6695 B(  0-C , 36-H ) :   0.4066 B(  1-C ,  2-C ) :   1.1404
B(  1-C ,  3-H ) :   0.1008 B(  1-C ,  4-H ) :   0.1804 B(  1-C ,  5-C ) :   0.1177
B(  1-C , 17-C ) :   1.1837 B(  1-C , 19-H ) :   0.1128 B(  1-C , 20-H ) :   0.6895
B(  1-C , 21-H ) :   0.5555 B(  1-C , 28-C ) :   0.1495 B(  2-C ,  3-H ) :   0.8413
B(  2-C ,  4-H ) :   0.6125 B(  2-C ,  5-C ) :   1.1692 B(  2-C , 17-C ) :   0.1644
B(  2-C , 20-H ) :   0.1810 B(  2-C , 21-H ) :   0.1106 B(  3-H ,  4-H ) :  -0.1038
B(  3-H ,  5-C ) :   0.1685 B(  4-H ,  5-C ) :   0.2754 B(  5-C , 13-O ) :   1.9266
B(  5-C , 14-F ) :   0.7189 B(  6-C ,  7-N ) :   1.0344 B(  6-C ,  8-C ) :   1.9849
B(  6-C ,  9-H ) :   0.4151 B(  6-C , 10-H ) :   0.3112 B(  6-C , 15-C ) :   0.1163
B(  6-C , 24-H ) :  -0.1402 B(  6-C , 35-H ) :   0.2217 B(  6-C , 36-H ) :   0.3601
B(  7-N ,  8-C ) :   0.4144 B(  7-N , 10-H ) :   0.1029 B(  7-N , 11-H ) :   0.9703
B(  7-N , 12-H ) :   1.0243 B(  8-C ,  9-H ) :  -0.2385 B(  8-C , 10-H ) :   0.5660
B(  8-C , 35-H ) :  -0.1047 B(  9-H , 13-O ) :   0.1714 B(  9-H , 24-H ) :  -0.1207
B( 10-H , 23-H ) :  -0.1025 B( 11-H , 12-H ) :  -0.2647 B( 12-H , 14-F ) :   0.1337
B( 13-O , 14-F ) :   0.1492 B( 15-C , 22-C ) :   1.1174 B( 15-C , 23-H ) :   0.7669
B( 15-C , 24-H ) :   0.8195 B( 15-C , 25-C ) :   0.1573 B( 15-C , 26-H ) :   0.2017
B( 15-C , 27-H ) :   0.1091 B( 15-C , 35-H ) :   0.1638 B( 15-C , 36-H ) :   0.2298
B( 16-C , 17-C ) :   1.2685 B( 16-C , 18-H ) :   0.1903 B( 16-C , 19-H ) :   0.1683
B( 16-C , 25-C ) :   0.2261 B( 16-C , 28-C ) :   1.0483 B( 16-C , 31-H ) :   0.8092
B( 16-C , 32-H ) :   1.0335 B( 16-C , 33-H ) :   0.1674 B( 16-C , 34-H ) :   0.3562
B( 17-C , 18-H ) :   0.8292 B( 17-C , 19-H ) :   0.8493 B( 17-C , 20-H ) :   0.2216
B( 17-C , 21-H ) :   0.3195 B( 17-C , 31-H ) :   0.1259 B( 17-C , 32-H ) :   0.1227
B( 20-H , 21-H ) :  -0.1739 B( 22-C , 23-H ) :   0.1326 B( 22-C , 24-H ) :   0.2174
B( 22-C , 25-C ) :   1.1505 B( 22-C , 26-H ) :   0.6033 B( 22-C , 27-H ) :   0.6466
B( 22-C , 29-H ) :   0.1478 B( 22-C , 30-H ) :   0.2712 B( 22-C , 31-H ) :  -0.1154
B( 25-C , 26-H ) :   0.1240 B( 25-C , 27-H ) :   0.1240 B( 25-C , 28-C ) :   1.1204
B( 25-C , 29-H ) :   0.7824 B( 25-C , 30-H ) :   0.8659 B( 25-C , 33-H ) :   0.2728
B( 25-C , 34-H ) :   0.1587 B( 26-H , 27-H ) :   0.2352 B( 26-H , 31-H ) :   0.2393
B( 26-H , 32-H ) :  -0.1558 B( 28-C , 29-H ) :   0.1052 B( 28-C , 33-H ) :   0.5619
B( 28-C , 34-H ) :   0.5149 B( 33-H , 34-H ) :  -0.1529

FINAL SINGLE POINT ENERGY      -698.037485029783

DIPOLE MOMENT
-------------
                                X             Y             Z
Electronic contribution:     -2.28661       3.59318      16.17972
Nuclear contribution   :      0.32481      -3.64700     -16.75441
                        -----------------------------------------
Total Dipole Moment    :     -1.96181      -0.05382      -0.57468
                        -----------------------------------------
Magnitude (a.u.)       :      2.04496
Magnitude (Debye)      :      5.19786

Rotational constants in cm-1:     0.021629     0.017327     0.011372
Rotational constants in MHz :   648.414821   519.443407   340.925013

                             ****ORCA TERMINATED NORMALLY****
TOTAL RUN TIME: 0 days 0 hours 4 minutes 57 seconds 733 msec
