                         Program Version 5.0.0 -  RELEASE  -
|  1> !CAM-B3LYP RIJCOSX def2-TZVPD def2/J TightSCF
|  2>
|  3> *xyz -1 1
|  4> C          2.95263        1.86308       -3.57485
|  5> C          4.12921        0.89839       -3.41895
|  6> H          3.73369       -0.10060       -3.23763
|  7> H          4.71910        0.86256       -4.33901
|  8> C          5.01734        1.31521       -2.22130
|  9> O          4.73706        0.85411       -1.12283
| 10> O          5.92815        2.16811       -2.49136
| 11> H          2.35067        1.56005       -4.40594
| 12> H          3.32277        2.85258       -3.74453
| 13> H          2.36134        1.85149       -2.68315
| 14> *
| 15> %MaxCore 64000
| 16>
| 17> %pal nprocs 4
| 18> end
| 19>
| 20> %scf
| 21>   MaxIter 150
| 22> end
| 23>
| 24>
| 25>                          ****END OF INPUT****

CARTESIAN COORDINATES (ANGSTROEM)
---------------------------------
  C      2.952630    1.863080   -3.574850
  C      4.129210    0.898390   -3.418950
  H      3.733690   -0.100600   -3.237630
  H      4.719100    0.862560   -4.339010
  C      5.017340    1.315210   -2.221300
  O      4.737060    0.854110   -1.122830
  O      5.928150    2.168110   -2.491360
  H      2.350670    1.560050   -4.405940
  H      3.322770    2.852580   -3.744530
  H      2.361340    1.851490   -2.683150

 Total Charge           Charge          ....   -1
 Multiplicity           Mult            ....    1
 Number of Electrons    NEL             ....   40
 Basis Dimension        Dim             ....  236

ORBITAL ENERGIES
----------------

  NO   OCC          E(Eh)            E(eV)
   0   2.0000     -18.940767      -515.4045
   1   2.0000     -18.929909      -515.1090
   2   2.0000     -10.129847      -275.6472
   3   2.0000     -10.080467      -274.3034
   4   2.0000     -10.067408      -273.9481
   5   2.0000      -0.909412       -24.7463
   6   2.0000      -0.810929       -22.0665
   7   2.0000      -0.688656       -18.7393
   8   2.0000      -0.549207       -14.9447
   9   2.0000      -0.394911       -10.7461
  10   2.0000      -0.362079        -9.8527
  11   2.0000      -0.332106        -9.0371
  12   2.0000      -0.300779        -8.1846
  13   2.0000      -0.281414        -7.6577
  14   2.0000      -0.280359        -7.6290
  15   2.0000      -0.245679        -6.6853
  16   2.0000      -0.235694        -6.4136
  17   2.0000      -0.114403        -3.1131
  18   2.0000      -0.106489        -2.8977
  19   2.0000      -0.096930        -2.6376
  20   0.0000       0.158688         4.3181
  21   0.0000       0.182457         4.9649
  22   0.0000       0.192295         5.2326
  23   0.0000       0.203665         5.5420
  24   0.0000       0.234524         6.3817

MULLIKEN ATOMIC CHARGES
-----------------------
   0 C :   -1.150602
   1 C :   -0.136378
   2 H :    0.226448
   3 H :    0.235103
   4 C :    0.364083
   5 O :   -0.668084
   6 O :   -0.742068
   7 H :    0.266851
   8 H :    0.302692
   9 H :    0.301954
Sum of atomic charges:   -1.0000000

LOEWDIN ATOMIC CHARGES
----------------------
   0 C :   -0.132569
   1 C :   -0.214843
   2 H :    0.085995
   3 H :    0.089540
   4 C :   -0.786542
   5 O :   -0.071851
   6 O :   -0.135387
   7 H :    0.043435
   8 H :    0.060894
   9 H :    0.061329

  Mayer bond orders larger than 0.100000
B(  0-C ,  1-C ) :   0.5139 B(  0-C ,  4-C ) :   0.1072 B(  0-C ,  7-H ) :   0.9515
B(  0-C ,  8-H ) :   0.9871 B(  0-C ,  9-H ) :   0.9838 B(  1-C ,  2-H ) :   0.9957
B(  1-C ,  3-H ) :   0.9834 B(  1-C ,  4-C ) :   0.8592 B(  4-C ,  5-O ) :   1.5349
B(  4-C ,  6-O ) :   1.4423

FINAL SINGLE POINT ENERGY      -267.835885497242

DIPOLE MOMENT
-------------
                                X             Y             Z
Electronic contribution:      4.39096      -0.21837       3.86984
Nuclear contribution   :     -5.85873      -0.10793      -5.24103
                        -----------------------------------------
Total Dipole Moment    :     -1.46777      -0.32630      -1.37119
                        -----------------------------------------
Magnitude (a.u.)       :      2.03494
Magnitude (Debye)      :      5.17240

Rotational constants in cm-1:     0.292505     0.135951     0.110253
Rotational constants in MHz :  8769.065873  4075.717001  3305.311891

                             ****ORCA TERMINATED NORMALLY****
TOTAL RUN TIME: 0 days 0 hours 0 minutes 42 seconds 722 msec
