                         Program Version 5.0.0 -  RELEASE  -
|  1> !CAM-B3LYP RIJCOSX def2-TZVPD def2/J TightSCF
|  2>
|  3> *xyz 1 1
|  4> C          3.34350        3.35457       -3.59200
|  5> C          2.95263        1.86308       -3.57485
|  6> C          4.25587        3.70385       -4.72605
|  7> N          3.73403        4.29378       -5.80077
|  8> N          5.51504        3.40725       -4.63718
|  9> H          6.14919        3.60120       -5.39905
| 10> H          5.81358        2.89950       -3.80879
| 11> H          2.74138        4.51311       -5.82470
| 12> H          4.28755        4.52126       -6.61434
| 13> H          3.86125        3.59725       -2.66298
| 14> H          2.44649        3.97346       -3.65656
| 15> H          2.44395        1.61721       -4.48352
| 16> H          2.30781        1.67290       -2.74242
| 17> H          3.83491        1.26414       -3.48670
| 18> *
| 19> %MaxCore 64000
| 20>
| 21> %pal nprocs 4
| 22> end
| 23>
| 24> %scf
| 25>   MaxIter 150
| 26> end
| 27>
| 28>
| 29>                          ****END OF INPUT****

CARTESIAN COORDINATES (ANGSTROEM)
---------------------------------
  C      3.343500    3.354570   -3.592000
  C      2.952630    1.863080   -3.574850
  C      4.255870    3.703850   -4.726050
  N      3.734030    4.293780   -5.800770
  N      5.515040    3.407250   -4.637180
  H      6.149190    3.601200   -5.399050
  H      5.813580    2.899500   -3.808790
  H      2.741380    4.513110   -5.824700
  H      4.287550    4.521260   -6.614340
  H      3.861250    3.597250   -2.662980
  H      2.446490    3.973460   -3.656560
  H      2.443950    1.617210   -4.483520
  H      2.307810    1.672900   -2.742420
  H      3.834910    1.264140   -3.486700

 Total Charge           Charge          ....    1
 Multiplicity           Mult            ....    1
 Number of Electrons    NEL             ....   40
 Basis Dimension        Dim             ....  266

ORBITAL ENERGIES
----------------

  NO   OCC          E(Eh)            E(eV)
   0   2.0000     -14.637878      -398.3169
   1   2.0000     -14.633081      -398.1864
   2   2.0000     -10.569953      -287.6230
   3   2.0000     -10.442633      -284.1585
   4   2.0000     -10.398389      -282.9545
   5   2.0000      -1.289650       -35.0932
   6   2.0000      -1.192508       -32.4498
   7   2.0000      -1.051744       -28.6194
   8   2.0000      -0.939385       -25.5620
   9   2.0000      -0.892303       -24.2808
  10   2.0000      -0.850909       -23.1544
  11   2.0000      -0.824752       -22.4426
  12   2.0000      -0.772099       -21.0099
  13   2.0000      -0.720709       -19.6115
  14   2.0000      -0.694692       -18.9035
  15   2.0000      -0.682885       -18.5822
  16   2.0000      -0.611315       -16.6347
  17   2.0000      -0.603178       -16.4133
  18   2.0000      -0.595552       -16.2058
  19   2.0000      -0.557508       -15.1706
  20   0.0000      -0.162445        -4.4203
  21   0.0000      -0.136368        -3.7108
  22   0.0000      -0.096049        -2.6136
  23   0.0000      -0.091014        -2.4766
  24   0.0000      -0.069978        -1.9042

MULLIKEN ATOMIC CHARGES
-----------------------
   0 C :   -0.576119
   1 C :   -1.072187
   2 C :    0.702925
   3 N :   -0.314687
   4 N :   -0.282999
   5 H :    0.212670
   6 H :    0.242733
   7 H :    0.229098
   8 H :    0.195230
   9 H :    0.317157
  10 H :    0.319973
  11 H :    0.344348
  12 H :    0.341836
  13 H :    0.340020
Sum of atomic charges:    1.0000000

LOEWDIN ATOMIC CHARGES
----------------------
   0 C :   -0.149740
   1 C :   -0.053106
   2 C :   -0.361502
   3 N :    0.225725
   4 N :    0.237163
   5 H :    0.151995
   6 H :    0.156153
   7 H :    0.147524
   8 H :    0.141904
   9 H :    0.132394
  10 H :    0.127156
  11 H :    0.082583
  12 H :    0.086394
  13 H :    0.075358

  Mayer bond orders larger than 0.100000
B(  0-C ,  1-C ) :   0.6194 B(  0-C ,  2-C ) :   0.7093 B(  0-C ,  9-H ) :   0.9624
B(  0-C , 10-H ) :   0.9539 B(  1-C , 11-H ) :   0.9594 B(  1-C , 12-H ) :   0.9695
B(  1-C , 13-H ) :   0.9146 B(  2-C ,  3-N ) :   1.1301 B(  2-C ,  4-N ) :   1.2318
B(  3-N ,  7-H ) :   0.9517 B(  3-N ,  8-H ) :   1.0301 B(  4-N ,  5-H ) :   0.9987
B(  4-N ,  6-H ) :   0.9347

FINAL SINGLE POINT ENERGY      -228.998684041650

DIPOLE MOMENT
-------------
                                X             Y             Z
Electronic contribution:      2.36850       2.57149      -2.26949
Nuclear contribution   :     -1.74195      -2.09431       1.58516
                        -----------------------------------------
Total Dipole Moment    :      0.62656       0.47718      -0.68433
                        -----------------------------------------
Magnitude (a.u.)       :      1.04335
Magnitude (Debye)      :      2.65199

Rotational constants in cm-1:     0.258965     0.126500     0.098780
Rotational constants in MHz :  7763.584551  3792.383135  2961.336502

                             ****ORCA TERMINATED NORMALLY****
TOTAL RUN TIME: 0 days 0 hours 1 minutes 0 seconds 578 msec
