                         Program Version 5.0.0 -  RELEASE  -
|  1> !CAM-B3LYP RIJCOSX def2-TZVPD def2/J TightSCF xyzfile
|  2>
|  3> *xyzfile 0 1 B.xyz
|  4>
|  5> %MaxCore 64000
|  6>
|  7> %pal nprocs 4
|  8> end
|  9>
| 10> %scf
| 11>   MaxIter 150
| 12> end
| 13>
| 14>
| 15>                          ****END OF INPUT****

CARTESIAN COORDINATES (ANGSTROEM)
---------------------------------
  C      3.343500    3.354571   -3.591998
  C      2.952633    1.863077   -3.574849
  C      4.129209    0.898394   -3.418950
  H      3.733687   -0.100605   -3.237633
  H      4.719095    0.862556   -4.339005
  C      5.017344    1.315212   -2.221305
  C      4.255868    3.703851   -4.726054
  N      3.734032    4.293783   -5.800770
  N      5.515039    3.407255   -4.637185
  H      6.149187    3.601203   -5.399053
  H      5.813584    2.899504   -3.808785
  H      2.741380    4.513109   -5.824701
  H      4.287548    4.521260   -6.614341
  H      2.278938    1.735250   -2.725496
  H      2.377466    1.625787   -4.475869
  O      4.737055    0.854112   -1.122825
  O      5.928146    2.168108   -2.491365
  H      3.861246    3.597252   -2.662979
  H      2.446493    3.973461   -3.656556

 Total Charge           Charge          ....    0
 Multiplicity           Mult            ....    1
 Number of Electrons    NEL             ....   70
 Basis Dimension        Dim             ....  429

ORBITAL ENERGIES
----------------

  NO   OCC          E(Eh)            E(eV)
   0   2.0000     -19.108125      -519.9585
   1   2.0000     -19.096330      -519.6376
   2   2.0000     -14.488805      -394.2604
   3   2.0000     -14.449278      -393.1849
   4   2.0000     -10.410544      -283.2853
   5   2.0000     -10.295157      -280.1455
   6   2.0000     -10.289011      -279.9782
   7   2.0000     -10.264251      -279.3045
   8   2.0000     -10.223861      -278.2054
   9   2.0000      -1.131095       -30.7787
  10   2.0000      -1.076835       -29.3022
  11   2.0000      -1.033678       -28.1278
  12   2.0000      -0.986055       -26.8319
  13   2.0000      -0.908064       -24.7097
  14   2.0000      -0.820260       -22.3204
  15   2.0000      -0.755047       -20.5459
  16   2.0000      -0.709956       -19.3189
  17   2.0000      -0.693018       -18.8580
  18   2.0000      -0.662982       -18.0406
  19   2.0000      -0.616588       -16.7782
  20   2.0000      -0.574954       -15.6453
  21   2.0000      -0.557855       -15.1800
  22   2.0000      -0.533957       -14.5297
  23   2.0000      -0.520181       -14.1548
  24   2.0000      -0.494822       -13.4648
  25   2.0000      -0.469168       -12.7667
  26   2.0000      -0.448095       -12.1933
  27   2.0000      -0.442354       -12.0371
  28   2.0000      -0.436233       -11.8705
  29   2.0000      -0.406854       -11.0711
  30   2.0000      -0.396652       -10.7934
  31   2.0000      -0.395687       -10.7672
  32   2.0000      -0.285222        -7.7613
  33   2.0000      -0.281140        -7.6502
  34   2.0000      -0.260256        -7.0819
  35   0.0000      -0.016273        -0.4428
  36   0.0000      -0.009214        -0.2507
  37   0.0000       0.021004         0.5715
  38   0.0000       0.039751         1.0817
  39   0.0000       0.045276         1.2320

MULLIKEN ATOMIC CHARGES
-----------------------
   0 C :   -0.632334
   1 C :   -0.606222
   2 C :   -0.449421
   3 H :    0.272282
   4 H :    0.291515
   5 C :    0.424680
   6 C :    0.481348
   7 N :   -0.324089
   8 N :   -0.239621
   9 H :    0.153872
  10 H :    0.373890
  11 H :    0.213919
  12 H :    0.174359
  13 H :    0.330054
  14 H :    0.242835
  15 O :   -0.611336
  16 O :   -0.787043
  17 H :    0.369424
  18 H :    0.321889
Sum of atomic charges:    0.0000000

LOEWDIN ATOMIC CHARGES
----------------------
   0 C :   -0.106597
   1 C :   -0.175994
   2 C :   -0.129403
   3 H :    0.113050
   4 H :    0.103230
   5 C :   -0.697331
   6 C :   -0.358475
   7 N :    0.185719
   8 N :    0.233553
   9 H :    0.141522
  10 H :    0.022334
  11 H :    0.129252
  12 H :    0.124888
  13 H :    0.122186
  14 H :    0.110809
  15 O :    0.011272
  16 O :   -0.084280
  17 H :    0.134926
  18 H :    0.119338

  Mayer bond orders larger than 0.100000
B(  0-C ,  1-C ) :   0.6963 B(  0-C ,  6-C ) :   0.6902 B(  0-C , 17-H ) :   0.9329
B(  0-C , 18-H ) :   0.9650 B(  1-C ,  2-C ) :   0.7689 B(  1-C ,  6-C ) :   0.1238
B(  1-C , 13-H ) :   0.9221 B(  1-C , 14-H ) :   0.9805 B(  2-C ,  3-H ) :   0.9933
B(  2-C ,  4-H ) :   0.9457 B(  2-C ,  5-C ) :   0.8794 B(  2-C ,  8-N ) :   0.1060
B(  5-C , 15-O ) :   1.6050 B(  5-C , 16-O ) :   1.2799 B(  6-C ,  7-N ) :   1.0391
B(  6-C ,  8-N ) :   1.3442 B(  7-N , 11-H ) :   0.9752 B(  7-N , 12-H ) :   1.0269
B(  8-N ,  9-H ) :   1.0372 B(  8-N , 10-H ) :   0.7068 B(  8-N , 16-O ) :  -0.1142
B( 10-H , 16-O ) :   0.1325

FINAL SINGLE POINT ENERGY      -456.492882723019

DIPOLE MOMENT
-------------
                                X             Y             Z
Electronic contribution:      3.87165       0.02534       2.57010
Nuclear contribution   :     -5.42217       2.65262      -7.07590
                        -----------------------------------------
Total Dipole Moment    :     -1.55052       2.67796      -4.50580
                        -----------------------------------------
Magnitude (a.u.)       :      5.46606
Magnitude (Debye)      :     13.89363

Rotational constants in cm-1:     0.107541     0.035862     0.030371
Rotational constants in MHz :  3223.996852  1075.120464   910.508313

                             ****ORCA TERMINATED NORMALLY****
TOTAL RUN TIME: 0 days 0 hours 3 minutes 18 seconds 891 msec
