                         Program Version 5.0.0 -  RELEASE  -
|  1> !CAM-B3LYP RIJCOSX def2-TZVPD def2/J TightSCF
|  2>
|  3> *xyz 0 1
|  4> C          2.95263        1.86308       -3.57485
|  5> C          4.12921        0.89839       -3.41895
|  6> H          3.73369       -0.10060       -3.23763
|  7> H          4.71910        0.86256       -4.33901
|  8> C          5.01734        1.31521       -2.22130
|  9> F          4.73706        0.85411       -1.12283
| 10> O          5.92815        2.16811       -2.49136
| 11> H          2.35067        1.56005       -4.40594
| 12> H          3.32277        2.85258       -3.74453
| 13> H          2.36134        1.85149       -2.68315
| 14> *
| 15> %MaxCore 64000
| 16>
| 17> %pal nprocs 4
| 18> end
| 19>
| 20> %scf
| 21>   MaxIter 150
| 22> end
| 23>
| 24>
| 25>                          ****END OF INPUT****

CARTESIAN COORDINATES (ANGSTROEM)
---------------------------------
  C      2.952630    1.863080   -3.574850
  C      4.129210    0.898390   -3.418950
  H      3.733690   -0.100600   -3.237630
  H      4.719100    0.862560   -4.339010
  C      5.017340    1.315210   -2.221300
  F      4.737060    0.854110   -1.122830
  O      5.928150    2.168110   -2.491360
  H      2.350670    1.560050   -4.405940
  H      3.322770    2.852580   -3.744530
  H      2.361340    1.851490   -2.683150

 Total Charge           Charge          ....    0
 Multiplicity           Mult            ....    1
 Number of Electrons    NEL             ....   40
 Basis Dimension        Dim             ....  236

ORBITAL ENERGIES
----------------

  NO   OCC          E(Eh)            E(eV)
   0   2.0000     -24.843108      -676.0153
   1   2.0000     -19.204116      -522.5706
   2   2.0000     -10.431019      -283.8424
   3   2.0000     -10.275867      -279.6206
   4   2.0000     -10.250950      -278.9425
   5   2.0000      -1.429927       -38.9103
   6   2.0000      -1.104491       -30.0547
   7   2.0000      -0.885839       -24.1049
   8   2.0000      -0.774308       -21.0700
   9   2.0000      -0.728113       -19.8130
  10   2.0000      -0.641801       -17.4643
  11   2.0000      -0.627294       -17.0695
  12   2.0000      -0.582041       -15.8381
  13   2.0000      -0.537538       -14.6272
  14   2.0000      -0.506948       -13.7948
  15   2.0000      -0.469061       -12.7638
  16   2.0000      -0.447677       -12.1819
  17   2.0000      -0.440228       -11.9792
  18   2.0000      -0.411088       -11.1863
  19   2.0000      -0.355335        -9.6692
  20   0.0000       0.014730         0.4008
  21   0.0000       0.029373         0.7993
  22   0.0000       0.052931         1.4403
  23   0.0000       0.061607         1.6764
  24   0.0000       0.071501         1.9456

MULLIKEN ATOMIC CHARGES
-----------------------
   0 C :   -1.159729
   1 C :   -0.199026
   2 H :    0.273302
   3 H :    0.263161
   4 C :    0.535034
   5 F :   -0.184059
   6 O :   -0.500341
   7 H :    0.294310
   8 H :    0.338203
   9 H :    0.339146
Sum of atomic charges:    0.0000000

LOEWDIN ATOMIC CHARGES
----------------------
   0 C :   -0.092437
   1 C :   -0.157799
   2 H :    0.107362
   3 H :    0.118483
   4 C :   -0.500444
   5 F :    0.248606
   6 O :    0.055690
   7 H :    0.070338
   8 H :    0.076535
   9 H :    0.073667

  Mayer bond orders larger than 0.100000
B(  0-C ,  1-C ) :   0.5609 B(  0-C ,  7-H ) :   0.9670 B(  0-C ,  8-H ) :   0.9712
B(  0-C ,  9-H ) :   0.9298 B(  1-C ,  2-H ) :   0.9630 B(  1-C ,  3-H ) :   0.9754
B(  1-C ,  4-C ) :   0.8595 B(  4-C ,  5-F ) :   1.0542 B(  4-C ,  6-O ) :   1.7400

FINAL SINGLE POINT ENERGY      -292.392354044956

DIPOLE MOMENT
-------------
                                X             Y             Z
Electronic contribution:      5.03134      -1.19561       6.50726
Nuclear contribution   :     -6.06116       0.51860      -6.80802
                        -----------------------------------------
Total Dipole Moment    :     -1.02981      -0.67701      -0.30076
                        -----------------------------------------
Magnitude (a.u.)       :      1.26859
Magnitude (Debye)      :      3.22449

Rotational constants in cm-1:     0.276196     0.132056     0.105465
Rotational constants in MHz :  8280.156449  3958.940601  3161.775929

                             ****ORCA TERMINATED NORMALLY****
TOTAL RUN TIME: 0 days 0 hours 0 minutes 45 seconds 35 msec
