                         Program Version 5.0.0 -  RELEASE  -
|  1> !CAM-B3LYP RIJCOSX def2-TZVPD def2/J TightSCF
|  2>
|  3> *xyz 0 1
|  4> C          3.34350        3.35457       -3.59200
|  5> C          2.95263        1.86308       -3.57485
|  6> C          4.25587        3.70385       -4.72605
|  7> C          3.73403        4.29378       -5.80077
|  8> N          5.51504        3.40725       -4.63718
|  9> H          6.14919        3.60120       -5.39905
| 10> H          5.81358        2.89950       -3.80879
| 11> H          2.74138        4.51311       -5.82470
| 12> H          4.28755        4.52126       -6.61434
| 13> H          3.86125        3.59725       -2.66298
| 14> H          2.44649        3.97346       -3.65656
| 15> H          2.44395        1.61721       -4.48352
| 16> H          2.30781        1.67290       -2.74242
| 17> H          3.83491        1.26414       -3.48670
| 18> *
| 19> %MaxCore 64000
| 20>
| 21> %pal nprocs 4
| 22> end
| 23>
| 24> %scf
| 25>   MaxIter 150
| 26> end
| 27>
| 28>
| 29>                          ****END OF INPUT****

CARTESIAN COORDINATES (ANGSTROEM)
---------------------------------
  C      3.343500    3.354570   -3.592000
  C      2.952630    1.863080   -3.574850
  C      4.255870    3.703850   -4.726050
  C      3.734030    4.293780   -5.800770
  N      5.515040    3.407250   -4.637180
  H      6.149190    3.601200   -5.399050
  H      5.813580    2.899500   -3.808790
  H      2.741380    4.513110   -5.824700
  H      4.287550    4.521260   -6.614340
  H      3.861250    3.597250   -2.662980
  H      2.446490    3.973460   -3.656560
  H      2.443950    1.617210   -4.483520
  H      2.307810    1.672900   -2.742420
  H      3.834910    1.264140   -3.486700

 Total Charge           Charge          ....    0
 Multiplicity           Mult            ....    1
 Number of Electrons    NEL             ....   40
 Basis Dimension        Dim             ....  266

ORBITAL ENERGIES
----------------

  NO   OCC          E(Eh)            E(eV)
   0   2.0000     -14.392563      -391.6416
   1   2.0000     -10.264662      -279.3157
   2   2.0000     -10.242784      -278.7203
   3   2.0000     -10.228467      -278.3307
   4   2.0000     -10.173467      -276.8341
   5   2.0000      -1.021522       -27.7970
   6   2.0000      -0.861019       -23.4295
   7   2.0000      -0.794932       -21.6312
   8   2.0000      -0.714832       -19.4516
   9   2.0000      -0.644361       -17.5339
  10   2.0000      -0.604382       -16.4461
  11   2.0000      -0.551220       -14.9995
  12   2.0000      -0.507683       -13.8148
  13   2.0000      -0.491027       -13.3615
  14   2.0000      -0.461846       -12.5675
  15   2.0000      -0.450569       -12.2606
  16   2.0000      -0.420235       -11.4352
  17   2.0000      -0.399646       -10.8749
  18   2.0000      -0.397817       -10.8252
  19   2.0000      -0.246154        -6.6982
  20   0.0000       0.029354         0.7988
  21   0.0000       0.055632         1.5138
  22   0.0000       0.062193         1.6924
  23   0.0000       0.064815         1.7637
  24   0.0000       0.088079         2.3967

MULLIKEN ATOMIC CHARGES
-----------------------
   0 C :   -0.606412
   1 C :   -1.025457
   2 C :    0.783853
   3 C :   -1.178371
   4 N :   -0.352919
   5 H :    0.166052
   6 H :    0.174489
   7 H :    0.253047
   8 H :    0.284176
   9 H :    0.309988
  10 H :    0.261707
  11 H :    0.314525
  12 H :    0.309125
  13 H :    0.306198
Sum of atomic charges:    0.0000000

LOEWDIN ATOMIC CHARGES
----------------------
   0 C :   -0.203073
   1 C :   -0.091159
   2 C :   -0.510681
   3 C :    0.021242
   4 N :    0.108044
   5 H :    0.117369
   6 H :    0.113134
   7 H :    0.018411
   8 H :    0.013981
   9 H :    0.108763
  10 H :    0.110067
  11 H :    0.070853
  12 H :    0.062419
  13 H :    0.060630

  Mayer bond orders larger than 0.100000
B(  0-C ,  1-C ) :   0.5997 B(  0-C ,  2-C ) :   0.6562 B(  0-C ,  4-N ) :   0.1030
B(  0-C ,  9-H ) :   0.9917 B(  0-C , 10-H ) :   0.9883 B(  1-C , 11-H ) :   0.9979
B(  1-C , 12-H ) :   0.9697 B(  1-C , 13-H ) :   0.9420 B(  2-C ,  3-C ) :   1.1606
B(  2-C ,  4-N ) :   0.9829 B(  2-C ,  8-H ) :  -0.1218 B(  3-C ,  7-H ) :   1.0117
B(  3-C ,  8-H ) :   1.0457 B(  4-N ,  5-H ) :   1.0136 B(  4-N ,  6-H ) :   1.0102

FINAL SINGLE POINT ENERGY      -212.525522647854

DIPOLE MOMENT
-------------
                                X             Y             Z
Electronic contribution:      2.32008       1.47527      -0.84971
Nuclear contribution   :     -1.79713      -1.86925       1.28073
                        -----------------------------------------
Total Dipole Moment    :      0.52295      -0.39397       0.43103
                        -----------------------------------------
Magnitude (a.u.)       :      0.78389
Magnitude (Debye)      :      1.99248

Rotational constants in cm-1:     0.269040     0.129645     0.102087
Rotational constants in MHz :  8065.609820  3886.645139  3060.489045

                             ****ORCA TERMINATED NORMALLY****
TOTAL RUN TIME: 0 days 0 hours 1 minutes 1 seconds 769 msec
