                         Program Version 5.0.0 -  RELEASE  -
|  1> !CAM-B3LYP RIJCOSX def2-TZVPD def2/J TightSCF
|  2>
|  3> *xyz 0 1
|  4> C          2.95263        1.86308       -3.57485
|  5> C          4.12921        0.89839       -3.41895
|  6> H          3.73369       -0.10060       -3.23763
|  7> H          4.71910        0.86256       -4.33901
|  8> C          5.01734        1.31521       -2.22130
|  9> O          4.73706        0.85411       -1.12283
| 10> F          5.92815        2.16811       -2.49136
| 11> H          2.35067        1.56005       -4.40594
| 12> H          3.32277        2.85258       -3.74453
| 13> H          2.36134        1.85149       -2.68315
| 14> *
| 15> %MaxCore 64000
| 16>
| 17> %pal nprocs 4
| 18> end
| 19>
| 20> %scf
| 21>   MaxIter 150
| 22> end
| 23>
| 24>
| 25>                          ****END OF INPUT****

CARTESIAN COORDINATES (ANGSTROEM)
---------------------------------
  C      2.952630    1.863080   -3.574850
  C      4.129210    0.898390   -3.418950
  H      3.733690   -0.100600   -3.237630
  H      4.719100    0.862560   -4.339010
  C      5.017340    1.315210   -2.221300
  O      4.737060    0.854110   -1.122830
  F      5.928150    2.168110   -2.491360
  H      2.350670    1.560050   -4.405940
  H      3.322770    2.852580   -3.744530
  H      2.361340    1.851490   -2.683150

 Total Charge           Charge          ....    0
 Multiplicity           Mult            ....    1
 Number of Electrons    NEL             ....   40
 Basis Dimension        Dim             ....  236

ORBITAL ENERGIES
----------------

  NO   OCC          E(Eh)            E(eV)
   0   2.0000     -24.822015      -675.4414
   1   2.0000     -19.213528      -522.8267
   2   2.0000     -10.426350      -283.7154
   3   2.0000     -10.275390      -279.6076
   4   2.0000     -10.251157      -278.9482
   5   2.0000      -1.389339       -37.8058
   6   2.0000      -1.138418       -30.9779
   7   2.0000      -0.885501       -24.0957
   8   2.0000      -0.763142       -20.7661
   9   2.0000      -0.714713       -19.4483
  10   2.0000      -0.620928       -16.8963
  11   2.0000      -0.606949       -16.5159
  12   2.0000      -0.582127       -15.8405
  13   2.0000      -0.536860       -14.6087
  14   2.0000      -0.510673       -13.8961
  15   2.0000      -0.473778       -12.8922
  16   2.0000      -0.455557       -12.3963
  17   2.0000      -0.440192       -11.9782
  18   2.0000      -0.427680       -11.6378
  19   2.0000      -0.365845        -9.9552
  20   0.0000       0.018580         0.5056
  21   0.0000       0.031549         0.8585
  22   0.0000       0.053219         1.4482
  23   0.0000       0.062922         1.7122
  24   0.0000       0.070981         1.9315

MULLIKEN ATOMIC CHARGES
-----------------------
   0 C :   -1.156548
   1 C :   -0.203839
   2 H :    0.253591
   3 H :    0.283797
   4 C :    0.514101
   5 O :   -0.445593
   6 F :   -0.215302
   7 H :    0.293291
   8 H :    0.335426
   9 H :    0.341076
Sum of atomic charges:   -0.0000000

LOEWDIN ATOMIC CHARGES
----------------------
   0 C :   -0.092416
   1 C :   -0.156087
   2 H :    0.114919
   3 H :    0.111573
   4 C :   -0.494211
   5 O :    0.111401
   6 F :    0.184230
   7 H :    0.070315
   8 H :    0.073294
   9 H :    0.076984

  Mayer bond orders larger than 0.100000
B(  0-C ,  1-C ) :   0.5614 B(  0-C ,  7-H ) :   0.9670 B(  0-C ,  8-H ) :   0.9330
B(  0-C ,  9-H ) :   0.9678 B(  1-C ,  2-H ) :   0.9840 B(  1-C ,  3-H ) :   0.9529
B(  1-C ,  4-C ) :   0.8552 B(  4-C ,  5-O ) :   1.8091 B(  4-C ,  6-F ) :   0.9912

FINAL SINGLE POINT ENERGY      -292.408924090092

DIPOLE MOMENT
-------------
                                X             Y             Z
Electronic contribution:      7.02518       1.00379       4.21068
Nuclear contribution   :     -7.35982      -0.91407      -5.31589
                        -----------------------------------------
Total Dipole Moment    :     -0.33463       0.08972      -1.10522
                        -----------------------------------------
Magnitude (a.u.)       :      1.15825
Magnitude (Debye)      :      2.94403

Rotational constants in cm-1:     0.275433     0.132201     0.105422
Rotational constants in MHz :  8257.268192  3963.279062  3160.465566

                             ****ORCA TERMINATED NORMALLY****
TOTAL RUN TIME: 0 days 0 hours 0 minutes 45 seconds 201 msec
