                         Program Version 5.0.0 -  RELEASE  -
|  1> !CAM-B3LYP RIJCOSX def2-TZVPD def2/J TightSCF
|  2>
|  3> *xyz 0 1
|  4> C          3.34350        3.35457       -3.59200
|  5> C          2.95263        1.86308       -3.57485
|  6> C          4.25587        3.70385       -4.72605
|  7> N          3.73403        4.29378       -5.80077
|  8> C          5.51504        3.40725       -4.63718
|  9> H          6.14919        3.60120       -5.39905
| 10> H          5.81358        2.89950       -3.80879
| 11> H          2.74138        4.51311       -5.82470
| 12> H          4.28755        4.52126       -6.61434
| 13> H          3.86125        3.59725       -2.66298
| 14> H          2.44649        3.97346       -3.65656
| 15> H          2.44395        1.61721       -4.48352
| 16> H          2.30781        1.67290       -2.74242
| 17> H          3.83491        1.26414       -3.48670
| 18> *
| 19> %MaxCore 64000
| 20>
| 21> %pal nprocs 4
| 22> end
| 23>
| 24> %scf
| 25>   MaxIter 150
| 26> end
| 27>
| 28>
| 29>                          ****END OF INPUT****

CARTESIAN COORDINATES (ANGSTROEM)
---------------------------------
  C      3.343500    3.354570   -3.592000
  C      2.952630    1.863080   -3.574850
  C      4.255870    3.703850   -4.726050
  N      3.734030    4.293780   -5.800770
  C      5.515040    3.407250   -4.637180
  H      6.149190    3.601200   -5.399050
  H      5.813580    2.899500   -3.808790
  H      2.741380    4.513110   -5.824700
  H      4.287550    4.521260   -6.614340
  H      3.861250    3.597250   -2.662980
  H      2.446490    3.973460   -3.656560
  H      2.443950    1.617210   -4.483520
  H      2.307810    1.672900   -2.742420
  H      3.834910    1.264140   -3.486700

 Total Charge           Charge          ....    0
 Multiplicity           Mult            ....    1
 Number of Electrons    NEL             ....   40
 Basis Dimension        Dim             ....  266

ORBITAL ENERGIES
----------------

  NO   OCC          E(Eh)            E(eV)
   0   2.0000     -14.388611      -391.5340
   1   2.0000     -10.261879      -279.2399
   2   2.0000     -10.242234      -278.7053
   3   2.0000     -10.226302      -278.2718
   4   2.0000     -10.171959      -276.7931
   5   2.0000      -1.006667       -27.3928
   6   2.0000      -0.863480       -23.4965
   7   2.0000      -0.798843       -21.7376
   8   2.0000      -0.715969       -19.4825
   9   2.0000      -0.637739       -17.3538
  10   2.0000      -0.591940       -16.1075
  11   2.0000      -0.554984       -15.1019
  12   2.0000      -0.509642       -13.8681
  13   2.0000      -0.483929       -13.1684
  14   2.0000      -0.461878       -12.5684
  15   2.0000      -0.451045       -12.2736
  16   2.0000      -0.415592       -11.3088
  17   2.0000      -0.403476       -10.9791
  18   2.0000      -0.394413       -10.7325
  19   2.0000      -0.251243        -6.8367
  20   0.0000       0.030771         0.8373
  21   0.0000       0.055196         1.5020
  22   0.0000       0.061252         1.6667
  23   0.0000       0.066311         1.8044
  24   0.0000       0.089433         2.4336

MULLIKEN ATOMIC CHARGES
-----------------------
   0 C :   -0.586235
   1 C :   -1.034226
   2 C :    0.780179
   3 N :   -0.374049
   4 C :   -1.152669
   5 H :    0.297939
   6 H :    0.275803
   7 H :    0.166510
   8 H :    0.141681
   9 H :    0.265210
  10 H :    0.298631
  11 H :    0.300665
  12 H :    0.303108
  13 H :    0.317452
Sum of atomic charges:   -0.0000000

LOEWDIN ATOMIC CHARGES
----------------------
   0 C :   -0.201835
   1 C :   -0.090192
   2 C :   -0.498703
   3 N :    0.099551
   4 C :    0.012713
   5 H :    0.025143
   6 H :    0.031977
   7 H :    0.102192
   8 H :    0.106179
   9 H :    0.112412
  10 H :    0.104581
  11 H :    0.068440
  12 H :    0.061804
  13 H :    0.065737

  Mayer bond orders larger than 0.100000
B(  0-C ,  1-C ) :   0.5970 B(  0-C ,  2-C ) :   0.5966 B(  0-C ,  4-C ) :   0.1081
B(  0-C ,  9-H ) :   0.9964 B(  0-C , 10-H ) :   1.0190 B(  1-C , 11-H ) :   0.9705
B(  1-C , 12-H ) :   0.9656 B(  1-C , 13-H ) :   0.9651 B(  2-C ,  3-N ) :   0.8796
B(  2-C ,  4-C ) :   1.2460 B(  2-C ,  5-H ) :  -0.1093 B(  3-N ,  7-H ) :   1.0290
B(  3-N ,  8-H ) :   1.0529 B(  4-C ,  5-H ) :   1.0248 B(  4-C ,  6-H ) :   0.9795

FINAL SINGLE POINT ENERGY      -212.526139409624

DIPOLE MOMENT
-------------
                                X             Y             Z
Electronic contribution:      0.78400       2.25950      -1.84801
Nuclear contribution   :     -1.38463      -2.07457       1.55023
                        -----------------------------------------
Total Dipole Moment    :     -0.60063       0.18492      -0.29778
                        -----------------------------------------
Magnitude (a.u.)       :      0.69543
Magnitude (Debye)      :      1.76765

Rotational constants in cm-1:     0.272312     0.128195     0.101724
Rotational constants in MHz :  8163.717141  3843.180148  3049.598073

                             ****ORCA TERMINATED NORMALLY****
TOTAL RUN TIME: 0 days 0 hours 1 minutes 1 seconds 778 msec
