                         Program Version 5.0.0 -  RELEASE  -
|  1> !CAM-B3LYP RIJCOSX def2-TZVPD def2/J TightSCF xyzfile
|  2>
|  3> *xyzfile 0 1 D1.xyz
|  4>
|  5> %MaxCore 64000
|  6>
|  7> %pal nprocs 4
|  8> end
|  9>
| 10> %scf
| 11>   MaxIter 150
| 12> end
| 13>
| 14>
| 15>                          ****END OF INPUT****

CARTESIAN COORDINATES (ANGSTROEM)
---------------------------------
  C      3.343500    3.354571   -3.591998
  C      2.952633    1.863077   -3.574849
  C      4.129209    0.898394   -3.418950
  H      3.733687   -0.100605   -3.237633
  H      4.719095    0.862556   -4.339005
  C      5.017344    1.315212   -2.221305
  C      4.255868    3.703851   -4.726054
  C      3.734032    4.293783   -5.800770
  N      5.515039    3.407255   -4.637185
  H      6.149187    3.601203   -5.399053
  H      5.813584    2.899504   -3.808785
  H      2.741380    4.513109   -5.824701
  H      4.287548    4.521260   -6.614341
  H      2.278938    1.735250   -2.725496
  H      2.377466    1.625787   -4.475869
  F      4.737055    0.854112   -1.122825
  O      5.928146    2.168108   -2.491365
  H      3.861246    3.597252   -2.662979
  H      2.446493    3.973461   -3.656556

 Total Charge           Charge          ....    0
 Multiplicity           Mult            ....    1
 Number of Electrons    NEL             ....   70
 Basis Dimension        Dim             ....  429

ORBITAL ENERGIES
----------------

  NO   OCC          E(Eh)            E(eV)
   0   2.0000     -24.865482      -676.6242
   1   2.0000     -19.232262      -523.3365
   2   2.0000     -14.354328      -390.6011
   3   2.0000     -10.459628      -284.6209
   4   2.0000     -10.285545      -279.8839
   5   2.0000     -10.267387      -279.3898
   6   2.0000     -10.255238      -279.0592
   7   2.0000     -10.245912      -278.8054
   8   2.0000     -10.163421      -276.5607
   9   2.0000      -1.451627       -39.5008
  10   2.0000      -1.143713       -31.1220
  11   2.0000      -1.000291       -27.2193
  12   2.0000      -0.908376       -24.7182
  13   2.0000      -0.834203       -22.6998
  14   2.0000      -0.792079       -21.5536
  15   2.0000      -0.760203       -20.6862
  16   2.0000      -0.710651       -19.3378
  17   2.0000      -0.663915       -18.0660
  18   2.0000      -0.654305       -17.8045
  19   2.0000      -0.623950       -16.9785
  20   2.0000      -0.621286       -16.9060
  21   2.0000      -0.580563       -15.7979
  22   2.0000      -0.557489       -15.1700
  23   2.0000      -0.531364       -14.4591
  24   2.0000      -0.514597       -14.0029
  25   2.0000      -0.501949       -13.6587
  26   2.0000      -0.463369       -12.6089
  27   2.0000      -0.453432       -12.3385
  28   2.0000      -0.443254       -12.0616
  29   2.0000      -0.441375       -12.0104
  30   2.0000      -0.424751       -11.5581
  31   2.0000      -0.395630       -10.7656
  32   2.0000      -0.389621       -10.6021
  33   2.0000      -0.373361       -10.1597
  34   2.0000      -0.231771        -6.3068
  35   0.0000      -0.008742        -0.2379
  36   0.0000       0.021953         0.5974
  37   0.0000       0.045332         1.2336
  38   0.0000       0.049713         1.3528
  39   0.0000       0.052146         1.4190

MULLIKEN ATOMIC CHARGES
-----------------------
   0 C :   -0.664459
   1 C :   -0.553945
   2 C :   -0.456449
   3 H :    0.304648
   4 H :    0.328197
   5 C :    0.535549
   6 C :    0.597634
   7 C :   -1.196658
   8 N :   -0.335003
   9 H :    0.101051
  10 H :    0.351211
  11 H :    0.263404
  12 H :    0.292001
  13 H :    0.278404
  14 H :    0.296202
  15 F :   -0.198755
  16 O :   -0.582006
  17 H :    0.344059
  18 H :    0.294916
Sum of atomic charges:    0.0000000

LOEWDIN ATOMIC CHARGES
----------------------
   0 C :   -0.143881
   1 C :   -0.173968
   2 C :   -0.091767
   3 H :    0.115893
   4 H :    0.125714
   5 C :   -0.439300
   6 C :   -0.488489
   7 C :    0.016637
   8 N :    0.118391
   9 H :    0.121606
  10 H :    0.016105
  11 H :    0.013084
  12 H :    0.012402
  13 H :    0.112598
  14 H :    0.123648
  15 F :    0.273159
  16 O :    0.054366
  17 H :    0.114743
  18 H :    0.119060

  Mayer bond orders larger than 0.100000
B(  0-C ,  1-C ) :   0.7056 B(  0-C ,  2-C ) :  -0.1022 B(  0-C ,  6-C ) :   0.7263
B(  0-C ,  7-C ) :   0.1075 B(  0-C , 17-H ) :   0.8953 B(  0-C , 18-H ) :   1.0265
B(  1-C ,  2-C ) :   0.7600 B(  1-C ,  5-C ) :   0.1024 B(  1-C , 13-H ) :   0.9540
B(  1-C , 14-H ) :   0.9419 B(  2-C ,  3-H ) :   0.9748 B(  2-C ,  4-H ) :   0.9539
B(  2-C ,  5-C ) :   0.8642 B(  2-C ,  8-N ) :   0.1677 B(  5-C , 15-F ) :   1.0514
B(  5-C , 16-O ) :   1.6594 B(  6-C ,  7-C ) :   1.2393 B(  6-C ,  8-N ) :   0.9797
B(  7-C ,  8-N ) :   0.1022 B(  7-C , 11-H ) :   1.0393 B(  7-C , 12-H ) :   1.0123
B(  8-N ,  9-H ) :   1.0608 B(  8-N , 10-H ) :   0.8289

FINAL SINGLE POINT ENERGY      -464.409580105730

DIPOLE MOMENT
-------------
                                X             Y             Z
Electronic contribution:      5.51526      -5.97109      10.55488
Nuclear contribution   :     -5.86483       4.68058     -10.07545
                        -----------------------------------------
Total Dipole Moment    :     -0.34957      -1.29051       0.47943
                        -----------------------------------------
Magnitude (a.u.)       :      1.42038
Magnitude (Debye)      :      3.61031

Rotational constants in cm-1:     0.107256     0.035474     0.030113
Rotational constants in MHz :  3215.453922  1063.481574   902.777619

                             ****ORCA TERMINATED NORMALLY****
TOTAL RUN TIME: 0 days 0 hours 3 minutes 10 seconds 648 msec
