                         Program Version 5.0.0 -  RELEASE  -
|  1> !CAM-B3LYP RIJCOSX def2-TZVPD def2/J TightSCF xyzfile
|  2>
|  3> *xyzfile 0 1 D2.xyz
|  4>
|  5> %MaxCore 64000
|  6>
|  7> %pal nprocs 4
|  8> end
|  9>
| 10> %scf
| 11>   MaxIter 150
| 12> end
| 13>
| 14>
| 15>                          ****END OF INPUT****

CARTESIAN COORDINATES (ANGSTROEM)
---------------------------------
  C      3.343500    3.354571   -3.591998
  C      2.952633    1.863077   -3.574849
  C      4.129209    0.898394   -3.418950
  H      3.733687   -0.100605   -3.237633
  H      4.719095    0.862556   -4.339005
  C      5.017344    1.315212   -2.221305
  C      4.255868    3.703851   -4.726054
  N      3.734032    4.293783   -5.800770
  C      5.515039    3.407255   -4.637185
  H      6.149187    3.601203   -5.399053
  H      5.813584    2.899504   -3.808785
  H      2.741380    4.513109   -5.824701
  H      4.287548    4.521260   -6.614341
  H      2.278938    1.735250   -2.725496
  H      2.377466    1.625787   -4.475869
  F      4.737055    0.854112   -1.122825
  O      5.928146    2.168108   -2.491365
  H      3.861246    3.597252   -2.662979
  H      2.446493    3.973461   -3.656556

 Total Charge           Charge          ....    0
 Multiplicity           Mult            ....    1
 Number of Electrons    NEL             ....   70
 Basis Dimension        Dim             ....  429

ORBITAL ENERGIES
----------------

  NO   OCC          E(Eh)            E(eV)
   0   2.0000     -24.847121      -676.1245
   1   2.0000     -19.206236      -522.6282
   2   2.0000     -14.378767      -391.2661
   3   2.0000     -10.437517      -284.0193
   4   2.0000     -10.272822      -279.5377
   5   2.0000     -10.263394      -279.2812
   6   2.0000     -10.248660      -278.8802
   7   2.0000     -10.244978      -278.7800
   8   2.0000     -10.140906      -275.9481
   9   2.0000      -1.433863       -39.0174
  10   2.0000      -1.118616       -30.4391
  11   2.0000      -0.997677       -27.1482
  12   2.0000      -0.901836       -24.5402
  13   2.0000      -0.831778       -22.6338
  14   2.0000      -0.782506       -21.2931
  15   2.0000      -0.758793       -20.6478
  16   2.0000      -0.699763       -19.0415
  17   2.0000      -0.651115       -17.7177
  18   2.0000      -0.639796       -17.4097
  19   2.0000      -0.620825       -16.8935
  20   2.0000      -0.602718       -16.4008
  21   2.0000      -0.571093       -15.5402
  22   2.0000      -0.550489       -14.9796
  23   2.0000      -0.536701       -14.6044
  24   2.0000      -0.519028       -14.1235
  25   2.0000      -0.487156       -13.2562
  26   2.0000      -0.459661       -12.5080
  27   2.0000      -0.458929       -12.4881
  28   2.0000      -0.430215       -11.7067
  29   2.0000      -0.421952       -11.4819
  30   2.0000      -0.416998       -11.3471
  31   2.0000      -0.392007       -10.6670
  32   2.0000      -0.385129       -10.4799
  33   2.0000      -0.334887        -9.1127
  34   2.0000      -0.237594        -6.4653
  35   0.0000       0.008748         0.2381
  36   0.0000       0.027015         0.7351
  37   0.0000       0.041852         1.1388
  38   0.0000       0.050082         1.3628
  39   0.0000       0.054584         1.4853

MULLIKEN ATOMIC CHARGES
-----------------------
   0 C :   -0.720396
   1 C :   -0.540063
   2 C :   -0.468977
   3 H :    0.306199
   4 H :    0.382863
   5 C :    0.471496
   6 C :    0.704104
   7 N :   -0.375909
   8 C :   -1.293772
   9 H :    0.237273
  10 H :    0.551423
  11 H :    0.162613
  12 H :    0.145164
  13 H :    0.276377
  14 H :    0.274254
  15 F :   -0.214660
  16 O :   -0.527732
  17 H :    0.293128
  18 H :    0.336613
Sum of atomic charges:    0.0000000

LOEWDIN ATOMIC CHARGES
----------------------
   0 C :   -0.141359
   1 C :   -0.175932
   2 C :   -0.092805
   3 H :    0.114045
   4 H :    0.123774
   5 C :   -0.448568
   6 C :   -0.470786
   7 N :    0.093113
   8 C :    0.028721
   9 H :    0.037624
  10 H :   -0.040189
  11 H :    0.097398
  12 H :    0.104292
  13 H :    0.111828
  14 H :    0.120304
  15 F :    0.262724
  16 O :    0.045433
  17 H :    0.117005
  18 H :    0.113376

  Mayer bond orders larger than 0.100000
B(  0-C ,  1-C ) :   0.7341 B(  0-C ,  2-C ) :  -0.1161 B(  0-C ,  6-C ) :   0.5908
B(  0-C ,  7-N ) :   0.1085 B(  0-C , 17-H ) :   0.9556 B(  0-C , 18-H ) :   1.0084
B(  1-C ,  2-C ) :   0.7537 B(  1-C ,  5-C ) :   0.1178 B(  1-C , 13-H ) :   0.9491
B(  1-C , 14-H ) :   0.9576 B(  2-C ,  3-H ) :   0.9681 B(  2-C ,  4-H ) :   0.9375
B(  2-C ,  5-C ) :   0.8561 B(  2-C ,  8-C ) :   0.1338 B(  5-C , 15-F ) :   1.0372
B(  5-C , 16-O ) :   1.7329 B(  6-C ,  7-N ) :   0.8256 B(  6-C ,  8-C ) :   1.0443
B(  6-C ,  9-H ) :  -0.1636 B(  6-C , 18-H ) :  -0.1043 B(  7-N , 11-H ) :   1.0423
B(  7-N , 12-H ) :   1.0477 B(  8-C ,  9-H ) :   1.2079 B(  8-C , 10-H ) :   0.9115
B( 10-H , 16-O ) :  -0.3559

FINAL SINGLE POINT ENERGY      -464.384680778479

DIPOLE MOMENT
-------------
                                X             Y             Z
Electronic contribution:      4.29649      -5.16749       9.57144
Nuclear contribution   :     -5.64491       4.57111      -9.93176
                        -----------------------------------------
Total Dipole Moment    :     -1.34842      -0.59638      -0.36033
                        -----------------------------------------
Magnitude (a.u.)       :      1.51781
Magnitude (Debye)      :      3.85796

Rotational constants in cm-1:     0.109825     0.034347     0.029470
Rotational constants in MHz :  3292.465653  1029.684117   883.494260

                             ****ORCA TERMINATED NORMALLY****
TOTAL RUN TIME: 0 days 0 hours 3 minutes 14 seconds 533 msec
