                         Program Version 5.0.0 -  RELEASE  -
|  1> !CAM-B3LYP RIJCOSX def2-TZVPD def2/J TightSCF xyzfile
|  2>
|  3> *xyzfile 0 1 D3.xyz
|  4>
|  5> %MaxCore 64000
|  6>
|  7> %pal nprocs 4
|  8> end
|  9>
| 10> %scf
| 11>   MaxIter 150
| 12> end
| 13>
| 14>
| 15>                          ****END OF INPUT****

CARTESIAN COORDINATES (ANGSTROEM)
---------------------------------
  C      3.343500    3.354571   -3.591998
  C      2.952633    1.863077   -3.574849
  C      4.129209    0.898394   -3.418950
  H      3.733687   -0.100605   -3.237633
  H      4.719095    0.862556   -4.339005
  C      5.017344    1.315212   -2.221305
  C      4.255868    3.703851   -4.726054
  C      3.734032    4.293783   -5.800770
  N      5.515039    3.407255   -4.637185
  H      6.149187    3.601203   -5.399053
  H      5.813584    2.899504   -3.808785
  H      2.741380    4.513109   -5.824701
  H      4.287548    4.521260   -6.614341
  H      2.278938    1.735250   -2.725496
  H      2.377466    1.625787   -4.475869
  O      4.737055    0.854112   -1.122825
  F      5.928146    2.168108   -2.491365
  H      3.861246    3.597252   -2.662979
  H      2.446493    3.973461   -3.656556

 Total Charge           Charge          ....    0
 Multiplicity           Mult            ....    1
 Number of Electrons    NEL             ....   70
 Basis Dimension        Dim             ....  429

ORBITAL ENERGIES
----------------

  NO   OCC          E(Eh)            E(eV)
   0   2.0000     -24.853001      -676.2845
   1   2.0000     -19.230687      -523.2936
   2   2.0000     -14.381924      -391.3520
   3   2.0000     -10.443836      -284.1912
   4   2.0000     -10.281467      -279.7729
   5   2.0000     -10.268974      -279.4330
   6   2.0000     -10.266158      -279.3564
   7   2.0000     -10.254879      -279.0494
   8   2.0000     -10.177322      -276.9390
   9   2.0000      -1.426626       -38.8205
  10   2.0000      -1.155341       -31.4384
  11   2.0000      -1.022791       -27.8316
  12   2.0000      -0.908443       -24.7200
  13   2.0000      -0.840601       -22.8739
  14   2.0000      -0.799174       -21.7466
  15   2.0000      -0.760090       -20.6831
  16   2.0000      -0.718871       -19.5615
  17   2.0000      -0.665015       -18.0960
  18   2.0000      -0.648736       -17.6530
  19   2.0000      -0.629563       -17.1313
  20   2.0000      -0.601465       -16.3667
  21   2.0000      -0.581819       -15.8321
  22   2.0000      -0.558714       -15.2034
  23   2.0000      -0.541701       -14.7404
  24   2.0000      -0.519095       -14.1253
  25   2.0000      -0.497344       -13.5334
  26   2.0000      -0.472410       -12.8549
  27   2.0000      -0.464665       -12.6442
  28   2.0000      -0.455157       -12.3854
  29   2.0000      -0.448133       -12.1943
  30   2.0000      -0.427104       -11.6221
  31   2.0000      -0.404352       -11.0030
  32   2.0000      -0.400948       -10.9104
  33   2.0000      -0.378876       -10.3098
  34   2.0000      -0.248210        -6.7541
  35   0.0000       0.005721         0.1557
  36   0.0000       0.025407         0.6914
  37   0.0000       0.044139         1.2011
  38   0.0000       0.048708         1.3254
  39   0.0000       0.050277         1.3681

MULLIKEN ATOMIC CHARGES
-----------------------
   0 C :   -0.722902
   1 C :   -0.527808
   2 C :   -0.436556
   3 H :    0.270139
   4 H :    0.352949
   5 C :    0.473868
   6 C :    0.655393
   7 C :   -1.190558
   8 N :   -0.364863
   9 H :    0.105509
  10 H :    0.381187
  11 H :    0.266262
  12 H :    0.289427
  13 H :    0.293534
  14 H :    0.302478
  15 O :   -0.454986
  16 F :   -0.316344
  17 H :    0.329101
  18 H :    0.294170
Sum of atomic charges:    0.0000000

LOEWDIN ATOMIC CHARGES
----------------------
   0 C :   -0.141852
   1 C :   -0.173414
   2 C :   -0.099128
   3 H :    0.122313
   4 H :    0.117685
   5 C :   -0.468933
   6 C :   -0.486628
   7 C :    0.026022
   8 N :    0.121602
   9 H :    0.125041
  10 H :    0.049703
  11 H :    0.018067
  12 H :    0.015400
  13 H :    0.116892
  14 H :    0.122782
  15 O :    0.134461
  16 F :    0.162558
  17 H :    0.116661
  18 H :    0.120768

  Mayer bond orders larger than 0.100000
B(  0-C ,  1-C ) :   0.7040 B(  0-C ,  6-C ) :   0.6924 B(  0-C ,  7-C ) :   0.1025
B(  0-C , 17-H ) :   0.9224 B(  0-C , 18-H ) :   1.0181 B(  1-C ,  2-C ) :   0.7558
B(  1-C ,  5-C ) :   0.1032 B(  1-C , 13-H ) :   0.9533 B(  1-C , 14-H ) :   0.9431
B(  2-C ,  3-H ) :   0.9874 B(  2-C ,  4-H ) :   0.9322 B(  2-C ,  5-C ) :   0.8442
B(  2-C ,  8-N ) :   0.1719 B(  5-C , 15-O ) :   1.8025 B(  5-C , 16-F ) :   0.9132
B(  6-C ,  7-C ) :   1.2042 B(  6-C ,  8-N ) :   0.9524 B(  6-C , 12-H ) :  -0.1021
B(  7-C , 11-H ) :   1.0320 B(  7-C , 12-H ) :   1.0204 B(  8-N ,  9-H ) :   1.0644
B(  8-N , 10-H ) :   0.8491

FINAL SINGLE POINT ENERGY      -464.416272101400

DIPOLE MOMENT
-------------
                                X             Y             Z
Electronic contribution:      7.43437      -3.58939       8.03288
Nuclear contribution   :     -7.21688       3.18902      -8.52197
                        -----------------------------------------
Total Dipole Moment    :      0.21749      -0.40037      -0.48909
                        -----------------------------------------
Magnitude (a.u.)       :      0.66844
Magnitude (Debye)      :      1.69903

Rotational constants in cm-1:     0.103917     0.036987     0.030872
Rotational constants in MHz :  3115.342573  1108.839114   925.506342

                             ****ORCA TERMINATED NORMALLY****
TOTAL RUN TIME: 0 days 0 hours 3 minutes 10 seconds 315 msec
