                         Program Version 5.0.0 -  RELEASE  -
|  1> !CAM-B3LYP RIJCOSX def2-TZVPD def2/J TightSCF xyzfile
|  2>
|  3> *xyzfile 0 1 D4.xyz
|  4>
|  5> %MaxCore 64000
|  6>
|  7> %pal nprocs 4
|  8> end
|  9>
| 10> %scf
| 11>   MaxIter 150
| 12> end
| 13>
| 14>
| 15>                          ****END OF INPUT****

CARTESIAN COORDINATES (ANGSTROEM)
---------------------------------
  C      3.343500    3.354571   -3.591998
  C      2.952633    1.863077   -3.574849
  C      4.129209    0.898394   -3.418950
  H      3.733687   -0.100605   -3.237633
  H      4.719095    0.862556   -4.339005
  C      5.017344    1.315212   -2.221305
  C      4.255868    3.703851   -4.726054
  N      3.734032    4.293783   -5.800770
  C      5.515039    3.407255   -4.637185
  H      6.149187    3.601203   -5.399053
  H      5.813584    2.899504   -3.808785
  H      2.741380    4.513109   -5.824701
  H      4.287548    4.521260   -6.614341
  H      2.278938    1.735250   -2.725496
  H      2.377466    1.625787   -4.475869
  O      4.737055    0.854112   -1.122825
  F      5.928146    2.168108   -2.491365
  H      3.861246    3.597252   -2.662979
  H      2.446493    3.973461   -3.656556

 Total Charge           Charge          ....    0
 Multiplicity           Mult            ....    1
 Number of Electrons    NEL             ....   70
 Basis Dimension        Dim             ....  429

ORBITAL ENERGIES
----------------

  NO   OCC          E(Eh)            E(eV)
   0   2.0000     -24.824147      -675.4994
   1   2.0000     -19.215316      -522.8753
   2   2.0000     -14.392118      -391.6295
   3   2.0000     -10.428001      -283.7603
   4   2.0000     -10.269969      -279.4601
   5   2.0000     -10.265510      -279.3387
   6   2.0000     -10.263624      -279.2874
   7   2.0000     -10.254577      -279.0412
   8   2.0000     -10.164247      -276.5832
   9   2.0000      -1.399925       -38.0939
  10   2.0000      -1.140391       -31.0316
  11   2.0000      -1.011311       -27.5192
  12   2.0000      -0.905109       -24.6293
  13   2.0000      -0.837593       -22.7921
  14   2.0000      -0.792801       -21.5732
  15   2.0000      -0.754332       -20.5264
  16   2.0000      -0.698832       -19.0162
  17   2.0000      -0.661373       -17.9969
  18   2.0000      -0.622361       -16.9353
  19   2.0000      -0.611597       -16.6424
  20   2.0000      -0.598027       -16.2731
  21   2.0000      -0.580870       -15.8063
  22   2.0000      -0.555521       -15.1165
  23   2.0000      -0.535614       -14.5748
  24   2.0000      -0.518366       -14.1055
  25   2.0000      -0.492025       -13.3887
  26   2.0000      -0.467040       -12.7088
  27   2.0000      -0.453631       -12.3439
  28   2.0000      -0.444915       -12.1067
  29   2.0000      -0.435977       -11.8635
  30   2.0000      -0.419268       -11.4088
  31   2.0000      -0.400337       -10.8937
  32   2.0000      -0.395526       -10.7628
  33   2.0000      -0.366049        -9.9607
  34   2.0000      -0.254286        -6.9195
  35   0.0000       0.017206         0.4682
  36   0.0000       0.028193         0.7672
  37   0.0000       0.043861         1.1935
  38   0.0000       0.047276         1.2865
  39   0.0000       0.054649         1.4871

MULLIKEN ATOMIC CHARGES
-----------------------
   0 C :   -0.776474
   1 C :   -0.524840
   2 C :   -0.429223
   3 H :    0.270272
   4 H :    0.408875
   5 C :    0.424025
   6 C :    0.751350
   7 N :   -0.370658
   8 C :   -1.400561
   9 H :    0.240991
  10 H :    0.633766
  11 H :    0.167736
  12 H :    0.147587
  13 H :    0.296344
  14 H :    0.280642
  15 O :   -0.473530
  16 F :   -0.270036
  17 H :    0.287921
  18 H :    0.335814
Sum of atomic charges:   -0.0000000

LOEWDIN ATOMIC CHARGES
----------------------
   0 C :   -0.138428
   1 C :   -0.174607
   2 C :   -0.099035
   3 H :    0.120797
   4 H :    0.116702
   5 C :   -0.471188
   6 C :   -0.467908
   7 N :    0.101577
   8 C :    0.029801
   9 H :    0.038715
  10 H :   -0.011630
  11 H :    0.101695
  12 H :    0.106951
  13 H :    0.116348
  14 H :    0.119690
  15 O :    0.125169
  16 F :    0.150458
  17 H :    0.119561
  18 H :    0.115333

  Mayer bond orders larger than 0.100000
B(  0-C ,  1-C ) :   0.7365 B(  0-C ,  6-C ) :   0.5669 B(  0-C ,  7-N ) :   0.1087
B(  0-C , 17-H ) :   0.9678 B(  0-C , 18-H ) :   1.0026 B(  1-C ,  2-C ) :   0.7531
B(  1-C ,  5-C ) :   0.1222 B(  1-C , 13-H ) :   0.9493 B(  1-C , 14-H ) :   0.9545
B(  2-C ,  3-H ) :   0.9847 B(  2-C ,  4-H ) :   0.9112 B(  2-C ,  5-C ) :   0.8277
B(  2-C ,  8-C ) :   0.1456 B(  5-C , 15-O ) :   1.7871 B(  5-C , 16-F ) :   0.9771
B(  6-C ,  7-N ) :   0.8343 B(  6-C ,  8-C ) :   1.0628 B(  6-C ,  9-H ) :  -0.1453
B(  7-N , 11-H ) :   1.0346 B(  7-N , 12-H ) :   1.0459 B(  8-C ,  9-H ) :   1.1749
B(  8-C , 10-H ) :   0.7649 B( 10-H , 16-F ) :  -0.3116

FINAL SINGLE POINT ENERGY      -464.403593159438

DIPOLE MOMENT
-------------
                                X             Y             Z
Electronic contribution:      6.18489      -2.83096       7.09475
Nuclear contribution   :     -6.99695       3.07955      -8.37829
                        -----------------------------------------
Total Dipole Moment    :     -0.81207       0.24859      -1.28354
                        -----------------------------------------
Magnitude (a.u.)       :      1.53906
Magnitude (Debye)      :      3.91199

Rotational constants in cm-1:     0.106302     0.035771     0.030198
Rotational constants in MHz :  3186.860872  1072.397550   905.318354

                             ****ORCA TERMINATED NORMALLY****
TOTAL RUN TIME: 0 days 0 hours 3 minutes 12 seconds 529 msec
