                         Program Version 5.0.0 -  RELEASE  -
|  1> !CAM-B3LYP RIJCOSX def2-TZVP def2/J TightSCF
|  2> *xyz -1 1
|  3> C          0.61188        1.65763       -4.50029
|  4> C          1.69499        1.54179       -5.57045
|  5> H          2.69733        1.73466       -5.18400
|  6> H          1.50666        2.27224       -6.35808
|  7> S          1.78029       -0.03313       -6.42874
|  8> O          2.56929        0.21366       -7.60736
|  9> O          0.41688       -0.46297       -6.61859
| 10> O          2.50513       -0.93326       -5.48257
| 11> H         -0.34424        1.45871       -4.93752
| 12> H          0.61845        2.64655       -4.09174
| 13> H          0.80247        0.94882       -3.72173
| 14> *
| 15> %MaxCore 64000
| 16>
| 17> %pal nprocs 4
| 18> end
| 19>
| 20> %scf
| 21>   MaxIter 150
| 22> end
| 23>
| 24>
| 25>                          ****END OF INPUT****

CARTESIAN COORDINATES (ANGSTROEM)
---------------------------------
  C      0.611880    1.657630   -4.500290
  C      1.694990    1.541790   -5.570450
  H      2.697330    1.734660   -5.184000
  H      1.506660    2.272240   -6.358080
  S      1.780290   -0.033130   -6.428740
  O      2.569290    0.213660   -7.607360
  O      0.416880   -0.462970   -6.618590
  O      2.505130   -0.933260   -5.482570
  H     -0.344240    1.458710   -4.937520
  H      0.618450    2.646550   -4.091740
  H      0.802470    0.948820   -3.721730

 Total Charge           Charge          ....   -1
 Multiplicity           Mult            ....    1
 Number of Electrons    NEL             ....   58
 Basis Dimension        Dim             ....  222

ORBITAL ENERGIES
----------------

  NO   OCC          E(Eh)            E(eV)
   0   2.0000     -88.910586     -2419.3800
   1   2.0000     -18.973228      -516.2878
   2   2.0000     -18.972305      -516.2627
   3   2.0000     -18.952283      -515.7178
   4   2.0000     -10.102040      -274.8905
   5   2.0000     -10.096908      -274.7508
   6   2.0000      -7.953888      -216.4363
   7   2.0000      -5.918470      -161.0498
   8   2.0000      -5.917376      -161.0200
   9   2.0000      -5.917051      -161.0112
  10   2.0000      -1.002877       -27.2897
  11   2.0000      -0.873936       -23.7810
  12   2.0000      -0.839561       -22.8456
  13   2.0000      -0.713464       -19.4143
  14   2.0000      -0.584362       -15.9013
  15   2.0000      -0.451151       -12.2764
  16   2.0000      -0.387386       -10.5413
  17   2.0000      -0.382356       -10.4044
  18   2.0000      -0.341638        -9.2964
  19   2.0000      -0.325809        -8.8657
  20   2.0000      -0.320164        -8.7121
  21   2.0000      -0.293505        -7.9867
  22   2.0000      -0.278328        -7.5737
  23   2.0000      -0.214974        -5.8497
  24   2.0000      -0.214166        -5.8277
  25   2.0000      -0.180083        -4.9003
  26   2.0000      -0.170381        -4.6363
  27   2.0000      -0.154933        -4.2159
  28   2.0000      -0.122367        -3.3298
  29   0.0000       0.208932         5.6853
  30   0.0000       0.253216         6.8904
  31   0.0000       0.269781         7.3411
  32   0.0000       0.274567         7.4714
  33   0.0000       0.302109         8.2208

MULLIKEN ATOMIC CHARGES
-----------------------
   0 C :   -0.328789
   1 C :   -0.231516
   2 H :    0.084870
   3 H :    0.074668
   4 S :    0.827021
   5 O :   -0.547614
   6 O :   -0.553498
   7 O :   -0.613310
   8 H :    0.115740
   9 H :    0.066746
  10 H :    0.105681
Sum of atomic charges:   -1.0000000

LOEWDIN ATOMIC CHARGES
----------------------
   0 C :   -0.341672
   1 C :   -0.428878
   2 H :    0.118717
   3 H :    0.116361
   4 S :    0.423577
   5 O :   -0.380638
   6 O :   -0.380050
   7 O :   -0.454766
   8 H :    0.114610
   9 H :    0.099053
  10 H :    0.113688

  Mayer bond orders larger than 0.100000
B(  0-C ,  1-C ) :   0.9372 B(  0-C ,  8-H ) :   0.9759 B(  0-C ,  9-H ) :   0.9702
B(  0-C , 10-H ) :   0.9781 B(  1-C ,  2-H ) :   0.9677 B(  1-C ,  3-H ) :   0.9595
B(  1-C ,  4-S ) :   0.8835 B(  4-S ,  5-O ) :   1.8327 B(  4-S ,  6-O ) :   1.7798
B(  4-S ,  7-O ) :   1.7462

FINAL SINGLE POINT ENERGY      -703.199888322530

DIPOLE MOMENT
-------------
                                X             Y             Z
Electronic contribution:      2.23977      -5.63147      -5.00961
Nuclear contribution   :     -2.69163       7.29476       5.86550
                        -----------------------------------------
Total Dipole Moment    :     -0.45186       1.66329       0.85589
                        -----------------------------------------
Magnitude (a.u.)       :      1.92439
Magnitude (Debye)      :      4.89140

Rotational constants in cm-1:     0.163060     0.082831     0.081111
Rotational constants in MHz :  4888.419330  2483.225008  2431.646841

                             ****ORCA TERMINATED NORMALLY****
TOTAL RUN TIME: 0 days 0 hours 0 minutes 28 seconds 487 msec
