                         Program Version 5.0.0 -  RELEASE  -
|  1> !CAM-B3LYP RIJCOSX def2-TZVP def2/J TightSCF
|  2> *xyz 1 1
|  3> C          1.96337       -1.74915       -1.89689
|  4> N          2.73849       -2.01517       -3.09711
|  5> C          4.04974       -2.15472       -3.15204
|  6> N          4.65821       -1.98629       -4.31866
|  7> N          4.76423       -2.45444       -2.05049
|  8> H          4.28736       -2.77626       -1.21750
|  9> H          5.75082       -2.65835       -2.12599
| 10> H          2.34518       -1.69027       -3.97145
| 11> H          4.10900       -1.59268       -5.07176
| 12> H          5.64910       -2.15646       -4.42724
| 13> C          2.08852       -0.30091       -1.41520
| 14> H          2.23127       -2.45162       -1.10264
| 15> H          0.93025       -1.97780       -2.15544
| 16> H          1.82118        0.36368       -2.21003
| 17> H          3.09792       -0.11068       -1.11551
| 18> H          1.43391       -0.14382       -0.58352
| 19> *
| 20> %MaxCore 64000
| 21>
| 22> %pal nprocs 4
| 23> end
| 24>
| 25> %scf
| 26>   MaxIter 150
| 27> end
| 28>
| 29>
| 30>                          ****END OF INPUT****

CARTESIAN COORDINATES (ANGSTROEM)
---------------------------------
  C      1.963370   -1.749150   -1.896890
  N      2.738490   -2.015170   -3.097110
  C      4.049740   -2.154720   -3.152040
  N      4.658210   -1.986290   -4.318660
  N      4.764230   -2.454440   -2.050490
  H      4.287360   -2.776260   -1.217500
  H      5.750820   -2.658350   -2.125990
  H      2.345180   -1.690270   -3.971450
  H      4.109000   -1.592680   -5.071760
  H      5.649100   -2.156460   -4.427240
  C      2.088520   -0.300910   -1.415200
  H      2.231270   -2.451620   -1.102640
  H      0.930250   -1.977800   -2.155440
  H      1.821180    0.363680   -2.210030
  H      3.097920   -0.110680   -1.115510
  H      1.433910   -0.143820   -0.583520

 Total Charge           Charge          ....    1
 Multiplicity           Mult            ....    1
 Number of Electrons    NEL             ....   48
 Basis Dimension        Dim             ....  246

ORBITAL ENERGIES
----------------

  NO   OCC          E(Eh)            E(eV)
   0   2.0000     -14.613732      -397.6599
   1   2.0000     -14.612168      -397.6173
   2   2.0000     -14.611391      -397.5962
   3   2.0000     -10.582916      -287.9758
   4   2.0000     -10.450693      -284.3778
   5   2.0000     -10.377474      -282.3854
   6   2.0000      -1.302652       -35.4470
   7   2.0000      -1.188738       -32.3472
   8   2.0000      -1.175727       -31.9932
   9   2.0000      -1.011932       -27.5361
  10   2.0000      -0.919292       -25.0152
  11   2.0000      -0.881213       -23.9790
  12   2.0000      -0.857299       -23.3283
  13   2.0000      -0.818688       -22.2776
  14   2.0000      -0.764663       -20.8075
  15   2.0000      -0.756267       -20.5791
  16   2.0000      -0.728495       -19.8234
  17   2.0000      -0.697709       -18.9856
  18   2.0000      -0.670296       -18.2397
  19   2.0000      -0.631785       -17.1918
  20   2.0000      -0.598735       -16.2924
  21   2.0000      -0.578333       -15.7372
  22   2.0000      -0.543596       -14.7920
  23   2.0000      -0.513719       -13.9790
  24   0.0000      -0.119873        -3.2619
  25   0.0000      -0.114983        -3.1289
  26   0.0000      -0.084342        -2.2951
  27   0.0000      -0.073704        -2.0056
  28   0.0000      -0.047436        -1.2908

MULLIKEN ATOMIC CHARGES
-----------------------
   0 C :   -0.187113
   1 N :   -0.231810
   2 C :    0.422974
   3 N :   -0.384750
   4 N :   -0.399536
   5 H :    0.282584
   6 H :    0.276462
   7 H :    0.239980
   8 H :    0.274811
   9 H :    0.285325
  10 C :   -0.317495
  11 H :    0.136097
  12 H :    0.173621
  13 H :    0.133272
  14 H :    0.132122
  15 H :    0.163455
Sum of atomic charges:    1.0000000

LOEWDIN ATOMIC CHARGES
----------------------
   0 C :   -0.282949
   1 N :    0.168013
   2 C :   -0.398430
   3 N :    0.067373
   4 N :    0.057182
   5 H :    0.195894
   6 H :    0.195449
   7 H :    0.210047
   8 H :    0.198550
   9 H :    0.199018
  10 C :   -0.283195
  11 H :    0.138414
  12 H :    0.151720
  13 H :    0.124688
  14 H :    0.121977
  15 H :    0.136246

  Mayer bond orders larger than 0.100000
B(  0-C ,  1-N ) :   0.8730 B(  0-C , 10-C ) :   0.9404 B(  0-C , 11-H ) :   0.9752
B(  0-C , 12-H ) :   0.9631 B(  1-N ,  2-C ) :   1.3865 B(  1-N ,  7-H ) :   0.9094
B(  2-C ,  3-N ) :   1.3391 B(  2-C ,  4-N ) :   1.3253 B(  3-N ,  8-H ) :   0.9018
B(  3-N ,  9-H ) :   0.8973 B(  4-N ,  5-H ) :   0.8925 B(  4-N ,  6-H ) :   0.9023
B( 10-C , 13-H ) :   0.9682 B( 10-C , 14-H ) :   0.9648 B( 10-C , 15-H ) :   0.9708

FINAL SINGLE POINT ENERGY      -284.362248700086

DIPOLE MOMENT
-------------
                                X             Y             Z
Electronic contribution:      3.03220      -2.71866      -3.10880
Nuclear contribution   :     -2.17768       2.37118       2.44574
                        -----------------------------------------
Total Dipole Moment    :      0.85452      -0.34748      -0.66306
                        -----------------------------------------
Magnitude (a.u.)       :      1.13605
Magnitude (Debye)      :      2.88760

Rotational constants in cm-1:     0.215650     0.075183     0.066454
Rotational constants in MHz :  6465.033740  2253.919004  1992.232519

                             ****ORCA TERMINATED NORMALLY****
TOTAL RUN TIME: 0 days 0 hours 0 minutes 42 seconds 771 msec
