                         Program Version 5.0.0 -  RELEASE  -
|  1> !CAM-B3LYP RIJCOSX def2-TZVP def2/J TightSCF
|  2> *xyz 0 1
|  3> C          0.61188        1.65763       -4.50029
|  4> C          1.69499        1.54179       -5.57045
|  5> H          2.69733        1.73466       -5.18400
|  6> H          1.50666        2.27224       -6.35808
|  7> S          1.78029       -0.03313       -6.42874
|  8> F          2.56929        0.21366       -7.60736
|  9> O          0.41688       -0.46297       -6.61859
| 10> O          2.50513       -0.93326       -5.48257
| 11> H         -0.34424        1.45871       -4.93752
| 12> H          0.61845        2.64655       -4.09174
| 13> H          0.80247        0.94882       -3.72173
| 14> *
| 15> %MaxCore 64000
| 16>
| 17> %pal nprocs 4
| 18> end
| 19>
| 20> %scf
| 21>   MaxIter 150
| 22> end
| 23>
| 24>
| 25>                          ****END OF INPUT****

CARTESIAN COORDINATES (ANGSTROEM)
---------------------------------
  C      0.611880    1.657630   -4.500290
  C      1.694990    1.541790   -5.570450
  H      2.697330    1.734660   -5.184000
  H      1.506660    2.272240   -6.358080
  S      1.780290   -0.033130   -6.428740
  F      2.569290    0.213660   -7.607360
  O      0.416880   -0.462970   -6.618590
  O      2.505130   -0.933260   -5.482570
  H     -0.344240    1.458710   -4.937520
  H      0.618450    2.646550   -4.091740
  H      0.802470    0.948820   -3.721730

 Total Charge           Charge          ....    0
 Multiplicity           Mult            ....    1
 Number of Electrons    NEL             ....   58
 Basis Dimension        Dim             ....  222

ORBITAL ENERGIES
----------------

  NO   OCC          E(Eh)            E(eV)
   0   2.0000     -89.178618     -2426.6736
   1   2.0000     -24.881564      -677.0618
   2   2.0000     -19.213485      -522.8255
   3   2.0000     -19.193296      -522.2761
   4   2.0000     -10.307306      -280.4761
   5   2.0000     -10.262044      -279.2444
   6   2.0000      -8.222507      -223.7458
   7   2.0000      -6.190278      -168.4460
   8   2.0000      -6.183861      -168.2714
   9   2.0000      -6.183550      -168.2630
  10   2.0000      -1.472250       -40.0620
  11   2.0000      -1.187351       -32.3095
  12   2.0000      -1.080960       -29.4144
  13   2.0000      -0.906971       -24.6799
  14   2.0000      -0.818655       -22.2767
  15   2.0000      -0.755918       -20.5696
  16   2.0000      -0.666841       -18.1457
  17   2.0000      -0.665642       -18.1130
  18   2.0000      -0.630210       -17.1489
  19   2.0000      -0.567469       -15.4416
  20   2.0000      -0.554169       -15.0797
  21   2.0000      -0.510891       -13.9020
  22   2.0000      -0.500457       -13.6181
  23   2.0000      -0.477323       -12.9886
  24   2.0000      -0.457332       -12.4446
  25   2.0000      -0.452572       -12.3151
  26   2.0000      -0.402674       -10.9573
  27   2.0000      -0.383747       -10.4423
  28   2.0000      -0.369441       -10.0530
  29   0.0000       0.059720         1.6251
  30   0.0000       0.075801         2.0626
  31   0.0000       0.102717         2.7951
  32   0.0000       0.108943         2.9645
  33   0.0000       0.121415         3.3039

MULLIKEN ATOMIC CHARGES
-----------------------
   0 C :   -0.349481
   1 C :   -0.241385
   2 H :    0.151161
   3 H :    0.129638
   4 S :    0.863029
   5 F :   -0.099839
   6 O :   -0.408856
   7 O :   -0.465879
   8 H :    0.146162
   9 H :    0.130252
  10 H :    0.145197
Sum of atomic charges:    0.0000000

LOEWDIN ATOMIC CHARGES
----------------------
   0 C :   -0.301353
   1 C :   -0.396053
   2 H :    0.140197
   3 H :    0.134119
   4 S :    0.545167
   5 F :    0.099548
   6 O :   -0.265844
   7 O :   -0.335638
   8 H :    0.126928
   9 H :    0.125046
  10 H :    0.127884

  Mayer bond orders larger than 0.100000
B(  0-C ,  1-C ) :   0.9536 B(  0-C ,  8-H ) :   0.9683 B(  0-C ,  9-H ) :   0.9632
B(  0-C , 10-H ) :   0.9707 B(  1-C ,  2-H ) :   0.9421 B(  1-C ,  3-H ) :   0.9392
B(  1-C ,  4-S ) :   0.9182 B(  4-S ,  5-F ) :   1.1469 B(  4-S ,  6-O ) :   1.9254
B(  4-S ,  7-O ) :   1.8806

FINAL SINGLE POINT ENERGY      -727.719767287518

DIPOLE MOMENT
-------------
                                X             Y             Z
Electronic contribution:      3.87944      -5.61910      -7.55981
Nuclear contribution   :     -3.66946       7.33549       7.42434
                        -----------------------------------------
Total Dipole Moment    :      0.20997       1.71639      -0.13547
                        -----------------------------------------
Magnitude (a.u.)       :      1.73449
Magnitude (Debye)      :      4.40872

Rotational constants in cm-1:     0.158379     0.080294     0.077843
Rotational constants in MHz :  4748.076444  2407.152850  2333.668303

                             ****ORCA TERMINATED NORMALLY****
TOTAL RUN TIME: 0 days 0 hours 0 minutes 33 seconds 44 msec
