                         Program Version 5.0.0 -  RELEASE  -
|  1> !CAM-B3LYP RIJCOSX def2-TZVP def2/J TightSCF
|  2> *xyz 0 1
|  3> C          1.96337       -1.74915       -1.89689
|  4> C          2.73849       -2.01517       -3.09711
|  5> C          4.04974       -2.15472       -3.15204
|  6> N          4.65821       -1.98629       -4.31866
|  7> N          4.76423       -2.45444       -2.05049
|  8> H          4.28736       -2.77626       -1.21750
|  9> H          5.75082       -2.65835       -2.12599
| 10> H          2.34518       -1.69027       -3.97145
| 11> H          4.10900       -1.59268       -5.07176
| 12> H          5.64910       -2.15646       -4.42724
| 13> C          2.08852       -0.30091       -1.41520
| 14> H          2.23127       -2.45162       -1.10264
| 15> H          0.93025       -1.97780       -2.15544
| 16> H          1.82118        0.36368       -2.21003
| 17> H          3.09792       -0.11068       -1.11551
| 18> H          1.43391       -0.14382       -0.58352
| 19> *
| 20> %MaxCore 64000
| 21>
| 22> %pal nprocs 4
| 23> end
| 24>
| 25> %scf
| 26>   MaxIter 150
| 27> end
| 28>
| 29>
| 30>                          ****END OF INPUT****

CARTESIAN COORDINATES (ANGSTROEM)
---------------------------------
  C      1.963370   -1.749150   -1.896890
  C      2.738490   -2.015170   -3.097110
  C      4.049740   -2.154720   -3.152040
  N      4.658210   -1.986290   -4.318660
  N      4.764230   -2.454440   -2.050490
  H      4.287360   -2.776260   -1.217500
  H      5.750820   -2.658350   -2.125990
  H      2.345180   -1.690270   -3.971450
  H      4.109000   -1.592680   -5.071760
  H      5.649100   -2.156460   -4.427240
  C      2.088520   -0.300910   -1.415200
  H      2.231270   -2.451620   -1.102640
  H      0.930250   -1.977800   -2.155440
  H      1.821180    0.363680   -2.210030
  H      3.097920   -0.110680   -1.115510
  H      1.433910   -0.143820   -0.583520

 Total Charge           Charge          ....    0
 Multiplicity           Mult            ....    1
 Number of Electrons    NEL             ....   48
 Basis Dimension        Dim             ....  246

ORBITAL ENERGIES
----------------

  NO   OCC          E(Eh)            E(eV)
   0   2.0000     -14.387689      -391.5089
   1   2.0000     -14.384854      -391.4318
   2   2.0000     -10.286554      -279.9114
   3   2.0000     -10.214412      -277.9483
   4   2.0000     -10.203300      -277.6459
   5   2.0000     -10.157866      -276.4096
   6   2.0000      -1.042246       -28.3610
   7   2.0000      -0.951180       -25.8829
   8   2.0000      -0.853768       -23.2322
   9   2.0000      -0.771931       -21.0053
  10   2.0000      -0.692246       -18.8370
  11   2.0000      -0.651893       -17.7389
  12   2.0000      -0.612624       -16.6703
  13   2.0000      -0.580474       -15.7955
  14   2.0000      -0.540317       -14.7028
  15   2.0000      -0.506648       -13.7866
  16   2.0000      -0.488230       -13.2854
  17   2.0000      -0.453235       -12.3331
  18   2.0000      -0.446555       -12.1514
  19   2.0000      -0.419272       -11.4090
  20   2.0000      -0.391041       -10.6408
  21   2.0000      -0.380709       -10.3596
  22   2.0000      -0.330045        -8.9810
  23   2.0000      -0.214707        -5.8425
  24   0.0000       0.055938         1.5222
  25   0.0000       0.088044         2.3958
  26   0.0000       0.096938         2.6378
  27   0.0000       0.118851         3.2341
  28   0.0000       0.125715         3.4209

MULLIKEN ATOMIC CHARGES
-----------------------
   0 C :   -0.215155
   1 C :   -0.310571
   2 C :    0.341714
   3 N :   -0.457874
   4 N :   -0.472579
   5 H :    0.238426
   6 H :    0.211586
   7 H :    0.055825
   8 H :    0.235688
   9 H :    0.213594
  10 C :   -0.299473
  11 H :    0.060676
  12 H :    0.096228
  13 H :    0.097723
  14 H :    0.105496
  15 H :    0.098696
Sum of atomic charges:   -0.0000000

LOEWDIN ATOMIC CHARGES
----------------------
   0 C :   -0.308774
   1 C :   -0.291691
   2 C :   -0.451092
   3 N :   -0.014241
   4 N :   -0.022179
   5 H :    0.174368
   6 H :    0.159897
   7 H :    0.119587
   8 H :    0.179348
   9 H :    0.161001
  10 C :   -0.301813
  11 H :    0.124047
  12 H :    0.137877
  13 H :    0.112927
  14 H :    0.113128
  15 H :    0.107610

  Mayer bond orders larger than 0.100000
B(  0-C ,  1-C ) :   1.0270 B(  0-C , 10-C ) :   0.9191 B(  0-C , 11-H ) :   0.9808
B(  0-C , 12-H ) :   0.9973 B(  1-C ,  2-C ) :   1.6691 B(  1-C ,  7-H ) :   1.0165
B(  2-C ,  3-N ) :   1.1502 B(  2-C ,  4-N ) :   1.1317 B(  3-N ,  8-H ) :   0.9229
B(  3-N ,  9-H ) :   0.9310 B(  4-N ,  5-H ) :   0.9220 B(  4-N ,  6-H ) :   0.9313
B( 10-C , 13-H ) :   0.9816 B( 10-C , 14-H ) :   0.9808 B( 10-C , 15-H ) :   0.9817

FINAL SINGLE POINT ENERGY      -267.872827501408

DIPOLE MOMENT
-------------
                                X             Y             Z
Electronic contribution:      3.38123      -2.44968      -2.53885
Nuclear contribution   :     -2.31778       2.31977       2.35294
                        -----------------------------------------
Total Dipole Moment    :      1.06346      -0.12991      -0.18591
                        -----------------------------------------
Magnitude (a.u.)       :      1.08737
Magnitude (Debye)      :      2.76388

Rotational constants in cm-1:     0.219415     0.075373     0.066689
Rotational constants in MHz :  6577.897266  2259.621393  1999.290981

                             ****ORCA TERMINATED NORMALLY****
TOTAL RUN TIME: 0 days 0 hours 0 minutes 41 seconds 689 msec
