                         Program Version 5.0.0 -  RELEASE  -
|  1> !CAM-B3LYP RIJCOSX def2-TZVP def2/J TightSCF
|  2> *xyz 0 1
|  3> C          0.61188        1.65763       -4.50029
|  4> C          1.69499        1.54179       -5.57045
|  5> H          2.69733        1.73466       -5.18400
|  6> H          1.50666        2.27224       -6.35808
|  7> S          1.78029       -0.03313       -6.42874
|  8> O          2.56929        0.21366       -7.60736
|  9> F          0.41688       -0.46297       -6.61859
| 10> O          2.50513       -0.93326       -5.48257
| 11> H         -0.34424        1.45871       -4.93752
| 12> H          0.61845        2.64655       -4.09174
| 13> H          0.80247        0.94882       -3.72173
| 14> *
| 15> %MaxCore 64000
| 16>
| 17> %pal nprocs 4
| 18> end
| 19>
| 20> %scf
| 21>   MaxIter 150
| 22> end
| 23>
| 24>
| 25>                          ****END OF INPUT****

CARTESIAN COORDINATES (ANGSTROEM)
---------------------------------
  C      0.611880    1.657630   -4.500290
  C      1.694990    1.541790   -5.570450
  H      2.697330    1.734660   -5.184000
  H      1.506660    2.272240   -6.358080
  S      1.780290   -0.033130   -6.428740
  O      2.569290    0.213660   -7.607360
  F      0.416880   -0.462970   -6.618590
  O      2.505130   -0.933260   -5.482570
  H     -0.344240    1.458710   -4.937520
  H      0.618450    2.646550   -4.091740
  H      0.802470    0.948820   -3.721730

 Total Charge           Charge          ....    0
 Multiplicity           Mult            ....    1
 Number of Electrons    NEL             ....   58
 Basis Dimension        Dim             ....  222

ORBITAL ENERGIES
----------------

  NO   OCC          E(Eh)            E(eV)
   0   2.0000     -89.178303     -2426.6650
   1   2.0000     -24.881046      -677.0477
   2   2.0000     -19.213127      -522.8158
   3   2.0000     -19.193486      -522.2813
   4   2.0000     -10.307122      -280.4710
   5   2.0000     -10.267900      -279.4038
   6   2.0000      -8.222220      -223.7380
   7   2.0000      -6.190182      -168.4434
   8   2.0000      -6.183418      -168.2594
   9   2.0000      -6.183234      -168.2544
  10   2.0000      -1.470750       -40.0212
  11   2.0000      -1.188302       -32.3353
  12   2.0000      -1.080751       -29.4087
  13   2.0000      -0.910990       -24.7893
  14   2.0000      -0.814684       -22.1687
  15   2.0000      -0.761047       -20.7091
  16   2.0000      -0.677038       -18.4232
  17   2.0000      -0.665184       -18.1006
  18   2.0000      -0.620425       -16.8826
  19   2.0000      -0.568673       -15.4744
  20   2.0000      -0.548754       -14.9324
  21   2.0000      -0.521253       -14.1840
  22   2.0000      -0.506859       -13.7923
  23   2.0000      -0.481725       -13.1084
  24   2.0000      -0.464715       -12.6455
  25   2.0000      -0.450136       -12.2488
  26   2.0000      -0.401458       -10.9242
  27   2.0000      -0.383821       -10.4443
  28   2.0000      -0.369616       -10.0578
  29   0.0000       0.047776         1.3000
  30   0.0000       0.085798         2.3347
  31   0.0000       0.103762         2.8235
  32   0.0000       0.108741         2.9590
  33   0.0000       0.117232         3.1900

MULLIKEN ATOMIC CHARGES
-----------------------
   0 C :   -0.358370
   1 C :   -0.246561
   2 H :    0.166293
   3 H :    0.144816
   4 S :    0.861311
   5 O :   -0.401173
   6 F :   -0.105421
   7 O :   -0.466358
   8 H :    0.124340
   9 H :    0.133784
  10 H :    0.147340
Sum of atomic charges:    0.0000000

LOEWDIN ATOMIC CHARGES
----------------------
   0 C :   -0.315657
   1 C :   -0.389427
   2 H :    0.150663
   3 H :    0.139235
   4 S :    0.545986
   5 O :   -0.264429
   6 F :    0.098401
   7 O :   -0.335257
   8 H :    0.118570
   9 H :    0.125937
  10 H :    0.125977

  Mayer bond orders larger than 0.100000
B(  0-C ,  1-C ) :   0.9392 B(  0-C ,  8-H ) :   0.9716 B(  0-C ,  9-H ) :   0.9665
B(  0-C , 10-H ) :   0.9689 B(  1-C ,  2-H ) :   0.9449 B(  1-C ,  3-H ) :   0.9447
B(  1-C ,  4-S ) :   0.9130 B(  4-S ,  5-O ) :   1.9590 B(  4-S ,  6-F ) :   1.1308
B(  4-S ,  7-O ) :   1.8773

FINAL SINGLE POINT ENERGY      -727.719655700549

DIPOLE MOMENT
-------------
                                X             Y             Z
Electronic contribution:      0.22437      -6.75270      -5.85339
Nuclear contribution   :     -1.42658       8.04056       6.39401
                        -----------------------------------------
Total Dipole Moment    :     -1.20221       1.28786       0.54063
                        -----------------------------------------
Magnitude (a.u.)       :      1.84287
Magnitude (Debye)      :      4.68420

Rotational constants in cm-1:     0.153659     0.082363     0.078978
Rotational constants in MHz :  4606.587369  2469.179541  2367.702074

                             ****ORCA TERMINATED NORMALLY****
TOTAL RUN TIME: 0 days 0 hours 0 minutes 31 seconds 344 msec
