                         Program Version 5.0.0 -  RELEASE  -
|  1> !CAM-B3LYP RIJCOSX def2-TZVP def2/J TightSCF
|  2> *xyz 0 1
|  3> C          1.96337       -1.74915       -1.89689
|  4> N          2.73849       -2.01517       -3.09711
|  5> C          4.04974       -2.15472       -3.15204
|  6> C          4.65821       -1.98629       -4.31866
|  7> N          4.76423       -2.45444       -2.05049
|  8> H          4.28736       -2.77626       -1.21750
|  9> H          5.75082       -2.65835       -2.12599
| 10> H          2.34518       -1.69027       -3.97145
| 11> H          4.10900       -1.59268       -5.07176
| 12> H          5.64910       -2.15646       -4.42724
| 13> C          2.08852       -0.30091       -1.41520
| 14> H          2.23127       -2.45162       -1.10264
| 15> H          0.93025       -1.97780       -2.15544
| 16> H          1.82118        0.36368       -2.21003
| 17> H          3.09792       -0.11068       -1.11551
| 18> H          1.43391       -0.14382       -0.58352
| 19> *
| 20> %MaxCore 64000
| 21>
| 22> %pal nprocs 4
| 23> end
| 24>
| 25> %scf
| 26>   MaxIter 150
| 27> end
| 28>
| 29>
| 30>                          ****END OF INPUT****

CARTESIAN COORDINATES (ANGSTROEM)
---------------------------------
  C      1.963370   -1.749150   -1.896890
  N      2.738490   -2.015170   -3.097110
  C      4.049740   -2.154720   -3.152040
  C      4.658210   -1.986290   -4.318660
  N      4.764230   -2.454440   -2.050490
  H      4.287360   -2.776260   -1.217500
  H      5.750820   -2.658350   -2.125990
  H      2.345180   -1.690270   -3.971450
  H      4.109000   -1.592680   -5.071760
  H      5.649100   -2.156460   -4.427240
  C      2.088520   -0.300910   -1.415200
  H      2.231270   -2.451620   -1.102640
  H      0.930250   -1.977800   -2.155440
  H      1.821180    0.363680   -2.210030
  H      3.097920   -0.110680   -1.115510
  H      1.433910   -0.143820   -0.583520

 Total Charge           Charge          ....    0
 Multiplicity           Mult            ....    1
 Number of Electrons    NEL             ....   48
 Basis Dimension        Dim             ....  246

ORBITAL ENERGIES
----------------

  NO   OCC          E(Eh)            E(eV)
   0   2.0000     -14.386622      -391.4799
   1   2.0000     -14.385746      -391.4561
   2   2.0000     -10.288613      -279.9674
   3   2.0000     -10.282895      -279.8118
   4   2.0000     -10.230071      -278.3744
   5   2.0000     -10.151757      -276.2433
   6   2.0000      -1.051532       -28.6136
   7   2.0000      -0.964408       -26.2429
   8   2.0000      -0.852237       -23.1906
   9   2.0000      -0.781047       -21.2534
  10   2.0000      -0.707042       -19.2396
  11   2.0000      -0.672212       -18.2918
  12   2.0000      -0.607141       -16.5211
  13   2.0000      -0.566330       -15.4106
  14   2.0000      -0.547929       -14.9099
  15   2.0000      -0.506368       -13.7790
  16   2.0000      -0.502590       -13.6762
  17   2.0000      -0.469510       -12.7760
  18   2.0000      -0.449914       -12.2428
  19   2.0000      -0.440474       -11.9859
  20   2.0000      -0.426088       -11.5945
  21   2.0000      -0.422387       -11.4937
  22   2.0000      -0.317863        -8.6495
  23   2.0000      -0.220030        -5.9873
  24   0.0000       0.058577         1.5940
  25   0.0000       0.085724         2.3327
  26   0.0000       0.097918         2.6645
  27   0.0000       0.110387         3.0038
  28   0.0000       0.128076         3.4851

MULLIKEN ATOMIC CHARGES
-----------------------
   0 C :   -0.162690
   1 N :   -0.277943
   2 C :    0.373244
   3 C :   -0.534067
   4 N :   -0.477809
   5 H :    0.216944
   6 H :    0.235048
   7 H :    0.209097
   8 H :    0.076168
   9 H :    0.084802
  10 C :   -0.296242
  11 H :    0.096832
  12 H :    0.120650
  13 H :    0.105499
  14 H :    0.122974
  15 H :    0.107493
Sum of atomic charges:    0.0000000

LOEWDIN ATOMIC CHARGES
----------------------
   0 C :   -0.315252
   1 N :    0.116356
   2 C :   -0.458081
   3 C :   -0.343658
   4 N :   -0.020153
   5 H :    0.160208
   6 H :    0.174957
   7 H :    0.195624
   8 H :    0.096190
   9 H :    0.094388
  10 C :   -0.305167
  11 H :    0.124089
  12 H :    0.131509
  13 H :    0.115442
  14 H :    0.118494
  15 H :    0.115052

  Mayer bond orders larger than 0.100000
B(  0-C ,  1-N ) :   0.9599 B(  0-C , 10-C ) :   0.9250 B(  0-C , 11-H ) :   0.9852
B(  0-C , 12-H ) :   0.9846 B(  1-N ,  2-C ) :   1.2114 B(  1-N ,  7-H ) :   0.9298
B(  2-C ,  3-C ) :   1.6185 B(  2-C ,  4-N ) :   1.1192 B(  3-C ,  8-H ) :   1.0113
B(  3-C ,  9-H ) :   1.0106 B(  4-N ,  5-H ) :   0.9252 B(  4-N ,  6-H ) :   0.9278
B( 10-C , 13-H ) :   0.9755 B( 10-C , 14-H ) :   0.9746 B( 10-C , 15-H ) :   0.9739

FINAL SINGLE POINT ENERGY      -267.869795100045

DIPOLE MOMENT
-------------
                                X             Y             Z
Electronic contribution:      1.40672      -2.35259      -1.18394
Nuclear contribution   :     -1.91052       2.32590       2.09379
                        -----------------------------------------
Total Dipole Moment    :     -0.50380      -0.02669       0.90986
                        -----------------------------------------
Magnitude (a.u.)       :      1.04037
Magnitude (Debye)      :      2.64440

Rotational constants in cm-1:     0.219448     0.077923     0.068804
Rotational constants in MHz :  6578.886179  2336.083179  2062.700476

                             ****ORCA TERMINATED NORMALLY****
TOTAL RUN TIME: 0 days 0 hours 0 minutes 44 seconds 528 msec
