                         Program Version 5.0.0 -  RELEASE  -
|  1> !CAM-B3LYP RIJCOSX def2-TZVP def2/J TightSCF
|  2> *xyz 0 1
|  3> C          0.61188        1.65763       -4.50029
|  4> C          1.69499        1.54179       -5.57045
|  5> H          2.69733        1.73466       -5.18400
|  6> H          1.50666        2.27224       -6.35808
|  7> S          1.78029       -0.03313       -6.42874
|  8> O          2.56929        0.21366       -7.60736
|  9> O          0.41688       -0.46297       -6.61859
| 10> F          2.50513       -0.93326       -5.48257
| 11> H         -0.34424        1.45871       -4.93752
| 12> H          0.61845        2.64655       -4.09174
| 13> H          0.80247        0.94882       -3.72173
| 14> *
| 15> %MaxCore 64000
| 16>
| 17> %pal nprocs 4
| 18> end
| 19>
| 20> %scf
| 21>   MaxIter 150
| 22> end
| 23>
| 24>
| 25>                          ****END OF INPUT****

CARTESIAN COORDINATES (ANGSTROEM)
---------------------------------
  C      0.611880    1.657630   -4.500290
  C      1.694990    1.541790   -5.570450
  H      2.697330    1.734660   -5.184000
  H      1.506660    2.272240   -6.358080
  S      1.780290   -0.033130   -6.428740
  O      2.569290    0.213660   -7.607360
  O      0.416880   -0.462970   -6.618590
  F      2.505130   -0.933260   -5.482570
  H     -0.344240    1.458710   -4.937520
  H      0.618450    2.646550   -4.091740
  H      0.802470    0.948820   -3.721730

 Total Charge           Charge          ....    0
 Multiplicity           Mult            ....    1
 Number of Electrons    NEL             ....   58
 Basis Dimension        Dim             ....  222

ORBITAL ENERGIES
----------------

  NO   OCC          E(Eh)            E(eV)
   0   2.0000     -89.176044     -2426.6035
   1   2.0000     -24.853074      -676.2865
   2   2.0000     -19.213469      -522.8251
   3   2.0000     -19.212640      -522.8025
   4   2.0000     -10.306179      -280.4454
   5   2.0000     -10.262783      -279.2645
   6   2.0000      -8.219906      -223.6750
   7   2.0000      -6.187898      -168.3813
   8   2.0000      -6.181414      -168.2048
   9   2.0000      -6.180794      -168.1880
  10   2.0000      -1.426989       -38.8303
  11   2.0000      -1.200410       -32.6648
  12   2.0000      -1.109124       -30.1808
  13   2.0000      -0.907505       -24.6945
  14   2.0000      -0.800039       -21.7702
  15   2.0000      -0.747801       -20.3487
  16   2.0000      -0.650437       -17.6993
  17   2.0000      -0.634086       -17.2544
  18   2.0000      -0.621845       -16.9213
  19   2.0000      -0.566703       -15.4208
  20   2.0000      -0.550925       -14.9914
  21   2.0000      -0.528402       -14.3785
  22   2.0000      -0.503300       -13.6955
  23   2.0000      -0.474733       -12.9181
  24   2.0000      -0.472269       -12.8511
  25   2.0000      -0.450822       -12.2675
  26   2.0000      -0.410014       -11.1570
  27   2.0000      -0.401087       -10.9141
  28   2.0000      -0.390854       -10.6357
  29   0.0000       0.053720         1.4618
  30   0.0000       0.087720         2.3870
  31   0.0000       0.099741         2.7141
  32   0.0000       0.112388         3.0582
  33   0.0000       0.122870         3.3435

MULLIKEN ATOMIC CHARGES
-----------------------
   0 C :   -0.343122
   1 C :   -0.260236
   2 H :    0.144790
   3 H :    0.158900
   4 S :    0.869406
   5 O :   -0.413725
   6 O :   -0.419418
   7 F :   -0.143580
   8 H :    0.152203
   9 H :    0.130138
  10 H :    0.124644
Sum of atomic charges:   -0.0000000

LOEWDIN ATOMIC CHARGES
----------------------
   0 C :   -0.312478
   1 C :   -0.392670
   2 H :    0.137217
   3 H :    0.149636
   4 S :    0.553687
   5 O :   -0.270248
   6 O :   -0.269663
   7 F :    0.032367
   8 H :    0.127084
   9 H :    0.124238
  10 H :    0.120830

  Mayer bond orders larger than 0.100000
B(  0-C ,  1-C ) :   0.9410 B(  0-C ,  8-H ) :   0.9674 B(  0-C ,  9-H ) :   0.9651
B(  0-C , 10-H ) :   0.9725 B(  1-C ,  2-H ) :   0.9490 B(  1-C ,  3-H ) :   0.9442
B(  1-C ,  4-S ) :   0.9131 B(  4-S ,  5-O ) :   1.9549 B(  4-S ,  6-O ) :   1.9214
B(  4-S ,  7-F ) :   1.0903

FINAL SINGLE POINT ENERGY      -727.743531257538

DIPOLE MOMENT
-------------
                                X             Y             Z
Electronic contribution:      3.78987      -7.59102      -3.90971
Nuclear contribution   :     -3.60260       8.53062       5.21025
                        -----------------------------------------
Total Dipole Moment    :      0.18727       0.93959       1.30054
                        -----------------------------------------
Magnitude (a.u.)       :      1.61533
Magnitude (Debye)      :      4.10585

Rotational constants in cm-1:     0.154011     0.080858     0.079602
Rotational constants in MHz :  4617.134198  2424.070332  2386.404775

                             ****ORCA TERMINATED NORMALLY****
TOTAL RUN TIME: 0 days 0 hours 0 minutes 30 seconds 742 msec
