                         Program Version 5.0.0 -  RELEASE  -
|  1> !CAM-B3LYP RIJCOSX def2-TZVP def2/J TightSCF
|  2> *xyz 0 1
|  3> C          1.96337       -1.74915       -1.89689
|  4> N          2.73849       -2.01517       -3.09711
|  5> C          4.04974       -2.15472       -3.15204
|  6> N          4.65821       -1.98629       -4.31866
|  7> C          4.76423       -2.45444       -2.05049
|  8> H          4.28736       -2.77626       -1.21750
|  9> H          5.75082       -2.65835       -2.12599
| 10> H          2.34518       -1.69027       -3.97145
| 11> H          4.10900       -1.59268       -5.07176
| 12> H          5.64910       -2.15646       -4.42724
| 13> C          2.08852       -0.30091       -1.41520
| 14> H          2.23127       -2.45162       -1.10264
| 15> H          0.93025       -1.97780       -2.15544
| 16> H          1.82118        0.36368       -2.21003
| 17> H          3.09792       -0.11068       -1.11551
| 18> H          1.43391       -0.14382       -0.58352
| 19> *
| 20> %MaxCore 64000
| 21>
| 22> %pal nprocs 4
| 23> end
| 24>
| 25> %scf
| 26>   MaxIter 150
| 27> end
| 28>
| 29>
| 30>                          ****END OF INPUT****

CARTESIAN COORDINATES (ANGSTROEM)
---------------------------------
  C      1.963370   -1.749150   -1.896890
  N      2.738490   -2.015170   -3.097110
  C      4.049740   -2.154720   -3.152040
  N      4.658210   -1.986290   -4.318660
  C      4.764230   -2.454440   -2.050490
  H      4.287360   -2.776260   -1.217500
  H      5.750820   -2.658350   -2.125990
  H      2.345180   -1.690270   -3.971450
  H      4.109000   -1.592680   -5.071760
  H      5.649100   -2.156460   -4.427240
  C      2.088520   -0.300910   -1.415200
  H      2.231270   -2.451620   -1.102640
  H      0.930250   -1.977800   -2.155440
  H      1.821180    0.363680   -2.210030
  H      3.097920   -0.110680   -1.115510
  H      1.433910   -0.143820   -0.583520

 Total Charge           Charge          ....    0
 Multiplicity           Mult            ....    1
 Number of Electrons    NEL             ....   48
 Basis Dimension        Dim             ....  246

ORBITAL ENERGIES
----------------

  NO   OCC          E(Eh)            E(eV)
   0   2.0000     -14.389828      -391.5671
   1   2.0000     -14.388484      -391.5306
   2   2.0000     -10.290258      -280.0122
   3   2.0000     -10.276110      -279.6272
   4   2.0000     -10.223119      -278.1852
   5   2.0000     -10.150865      -276.2191
   6   2.0000      -1.057301       -28.7706
   7   2.0000      -0.968553       -26.3557
   8   2.0000      -0.834825       -22.7167
   9   2.0000      -0.785912       -21.3858
  10   2.0000      -0.719990       -19.5919
  11   2.0000      -0.635550       -17.2942
  12   2.0000      -0.617919       -16.8144
  13   2.0000      -0.595428       -16.2024
  14   2.0000      -0.536657       -14.6032
  15   2.0000      -0.509003       -13.8507
  16   2.0000      -0.485809       -13.2195
  17   2.0000      -0.465480       -12.6663
  18   2.0000      -0.447220       -12.1695
  19   2.0000      -0.434065       -11.8115
  20   2.0000      -0.429110       -11.6767
  21   2.0000      -0.411694       -11.2028
  22   2.0000      -0.315021        -8.5722
  23   2.0000      -0.220831        -6.0091
  24   0.0000       0.055573         1.5122
  25   0.0000       0.086683         2.3588
  26   0.0000       0.102690         2.7943
  27   0.0000       0.113636         3.0922
  28   0.0000       0.128593         3.4992

MULLIKEN ATOMIC CHARGES
-----------------------
   0 C :   -0.123557
   1 N :   -0.284852
   2 C :    0.336994
   3 N :   -0.454465
   4 C :   -0.522361
   5 H :    0.085577
   6 H :    0.077550
   7 H :    0.176758
   8 H :    0.205078
   9 H :    0.242599
  10 C :   -0.316904
  11 H :    0.119210
  12 H :    0.113429
  13 H :    0.091134
  14 H :    0.144704
  15 H :    0.109106
Sum of atomic charges:   -0.0000000

LOEWDIN ATOMIC CHARGES
----------------------
   0 C :   -0.297528
   1 N :    0.114682
   2 C :   -0.465086
   3 N :   -0.010107
   4 C :   -0.355161
   5 H :    0.095896
   6 H :    0.092212
   7 H :    0.177005
   8 H :    0.161031
   9 H :    0.178273
  10 C :   -0.304802
  11 H :    0.135038
  12 H :    0.128954
  13 H :    0.110718
  14 H :    0.123202
  15 H :    0.115673

  Mayer bond orders larger than 0.100000
B(  0-C ,  1-N ) :   0.9381 B(  0-C , 10-C ) :   0.9397 B(  0-C , 11-H ) :   0.9734
B(  0-C , 12-H ) :   0.9824 B(  1-N ,  2-C ) :   1.1960 B(  1-N ,  7-H ) :   0.9365
B(  2-C ,  3-N ) :   1.1376 B(  2-C ,  4-C ) :   1.6432 B(  3-N ,  8-H ) :   0.9310
B(  3-N ,  9-H ) :   0.9232 B(  4-C ,  5-H ) :   1.0101 B(  4-C ,  6-H ) :   1.0012
B( 10-C , 13-H ) :   0.9766 B( 10-C , 14-H ) :   0.9737 B( 10-C , 15-H ) :   0.9760

FINAL SINGLE POINT ENERGY      -267.868596417051

DIPOLE MOMENT
-------------
                                X             Y             Z
Electronic contribution:      1.32370      -1.81086      -3.48925
Nuclear contribution   :     -1.88803       2.22658       2.57497
                        -----------------------------------------
Total Dipole Moment    :     -0.56433       0.41572      -0.91428
                        -----------------------------------------
Magnitude (a.u.)       :      1.15204
Magnitude (Debye)      :      2.92825

Rotational constants in cm-1:     0.226509     0.075782     0.067928
Rotational constants in MHz :  6790.555051  2271.890226  2036.439218

                             ****ORCA TERMINATED NORMALLY****
TOTAL RUN TIME: 0 days 0 hours 0 minutes 41 seconds 951 msec
