                         Program Version 5.0.0 -  RELEASE  -
|  1> !CAM-B3LYP RIJCOSX def2-TZVP def2/J TightSCF xyzfile
|  2>
|  3> *xyzfile 0 1 D2.xyz
|  4>
|  5> %MaxCore 64000
|  6>
|  7> %pal nprocs 18
|  8> end
|  9>
| 10> %scf
| 11>   MaxIter 150
| 12> end
| 13>
| 14>
| 15>                          ****END OF INPUT****

CARTESIAN COORDINATES (ANGSTROEM)
---------------------------------
  C      1.963365   -1.749150   -1.896887
  N      2.738490   -2.015170   -3.097113
  C      0.611877    1.657634   -4.500288
  C      1.694991    1.541794   -5.570447
  H      2.697326    1.734659   -5.183996
  H      1.506656    2.272239   -6.358076
  S      1.780287   -0.033128   -6.428739
  C      4.049736   -2.154717   -3.152044
  C      4.658206   -1.986293   -4.318655
  N      4.764231   -2.454435   -2.050491
  H      4.287363   -2.776259   -1.217496
  H      5.750825   -2.658351   -2.125988
  H      2.345176   -1.690274   -3.971447
  H      4.109004   -1.592677   -5.071760
  H      5.649095   -2.156462   -4.427237
  F      2.569287    0.213657   -7.607360
  O      0.416880   -0.462969   -6.618595
  C      2.088520   -0.300912   -1.415204
  H      2.231272   -2.451616   -1.102643
  H      0.930249   -1.977801   -2.155438
  C      0.680356    0.655418   -3.348038
  H     -0.356865    1.549231   -4.991128
  H      0.650228    2.675438   -4.096000
  C      1.968993    0.733582   -2.535654
  H      3.051356   -0.168602   -0.911868
  H      1.316501   -0.136231   -0.657252
  O      2.505129   -0.933263   -5.482570
  H      2.824195    0.624726   -3.208464
  H      2.058919    1.730331   -2.093112
  H      0.542252   -0.344731   -3.766662
  H     -0.174219    0.829692   -2.685182

 Total Charge           Charge          ....    0
 Multiplicity           Mult            ....    1
 Number of Electrons    NEL             ....  120
 Basis Dimension        Dim             ....  542

ORBITAL ENERGIES
----------------

  NO   OCC          E(Eh)            E(eV)
   0   2.0000     -89.191267     -2427.0178
   1   2.0000     -24.891182      -677.3235
   2   2.0000     -19.224573      -523.1272
   3   2.0000     -19.208393      -522.6869
   4   2.0000     -14.367085      -390.9483
   5   2.0000     -14.352673      -390.5561
   6   2.0000     -10.311266      -280.5838
   7   2.0000     -10.275309      -279.6054
   8   2.0000     -10.265166      -279.3294
   9   2.0000     -10.264109      -279.3006
  10   2.0000     -10.249415      -278.9007
  11   2.0000     -10.239366      -278.6273
  12   2.0000     -10.234544      -278.4961
  13   2.0000     -10.120532      -275.3937
  14   2.0000      -8.235372      -224.0959
  15   2.0000      -6.202949      -168.7908
  16   2.0000      -6.196759      -168.6224
  17   2.0000      -6.196531      -168.6162
  18   2.0000      -1.481703       -40.3192
  19   2.0000      -1.201529       -32.6953
  20   2.0000      -1.100879       -29.9564
  21   2.0000      -1.027895       -27.9704
  22   2.0000      -0.944979       -25.7142
  23   2.0000      -0.926672       -25.2160
  24   2.0000      -0.876066       -23.8390
  25   2.0000      -0.841495       -22.8983
  26   2.0000      -0.802984       -21.8503
  27   2.0000      -0.776731       -21.1359
  28   2.0000      -0.738454       -20.0944
  29   2.0000      -0.704853       -19.1800
  30   2.0000      -0.681916       -18.5559
  31   2.0000      -0.670905       -18.2563
  32   2.0000      -0.664070       -18.0703
  33   2.0000      -0.640379       -17.4256
  34   2.0000      -0.631001       -17.1704
  35   2.0000      -0.587636       -15.9904
  36   2.0000      -0.574217       -15.6252
  37   2.0000      -0.571362       -15.5475
  38   2.0000      -0.547707       -14.9039
  39   2.0000      -0.544700       -14.8220
  40   2.0000      -0.534730       -14.5507
  41   2.0000      -0.526658       -14.3311
  42   2.0000      -0.509897       -13.8750
  43   2.0000      -0.500006       -13.6059
  44   2.0000      -0.484436       -13.1822
  45   2.0000      -0.469322       -12.7709
  46   2.0000      -0.454733       -12.3739
  47   2.0000      -0.450582       -12.2610
  48   2.0000      -0.438586       -11.9345
  49   2.0000      -0.430146       -11.7049
  50   2.0000      -0.421124       -11.4594
  51   2.0000      -0.420382       -11.4392
  52   2.0000      -0.413230       -11.2446
  53   2.0000      -0.398304       -10.8384
  54   2.0000      -0.394019       -10.7218
  55   2.0000      -0.387292       -10.5387
  56   2.0000      -0.383182       -10.4269
  57   2.0000      -0.368249       -10.0206
  58   2.0000      -0.294894        -8.0245
  59   2.0000      -0.195828        -5.3287
  60   0.0000       0.054303         1.4777
  61   0.0000       0.061562         1.6752
  62   0.0000       0.073451         1.9987
  63   0.0000       0.086592         2.3563
  64   0.0000       0.093653         2.5484

MULLIKEN ATOMIC CHARGES
-----------------------
   0 C :   -0.269251
   1 N :   -0.239595
   2 C :   -0.189216
   3 C :   -0.305423
   4 H :    0.174003
   5 H :    0.156865
   6 S :    0.885277
   7 C :    0.326248
   8 C :   -0.543733
   9 N :   -0.486214
  10 H :    0.211393
  11 H :    0.228826
  12 H :    0.238042
  13 H :    0.114046
  14 H :    0.071925
  15 F :   -0.096395
  16 O :   -0.401137
  17 C :   -0.108148
  18 H :    0.112590
  19 H :    0.141676
  20 C :   -0.265804
  21 H :    0.142727
  22 H :    0.126440
  23 C :   -0.259865
  24 H :    0.108550
  25 H :    0.089770
  26 O :   -0.471512
  27 H :    0.149350
  28 H :    0.103163
  29 H :    0.144656
  30 H :    0.110747
Sum of atomic charges:    0.0000000

LOEWDIN ATOMIC CHARGES
----------------------
   0 C :   -0.300650
   1 N :    0.121940
   2 C :   -0.274559
   3 C :   -0.367668
   4 H :    0.145101
   5 H :    0.139908
   6 S :    0.572145
   7 C :   -0.463060
   8 C :   -0.360674
   9 N :   -0.027605
  10 H :    0.156726
  11 H :    0.171136
  12 H :    0.176492
  13 H :    0.094267
  14 H :    0.088025
  15 F :    0.107759
  16 O :   -0.257038
  17 C :   -0.269898
  18 H :    0.125365
  19 H :    0.132776
  20 C :   -0.268293
  21 H :    0.147301
  22 H :    0.148032
  23 C :   -0.270673
  24 H :    0.137218
  25 H :    0.132812
  26 O :   -0.294171
  27 H :    0.142835
  28 H :    0.134900
  29 H :    0.139364
  30 H :    0.140189

  Mayer bond orders larger than 0.100000
B(  0-C ,  1-N ) :   0.9673 B(  0-C , 17-C ) :   0.8848 B(  0-C , 18-H ) :   0.9976
B(  0-C , 19-H ) :   0.9953 B(  1-N ,  7-C ) :   1.2264 B(  1-N , 12-H ) :   0.8970
B(  2-C ,  3-C ) :   0.9402 B(  2-C , 20-C ) :   0.9601 B(  2-C , 21-H ) :   0.9755
B(  2-C , 22-H ) :   0.9622 B(  3-C ,  4-H ) :   0.9426 B(  3-C ,  5-H ) :   0.9479
B(  3-C ,  6-S ) :   0.9238 B(  6-S , 15-F ) :   1.1647 B(  6-S , 16-O ) :   1.9368
B(  6-S , 26-O ) :   1.7356 B(  7-C ,  8-C ) :   1.6379 B(  7-C ,  9-N ) :   1.1034
B(  8-C , 13-H ) :   0.9923 B(  8-C , 14-H ) :   1.0044 B(  9-N , 10-H ) :   0.9255
B(  9-N , 11-H ) :   0.9316 B( 17-C , 23-C ) :   0.9612 B( 17-C , 24-H ) :   0.9731
B( 17-C , 25-H ) :   0.9766 B( 20-C , 23-C ) :   0.9085 B( 20-C , 29-H ) :   0.9781
B( 20-C , 30-H ) :   0.9777 B( 23-C , 27-H ) :   0.9711 B( 23-C , 28-H ) :   0.9754

FINAL SINGLE POINT ENERGY     -1072.980732949097

DIPOLE MOMENT
-------------
                                X             Y             Z
Electronic contribution:     -0.87207      -0.80148     -22.50244
Nuclear contribution   :      0.43347       2.59110      22.83150
                        -----------------------------------------
Total Dipole Moment    :     -0.43861       1.78962       0.32906
                        -----------------------------------------
Magnitude (a.u.)       :      1.87173
Magnitude (Debye)      :      4.75757

Rotational constants in cm-1:     0.029257     0.014415     0.010996
Rotational constants in MHz :   877.098782   432.159206   329.643335

                             ****ORCA TERMINATED NORMALLY****
TOTAL RUN TIME: 0 days 0 hours 1 minutes 43 seconds 938 msec
