                         Program Version 5.0.0 -  RELEASE  -
|  1> !CAM-B3LYP RIJCOSX def2-TZVP def2/J TightSCF xyzfile
|  2>
|  3> *xyzfile 0 1 D3.xyz
|  4>
|  5> %MaxCore 64000
|  6>
|  7> %pal nprocs 18
|  8> end
|  9>
| 10> %scf
| 11>   MaxIter 150
| 12> end
| 13>
| 14>
| 15>                          ****END OF INPUT****

CARTESIAN COORDINATES (ANGSTROEM)
---------------------------------
  C      1.963365   -1.749150   -1.896887
  N      2.738490   -2.015170   -3.097113
  C      0.611877    1.657634   -4.500288
  C      1.694991    1.541794   -5.570447
  H      2.697326    1.734659   -5.183996
  H      1.506656    2.272239   -6.358076
  S      1.780287   -0.033128   -6.428739
  C      4.049736   -2.154717   -3.152044
  N      4.658206   -1.986293   -4.318655
  C      4.764231   -2.454435   -2.050491
  H      4.287363   -2.776259   -1.217496
  H      5.750825   -2.658351   -2.125988
  H      2.345176   -1.690274   -3.971447
  H      4.109004   -1.592677   -5.071760
  H      5.649095   -2.156462   -4.427237
  F      2.569287    0.213657   -7.607360
  O      0.416880   -0.462969   -6.618595
  C      2.088520   -0.300912   -1.415204
  H      2.231272   -2.451616   -1.102643
  H      0.930249   -1.977801   -2.155438
  C      0.680356    0.655418   -3.348038
  H     -0.356865    1.549231   -4.991128
  H      0.650228    2.675438   -4.096000
  C      1.968993    0.733582   -2.535654
  H      3.051356   -0.168602   -0.911868
  H      1.316501   -0.136231   -0.657252
  O      2.505129   -0.933263   -5.482570
  H      2.824195    0.624726   -3.208464
  H      2.058919    1.730331   -2.093112
  H      0.542252   -0.344731   -3.766662
  H     -0.174219    0.829692   -2.685182

 Total Charge           Charge          ....    0
 Multiplicity           Mult            ....    1
 Number of Electrons    NEL             ....  120
 Basis Dimension        Dim             ....  542

ORBITAL ENERGIES
----------------

  NO   OCC          E(Eh)            E(eV)
   0   2.0000     -89.208331     -2427.4821
   1   2.0000     -24.906560      -677.7420
   2   2.0000     -19.239668      -523.5380
   3   2.0000     -19.231013      -523.3025
   4   2.0000     -14.354269      -390.5995
   5   2.0000     -14.353649      -390.5826
   6   2.0000     -10.322511      -280.8898
   7   2.0000     -10.281714      -279.7796
   8   2.0000     -10.266016      -279.3525
   9   2.0000     -10.258297      -279.1425
  10   2.0000     -10.252576      -278.9868
  11   2.0000     -10.240207      -278.6502
  12   2.0000     -10.228822      -278.3404
  13   2.0000     -10.128883      -275.6209
  14   2.0000      -8.252379      -224.5587
  15   2.0000      -6.220041      -169.2559
  16   2.0000      -6.213923      -169.0895
  17   2.0000      -6.213330      -169.0733
  18   2.0000      -1.497251       -40.7423
  19   2.0000      -1.218457       -33.1559
  20   2.0000      -1.120466       -30.4894
  21   2.0000      -1.029063       -28.0022
  22   2.0000      -0.944106       -25.6904
  23   2.0000      -0.934102       -25.4182
  24   2.0000      -0.879741       -23.9390
  25   2.0000      -0.842484       -22.9252
  26   2.0000      -0.805241       -21.9117
  27   2.0000      -0.768435       -20.9102
  28   2.0000      -0.758013       -20.6266
  29   2.0000      -0.717041       -19.5117
  30   2.0000      -0.694481       -18.8978
  31   2.0000      -0.682148       -18.5622
  32   2.0000      -0.666222       -18.1288
  33   2.0000      -0.646638       -17.5959
  34   2.0000      -0.613410       -16.6917
  35   2.0000      -0.595754       -16.2113
  36   2.0000      -0.588875       -16.0241
  37   2.0000      -0.580090       -15.7851
  38   2.0000      -0.567688       -15.4476
  39   2.0000      -0.550818       -14.9885
  40   2.0000      -0.532030       -14.4773
  41   2.0000      -0.525985       -14.3128
  42   2.0000      -0.510195       -13.8831
  43   2.0000      -0.493594       -13.4314
  44   2.0000      -0.489183       -13.3114
  45   2.0000      -0.485056       -13.1990
  46   2.0000      -0.457518       -12.4497
  47   2.0000      -0.452885       -12.3236
  48   2.0000      -0.438554       -11.9337
  49   2.0000      -0.433825       -11.8050
  50   2.0000      -0.430294       -11.7089
  51   2.0000      -0.417468       -11.3599
  52   2.0000      -0.415256       -11.2997
  53   2.0000      -0.407919       -11.1000
  54   2.0000      -0.401754       -10.9323
  55   2.0000      -0.394288       -10.7291
  56   2.0000      -0.390185       -10.6175
  57   2.0000      -0.378324       -10.2947
  58   2.0000      -0.286974        -7.8090
  59   2.0000      -0.197897        -5.3850
  60   0.0000       0.043264         1.1773
  61   0.0000       0.051960         1.4139
  62   0.0000       0.079201         2.1552
  63   0.0000       0.084797         2.3074
  64   0.0000       0.088903         2.4192

MULLIKEN ATOMIC CHARGES
-----------------------
   0 C :   -0.224759
   1 N :   -0.253194
   2 C :   -0.190032
   3 C :   -0.305736
   4 H :    0.174355
   5 H :    0.162186
   6 S :    0.893729
   7 C :    0.311955
   8 N :   -0.464390
   9 C :   -0.543526
  10 H :    0.078769
  11 H :    0.069987
  12 H :    0.226931
  13 H :    0.230558
  14 H :    0.223215
  15 F :   -0.094710
  16 O :   -0.389384
  17 C :   -0.117894
  18 H :    0.130202
  19 H :    0.134891
  20 C :   -0.266697
  21 H :    0.144840
  22 H :    0.129975
  23 C :   -0.262170
  24 H :    0.125360
  25 H :    0.093046
  26 O :   -0.507827
  27 H :    0.127204
  28 H :    0.104359
  29 H :    0.144007
  30 H :    0.114750
Sum of atomic charges:    0.0000000

LOEWDIN ATOMIC CHARGES
----------------------
   0 C :   -0.282170
   1 N :    0.120888
   2 C :   -0.274041
   3 C :   -0.366261
   4 H :    0.144946
   5 H :    0.141690
   6 S :    0.576910
   7 C :   -0.464505
   8 N :   -0.019817
   9 C :   -0.374508
  10 H :    0.092758
  11 H :    0.088752
  12 H :    0.164365
  13 H :    0.148771
  14 H :    0.168922
  15 F :    0.108547
  16 O :   -0.247225
  17 C :   -0.266385
  18 H :    0.136198
  19 H :    0.129961
  20 C :   -0.268351
  21 H :    0.147634
  22 H :    0.149525
  23 C :   -0.271626
  24 H :    0.143642
  25 H :    0.133570
  26 O :   -0.315500
  27 H :    0.137749
  28 H :    0.135096
  29 H :    0.138726
  30 H :    0.141737

  Mayer bond orders larger than 0.100000
B(  0-C ,  1-N ) :   0.9529 B(  0-C , 17-C ) :   0.9123 B(  0-C , 18-H ) :   0.9831
B(  0-C , 19-H ) :   0.9938 B(  1-N ,  7-C ) :   1.2110 B(  1-N , 12-H ) :   0.9025
B(  2-C ,  3-C ) :   0.9372 B(  2-C , 20-C ) :   0.9568 B(  2-C , 21-H ) :   0.9760
B(  2-C , 22-H ) :   0.9603 B(  3-C ,  4-H ) :   0.9406 B(  3-C ,  5-H ) :   0.9467
B(  3-C ,  6-S ) :   0.9259 B(  6-S , 15-F ) :   1.1673 B(  6-S , 16-O ) :   1.9503
B(  6-S , 26-O ) :   1.6993 B(  7-C ,  8-N ) :   1.1544 B(  7-C ,  9-C ) :   1.6267
B(  8-N , 13-H ) :   0.8945 B(  8-N , 14-H ) :   0.9314 B(  9-C , 10-H ) :   1.0040
B(  9-C , 11-H ) :   1.0012 B( 17-C , 23-C ) :   0.9659 B( 17-C , 24-H ) :   0.9670
B( 17-C , 25-H ) :   0.9821 B( 20-C , 23-C ) :   0.9038 B( 20-C , 29-H ) :   0.9814
B( 20-C , 30-H ) :   0.9784 B( 23-C , 27-H ) :   0.9748 B( 23-C , 28-H ) :   0.9750

FINAL SINGLE POINT ENERGY     -1072.992157633375

DIPOLE MOMENT
-------------
                                X             Y             Z
Electronic contribution:     -1.11629      -0.19215     -24.60507
Nuclear contribution   :      0.44707       2.53104      23.12246
                        -----------------------------------------
Total Dipole Moment    :     -0.66922       2.33889      -1.48261
                        -----------------------------------------
Magnitude (a.u.)       :      2.84893
Magnitude (Debye)      :      7.24141

Rotational constants in cm-1:     0.028906     0.014696     0.011110
Rotational constants in MHz :   866.591909   440.585554   333.081943

                             ****ORCA TERMINATED NORMALLY****
TOTAL RUN TIME: 0 days 0 hours 1 minutes 44 seconds 704 msec
