                         Program Version 5.0.0 -  RELEASE  -
|  1> !CAM-B3LYP RIJCOSX def2-TZVP def2/J TightSCF xyzfile
|  2>
|  3> *xyzfile 0 1 D7.xyz
|  4>
|  5> %MaxCore 64000
|  6>
|  7> %pal nprocs 18
|  8> end
|  9>
| 10> %scf
| 11>   MaxIter 150
| 12> end
| 13>
| 14>
| 15>                          ****END OF INPUT****

CARTESIAN COORDINATES (ANGSTROEM)
---------------------------------
  C      1.963365   -1.749150   -1.896887
  C      2.738490   -2.015170   -3.097113
  C      0.611877    1.657634   -4.500288
  C      1.694991    1.541794   -5.570447
  H      2.697326    1.734659   -5.183996
  H      1.506656    2.272239   -6.358076
  S      1.780287   -0.033128   -6.428739
  C      4.049736   -2.154717   -3.152044
  N      4.658206   -1.986293   -4.318655
  N      4.764231   -2.454435   -2.050491
  H      4.287363   -2.776259   -1.217496
  H      5.750825   -2.658351   -2.125988
  H      2.345176   -1.690274   -3.971447
  H      4.109004   -1.592677   -5.071760
  H      5.649095   -2.156462   -4.427237
  O      2.569287    0.213657   -7.607360
  O      0.416880   -0.462969   -6.618595
  C      2.088520   -0.300912   -1.415204
  H      2.231272   -2.451616   -1.102643
  H      0.930249   -1.977801   -2.155438
  C      0.680356    0.655418   -3.348038
  H     -0.356865    1.549231   -4.991128
  H      0.650228    2.675438   -4.096000
  C      1.968993    0.733582   -2.535654
  H      3.051356   -0.168602   -0.911868
  H      1.316501   -0.136231   -0.657252
  F      2.505129   -0.933263   -5.482570
  H      2.824195    0.624726   -3.208464
  H      2.058919    1.730331   -2.093112
  H      0.542252   -0.344731   -3.766662
  H     -0.174219    0.829692   -2.685182

 Total Charge           Charge          ....    0
 Multiplicity           Mult            ....    1
 Number of Electrons    NEL             ....  120
 Basis Dimension        Dim             ....  542

ORBITAL ENERGIES
----------------

  NO   OCC          E(Eh)            E(eV)
   0   2.0000     -89.178227     -2426.6629
   1   2.0000     -24.863175      -676.5614
   2   2.0000     -19.216000      -522.8939
   3   2.0000     -19.215596      -522.8830
   4   2.0000     -14.389363      -391.5545
   5   2.0000     -14.384087      -391.4109
   6   2.0000     -10.301939      -280.3300
   7   2.0000     -10.288541      -279.9654
   8   2.0000     -10.264731      -279.3175
   9   2.0000     -10.244786      -278.7748
  10   2.0000     -10.236221      -278.5417
  11   2.0000     -10.226508      -278.2774
  12   2.0000     -10.218259      -278.0530
  13   2.0000     -10.154983      -276.3311
  14   2.0000      -8.222562      -223.7473
  15   2.0000      -6.190750      -168.4589
  16   2.0000      -6.183833      -168.2706
  17   2.0000      -6.183306      -168.2563
  18   2.0000      -1.442328       -39.2477
  19   2.0000      -1.204554       -32.7776
  20   2.0000      -1.111864       -30.2554
  21   2.0000      -1.044379       -28.4190
  22   2.0000      -0.953795       -25.9541
  23   2.0000      -0.921073       -25.0637
  24   2.0000      -0.883224       -24.0337
  25   2.0000      -0.836699       -22.7677
  26   2.0000      -0.813229       -22.1291
  27   2.0000      -0.775475       -21.1018
  28   2.0000      -0.745033       -20.2734
  29   2.0000      -0.703723       -19.1493
  30   2.0000      -0.666089       -18.1252
  31   2.0000      -0.656688       -17.8694
  32   2.0000      -0.650725       -17.7071
  33   2.0000      -0.640893       -17.4396
  34   2.0000      -0.618496       -16.8301
  35   2.0000      -0.612758       -16.6740
  36   2.0000      -0.578390       -15.7388
  37   2.0000      -0.565152       -15.3786
  38   2.0000      -0.560233       -15.2447
  39   2.0000      -0.540657       -14.7120
  40   2.0000      -0.538339       -14.6489
  41   2.0000      -0.526555       -14.3283
  42   2.0000      -0.515394       -14.0246
  43   2.0000      -0.500526       -13.6200
  44   2.0000      -0.489554       -13.3214
  45   2.0000      -0.466654       -12.6983
  46   2.0000      -0.465645       -12.6708
  47   2.0000      -0.459864       -12.5135
  48   2.0000      -0.451991       -12.2993
  49   2.0000      -0.433250       -11.7893
  50   2.0000      -0.422685       -11.5018
  51   2.0000      -0.409509       -11.1433
  52   2.0000      -0.407173       -11.0797
  53   2.0000      -0.397930       -10.8282
  54   2.0000      -0.393563       -10.7094
  55   2.0000      -0.386618       -10.5204
  56   2.0000      -0.376356       -10.2412
  57   2.0000      -0.371343       -10.1048
  58   2.0000      -0.331426        -9.0186
  59   2.0000      -0.217211        -5.9106
  60   0.0000       0.051499         1.4014
  61   0.0000       0.063006         1.7145
  62   0.0000       0.075990         2.0678
  63   0.0000       0.082756         2.2519
  64   0.0000       0.093061         2.5323

MULLIKEN ATOMIC CHARGES
-----------------------
   0 C :   -0.321182
   1 C :   -0.301348
   2 C :   -0.163807
   3 C :   -0.321122
   4 H :    0.163573
   5 H :    0.176176
   6 S :    0.871940
   7 C :    0.294155
   8 N :   -0.459067
   9 N :   -0.464390
  10 H :    0.237660
  11 H :    0.211798
  12 H :    0.110174
  13 H :    0.233944
  14 H :    0.213786
  15 O :   -0.422070
  16 O :   -0.408786
  17 C :   -0.132734
  18 H :    0.089888
  19 H :    0.117842
  20 C :   -0.306711
  21 H :    0.143182
  22 H :    0.118098
  23 C :   -0.186589
  24 H :    0.096639
  25 H :    0.090370
  26 F :   -0.153549
  27 H :    0.109391
  28 H :    0.103684
  29 H :    0.145883
  30 H :    0.113172
Sum of atomic charges:    0.0000000

LOEWDIN ATOMIC CHARGES
----------------------
   0 C :   -0.289527
   1 C :   -0.295766
   2 C :   -0.283053
   3 C :   -0.365600
   4 H :    0.139510
   5 H :    0.152866
   6 S :    0.567785
   7 C :   -0.454822
   8 N :   -0.018309
   9 N :   -0.021126
  10 H :    0.174324
  11 H :    0.159724
  12 H :    0.113078
  13 H :    0.164519
  14 H :    0.161074
  15 O :   -0.269850
  16 O :   -0.260139
  17 C :   -0.259144
  18 H :    0.128619
  19 H :    0.141285
  20 C :   -0.268685
  21 H :    0.146678
  22 H :    0.144719
  23 C :   -0.270033
  24 H :    0.134381
  25 H :    0.130078
  26 F :    0.048630
  27 H :    0.133716
  28 H :    0.134270
  29 H :    0.139345
  30 H :    0.141455

  Mayer bond orders larger than 0.100000
B(  0-C ,  1-C ) :   0.9653 B(  0-C , 17-C ) :   0.9133 B(  0-C , 18-H ) :   0.9971
B(  0-C , 19-H ) :   1.0016 B(  1-C ,  7-C ) :   1.6515 B(  1-C , 12-H ) :   1.0366
B(  2-C ,  3-C ) :   0.9238 B(  2-C , 20-C ) :   0.9451 B(  2-C , 21-H ) :   0.9763
B(  2-C , 22-H ) :   0.9602 B(  3-C ,  4-H ) :   0.9496 B(  3-C ,  5-H ) :   0.9508
B(  3-C ,  6-S ) :   0.9152 B(  6-S , 15-O ) :   1.9627 B(  6-S , 16-O ) :   1.9270
B(  6-S , 26-F ) :   1.0243 B(  7-C ,  8-N ) :   1.1789 B(  7-C ,  9-N ) :   1.1602
B(  8-N , 13-H ) :   0.9084 B(  8-N , 14-H ) :   0.9308 B(  9-N , 10-H ) :   0.9199
B(  9-N , 11-H ) :   0.9306 B( 17-C , 23-C ) :   0.9681 B( 17-C , 24-H ) :   0.9779
B( 17-C , 25-H ) :   0.9850 B( 20-C , 23-C ) :   0.8920 B( 20-C , 29-H ) :   0.9915
B( 20-C , 30-H ) :   0.9775 B( 23-C , 27-H ) :   0.9815 B( 23-C , 28-H ) :   0.9792

FINAL SINGLE POINT ENERGY     -1073.000812498427

DIPOLE MOMENT
-------------
                                X             Y             Z
Electronic contribution:      0.86871      -3.13734     -19.40799
Nuclear contribution   :      0.26049       3.89757      20.56096
                        -----------------------------------------
Total Dipole Moment    :      1.12920       0.76023       1.15297
                        -----------------------------------------
Magnitude (a.u.)       :      1.78393
Magnitude (Debye)      :      4.53439

Rotational constants in cm-1:     0.029090     0.014735     0.011139
Rotational constants in MHz :   872.086433   441.731892   333.928051

                             ****ORCA TERMINATED NORMALLY****
TOTAL RUN TIME: 0 days 0 hours 1 minutes 37 seconds 188 msec
