                         Program Version 5.0.0 -  RELEASE  -
|  1> !CAM-B3LYP RIJCOSX def2-TZVP def2/J TightSCF xyzfile
|  2>
|  3> *xyzfile 0 1 D9.xyz
|  4>
|  5> %MaxCore 64000
|  6>
|  7> %pal nprocs 18
|  8> end
|  9>
| 10> %scf
| 11>   MaxIter 150
| 12> end
| 13>
| 14>
| 15>                          ****END OF INPUT****

CARTESIAN COORDINATES (ANGSTROEM)
---------------------------------
  C      1.963365   -1.749150   -1.896887
  N      2.738490   -2.015170   -3.097113
  C      0.611877    1.657634   -4.500288
  C      1.694991    1.541794   -5.570447
  H      2.697326    1.734659   -5.183996
  H      1.506656    2.272239   -6.358076
  S      1.780287   -0.033128   -6.428739
  C      4.049736   -2.154717   -3.152044
  N      4.658206   -1.986293   -4.318655
  C      4.764231   -2.454435   -2.050491
  H      4.287363   -2.776259   -1.217496
  H      5.750825   -2.658351   -2.125988
  H      2.345176   -1.690274   -3.971447
  H      4.109004   -1.592677   -5.071760
  H      5.649095   -2.156462   -4.427237
  O      2.569287    0.213657   -7.607360
  O      0.416880   -0.462969   -6.618595
  C      2.088520   -0.300912   -1.415204
  H      2.231272   -2.451616   -1.102643
  H      0.930249   -1.977801   -2.155438
  C      0.680356    0.655418   -3.348038
  H     -0.356865    1.549231   -4.991128
  H      0.650228    2.675438   -4.096000
  C      1.968993    0.733582   -2.535654
  H      3.051356   -0.168602   -0.911868
  H      1.316501   -0.136231   -0.657252
  F      2.505129   -0.933263   -5.482570
  H      2.824195    0.624726   -3.208464
  H      2.058919    1.730331   -2.093112
  H      0.542252   -0.344731   -3.766662
  H     -0.174219    0.829692   -2.685182

 Total Charge           Charge          ....    0
 Multiplicity           Mult            ....    1
 Number of Electrons    NEL             ....  120
 Basis Dimension        Dim             ....  542

ORBITAL ENERGIES
----------------

  NO   OCC          E(Eh)            E(eV)
   0   2.0000     -89.194083     -2427.0944
   1   2.0000     -24.887367      -677.2197
   2   2.0000     -19.231197      -523.3075
   3   2.0000     -19.230726      -523.2947
   4   2.0000     -14.384899      -391.4330
   5   2.0000     -14.384299      -391.4167
   6   2.0000     -10.315821      -280.7078
   7   2.0000     -10.289599      -279.9942
   8   2.0000     -10.278862      -279.7020
   9   2.0000     -10.277090      -279.6538
  10   2.0000     -10.262688      -279.2619
  11   2.0000     -10.253558      -279.0135
  12   2.0000     -10.243222      -278.7322
  13   2.0000     -10.150946      -276.2213
  14   2.0000      -8.238542      -224.1821
  15   2.0000      -6.206941      -168.8994
  16   2.0000      -6.199665      -168.7015
  17   2.0000      -6.199133      -168.6870
  18   2.0000      -1.465615       -39.8814
  19   2.0000      -1.220200       -33.2033
  20   2.0000      -1.126731       -30.6599
  21   2.0000      -1.057779       -28.7836
  22   2.0000      -0.969896       -26.3922
  23   2.0000      -0.935117       -25.4458
  24   2.0000      -0.885095       -24.0847
  25   2.0000      -0.845728       -23.0134
  26   2.0000      -0.816199       -22.2099
  27   2.0000      -0.778972       -21.1969
  28   2.0000      -0.774129       -21.0651
  29   2.0000      -0.719196       -19.5703
  30   2.0000      -0.686102       -18.6698
  31   2.0000      -0.679769       -18.4975
  32   2.0000      -0.663158       -18.0454
  33   2.0000      -0.642665       -17.4878
  34   2.0000      -0.623298       -16.9608
  35   2.0000      -0.612968       -16.6797
  36   2.0000      -0.591783       -16.1032
  37   2.0000      -0.580824       -15.8050
  38   2.0000      -0.574162       -15.6237
  39   2.0000      -0.556220       -15.1355
  40   2.0000      -0.545112       -14.8332
  41   2.0000      -0.533988       -14.5305
  42   2.0000      -0.517556       -14.0834
  43   2.0000      -0.508907       -13.8481
  44   2.0000      -0.498115       -13.5544
  45   2.0000      -0.482450       -13.1281
  46   2.0000      -0.470603       -12.8058
  47   2.0000      -0.468969       -12.7613
  48   2.0000      -0.449955       -12.2439
  49   2.0000      -0.441179       -12.0051
  50   2.0000      -0.439137       -11.9495
  51   2.0000      -0.432988       -11.7822
  52   2.0000      -0.426627       -11.6091
  53   2.0000      -0.415123       -11.2961
  54   2.0000      -0.409595       -11.1456
  55   2.0000      -0.407118       -11.0782
  56   2.0000      -0.402913       -10.9638
  57   2.0000      -0.392520       -10.6810
  58   2.0000      -0.313879        -8.5411
  59   2.0000      -0.220792        -6.0081
  60   0.0000       0.042489         1.1562
  61   0.0000       0.063936         1.7398
  62   0.0000       0.070717         1.9243
  63   0.0000       0.076504         2.0818
  64   0.0000       0.086751         2.3606

MULLIKEN ATOMIC CHARGES
-----------------------
   0 C :   -0.225980
   1 N :   -0.261824
   2 C :   -0.163139
   3 C :   -0.327965
   4 H :    0.171510
   5 H :    0.182421
   6 S :    0.876225
   7 C :    0.315582
   8 N :   -0.465940
   9 C :   -0.526881
  10 H :    0.086275
  11 H :    0.079223
  12 H :    0.200747
  13 H :    0.221188
  14 H :    0.239088
  15 O :   -0.410381
  16 O :   -0.404013
  17 C :   -0.115705
  18 H :    0.138224
  19 H :    0.143743
  20 C :   -0.300113
  21 H :    0.147666
  22 H :    0.125229
  23 C :   -0.267514
  24 H :    0.130730
  25 H :    0.101936
  26 F :   -0.176457
  27 H :    0.116063
  28 H :    0.114531
  29 H :    0.134024
  30 H :    0.121508
Sum of atomic charges:   -0.0000000

LOEWDIN ATOMIC CHARGES
----------------------
   0 C :   -0.278357
   1 N :    0.116671
   2 C :   -0.281386
   3 C :   -0.364056
   4 H :    0.141376
   5 H :    0.155250
   6 S :    0.567464
   7 C :   -0.468158
   8 N :   -0.015934
   9 C :   -0.354256
  10 H :    0.095596
  11 H :    0.092130
  12 H :    0.161330
  13 H :    0.150555
  14 H :    0.176868
  15 O :   -0.260014
  16 O :   -0.256403
  17 C :   -0.265223
  18 H :    0.138944
  19 H :    0.132362
  20 C :   -0.272821
  21 H :    0.148018
  22 H :    0.147179
  23 C :   -0.272564
  24 H :    0.144643
  25 H :    0.136537
  26 F :    0.036151
  27 H :    0.132932
  28 H :    0.138923
  29 H :    0.132471
  30 H :    0.143769

  Mayer bond orders larger than 0.100000
B(  0-C ,  1-N ) :   0.9342 B(  0-C , 17-C ) :   0.9113 B(  0-C , 18-H ) :   0.9820
B(  0-C , 19-H ) :   0.9916 B(  1-N ,  7-C ) :   1.1922 B(  1-N , 12-H ) :   0.9283
B(  2-C ,  3-C ) :   0.9198 B(  2-C , 20-C ) :   0.9452 B(  2-C , 21-H ) :   0.9758
B(  2-C , 22-H ) :   0.9595 B(  3-C ,  4-H ) :   0.9479 B(  3-C ,  5-H ) :   0.9493
B(  3-C ,  6-S ) :   0.9162 B(  6-S , 15-O ) :   1.9718 B(  6-S , 16-O ) :   1.9300
B(  6-S , 26-F ) :   0.9918 B(  7-C ,  8-N ) :   1.1379 B(  7-C ,  9-C ) :   1.6475
B(  8-N , 13-H ) :   0.9166 B(  8-N , 14-H ) :   0.9250 B(  9-C , 10-H ) :   1.0025
B(  9-C , 11-H ) :   1.0002 B( 17-C , 23-C ) :   0.9567 B( 17-C , 24-H ) :   0.9686
B( 17-C , 25-H ) :   0.9819 B( 20-C , 23-C ) :   0.8922 B( 20-C , 29-H ) :   0.9928
B( 20-C , 30-H ) :   0.9777 B( 23-C , 27-H ) :   0.9798 B( 23-C , 28-H ) :   0.9763

FINAL SINGLE POINT ENERGY     -1073.001555488530

DIPOLE MOMENT
-------------
                                X             Y             Z
Electronic contribution:     -1.04129      -2.36348     -20.36962
Nuclear contribution   :      0.52036       3.84122      20.69523
                        -----------------------------------------
Total Dipole Moment    :     -0.52093       1.47774       0.32561
                        -----------------------------------------
Magnitude (a.u.)       :      1.60035
Magnitude (Debye)      :      4.06776

Rotational constants in cm-1:     0.029184     0.014996     0.011314
Rotational constants in MHz :   874.907122   449.569665   339.178205

                             ****ORCA TERMINATED NORMALLY****
TOTAL RUN TIME: 0 days 0 hours 1 minutes 37 seconds 135 msec
