                         Program Version 5.0.0 -  RELEASE  -
|  1> !PBE D3BJ RIJCOSX def2-TZVPD def2/J TightSCF
|  2> *xyz -1 1
|  3> C         -2.79070       -0.78527        5.70281
|  4> C         -2.45380        0.05510        6.94145
|  5> C         -2.07842        1.48042        6.56410
|  6> H         -1.62558       -0.38216        7.49891
|  7> H         -3.32527        0.08775        7.59917
|  8> O         -0.90125        1.85816        6.82810
|  9> O         -2.93658        2.17731        5.96415
| 10> H         -1.94052       -0.82114        5.05412
| 11> H         -3.61590       -0.34261        5.18514
| 12> H         -3.05063       -1.77815        6.00536
| 13> *
| 14> %MaxCore 64000
| 15>
| 16> %pal nprocs 4
| 17> end
| 18>
| 19> %scf
| 20>   MaxIter 150
| 21> end
| 22>
| 23>
| 24>                          ****END OF INPUT****

CARTESIAN COORDINATES (ANGSTROEM)
---------------------------------
  C     -2.790700   -0.785270    5.702810
  C     -2.453800    0.055100    6.941450
  C     -2.078420    1.480420    6.564100
  H     -1.625580   -0.382160    7.498910
  H     -3.325270    0.087750    7.599170
  O     -0.901250    1.858160    6.828100
  O     -2.936580    2.177310    5.964150
  H     -1.940520   -0.821140    5.054120
  H     -3.615900   -0.342610    5.185140
  H     -3.050630   -1.778150    6.005360

 Total Charge           Charge          ....   -1
 Multiplicity           Mult            ....    1
 Number of Electrons    NEL             ....   40
 Basis Dimension        Dim             ....  236

ORBITAL ENERGIES
----------------

  NO   OCC          E(Eh)            E(eV)
   0   2.0000     -18.489094      -503.1138
   1   2.0000     -18.487570      -503.0724
   2   2.0000      -9.754813      -265.4419
   3   2.0000      -9.717080      -264.4152
   4   2.0000      -9.706722      -264.1333
   5   2.0000      -0.731234       -19.8979
   6   2.0000      -0.642720       -17.4893
   7   2.0000      -0.534180       -14.5358
   8   2.0000      -0.411067       -11.1857
   9   2.0000      -0.268582        -7.3085
  10   2.0000      -0.243572        -6.6279
  11   2.0000      -0.209788        -5.7086
  12   2.0000      -0.184093        -5.0094
  13   2.0000      -0.167056        -4.5458
  14   2.0000      -0.159195        -4.3319
  15   2.0000      -0.130257        -3.5445
  16   2.0000      -0.118694        -3.2298
  17   2.0000      -0.011845        -0.3223
  18   2.0000       0.001062         0.0289
  19   2.0000       0.019303         0.5253
  20   0.0000       0.120095         3.2680
  21   0.0000       0.146405         3.9839
  22   0.0000       0.159254         4.3335
  23   0.0000       0.168308         4.5799
  24   0.0000       0.192488         5.2379

MULLIKEN ATOMIC CHARGES
-----------------------
   0 C :   -0.879514
   1 C :    0.064605
   2 C :    0.267749
   3 H :    0.124900
   4 H :    0.125483
   5 O :   -0.672901
   6 O :   -0.674163
   7 H :    0.232990
   8 H :    0.213484
   9 H :    0.197365
Sum of atomic charges:   -1.0000000

LOEWDIN ATOMIC CHARGES
----------------------
   0 C :   -0.131742
   1 C :   -0.219095
   2 C :   -0.792833
   3 H :    0.084442
   4 H :    0.091284
   5 O :   -0.099394
   6 O :   -0.086264
   7 H :    0.060324
   8 H :    0.053536
   9 H :    0.039742

  Mayer bond orders larger than 0.100000
B(  0-C ,  1-C ) :   0.6832 B(  0-C ,  2-C ) :   0.1870 B(  0-C ,  7-H ) :   0.9765
B(  0-C ,  8-H ) :   1.0207 B(  0-C ,  9-H ) :   0.9697 B(  1-C ,  2-C ) :   0.9526
B(  1-C ,  3-H ) :   1.0190 B(  1-C ,  4-H ) :   0.9463 B(  2-C ,  5-O ) :   1.4400
B(  2-C ,  6-O ) :   1.4632

Dispersion correction           -0.006548795
FINAL SINGLE POINT ENERGY      -267.642965293866

DIPOLE MOMENT
-------------
                                X             Y             Z
Electronic contribution:      1.66252       5.65576       0.66067
Nuclear contribution   :     -2.24498      -7.51881      -0.57245
                        -----------------------------------------
Total Dipole Moment    :     -0.58247      -1.86305       0.08822
                        -----------------------------------------
Magnitude (a.u.)       :      1.95397
Magnitude (Debye)      :      4.96659

Rotational constants in cm-1:     0.305589     0.135336     0.107479
Rotational constants in MHz :  9161.317320  4057.276612  3222.126231

                             ****ORCA TERMINATED NORMALLY****
TOTAL RUN TIME: 0 days 0 hours 0 minutes 12 seconds 76 msec
