                         Program Version 5.0.0 -  RELEASE  -
|  1> !PBE D3BJ RIJCOSX def2-TZVPD def2/J TightSCF
|  2> *xyz 1 1
|  3> C         -0.69912        3.48945        3.75516
|  4> H         -0.96672        4.34901        3.14049
|  5> N         -1.08067        3.79296        5.15686
|  6> C          0.77696        3.13839        3.61741
|  7> H         -1.33146        2.65651        3.44632
|  8> H         -0.87449        4.76274        5.42734
|  9> H         -0.68079        3.13476        5.83900
| 10> H         -2.05755        3.53169        5.34620
| 11> H          0.99957        2.92898        2.59199
| 12> H          0.99576        2.27685        4.21303
| 13> H          1.37223        3.96279        3.95046
| 14> *
| 15> %MaxCore 64000
| 16>
| 17> %pal nprocs 4
| 18> end
| 19>
| 20> %scf
| 21>   MaxIter 150
| 22> end
| 23>
| 24>
| 25>                          ****END OF INPUT****

CARTESIAN COORDINATES (ANGSTROEM)
---------------------------------
  C     -0.699120    3.489450    3.755160
  H     -0.966720    4.349010    3.140490
  N     -1.080670    3.792960    5.156860
  C      0.776960    3.138390    3.617410
  H     -1.331460    2.656510    3.446320
  H     -0.874490    4.762740    5.427340
  H     -0.680790    3.134760    5.839000
  H     -2.057550    3.531690    5.346200
  H      0.999570    2.928980    2.591990
  H      0.995760    2.276850    4.213030
  H      1.372230    3.962790    3.950460

 Total Charge           Charge          ....    1
 Multiplicity           Mult            ....    1
 Number of Electrons    NEL             ....   26
 Basis Dimension        Dim             ....  183

ORBITAL ENERGIES
----------------

  NO   OCC          E(Eh)            E(eV)
   0   2.0000     -14.318095      -389.6152
   1   2.0000     -10.134798      -275.7819
   2   2.0000     -10.054845      -273.6062
   3   2.0000      -1.138691       -30.9854
   4   2.0000      -0.898727       -24.4556
   5   2.0000      -0.786097       -21.3908
   6   2.0000      -0.763386       -20.7728
   7   2.0000      -0.716244       -19.4900
   8   2.0000      -0.652297       -17.7499
   9   2.0000      -0.596185       -16.2230
  10   2.0000      -0.539090       -14.6694
  11   2.0000      -0.525447       -14.2982
  12   2.0000      -0.507749       -13.8165
  13   0.0000      -0.224889        -6.1195
  14   0.0000      -0.167367        -4.5543
  15   0.0000      -0.164506        -4.4764
  16   0.0000      -0.152311        -4.1446
  17   0.0000      -0.122766        -3.3406

MULLIKEN ATOMIC CHARGES
-----------------------
   0 C :   -0.205672
   1 H :    0.220060
   2 N :   -0.173784
   3 C :   -0.803356
   4 H :    0.224865
   5 H :    0.313067
   6 H :    0.308283
   7 H :    0.315693
   8 H :    0.230472
   9 H :    0.293801
  10 H :    0.276570
Sum of atomic charges:    1.0000000

LOEWDIN ATOMIC CHARGES
----------------------
   0 C :   -0.203738
   1 H :    0.137653
   2 N :    0.182192
   3 C :   -0.050609
   4 H :    0.135176
   5 H :    0.184260
   6 H :    0.177280
   7 H :    0.179023
   8 H :    0.092932
   9 H :    0.082506
  10 H :    0.083326

  Mayer bond orders larger than 0.100000
B(  0-C ,  1-H ) :   0.9556 B(  0-C ,  2-N ) :   1.0134 B(  0-C ,  3-C ) :   0.8440
B(  0-C ,  4-H ) :   0.9140 B(  2-N ,  5-H ) :   0.8787 B(  2-N ,  6-H ) :   0.8782
B(  2-N ,  7-H ) :   0.8796 B(  3-C ,  8-H ) :   0.9903 B(  3-C ,  9-H ) :   0.9252
B(  3-C , 10-H ) :   0.9665

Dispersion correction           -0.006131728
FINAL SINGLE POINT ENERGY      -135.395839352804

DIPOLE MOMENT
-------------
                                X             Y             Z
Electronic contribution:     -1.30288       0.56593       1.07127
Nuclear contribution   :      0.33986      -0.24565       0.10678
                        -----------------------------------------
Total Dipole Moment    :     -0.96303       0.32028       1.17805
                        -----------------------------------------
Magnitude (a.u.)       :      1.55493
Magnitude (Debye)      :      3.95231

Rotational constants in cm-1:     1.016237     0.277523     0.247812
Rotational constants in MHz : 30466.024354  8319.937961  7429.230177

                             ****ORCA TERMINATED NORMALLY****
TOTAL RUN TIME: 0 days 0 hours 0 minutes 8 seconds 726 msec
