                         Program Version 5.0.0 -  RELEASE  -
|  1> !PBE D3BJ RIJCOSX def2-TZVPD def2/J TightSCF xyzfile
|  2>
|  3> *xyzfile 0 1 B.xyz
|  4>
|  5> %MaxCore 64000
|  6>
|  7> %pal nprocs 4
|  8> end
|  9>
| 10> %scf
| 11>   MaxIter 150
| 12> end
| 13>
| 14>
| 15>                          ****END OF INPUT****

CARTESIAN COORDINATES (ANGSTROEM)
---------------------------------
  C     -0.699123    3.489451    3.755163
  H     -0.966716    4.349013    3.140491
  N     -1.080669    3.792957    5.156857
  C      0.776956    3.138391    3.617408
  H     -1.331455    2.656510    3.446323
  H      1.371398    3.888342    4.149744
  H      1.046926    3.232057    2.561331
  C      1.118917    1.731170    4.115155
  H      2.200573    1.654226    4.254882
  C      0.659466    0.635182    3.153306
  H      0.677024    1.576674    5.103150
  H      1.312288    0.638870    2.274207
  H     -0.339563    0.868049    2.772876
  C      0.639957   -0.771175    3.755619
  C     -0.341821   -0.965537    4.915046
  H      1.648266   -1.028665    4.097015
  H      0.398568   -1.482386    2.958453
  H     -0.279892   -2.005646    5.252547
  C     -1.789164   -0.639231    4.557496
  H     -0.032380   -0.352918    5.765118
  H     -2.107151   -1.270102    3.719619
  H     -1.856352    0.391636    4.197604
  C     -2.790700   -0.785275    5.702812
  H     -2.867308   -1.835651    6.001675
  H     -3.774554   -0.486577    5.334807
  C     -2.453797    0.055101    6.941445
  C     -2.078419    1.480421    6.564098
  H     -1.625584   -0.382163    7.498914
  H     -3.325274    0.087746    7.599175
  H     -0.874488    4.762737    5.427344
  H     -0.680793    3.134762    5.839000
  H     -2.057550    3.531691    5.346197
  O     -0.901252    1.858156    6.828104
  O     -2.936582    2.177309    5.964151

 Total Charge           Charge          ....    0
 Multiplicity           Mult            ....    1
 Number of Electrons    NEL             ....  104
 Basis Dimension        Dim             ....  676

ORBITAL ENERGIES
----------------

  NO   OCC          E(Eh)            E(eV)
   0   2.0000     -18.688785      -508.5477
   1   2.0000     -18.687135      -508.5028
   2   2.0000     -14.062073      -382.6485
   3   2.0000      -9.948847      -270.7219
   4   2.0000      -9.946792      -270.6660
   5   2.0000      -9.904467      -269.5143
   6   2.0000      -9.880840      -268.8713
   7   2.0000      -9.877700      -268.7859
   8   2.0000      -9.871415      -268.6149
   9   2.0000      -9.862376      -268.3689
  10   2.0000      -9.862090      -268.3611
  11   2.0000      -9.860990      -268.3312
  12   2.0000      -9.854221      -268.1470
  13   2.0000      -0.941875       -25.6297
  14   2.0000      -0.900958       -24.5163
  15   2.0000      -0.846934       -23.0462
  16   2.0000      -0.748824       -20.3765
  17   2.0000      -0.721713       -19.6388
  18   2.0000      -0.695339       -18.9211
  19   2.0000      -0.652396       -17.7526
  20   2.0000      -0.622182       -16.9304
  21   2.0000      -0.586046       -15.9471
  22   2.0000      -0.551135       -14.9972
  23   2.0000      -0.539057       -14.6685
  24   2.0000      -0.519183       -14.1277
  25   2.0000      -0.496727       -13.5166
  26   2.0000      -0.488590       -13.2952
  27   2.0000      -0.453521       -12.3409
  28   2.0000      -0.429944       -11.6994
  29   2.0000      -0.425122       -11.5682
  30   2.0000      -0.422032       -11.4841
  31   2.0000      -0.398063       -10.8318
  32   2.0000      -0.393640       -10.7115
  33   2.0000      -0.386044       -10.5048
  34   2.0000      -0.373434       -10.1617
  35   2.0000      -0.364044        -9.9061
  36   2.0000      -0.353691        -9.6244
  37   2.0000      -0.351102        -9.5540
  38   2.0000      -0.342960        -9.3324
  39   2.0000      -0.334335        -9.0977
  40   2.0000      -0.319969        -8.7068
  41   2.0000      -0.315033        -8.5725
  42   2.0000      -0.308245        -8.3878
  43   2.0000      -0.294404        -8.0111
  44   2.0000      -0.285897        -7.7797
  45   2.0000      -0.281326        -7.6553
  46   2.0000      -0.268790        -7.3141
  47   2.0000      -0.263133        -7.1602
  48   2.0000      -0.257381        -7.0037
  49   2.0000      -0.211979        -5.7682
  50   2.0000      -0.194329        -5.2880
  51   2.0000      -0.187679        -5.1070
  52   0.0000      -0.035201        -0.9579
  53   0.0000      -0.008206        -0.2233
  54   0.0000      -0.001979        -0.0539
  55   0.0000       0.001975         0.0537
  56   0.0000       0.009876         0.2687

MULLIKEN ATOMIC CHARGES
-----------------------
   0 C :   -0.333878
   1 H :    0.152455
   2 N :   -0.021393
   3 C :   -0.206796
   4 H :    0.176946
   5 H :    0.132926
   6 H :    0.139295
   7 C :   -0.109047
   8 H :    0.170484
   9 C :   -0.387991
  10 H :    0.179168
  11 H :    0.160487
  12 H :    0.218318
  13 C :   -0.365377
  14 C :   -0.289047
  15 H :    0.137806
  16 H :    0.190508
  17 H :    0.097443
  18 C :    0.022853
  19 H :    0.212128
  20 H :    0.137413
  21 H :   -0.138228
  22 C :   -0.438854
  23 H :    0.090100
  24 H :    0.215370
  25 C :   -0.265363
  26 C :    0.632228
  27 H :    0.192601
  28 H :    0.169816
  29 H :    0.289919
  30 H :    0.160168
  31 H :    0.260679
  32 O :   -0.787602
  33 O :   -0.795535
Sum of atomic charges:   -0.0000000

LOEWDIN ATOMIC CHARGES
----------------------
   0 C :   -0.167272
   1 H :    0.122554
   2 N :    0.146187
   3 C :   -0.187098
   4 H :    0.116227
   5 H :    0.113737
   6 H :    0.116205
   7 C :   -0.198586
   8 H :    0.119254
   9 C :   -0.216526
  10 H :    0.091557
  11 H :    0.113702
  12 H :    0.096553
  13 C :   -0.206953
  14 C :   -0.207642
  15 H :    0.110924
  16 H :    0.109228
  17 H :    0.117469
  18 C :   -0.209917
  19 H :    0.097260
  20 H :    0.118492
  21 H :    0.091749
  22 C :   -0.198693
  23 H :    0.109057
  24 H :    0.109693
  25 C :   -0.125193
  26 C :   -0.670008
  27 H :    0.108578
  28 H :    0.116323
  29 H :    0.164662
  30 H :    0.063007
  31 H :    0.090531
  32 O :   -0.038448
  33 O :   -0.016613

  Mayer bond orders larger than 0.100000
B(  0-C ,  1-H ) :   0.8840 B(  0-C ,  2-N ) :   0.9866 B(  0-C ,  3-C ) :   1.0422
B(  0-C ,  4-H ) :   0.9893 B(  0-C ,  9-C ) :   0.1010 B(  2-N , 29-H ) :   0.8570
B(  2-N , 30-H ) :   0.8456 B(  2-N , 31-H ) :   0.7927 B(  3-C ,  5-H ) :   0.9009
B(  3-C ,  6-H ) :   0.9055 B(  3-C ,  7-C ) :   1.0279 B(  3-C ,  9-C ) :   0.2621
B(  7-C ,  8-H ) :   0.8387 B(  7-C ,  9-C ) :   0.5091 B(  7-C , 10-H ) :   1.1362
B(  7-C , 11-H ) :  -0.1007 B(  7-C , 13-C ) :   0.2863 B(  7-C , 14-C ) :   0.1414
B(  8-H , 10-H ) :   0.1093 B(  9-C , 11-H ) :   0.9477 B(  9-C , 12-H ) :   0.9682
B(  9-C , 13-C ) :   1.1234 B(  9-C , 18-C ) :   0.1925 B( 13-C , 14-C ) :   0.9616
B( 13-C , 15-H ) :   0.9470 B( 13-C , 16-H ) :   0.9111 B( 13-C , 18-C ) :   0.1762
B( 14-C , 17-H ) :   0.9366 B( 14-C , 18-C ) :   0.6687 B( 14-C , 19-H ) :   0.9758
B( 14-C , 21-H ) :  -0.1350 B( 14-C , 22-C ) :   0.2258 B( 14-C , 25-C ) :   0.1607
B( 18-C , 20-H ) :   0.7758 B( 18-C , 21-H ) :   1.3000 B( 18-C , 22-C ) :   0.9672
B( 18-C , 26-C ) :   0.1417 B( 20-H , 21-H ) :   0.1999 B( 21-H , 22-C ) :   0.2744
B( 22-C , 23-H ) :   0.9389 B( 22-C , 24-H ) :   0.8668 B( 22-C , 25-C ) :   0.9047
B( 22-C , 26-C ) :   0.1534 B( 25-C , 26-C ) :   1.0631 B( 25-C , 27-H ) :   0.9550
B( 25-C , 28-H ) :   0.8933 B( 26-C , 32-O ) :   1.2554 B( 26-C , 33-O ) :   1.1566
B( 30-H , 32-O ) :   0.2088 B( 31-H , 33-O ) :   0.1843 B( 32-O , 33-O ) :   0.1553

Dispersion correction           -0.038482729
FINAL SINGLE POINT ENERGY      -598.429465191599

DIPOLE MOMENT
-------------
                                X             Y             Z
Electronic contribution:     -4.68418       4.80364       6.74608
Nuclear contribution   :      5.60885      -3.40606      -8.06960
                        -----------------------------------------
Total Dipole Moment    :      0.92466       1.39758      -1.32352
                        -----------------------------------------
Magnitude (a.u.)       :      2.13540
Magnitude (Debye)      :      5.42776

Rotational constants in cm-1:     0.028465     0.023505     0.015110
Rotational constants in MHz :   853.363165   704.655786   452.976312

                             ****ORCA TERMINATED NORMALLY****
TOTAL RUN TIME: 0 days 0 hours 1 minutes 39 seconds 108 msec
