                         Program Version 5.0.0 -  RELEASE  -
|  1> !PBE D3BJ RIJCOSX def2-TZVPD def2/J TightSCF
|  2> *xyz 0 1
|  3> C         -2.79070       -0.78527        5.70281
|  4> C         -2.45380        0.05510        6.94145
|  5> C         -2.07842        1.48042        6.56410
|  6> H         -1.62558       -0.38216        7.49891
|  7> H         -3.32527        0.08775        7.59917
|  8> F         -0.90125        1.85816        6.82810
|  9> O         -2.93658        2.17731        5.96415
| 10> H         -1.94052       -0.82114        5.05412
| 11> H         -3.61590       -0.34261        5.18514
| 12> H         -3.05063       -1.77815        6.00536
| 13> *
| 14> %MaxCore 64000
| 15>
| 16> %pal nprocs 4
| 17> end
| 18>
| 19> %scf
| 20>   MaxIter 150
| 21> end
| 22>
| 23>
| 24>                          ****END OF INPUT****

CARTESIAN COORDINATES (ANGSTROEM)
---------------------------------
  C     -2.790700   -0.785270    5.702810
  C     -2.453800    0.055100    6.941450
  C     -2.078420    1.480420    6.564100
  H     -1.625580   -0.382160    7.498910
  H     -3.325270    0.087750    7.599170
  F     -0.901250    1.858160    6.828100
  O     -2.936580    2.177310    5.964150
  H     -1.940520   -0.821140    5.054120
  H     -3.615900   -0.342610    5.185140
  H     -3.050630   -1.778150    6.005360

 Total Charge           Charge          ....    0
 Multiplicity           Mult            ....    1
 Number of Electrons    NEL             ....   40
 Basis Dimension        Dim             ....  236

ORBITAL ENERGIES
----------------

  NO   OCC          E(Eh)            E(eV)
   0   2.0000     -24.324109      -661.8927
   1   2.0000     -18.755036      -510.3505
   2   2.0000     -10.048053      -273.4214
   3   2.0000      -9.913372      -269.7566
   4   2.0000      -9.886643      -269.0292
   5   2.0000      -1.210091       -32.9283
   6   2.0000      -0.945172       -25.7194
   7   2.0000      -0.730208       -19.8700
   8   2.0000      -0.623924       -16.9778
   9   2.0000      -0.574980       -15.6460
  10   2.0000      -0.486836       -13.2475
  11   2.0000      -0.471857       -12.8399
  12   2.0000      -0.451691       -12.2911
  13   2.0000      -0.416110       -11.3229
  14   2.0000      -0.385332       -10.4854
  15   2.0000      -0.356462        -9.6998
  16   2.0000      -0.334731        -9.1085
  17   2.0000      -0.330071        -8.9817
  18   2.0000      -0.307522        -8.3681
  19   2.0000      -0.245696        -6.6857
  20   0.0000      -0.070403        -1.9158
  21   0.0000      -0.013611        -0.3704
  22   0.0000       0.014399         0.3918
  23   0.0000       0.024918         0.6780
  24   0.0000       0.033184         0.9030

MULLIKEN ATOMIC CHARGES
-----------------------
   0 C :   -0.868319
   1 C :    0.078334
   2 C :    0.366017
   3 H :    0.153987
   4 H :    0.147658
   5 F :   -0.149629
   6 O :   -0.434675
   7 H :    0.263754
   8 H :    0.242422
   9 H :    0.200450
Sum of atomic charges:   -0.0000000

LOEWDIN ATOMIC CHARGES
----------------------
   0 C :   -0.084358
   1 C :   -0.161358
   2 C :   -0.512744
   3 H :    0.107104
   4 H :    0.121408
   5 F :    0.215996
   6 O :    0.098090
   7 H :    0.074407
   8 H :    0.072774
   9 H :    0.068681

  Mayer bond orders larger than 0.100000
B(  0-C ,  1-C ) :   0.7573 B(  0-C ,  2-C ) :   0.1779 B(  0-C ,  7-H ) :   0.9380
B(  0-C ,  8-H ) :   1.0019 B(  0-C ,  9-H ) :   0.9782 B(  1-C ,  2-C ) :   0.9339
B(  1-C ,  3-H ) :   0.9782 B(  1-C ,  4-H ) :   0.9301 B(  2-C ,  5-F ) :   1.0620
B(  2-C ,  6-O ) :   1.7954

Dispersion correction           -0.006221859
FINAL SINGLE POINT ENERGY      -292.195327648161

DIPOLE MOMENT
-------------
                                X             Y             Z
Electronic contribution:      3.96100       7.46419       1.46830
Nuclear contribution   :     -3.69486      -8.49563      -1.04945
                        -----------------------------------------
Total Dipole Moment    :      0.26614      -1.03145       0.41884
                        -----------------------------------------
Magnitude (a.u.)       :      1.14461
Magnitude (Debye)      :      2.90938

Rotational constants in cm-1:     0.293725     0.129218     0.102393
Rotational constants in MHz :  8805.653529  3873.869810  3069.666716

                             ****ORCA TERMINATED NORMALLY****
TOTAL RUN TIME: 0 days 0 hours 0 minutes 11 seconds 501 msec
