                         Program Version 5.0.0 -  RELEASE  -
|  1> !PBE D3BJ RIJCOSX def2-TZVPD def2/J TightSCF
|  2> *xyz 0 1
|  3> C         -0.69912        3.48945        3.75516
|  4> H         -0.96672        4.34901        3.14049
|  5> C         -1.08067        3.79296        5.15686
|  6> C          0.77696        3.13839        3.61741
|  7> H         -1.33146        2.65651        3.44632
|  8> H         -0.87449        4.76274        5.42734
|  9> H         -0.68079        3.13476        5.83900
| 10> H         -2.05755        3.53169        5.34620
| 11> H          0.99957        2.92898        2.59199
| 12> H          0.99576        2.27685        4.21303
| 13> H          1.37223        3.96279        3.95046
| 14> *
| 15> %MaxCore 64000
| 16>
| 17> %pal nprocs 4
| 18> end
| 19>
| 20> %scf
| 21>   MaxIter 150
| 22> end
| 23>
| 24>
| 25>                          ****END OF INPUT****

CARTESIAN COORDINATES (ANGSTROEM)
---------------------------------
  C     -0.699120    3.489450    3.755160
  H     -0.966720    4.349010    3.140490
  C     -1.080670    3.792960    5.156860
  C      0.776960    3.138390    3.617410
  H     -1.331460    2.656510    3.446320
  H     -0.874490    4.762740    5.427340
  H     -0.680790    3.134760    5.839000
  H     -2.057550    3.531690    5.346200
  H      0.999570    2.928980    2.591990
  H      0.995760    2.276850    4.213030
  H      1.372230    3.962790    3.950460

 Total Charge           Charge          ....    0
 Multiplicity           Mult            ....    1
 Number of Electrons    NEL             ....   26
 Basis Dimension        Dim             ....  183

ORBITAL ENERGIES
----------------

  NO   OCC          E(Eh)            E(eV)
   0   2.0000      -9.868374      -268.5321
   1   2.0000      -9.857515      -268.2366
   2   2.0000      -9.839712      -267.7522
   3   2.0000      -0.718101       -19.5405
   4   2.0000      -0.624609       -16.9965
   5   2.0000      -0.528101       -14.3704
   6   2.0000      -0.422231       -11.4895
   7   2.0000      -0.391406       -10.6507
   8   2.0000      -0.354430        -9.6445
   9   2.0000      -0.350499        -9.5376
  10   2.0000      -0.298093        -8.1115
  11   2.0000      -0.286361        -7.7923
  12   2.0000      -0.283630        -7.7180
  13   0.0000      -0.002438        -0.0663
  14   0.0000       0.024284         0.6608
  15   0.0000       0.027388         0.7453
  16   0.0000       0.042533         1.1574
  17   0.0000       0.066167         1.8005

MULLIKEN ATOMIC CHARGES
-----------------------
   0 C :    0.182027
   1 H :    0.134795
   2 C :   -1.074563
   3 C :   -0.843609
   4 H :    0.135323
   5 H :    0.253861
   6 H :    0.276486
   7 H :    0.270656
   8 H :    0.204910
   9 H :    0.232498
  10 H :    0.227616
Sum of atomic charges:   -0.0000000

LOEWDIN ATOMIC CHARGES
----------------------
   0 C :   -0.316250
   1 H :    0.104201
   2 C :   -0.131539
   3 C :   -0.113842
   4 H :    0.103017
   5 H :    0.057515
   6 H :    0.053492
   7 H :    0.051436
   8 H :    0.059771
   9 H :    0.065621
  10 H :    0.066579

  Mayer bond orders larger than 0.100000
B(  0-C ,  1-H ) :   0.9737 B(  0-C ,  2-C ) :   0.7763 B(  0-C ,  3-C ) :   0.7490
B(  0-C ,  4-H ) :   0.9772 B(  2-C ,  3-C ) :   0.1872 B(  2-C ,  5-H ) :   0.9634
B(  2-C ,  6-H ) :   0.9879 B(  2-C ,  7-H ) :   0.9681 B(  3-C ,  8-H ) :   1.0075
B(  3-C ,  9-H ) :   0.9849 B(  3-C , 10-H ) :   0.9923

Dispersion correction           -0.006129553
FINAL SINGLE POINT ENERGY      -118.986851275166

DIPOLE MOMENT
-------------
                                X             Y             Z
Electronic contribution:     -0.14550       0.12112      -0.39780
Nuclear contribution   :      0.10024      -0.14218       0.41628
                        -----------------------------------------
Total Dipole Moment    :     -0.04525      -0.02107       0.01848
                        -----------------------------------------
Magnitude (a.u.)       :      0.05323
Magnitude (Debye)      :      0.13529

Rotational constants in cm-1:     1.024179     0.291605     0.259489
Rotational constants in MHz : 30704.103454  8742.106283  7779.285909

                             ****ORCA TERMINATED NORMALLY****
TOTAL RUN TIME: 0 days 0 hours 0 minutes 9 seconds 290 msec
