                         Program Version 5.0.0 -  RELEASE  -
|  1> !PBE D3BJ RIJCOSX def2-TZVPD def2/J TightSCF
|  2> *xyz 0 1
|  3> C         -2.79070       -0.78527        5.70281
|  4> C         -2.45380        0.05510        6.94145
|  5> C         -2.07842        1.48042        6.56410
|  6> H         -1.62558       -0.38216        7.49891
|  7> H         -3.32527        0.08775        7.59917
|  8> O         -0.90125        1.85816        6.82810
|  9> F         -2.93658        2.17731        5.96415
| 10> H         -1.94052       -0.82114        5.05412
| 11> H         -3.61590       -0.34261        5.18514
| 12> H         -3.05063       -1.77815        6.00536
| 13> *
| 14> %MaxCore 64000
| 15>
| 16> %pal nprocs 4
| 17> end
| 18>
| 19> %scf
| 20>   MaxIter 150
| 21> end
| 22>
| 23>
| 24>                          ****END OF INPUT****

CARTESIAN COORDINATES (ANGSTROEM)
---------------------------------
  C     -2.790700   -0.785270    5.702810
  C     -2.453800    0.055100    6.941450
  C     -2.078420    1.480420    6.564100
  H     -1.625580   -0.382160    7.498910
  H     -3.325270    0.087750    7.599170
  O     -0.901250    1.858160    6.828100
  F     -2.936580    2.177310    5.964150
  H     -1.940520   -0.821140    5.054120
  H     -3.615900   -0.342610    5.185140
  H     -3.050630   -1.778150    6.005360

 Total Charge           Charge          ....    0
 Multiplicity           Mult            ....    1
 Number of Electrons    NEL             ....   40
 Basis Dimension        Dim             ....  236

ORBITAL ENERGIES
----------------

  NO   OCC          E(Eh)            E(eV)
   0   2.0000     -24.327127      -661.9748
   1   2.0000     -18.753136      -510.2988
   2   2.0000     -10.047974      -273.4193
   3   2.0000      -9.912982      -269.7459
   4   2.0000      -9.890518      -269.1347
   5   2.0000      -1.215188       -33.0669
   6   2.0000      -0.940402       -25.5896
   7   2.0000      -0.733195       -19.9513
   8   2.0000      -0.621908       -16.9230
   9   2.0000      -0.581280       -15.8174
  10   2.0000      -0.490539       -13.3482
  11   2.0000      -0.477358       -12.9896
  12   2.0000      -0.447225       -12.1696
  13   2.0000      -0.416361       -11.3298
  14   2.0000      -0.386942       -10.5292
  15   2.0000      -0.358590        -9.7577
  16   2.0000      -0.336991        -9.1700
  17   2.0000      -0.332969        -9.0606
  18   2.0000      -0.309535        -8.4229
  19   2.0000      -0.239356        -6.5132
  20   0.0000      -0.068221        -1.8564
  21   0.0000      -0.015577        -0.4239
  22   0.0000       0.014487         0.3942
  23   0.0000       0.024170         0.6577
  24   0.0000       0.033619         0.9148

MULLIKEN ATOMIC CHARGES
-----------------------
   0 C :   -0.890381
   1 C :    0.111673
   2 C :    0.362653
   3 H :    0.125492
   4 H :    0.170179
   5 O :   -0.432272
   6 F :   -0.163482
   7 H :    0.269435
   8 H :    0.249148
   9 H :    0.197555
Sum of atomic charges:   -0.0000000

LOEWDIN ATOMIC CHARGES
----------------------
   0 C :   -0.087150
   1 C :   -0.158475
   2 C :   -0.517787
   3 H :    0.116599
   4 H :    0.117218
   5 O :    0.089779
   6 F :    0.225889
   7 H :    0.076026
   8 H :    0.068924
   9 H :    0.068978

  Mayer bond orders larger than 0.100000
B(  0-C ,  1-C ) :   0.7095 B(  0-C ,  2-C ) :   0.1765 B(  0-C ,  7-H ) :   0.9661
B(  0-C ,  8-H ) :   0.9728 B(  0-C ,  9-H ) :   0.9878 B(  1-C ,  2-C ) :   0.9375
B(  1-C ,  3-H ) :   1.0029 B(  1-C ,  4-H ) :   0.9216 B(  2-C ,  5-O ) :   1.7712
B(  2-C ,  6-F ) :   1.0593

Dispersion correction           -0.006189703
FINAL SINGLE POINT ENERGY      -292.192963035303

DIPOLE MOMENT
-------------
                                X             Y             Z
Electronic contribution:      0.60293       7.96496       0.04867
Nuclear contribution   :     -1.47571      -8.84360      -0.10748
                        -----------------------------------------
Total Dipole Moment    :     -0.87278      -0.87865      -0.05881
                        -----------------------------------------
Magnitude (a.u.)       :      1.23985
Magnitude (Debye)      :      3.15144

Rotational constants in cm-1:     0.283081     0.133379     0.103386
Rotational constants in MHz :  8486.545774  3998.599544  3099.448040

                             ****ORCA TERMINATED NORMALLY****
TOTAL RUN TIME: 0 days 0 hours 0 minutes 11 seconds 549 msec
