                         Program Version 5.0.0 -  RELEASE  -
|  1> !PBE D3BJ RIJCOSX def2-TZVPD def2/J TightSCF xyzfile
|  2>
|  3> *xyzfile 0 1 D1.xyz
|  4>
|  5> %MaxCore 64000
|  6>
|  7> %pal nprocs 4
|  8> end
|  9>
| 10> %scf
| 11>   MaxIter 150
| 12> end
| 13>
| 14>
| 15>                          ****END OF INPUT****

CARTESIAN COORDINATES (ANGSTROEM)
---------------------------------
  C     -0.699123    3.489451    3.755163
  H     -0.966716    4.349013    3.140491
  C     -1.080669    3.792957    5.156857
  C      0.776956    3.138391    3.617408
  H     -1.331455    2.656510    3.446323
  H      1.371398    3.888342    4.149744
  H      1.046926    3.232057    2.561331
  C      1.118917    1.731170    4.115155
  H      2.200573    1.654226    4.254882
  C      0.659466    0.635182    3.153306
  H      0.677024    1.576674    5.103150
  H      1.312288    0.638870    2.274207
  H     -0.339563    0.868049    2.772876
  C      0.639957   -0.771175    3.755619
  C     -0.341821   -0.965537    4.915046
  H      1.648266   -1.028665    4.097015
  H      0.398568   -1.482386    2.958453
  H     -0.279892   -2.005646    5.252547
  C     -1.789164   -0.639231    4.557496
  H     -0.032380   -0.352918    5.765118
  H     -2.107151   -1.270102    3.719619
  H     -1.856352    0.391636    4.197604
  C     -2.790700   -0.785275    5.702812
  H     -2.867308   -1.835651    6.001675
  H     -3.774554   -0.486577    5.334807
  C     -2.453797    0.055101    6.941445
  C     -2.078419    1.480421    6.564098
  H     -1.625584   -0.382163    7.498914
  H     -3.325274    0.087746    7.599175
  H     -0.874488    4.762737    5.427344
  H     -0.680793    3.134762    5.839000
  H     -2.057550    3.531691    5.346197
  F     -0.901252    1.858156    6.828104
  O     -2.936582    2.177309    5.964151

 Total Charge           Charge          ....    0
 Multiplicity           Mult            ....    1
 Number of Electrons    NEL             ....  104
 Basis Dimension        Dim             ....  676

ORBITAL ENERGIES
----------------

  NO   OCC          E(Eh)            E(eV)
   0   2.0000     -24.334185      -662.1668
   1   2.0000     -18.761676      -510.5311
   2   2.0000     -10.058405      -273.7031
   3   2.0000      -9.914913      -269.7985
   4   2.0000      -9.899176      -269.3703
   5   2.0000      -9.884682      -268.9759
   6   2.0000      -9.881793      -268.8973
   7   2.0000      -9.876819      -268.7619
   8   2.0000      -9.869861      -268.5726
   9   2.0000      -9.867296      -268.5028
  10   2.0000      -9.860205      -268.3098
  11   2.0000      -9.850725      -268.0519
  12   2.0000      -9.796708      -266.5820
  13   2.0000      -1.226590       -33.3772
  14   2.0000      -0.958972       -26.0950
  15   2.0000      -0.757403       -20.6100
  16   2.0000      -0.734210       -19.9789
  17   2.0000      -0.705986       -19.2109
  18   2.0000      -0.679457       -18.4890
  19   2.0000      -0.640814       -17.4374
  20   2.0000      -0.619397       -16.8546
  21   2.0000      -0.594032       -16.1644
  22   2.0000      -0.563344       -15.3294
  23   2.0000      -0.546970       -14.8838
  24   2.0000      -0.508857       -13.8467
  25   2.0000      -0.501922       -13.6580
  26   2.0000      -0.494691       -13.4612
  27   2.0000      -0.476697       -12.9716
  28   2.0000      -0.464450       -12.6383
  29   2.0000      -0.429599       -11.6900
  30   2.0000      -0.426752       -11.6125
  31   2.0000      -0.411161       -11.1883
  32   2.0000      -0.408098       -11.1049
  33   2.0000      -0.390784       -10.6338
  34   2.0000      -0.379771       -10.3341
  35   2.0000      -0.365820        -9.9545
  36   2.0000      -0.362133        -9.8541
  37   2.0000      -0.354927        -9.6581
  38   2.0000      -0.345341        -9.3972
  39   2.0000      -0.334462        -9.1012
  40   2.0000      -0.324308        -8.8249
  41   2.0000      -0.318241        -8.6598
  42   2.0000      -0.311303        -8.4710
  43   2.0000      -0.303661        -8.2630
  44   2.0000      -0.295580        -8.0431
  45   2.0000      -0.288326        -7.8457
  46   2.0000      -0.282857        -7.6969
  47   2.0000      -0.272646        -7.4191
  48   2.0000      -0.268331        -7.3016
  49   2.0000      -0.259587        -7.0637
  50   2.0000      -0.254363        -6.9216
  51   2.0000      -0.222990        -6.0679
  52   0.0000      -0.081247        -2.2108
  53   0.0000      -0.015135        -0.4118
  54   0.0000      -0.001949        -0.0530
  55   0.0000       0.001035         0.0282
  56   0.0000       0.007336         0.1996

MULLIKEN ATOMIC CHARGES
-----------------------
   0 C :    0.156930
   1 H :    0.089683
   2 C :   -1.865014
   3 C :   -0.187959
   4 H :    0.141780
   5 H :    0.141904
   6 H :    0.068617
   7 C :   -0.098572
   8 H :    0.164572
   9 C :   -0.361718
  10 H :    0.063671
  11 H :    0.177178
  12 H :    0.179763
  13 C :   -0.369585
  14 C :   -0.254525
  15 H :    0.140808
  16 H :    0.184588
  17 H :    0.097056
  18 C :   -0.046624
  19 H :    0.188352
  20 H :    0.151108
  21 H :   -0.079360
  22 C :   -0.361123
  23 H :    0.098891
  24 H :    0.229907
  25 C :   -0.304738
  26 C :    0.546743
  27 H :    0.228552
  28 H :    0.151935
  29 H :    0.310250
  30 H :    0.545152
  31 H :    0.598483
  32 F :   -0.221751
  33 O :   -0.504951
Sum of atomic charges:    0.0000000

LOEWDIN ATOMIC CHARGES
----------------------
   0 C :   -0.239883
   1 H :    0.110252
   2 C :   -0.121105
   3 C :   -0.208701
   4 H :    0.097111
   5 H :    0.112818
   6 H :    0.106942
   7 C :   -0.202865
   8 H :    0.115078
   9 C :   -0.216188
  10 H :    0.089097
  11 H :    0.115126
  12 H :    0.097689
  13 C :   -0.207574
  14 C :   -0.210418
  15 H :    0.111260
  16 H :    0.109954
  17 H :    0.117816
  18 C :   -0.205094
  19 H :    0.094044
  20 H :    0.124452
  21 H :    0.097603
  22 C :   -0.187723
  23 H :    0.116133
  24 H :    0.116083
  25 C :   -0.100661
  26 C :   -0.469969
  27 H :    0.113516
  28 H :    0.127723
  29 H :    0.069583
  30 H :    0.021287
  31 H :    0.020394
  32 F :    0.185446
  33 O :    0.100772

  Mayer bond orders larger than 0.100000
B(  0-C ,  1-H ) :   0.8781 B(  0-C ,  2-C ) :   0.3577 B(  0-C ,  3-C ) :   0.9078
B(  0-C ,  4-H ) :   1.0738 B(  0-C ,  9-C ) :   0.1204 B(  2-C ,  3-C ) :   0.2328
B(  2-C , 29-H ) :   0.7480 B(  2-C , 30-H ) :   0.9830 B(  2-C , 31-H ) :   0.8525
B(  3-C ,  5-H ) :   0.9138 B(  3-C ,  6-H ) :   0.9383 B(  3-C ,  7-C ) :   1.0739
B(  3-C ,  9-C ) :   0.2818 B(  7-C ,  8-H ) :   0.8354 B(  7-C ,  9-C ) :   0.5714
B(  7-C , 10-H ) :   1.1894 B(  7-C , 13-C ) :   0.2573 B(  7-C , 14-C ) :   0.1517
B(  9-C , 11-H ) :   0.9147 B(  9-C , 12-H ) :   1.0044 B(  9-C , 13-C ) :   1.0789
B(  9-C , 18-C ) :   0.1678 B( 13-C , 14-C ) :   1.0066 B( 13-C , 15-H ) :   0.9573
B( 13-C , 16-H ) :   0.9100 B( 13-C , 18-C ) :   0.1831 B( 14-C , 17-H ) :   0.9523
B( 14-C , 18-C ) :   0.6281 B( 14-C , 19-H ) :   0.9743 B( 14-C , 21-H ) :  -0.1412
B( 14-C , 22-C ) :   0.1853 B( 14-C , 25-C ) :   0.1660 B( 18-C , 20-H ) :   0.7523
B( 18-C , 21-H ) :   1.3285 B( 18-C , 22-C ) :   0.9767 B( 18-C , 26-C ) :   0.1331
B( 20-H , 21-H ) :   0.1887 B( 21-H , 22-C ) :   0.2420 B( 22-C , 23-H ) :   0.9427
B( 22-C , 24-H ) :   0.8678 B( 22-C , 25-C ) :   0.9126 B( 22-C , 26-C ) :   0.1682
B( 25-C , 26-C ) :   1.0337 B( 25-C , 27-H ) :   0.9281 B( 25-C , 28-H ) :   0.9075
B( 26-C , 32-F ) :   0.9540 B( 26-C , 33-O ) :   1.6556 B( 29-H , 30-H ) :   0.1364
B( 29-H , 31-H ) :   0.1243 B( 30-H , 32-F ) :  -0.1757 B( 31-H , 33-O ) :  -0.1417
B( 32-F , 33-O ) :   0.1300

Dispersion correction           -0.037706765
FINAL SINGLE POINT ENERGY      -606.317577821267

DIPOLE MOMENT
-------------
                                X             Y             Z
Electronic contribution:     -5.48388       2.53418      10.82282
Nuclear contribution   :      5.54676      -3.70047     -10.28793
                        -----------------------------------------
Total Dipole Moment    :      0.06287      -1.16628       0.53489
                        -----------------------------------------
Magnitude (a.u.)       :      1.28463
Magnitude (Debye)      :      3.26527

Rotational constants in cm-1:     0.028503     0.023389     0.015214
Rotational constants in MHz :   854.502405   701.197575   456.108322

                             ****ORCA TERMINATED NORMALLY****
TOTAL RUN TIME: 0 days 0 hours 1 minutes 28 seconds 857 msec
