                         Program Version 5.0.0 -  RELEASE  -
|  1> !PBE D3BJ RIJCOSX def2-TZVPD def2/J TightSCF xyzfile
|  2>
|  3> *xyzfile 0 1 D2.xyz
|  4>
|  5> %MaxCore 64000
|  6>
|  7> %pal nprocs 4
|  8> end
|  9>
| 10> %scf
| 11>   MaxIter 150
| 12> end
| 13>
| 14>
| 15>                          ****END OF INPUT****

CARTESIAN COORDINATES (ANGSTROEM)
---------------------------------
  C     -0.699123    3.489451    3.755163
  H     -0.966716    4.349013    3.140491
  C     -1.080669    3.792957    5.156857
  C      0.776956    3.138391    3.617408
  H     -1.331455    2.656510    3.446323
  H      1.371398    3.888342    4.149744
  H      1.046926    3.232057    2.561331
  C      1.118917    1.731170    4.115155
  H      2.200573    1.654226    4.254882
  C      0.659466    0.635182    3.153306
  H      0.677024    1.576674    5.103150
  H      1.312288    0.638870    2.274207
  H     -0.339563    0.868049    2.772876
  C      0.639957   -0.771175    3.755619
  C     -0.341821   -0.965537    4.915046
  H      1.648266   -1.028665    4.097015
  H      0.398568   -1.482386    2.958453
  H     -0.279892   -2.005646    5.252547
  C     -1.789164   -0.639231    4.557496
  H     -0.032380   -0.352918    5.765118
  H     -2.107151   -1.270102    3.719619
  H     -1.856352    0.391636    4.197604
  C     -2.790700   -0.785275    5.702812
  H     -2.867308   -1.835651    6.001675
  H     -3.774554   -0.486577    5.334807
  C     -2.453797    0.055101    6.941445
  C     -2.078419    1.480421    6.564098
  H     -1.625584   -0.382163    7.498914
  H     -3.325274    0.087746    7.599175
  H     -0.874488    4.762737    5.427344
  H     -0.680793    3.134762    5.839000
  H     -2.057550    3.531691    5.346197
  O     -0.901252    1.858156    6.828104
  F     -2.936582    2.177309    5.964151

 Total Charge           Charge          ....    0
 Multiplicity           Mult            ....    1
 Number of Electrons    NEL             ....  104
 Basis Dimension        Dim             ....  676

ORBITAL ENERGIES
----------------

  NO   OCC          E(Eh)            E(eV)
   0   2.0000     -24.337146      -662.2474
   1   2.0000     -18.761835      -510.5355
   2   2.0000     -10.059851      -273.7425
   3   2.0000      -9.915192      -269.8061
   4   2.0000      -9.902143      -269.4510
   5   2.0000      -9.886708      -269.0310
   6   2.0000      -9.876618      -268.7565
   7   2.0000      -9.873028      -268.6588
   8   2.0000      -9.866017      -268.4680
   9   2.0000      -9.859620      -268.2939
  10   2.0000      -9.857085      -268.2249
  11   2.0000      -9.850577      -268.0478
  12   2.0000      -9.795637      -266.5528
  13   2.0000      -1.229784       -33.4641
  14   2.0000      -0.958591       -26.0846
  15   2.0000      -0.758620       -20.6431
  16   2.0000      -0.731402       -19.9024
  17   2.0000      -0.704253       -19.1637
  18   2.0000      -0.677976       -18.4487
  19   2.0000      -0.637625       -17.3507
  20   2.0000      -0.617070       -16.7913
  21   2.0000      -0.595702       -16.2099
  22   2.0000      -0.559987       -15.2380
  23   2.0000      -0.547832       -14.9073
  24   2.0000      -0.506167       -13.7735
  25   2.0000      -0.503071       -13.6893
  26   2.0000      -0.495142       -13.4735
  27   2.0000      -0.478425       -13.0186
  28   2.0000      -0.460560       -12.5325
  29   2.0000      -0.431856       -11.7514
  30   2.0000      -0.428003       -11.6465
  31   2.0000      -0.409653       -11.1472
  32   2.0000      -0.403737       -10.9863
  33   2.0000      -0.386034       -10.5045
  34   2.0000      -0.375930       -10.2296
  35   2.0000      -0.366169        -9.9640
  36   2.0000      -0.362740        -9.8707
  37   2.0000      -0.356620        -9.7041
  38   2.0000      -0.343578        -9.3492
  39   2.0000      -0.332483        -9.0473
  40   2.0000      -0.327036        -8.8991
  41   2.0000      -0.323661        -8.8073
  42   2.0000      -0.308590        -8.3971
  43   2.0000      -0.303736        -8.2651
  44   2.0000      -0.295198        -8.0327
  45   2.0000      -0.284645        -7.7456
  46   2.0000      -0.280556        -7.6343
  47   2.0000      -0.271278        -7.3819
  48   2.0000      -0.265569        -7.2265
  49   2.0000      -0.256660        -6.9841
  50   2.0000      -0.252789        -6.8787
  51   2.0000      -0.214162        -5.8276
  52   0.0000      -0.080693        -2.1958
  53   0.0000      -0.018106        -0.4927
  54   0.0000      -0.000562        -0.0153
  55   0.0000       0.000784         0.0213
  56   0.0000       0.007699         0.2095

MULLIKEN ATOMIC CHARGES
-----------------------
   0 C :    0.122079
   1 H :    0.082886
   2 C :   -1.822716
   3 C :   -0.224602
   4 H :    0.153371
   5 H :    0.144503
   6 H :    0.069170
   7 C :   -0.151592
   8 H :    0.151427
   9 C :   -0.359210
  10 H :    0.154729
  11 H :    0.173786
  12 H :    0.171140
  13 C :   -0.350885
  14 C :   -0.301645
  15 H :    0.137356
  16 H :    0.179685
  17 H :    0.096468
  18 C :    0.070862
  19 H :    0.229010
  20 H :    0.150607
  21 H :   -0.133388
  22 C :   -0.441162
  23 H :    0.101558
  24 H :    0.238231
  25 C :   -0.258792
  26 C :    0.522397
  27 H :    0.200357
  28 H :    0.187721
  29 H :    0.295194
  30 H :    0.662280
  31 H :    0.459085
  32 O :   -0.502292
  33 F :   -0.207619
Sum of atomic charges:    0.0000000

LOEWDIN ATOMIC CHARGES
----------------------
   0 C :   -0.243353
   1 H :    0.107676
   2 C :   -0.120736
   3 C :   -0.206088
   4 H :    0.094235
   5 H :    0.113862
   6 H :    0.106205
   7 C :   -0.199283
   8 H :    0.115341
   9 C :   -0.216927
  10 H :    0.090573
  11 H :    0.114196
  12 H :    0.096043
  13 C :   -0.207334
  14 C :   -0.207624
  15 H :    0.111662
  16 H :    0.108718
  17 H :    0.117677
  18 C :   -0.205921
  19 H :    0.096818
  20 H :    0.123682
  21 H :    0.096660
  22 C :   -0.192831
  23 H :    0.116238
  24 H :    0.112426
  25 C :   -0.095755
  26 C :   -0.467900
  27 H :    0.122323
  28 H :    0.124237
  29 H :    0.069979
  30 H :    0.000848
  31 H :    0.035382
  32 O :    0.073870
  33 F :    0.215102

  Mayer bond orders larger than 0.100000
B(  0-C ,  1-H ) :   0.8989 B(  0-C ,  2-C ) :   0.3324 B(  0-C ,  3-C ) :   0.9432
B(  0-C ,  4-H ) :   1.0620 B(  0-C ,  9-C ) :   0.1196 B(  2-C ,  3-C ) :   0.2828
B(  2-C , 29-H ) :   0.7586 B(  2-C , 30-H ) :   0.9457 B(  2-C , 31-H ) :   0.9454
B(  2-C , 32-O ) :   0.1373 B(  3-C ,  5-H ) :   0.9027 B(  3-C ,  6-H ) :   0.9442
B(  3-C ,  7-C ) :   1.1001 B(  3-C ,  9-C ) :   0.2871 B(  7-C ,  8-H ) :   0.8293
B(  7-C ,  9-C ) :   0.5317 B(  7-C , 10-H ) :   1.1842 B(  7-C , 13-C ) :   0.2578
B(  7-C , 14-C ) :   0.1614 B(  9-C , 11-H ) :   0.9209 B(  9-C , 12-H ) :   1.0094
B(  9-C , 13-C ) :   1.0810 B(  9-C , 18-C ) :   0.1743 B( 13-C , 14-C ) :   0.9895
B( 13-C , 15-H ) :   0.9512 B( 13-C , 16-H ) :   0.9150 B( 13-C , 18-C ) :   0.1817
B( 14-C , 17-H ) :   0.9523 B( 14-C , 18-C ) :   0.6438 B( 14-C , 19-H ) :   0.9629
B( 14-C , 21-H ) :  -0.1205 B( 14-C , 22-C ) :   0.2058 B( 14-C , 25-C ) :   0.1801
B( 18-C , 20-H ) :   0.7837 B( 18-C , 21-H ) :   1.2747 B( 18-C , 22-C ) :   0.9083
B( 18-C , 26-C ) :   0.1247 B( 20-H , 21-H ) :   0.1654 B( 21-H , 22-C ) :   0.2538
B( 22-C , 23-H ) :   0.9309 B( 22-C , 24-H ) :   0.8982 B( 22-C , 25-C ) :   0.8744
B( 22-C , 26-C ) :   0.1605 B( 25-C , 26-C ) :   1.0547 B( 25-C , 27-H ) :   0.9466
B( 25-C , 28-H ) :   0.9024 B( 26-C , 32-O ) :   1.7213 B( 26-C , 33-F ) :   0.8675
B( 29-H , 30-H ) :   0.1324 B( 29-H , 31-H ) :   0.1202 B( 30-H , 32-O ) :  -0.2239
B( 32-O , 33-F ) :   0.1393

Dispersion correction           -0.037796633
FINAL SINGLE POINT ENERGY      -606.316159763817

DIPOLE MOMENT
-------------
                                X             Y             Z
Electronic contribution:     -8.91657       3.05912       9.45827
Nuclear contribution   :      8.07181      -4.09641      -9.21610
                        -----------------------------------------
Total Dipole Moment    :     -0.84476      -1.03730       0.24217
                        -----------------------------------------
Magnitude (a.u.)       :      1.35951
Magnitude (Debye)      :      3.45559

Rotational constants in cm-1:     0.028400     0.023377     0.015073
Rotational constants in MHz :   851.414727   700.831775   451.871218

                             ****ORCA TERMINATED NORMALLY****
TOTAL RUN TIME: 0 days 0 hours 1 minutes 27 seconds 376 msec
