                         Program Version 5.0.0 -  RELEASE  -
|  1> !M062X D3Zero RIJCOSX def2-SVPD def2/J TightSCF
|  2> *xyz -1 1
|  3> C         -0.91495        0.61511        2.50554
|  4> C         -0.05915        1.50352        3.41058
|  5> H          0.36536        2.34431        2.86116
|  6> H         -0.69226        1.92021        4.19898
|  7> C          1.08303        0.74964        4.08571
|  8> O          2.22817        1.26348        4.01983
|  9> O          0.81003       -0.34541        4.63627
| 10> H         -0.30401        0.20228        1.73015
| 11> H         -1.69811        1.19946        2.06954
| 12> H         -1.34124       -0.17772        3.08397
| 13> *
| 14>
| 15> %MaxCore 64000
| 16>
| 17> %pal nprocs 4
| 18> end
| 19>
| 20> %scf
| 21>   MaxIter 150
| 22> end
| 23>
| 24>
| 25>                          ****END OF INPUT****

CARTESIAN COORDINATES (ANGSTROEM)
---------------------------------
  C     -0.914950    0.615110    2.505540
  C     -0.059150    1.503520    3.410580
  H      0.365360    2.344310    2.861160
  H     -0.692260    1.920210    4.198980
  C      1.083030    0.749640    4.085710
  O      2.228170    1.263480    4.019830
  O      0.810030   -0.345410    4.636270
  H     -0.304010    0.202280    1.730150
  H     -1.698110    1.199460    2.069540
  H     -1.341240   -0.177720    3.083970

 Total Charge           Charge          ....   -1
 Multiplicity           Mult            ....    1
 Number of Electrons    NEL             ....   40
 Basis Dimension        Dim             ....  146

ORBITAL ENERGIES
----------------

  NO   OCC          E(Eh)            E(eV)
   0   2.0000     -19.371970      -527.1381
   1   2.0000     -19.371212      -527.1175
   2   2.0000     -10.437223      -284.0113
   3   2.0000     -10.387839      -282.6675
   4   2.0000     -10.375475      -282.3310
   5   2.0000      -0.928822       -25.2745
   6   2.0000      -0.828546       -22.5459
   7   2.0000      -0.694474       -18.8976
   8   2.0000      -0.555277       -15.1098
   9   2.0000      -0.394354       -10.7309
  10   2.0000      -0.363308        -9.8861
  11   2.0000      -0.333965        -9.0876
  12   2.0000      -0.302009        -8.2181
  13   2.0000      -0.284559        -7.7432
  14   2.0000      -0.279286        -7.5998
  15   2.0000      -0.246262        -6.7011
  16   2.0000      -0.229073        -6.2334
  17   2.0000      -0.111355        -3.0301
  18   2.0000      -0.110202        -2.9987
  19   2.0000      -0.102613        -2.7922
  20   0.0000       0.172808         4.7024
  21   0.0000       0.207441         5.6448
  22   0.0000       0.215845         5.8735
  23   0.0000       0.241544         6.5728
  24   0.0000       0.264158         7.1881

MULLIKEN ATOMIC CHARGES
-----------------------
   0 C :    0.561029
   1 C :   -0.288579
   2 H :   -0.087284
   3 H :   -0.013252
   4 C :    0.560534
   5 O :   -0.755031
   6 O :   -0.780765
   7 H :   -0.067899
   8 H :   -0.086949
   9 H :   -0.041804
Sum of atomic charges:   -1.0000000

LOEWDIN ATOMIC CHARGES
----------------------
   0 C :    0.099008
   1 C :   -0.041136
   2 H :    0.000533
   3 H :    0.011496
   4 C :   -0.296276
   5 O :   -0.343901
   6 O :   -0.335170
   7 H :   -0.022380
   8 H :   -0.043784
   9 H :   -0.028390

  Mayer bond orders larger than 0.100000
B(  0-C ,  1-C ) :   1.2760 B(  0-C ,  7-H ) :   0.8566 B(  0-C ,  8-H ) :   0.8384
B(  0-C ,  9-H ) :   0.8289 B(  1-C ,  2-H ) :   0.9838 B(  1-C ,  3-H ) :   0.8909
B(  1-C ,  4-C ) :   0.9997 B(  1-C ,  7-H ) :   0.1641 B(  1-C ,  8-H ) :   0.1702
B(  1-C ,  9-H ) :   0.2016 B(  2-H ,  4-C ) :   0.1852 B(  4-C ,  5-O ) :   1.3836
B(  4-C ,  6-O ) :   1.4042

Dispersion correction           -0.000087324
FINAL SINGLE POINT ENERGY      -267.533699683083

DIPOLE MOMENT
-------------
                                X             Y             Z
Electronic contribution:      4.70322      -0.99102       3.34343
Nuclear contribution   :     -6.38408       1.63097      -4.40540
                        -----------------------------------------
Total Dipole Moment    :     -1.68086       0.63994      -1.06197
                        -----------------------------------------
Magnitude (a.u.)       :      2.08868
Magnitude (Debye)      :      5.30901

Rotational constants in cm-1:     0.319732     0.134414     0.104753
Rotational constants in MHz :  9585.336550  4029.633034  3140.404334

                             ****ORCA TERMINATED NORMALLY****
TOTAL RUN TIME: 0 days 0 hours 0 minutes 17 seconds 649 msec
