                         Program Version 5.0.0 -  RELEASE  -
|  1> !M062X D3Zero RIJCOSX def2-SVPD def2/J TightSCF
|  2> *xyz 1 1
|  3> C          4.60295       -2.44010        2.63478
|  4> C          3.86085       -1.59157        3.62289
|  5> N          2.75650       -2.04616        4.16633
|  6> N          4.25433       -0.36291        3.86046
|  7> H          3.56526        0.31099        4.16898
|  8> H          5.05429       -0.01606        3.33784
|  9> H          2.43970       -2.97389        3.89740
| 10> H          2.06687       -1.41253        4.54981
| 11> C          3.74469       -2.58056        1.36188
| 12> H          5.56156       -1.97135        2.40708
| 13> H          4.81050       -3.42255        3.06310
| 14> H          4.26314       -3.18477        0.64702
| 15> H          3.56325       -1.61180        0.94535
| 16> H          2.81197       -3.04259        1.60980
| 17> *
| 18>
| 19> %MaxCore 64000
| 20>
| 21> %pal nprocs 4
| 22> end
| 23>
| 24> %scf
| 25>   MaxIter 150
| 26> end
| 27>
| 28>
| 29>                          ****END OF INPUT****

CARTESIAN COORDINATES (ANGSTROEM)
---------------------------------
  C      4.602950   -2.440100    2.634780
  C      3.860850   -1.591570    3.622890
  N      2.756500   -2.046160    4.166330
  N      4.254330   -0.362910    3.860460
  H      3.565260    0.310990    4.168980
  H      5.054290   -0.016060    3.337840
  H      2.439700   -2.973890    3.897400
  H      2.066870   -1.412530    4.549810
  C      3.744690   -2.580560    1.361880
  H      5.561560   -1.971350    2.407080
  H      4.810500   -3.422550    3.063100
  H      4.263140   -3.184770    0.647020
  H      3.563250   -1.611800    0.945350
  H      2.811970   -3.042590    1.609800

 Total Charge           Charge          ....    1
 Multiplicity           Mult            ....    1
 Number of Electrons    NEL             ....   40
 Basis Dimension        Dim             ....  172

ORBITAL ENERGIES
----------------

  NO   OCC          E(Eh)            E(eV)
   0   2.0000     -15.010240      -408.4494
   1   2.0000     -15.009239      -408.4222
   2   2.0000     -10.879229      -296.0389
   3   2.0000     -10.754074      -292.6332
   4   2.0000     -10.714078      -291.5449
   5   2.0000      -1.311392       -35.6848
   6   2.0000      -1.205463       -32.8023
   7   2.0000      -1.062818       -28.9207
   8   2.0000      -0.944565       -25.7029
   9   2.0000      -0.898157       -24.4401
  10   2.0000      -0.850310       -23.1381
  11   2.0000      -0.830076       -22.5875
  12   2.0000      -0.769337       -20.9347
  13   2.0000      -0.738776       -20.1031
  14   2.0000      -0.696290       -18.9470
  15   2.0000      -0.671806       -18.2808
  16   2.0000      -0.613619       -16.6974
  17   2.0000      -0.607738       -16.5374
  18   2.0000      -0.595202       -16.1963
  19   2.0000      -0.559290       -15.2191
  20   0.0000      -0.178398        -4.8545
  21   0.0000      -0.137143        -3.7319
  22   0.0000      -0.095445        -2.5972
  23   0.0000      -0.093618        -2.5475
  24   0.0000      -0.068146        -1.8544

MULLIKEN ATOMIC CHARGES
-----------------------
   0 C :   -0.236656
   1 C :    0.546922
   2 N :    0.057876
   3 N :   -0.048381
   4 H :   -0.058748
   5 H :    0.094797
   6 H :    0.079252
   7 H :   -0.127423
   8 C :    0.616082
   9 H :    0.021735
  10 H :    0.070622
  11 H :    0.030095
  12 H :   -0.007872
  13 H :   -0.038300
Sum of atomic charges:    1.0000000

LOEWDIN ATOMIC CHARGES
----------------------
   0 C :    0.020225
   1 C :   -0.052473
   2 N :    0.279005
   3 N :    0.277720
   4 H :    0.051497
   5 H :    0.054724
   6 H :    0.053675
   7 H :    0.053248
   8 C :    0.176303
   9 H :    0.038317
  10 H :    0.050759
  11 H :    0.009589
  12 H :    0.001341
  13 H :   -0.013931

  Mayer bond orders larger than 0.100000
B(  0-C ,  1-C ) :   1.2451 B(  0-C ,  8-C ) :   1.2430 B(  0-C ,  9-H ) :   0.9074
B(  0-C , 10-H ) :   0.8519 B(  0-C , 11-H ) :   0.1365 B(  0-C , 12-H ) :   0.1477
B(  0-C , 13-H ) :   0.1784 B(  1-C ,  2-N ) :   1.1235 B(  1-C ,  3-N ) :   1.0630
B(  1-C ,  4-H ) :  -0.1267 B(  1-C ,  7-H ) :  -0.1347 B(  1-C ,  9-H ) :   0.1704
B(  1-C , 10-H ) :   0.1714 B(  2-N ,  3-N ) :   0.1599 B(  2-N ,  6-H ) :   1.0122
B(  2-N ,  7-H ) :   1.2673 B(  3-N ,  4-H ) :   1.2187 B(  3-N ,  5-H ) :   1.0019
B(  4-H ,  5-H ) :  -0.1483 B(  6-H ,  7-H ) :  -0.1679 B(  8-C , 11-H ) :   0.8810
B(  8-C , 12-H ) :   0.8509 B(  8-C , 13-H ) :   0.8169

Dispersion correction           -0.000189502
FINAL SINGLE POINT ENERGY      -228.753168996068

DIPOLE MOMENT
-------------
                                X             Y             Z
Electronic contribution:     -0.23615       1.78517       3.72243
Nuclear contribution   :     -0.22400      -1.16268      -3.30447
                        -----------------------------------------
Total Dipole Moment    :     -0.46015       0.62249       0.41796
                        -----------------------------------------
Magnitude (a.u.)       :      0.87973
Magnitude (Debye)      :      2.23610

Rotational constants in cm-1:     0.258103     0.130571     0.102508
Rotational constants in MHz :  7737.732062  3914.431392  3073.119154

                             ****ORCA TERMINATED NORMALLY****
TOTAL RUN TIME: 0 days 0 hours 0 minutes 23 seconds 377 msec
