                         Program Version 5.0.0 -  RELEASE  -
|  1> !M062X D3Zero RIJCOSX def2-SVPD def2/J TightSCF
|  2> *xyz 0 1
|  3> C         -0.91495        0.61511        2.50554
|  4> C         -0.05915        1.50352        3.41058
|  5> H          0.36536        2.34431        2.86116
|  6> H         -0.69226        1.92021        4.19898
|  7> C          1.08303        0.74964        4.08571
|  8> F          2.22817        1.26348        4.01983
|  9> O          0.81003       -0.34541        4.63627
| 10> H         -0.30401        0.20228        1.73015
| 11> H         -1.69811        1.19946        2.06954
| 12> H         -1.34124       -0.17772        3.08397
| 13> *
| 14>
| 15> %MaxCore 64000
| 16>
| 17> %pal nprocs 4
| 18> end
| 19>
| 20> %scf
| 21>   MaxIter 150
| 22> end
| 23>
| 24>
| 25>                          ****END OF INPUT****

CARTESIAN COORDINATES (ANGSTROEM)
---------------------------------
  C     -0.914950    0.615110    2.505540
  C     -0.059150    1.503520    3.410580
  H      0.365360    2.344310    2.861160
  H     -0.692260    1.920210    4.198980
  C      1.083030    0.749640    4.085710
  F      2.228170    1.263480    4.019830
  O      0.810030   -0.345410    4.636270
  H     -0.304010    0.202280    1.730150
  H     -1.698110    1.199460    2.069540
  H     -1.341240   -0.177720    3.083970

 Total Charge           Charge          ....    0
 Multiplicity           Mult            ....    1
 Number of Electrons    NEL             ....   40
 Basis Dimension        Dim             ....  146

ORBITAL ENERGIES
----------------

  NO   OCC          E(Eh)            E(eV)
   0   2.0000     -25.329306      -689.2455
   1   2.0000     -19.649944      -534.7022
   2   2.0000     -10.739574      -292.2387
   3   2.0000     -10.585105      -288.0353
   4   2.0000     -10.556685      -287.2620
   5   2.0000      -1.445563       -39.3358
   6   2.0000      -1.145047       -31.1583
   7   2.0000      -0.893601       -24.3161
   8   2.0000      -0.783561       -21.3218
   9   2.0000      -0.728563       -19.8252
  10   2.0000      -0.645370       -17.5614
  11   2.0000      -0.630595       -17.1594
  12   2.0000      -0.593027       -16.1371
  13   2.0000      -0.539535       -14.6815
  14   2.0000      -0.512144       -13.9361
  15   2.0000      -0.467614       -12.7244
  16   2.0000      -0.448722       -12.2103
  17   2.0000      -0.441480       -12.0133
  18   2.0000      -0.416139       -11.3237
  19   2.0000      -0.373305       -10.1582
  20   0.0000       0.009427         0.2565
  21   0.0000       0.030567         0.8318
  22   0.0000       0.058388         1.5888
  23   0.0000       0.069030         1.8784
  24   0.0000       0.091117         2.4794

MULLIKEN ATOMIC CHARGES
-----------------------
   0 C :    0.541215
   1 C :   -0.407316
   2 H :   -0.011265
   3 H :    0.084251
   4 C :    0.813418
   5 F :   -0.401313
   6 O :   -0.551467
   7 H :   -0.031788
   8 H :   -0.030849
   9 H :   -0.004887
Sum of atomic charges:    0.0000000

LOEWDIN ATOMIC CHARGES
----------------------
   0 C :    0.142623
   1 C :    0.002769
   2 H :    0.023837
   3 H :    0.042565
   4 C :    0.010367
   5 F :   -0.051382
   6 O :   -0.142599
   7 H :   -0.007239
   8 H :   -0.012146
   9 H :   -0.008796

  Mayer bond orders larger than 0.100000
B(  0-C ,  1-C ) :   1.3283 B(  0-C ,  7-H ) :   0.8595 B(  0-C ,  8-H ) :   0.8479
B(  0-C ,  9-H ) :   0.8353 B(  1-C ,  2-H ) :   0.9753 B(  1-C ,  3-H ) :   0.8803
B(  1-C ,  4-C ) :   1.0855 B(  1-C ,  7-H ) :   0.1544 B(  1-C ,  8-H ) :   0.1599
B(  1-C ,  9-H ) :   0.1804 B(  2-H ,  4-C ) :   0.1039 B(  4-C ,  5-F ) :   0.6912
B(  4-C ,  6-O ) :   1.7793

Dispersion correction           -0.000089237
FINAL SINGLE POINT ENERGY      -292.065898848219

DIPOLE MOMENT
-------------
                                X             Y             Z
Electronic contribution:      7.69792      -0.15407       4.07392
Nuclear contribution   :     -8.12386       1.06915      -4.71960
                        -----------------------------------------
Total Dipole Moment    :     -0.42595       0.91507      -0.64568
                        -----------------------------------------
Magnitude (a.u.)       :      1.19820
Magnitude (Debye)      :      3.04559

Rotational constants in cm-1:     0.309513     0.127560     0.099675
Rotational constants in MHz :  9278.979128  3824.146597  2988.174827

                             ****ORCA TERMINATED NORMALLY****
TOTAL RUN TIME: 0 days 0 hours 0 minutes 19 seconds 586 msec
