                         Program Version 5.0.0 -  RELEASE  -
|  1> !M062X D3Zero RIJCOSX def2-SVPD def2/J TightSCF
|  2> *xyz 0 1
|  3> C          4.60295       -2.44010        2.63478
|  4> C          3.86085       -1.59157        3.62289
|  5> C          2.75650       -2.04616        4.16633
|  6> N          4.25433       -0.36291        3.86046
|  7> H          3.56526        0.31099        4.16898
|  8> H          5.05429       -0.01606        3.33784
|  9> H          2.43970       -2.97389        3.89740
| 10> H          2.06687       -1.41253        4.54981
| 11> C          3.74469       -2.58056        1.36188
| 12> H          5.56156       -1.97135        2.40708
| 13> H          4.81050       -3.42255        3.06310
| 14> H          4.26314       -3.18477        0.64702
| 15> H          3.56325       -1.61180        0.94535
| 16> H          2.81197       -3.04259        1.60980
| 17> *
| 18>
| 19> %MaxCore 64000
| 20>
| 21> %pal nprocs 4
| 22> end
| 23>
| 24> %scf
| 25>   MaxIter 150
| 26> end
| 27>
| 28>
| 29>                          ****END OF INPUT****

CARTESIAN COORDINATES (ANGSTROEM)
---------------------------------
  C      4.602950   -2.440100    2.634780
  C      3.860850   -1.591570    3.622890
  C      2.756500   -2.046160    4.166330
  N      4.254330   -0.362910    3.860460
  H      3.565260    0.310990    4.168980
  H      5.054290   -0.016060    3.337840
  H      2.439700   -2.973890    3.897400
  H      2.066870   -1.412530    4.549810
  C      3.744690   -2.580560    1.361880
  H      5.561560   -1.971350    2.407080
  H      4.810500   -3.422550    3.063100
  H      4.263140   -3.184770    0.647020
  H      3.563250   -1.611800    0.945350
  H      2.811970   -3.042590    1.609800

 Total Charge           Charge          ....    0
 Multiplicity           Mult            ....    1
 Number of Electrons    NEL             ....   40
 Basis Dimension        Dim             ....  172

ORBITAL ENERGIES
----------------

  NO   OCC          E(Eh)            E(eV)
   0   2.0000     -14.763242      -401.7282
   1   2.0000     -10.569861      -287.6205
   2   2.0000     -10.553175      -287.1665
   3   2.0000     -10.537420      -286.7378
   4   2.0000     -10.481140      -285.2063
   5   2.0000      -1.031893       -28.0792
   6   2.0000      -0.872205       -23.7339
   7   2.0000      -0.798825       -21.7371
   8   2.0000      -0.721192       -19.6246
   9   2.0000      -0.638590       -17.3769
  10   2.0000      -0.598370       -16.2825
  11   2.0000      -0.554518       -15.0892
  12   2.0000      -0.518024       -14.0961
  13   2.0000      -0.480127       -13.0649
  14   2.0000      -0.455055       -12.3827
  15   2.0000      -0.443761       -12.0753
  16   2.0000      -0.415505       -11.3065
  17   2.0000      -0.405089       -11.0230
  18   2.0000      -0.393104       -10.6969
  19   2.0000      -0.243885        -6.6364
  20   0.0000       0.036989         1.0065
  21   0.0000       0.062483         1.7003
  22   0.0000       0.068971         1.8768
  23   0.0000       0.078877         2.1464
  24   0.0000       0.087402         2.3783

MULLIKEN ATOMIC CHARGES
-----------------------
   0 C :   -0.044751
   1 C :   -0.146272
   2 C :    0.336892
   3 N :    0.052814
   4 H :   -0.082331
   5 H :   -0.030923
   6 H :   -0.106371
   7 H :   -0.426505
   8 C :    0.632416
   9 H :   -0.070688
  10 H :    0.039812
  11 H :    0.002956
  12 H :   -0.064529
  13 H :   -0.092518
Sum of atomic charges:    0.0000000

LOEWDIN ATOMIC CHARGES
----------------------
   0 C :   -0.023051
   1 C :   -0.273191
   2 C :    0.170769
   3 N :    0.158946
   4 H :    0.011106
   5 H :    0.000801
   6 H :   -0.079319
   7 H :   -0.082625
   8 C :    0.137935
   9 H :    0.010664
  10 H :    0.027514
  11 H :   -0.021064
  12 H :   -0.013520
  13 H :   -0.024964

  Mayer bond orders larger than 0.100000
B(  0-C ,  1-C ) :   1.2091 B(  0-C ,  8-C ) :   1.2663 B(  0-C ,  9-H ) :   0.8150
B(  0-C , 10-H ) :   0.8326 B(  0-C , 11-H ) :   0.1555 B(  0-C , 12-H ) :   0.1799
B(  0-C , 13-H ) :   0.1894 B(  1-C ,  2-C ) :   1.8876 B(  1-C ,  3-N ) :   1.0261
B(  1-C ,  6-H ) :   0.1328 B(  1-C ,  7-H ) :   0.1338 B(  1-C ,  9-H ) :   0.2061
B(  1-C , 10-H ) :   0.1985 B(  2-C ,  3-N ) :   0.2647 B(  2-C ,  6-H ) :   0.7257
B(  2-C ,  7-H ) :   0.8961 B(  3-N ,  4-H ) :   1.1197 B(  3-N ,  5-H ) :   1.0122
B(  4-H ,  5-H ) :  -0.1344 B(  8-C , 11-H ) :   0.8259 B(  8-C , 12-H ) :   0.8416
B(  8-C , 13-H ) :   0.8623

Dispersion correction           -0.000186517
FINAL SINGLE POINT ENERGY      -212.297946417876

DIPOLE MOMENT
-------------
                                X             Y             Z
Electronic contribution:      0.79603       1.76474       2.54723
Nuclear contribution   :     -0.47010      -1.22282      -3.06417
                        -----------------------------------------
Total Dipole Moment    :      0.32593       0.54192      -0.51693
                        -----------------------------------------
Magnitude (a.u.)       :      0.81678
Magnitude (Debye)      :      2.07608

Rotational constants in cm-1:     0.271862     0.131962     0.105499
Rotational constants in MHz :  8150.219120  3956.123671  3162.785522

                             ****ORCA TERMINATED NORMALLY****
TOTAL RUN TIME: 0 days 0 hours 0 minutes 24 seconds 687 msec
