                         Program Version 5.0.0 -  RELEASE  -
|  1> !M062X D3Zero RIJCOSX def2-SVPD def2/J TightSCF
|  2> *xyz 0 1
|  3> C         -0.91495        0.61511        2.50554
|  4> C         -0.05915        1.50352        3.41058
|  5> H          0.36536        2.34431        2.86116
|  6> H         -0.69226        1.92021        4.19898
|  7> C          1.08303        0.74964        4.08571
|  8> O          2.22817        1.26348        4.01983
|  9> F          0.81003       -0.34541        4.63627
| 10> H         -0.30401        0.20228        1.73015
| 11> H         -1.69811        1.19946        2.06954
| 12> H         -1.34124       -0.17772        3.08397
| 13> *
| 14>
| 15> %MaxCore 64000
| 16>
| 17> %pal nprocs 4
| 18> end
| 19>
| 20> %scf
| 21>   MaxIter 150
| 22> end
| 23>
| 24>
| 25>                          ****END OF INPUT****

CARTESIAN COORDINATES (ANGSTROEM)
---------------------------------
  C     -0.914950    0.615110    2.505540
  C     -0.059150    1.503520    3.410580
  H      0.365360    2.344310    2.861160
  H     -0.692260    1.920210    4.198980
  C      1.083030    0.749640    4.085710
  O      2.228170    1.263480    4.019830
  F      0.810030   -0.345410    4.636270
  H     -0.304010    0.202280    1.730150
  H     -1.698110    1.199460    2.069540
  H     -1.341240   -0.177720    3.083970

 Total Charge           Charge          ....    0
 Multiplicity           Mult            ....    1
 Number of Electrons    NEL             ....   40
 Basis Dimension        Dim             ....  146

ORBITAL ENERGIES
----------------

  NO   OCC          E(Eh)            E(eV)
   0   2.0000     -25.330676      -689.2827
   1   2.0000     -19.648734      -534.6692
   2   2.0000     -10.738884      -292.2199
   3   2.0000     -10.584606      -288.0218
   4   2.0000     -10.562133      -287.4102
   5   2.0000      -1.447120       -39.3781
   6   2.0000      -1.143211       -31.1084
   7   2.0000      -0.897965       -24.4349
   8   2.0000      -0.779152       -21.2018
   9   2.0000      -0.735276       -20.0079
  10   2.0000      -0.647771       -17.6267
  11   2.0000      -0.638568       -17.3763
  12   2.0000      -0.583080       -15.8664
  13   2.0000      -0.540860       -14.7175
  14   2.0000      -0.511270       -13.9124
  15   2.0000      -0.474689       -12.9170
  16   2.0000      -0.456314       -12.4169
  17   2.0000      -0.444327       -12.0908
  18   2.0000      -0.418238       -11.3808
  19   2.0000      -0.367599       -10.0029
  20   0.0000       0.012170         0.3312
  21   0.0000       0.029227         0.7953
  22   0.0000       0.060059         1.6343
  23   0.0000       0.066379         1.8063
  24   0.0000       0.091008         2.4764

MULLIKEN ATOMIC CHARGES
-----------------------
   0 C :    0.533121
   1 C :   -0.384365
   2 H :   -0.030484
   3 H :    0.075176
   4 C :    0.823368
   5 O :   -0.527609
   6 F :   -0.420522
   7 H :   -0.031222
   8 H :   -0.027846
   9 H :   -0.009616
Sum of atomic charges:   -0.0000000

LOEWDIN ATOMIC CHARGES
----------------------
   0 C :    0.135202
   1 C :    0.008610
   2 H :    0.035213
   3 H :    0.039825
   4 C :    0.006417
   5 O :   -0.146694
   6 F :   -0.046320
   7 H :   -0.007196
   8 H :   -0.011662
   9 H :   -0.013395

  Mayer bond orders larger than 0.100000
B(  0-C ,  1-C ) :   1.2965 B(  0-C ,  7-H ) :   0.8694 B(  0-C ,  8-H ) :   0.8551
B(  0-C ,  9-H ) :   0.8275 B(  1-C ,  2-H ) :   1.0132 B(  1-C ,  3-H ) :   0.8783
B(  1-C ,  4-C ) :   1.0534 B(  1-C ,  7-H ) :   0.1483 B(  1-C ,  8-H ) :   0.1614
B(  1-C ,  9-H ) :   0.1690 B(  2-H ,  4-C ) :   0.1319 B(  4-C ,  5-O ) :   1.7711
B(  4-C ,  6-F ) :   0.6790

Dispersion correction           -0.000093554
FINAL SINGLE POINT ENERGY      -292.064859962770

DIPOLE MOMENT
-------------
                                X             Y             Z
Electronic contribution:      5.31800      -2.82003       5.08341
Nuclear contribution   :     -6.57765       2.82334      -5.39171
                        -----------------------------------------
Total Dipole Moment    :     -1.25965       0.00331      -0.30830
                        -----------------------------------------
Magnitude (a.u.)       :      1.29683
Magnitude (Debye)      :      3.29629

Rotational constants in cm-1:     0.294245     0.132994     0.101060
Rotational constants in MHz :  8821.228602  3987.049251  3029.696815

                             ****ORCA TERMINATED NORMALLY****
TOTAL RUN TIME: 0 days 0 hours 0 minutes 18 seconds 921 msec
