                         Program Version 5.0.0 -  RELEASE  -
|  1> !M062X D3Zero RIJCOSX def2-SVPD def2/J TightSCF
|  2> *xyz 0 1
|  3> C          4.60295       -2.44010        2.63478
|  4> C          3.86085       -1.59157        3.62289
|  5> N          2.75650       -2.04616        4.16633
|  6> C          4.25433       -0.36291        3.86046
|  7> H          3.56526        0.31099        4.16898
|  8> H          5.05429       -0.01606        3.33784
|  9> H          2.43970       -2.97389        3.89740
| 10> H          2.06687       -1.41253        4.54981
| 11> C          3.74469       -2.58056        1.36188
| 12> H          5.56156       -1.97135        2.40708
| 13> H          4.81050       -3.42255        3.06310
| 14> H          4.26314       -3.18477        0.64702
| 15> H          3.56325       -1.61180        0.94535
| 16> H          2.81197       -3.04259        1.60980
| 17> *
| 18>
| 19> %MaxCore 64000
| 20>
| 21> %pal nprocs 4
| 22> end
| 23>
| 24> %scf
| 25>   MaxIter 150
| 26> end
| 27>
| 28>
| 29>                          ****END OF INPUT****

CARTESIAN COORDINATES (ANGSTROEM)
---------------------------------
  C      4.602950   -2.440100    2.634780
  C      3.860850   -1.591570    3.622890
  N      2.756500   -2.046160    4.166330
  C      4.254330   -0.362910    3.860460
  H      3.565260    0.310990    4.168980
  H      5.054290   -0.016060    3.337840
  H      2.439700   -2.973890    3.897400
  H      2.066870   -1.412530    4.549810
  C      3.744690   -2.580560    1.361880
  H      5.561560   -1.971350    2.407080
  H      4.810500   -3.422550    3.063100
  H      4.263140   -3.184770    0.647020
  H      3.563250   -1.611800    0.945350
  H      2.811970   -3.042590    1.609800

 Total Charge           Charge          ....    0
 Multiplicity           Mult            ....    1
 Number of Electrons    NEL             ....   40
 Basis Dimension        Dim             ....  172

ORBITAL ENERGIES
----------------

  NO   OCC          E(Eh)            E(eV)
   0   2.0000     -14.763099      -401.7243
   1   2.0000     -10.570769      -287.6453
   2   2.0000     -10.552711      -287.1539
   3   2.0000     -10.541081      -286.8374
   4   2.0000     -10.482272      -285.2371
   5   2.0000      -1.031604       -28.0714
   6   2.0000      -0.870027       -23.6746
   7   2.0000      -0.807269       -21.9669
   8   2.0000      -0.716321       -19.4921
   9   2.0000      -0.645681       -17.5699
  10   2.0000      -0.599962       -16.3258
  11   2.0000      -0.549360       -14.9488
  12   2.0000      -0.507771       -13.8171
  13   2.0000      -0.498299       -13.5594
  14   2.0000      -0.454685       -12.3726
  15   2.0000      -0.446005       -12.1364
  16   2.0000      -0.419149       -11.4056
  17   2.0000      -0.403162       -10.9706
  18   2.0000      -0.388735       -10.5780
  19   2.0000      -0.246413        -6.7052
  20   0.0000       0.035288         0.9602
  21   0.0000       0.064413         1.7528
  22   0.0000       0.073648         2.0041
  23   0.0000       0.076110         2.0711
  24   0.0000       0.086272         2.3476

MULLIKEN ATOMIC CHARGES
-----------------------
   0 C :   -0.193513
   1 C :   -0.241545
   2 N :    0.190610
   3 C :    0.340474
   4 H :   -0.347477
   5 H :   -0.057996
   6 H :   -0.065980
   7 H :   -0.177194
   8 C :    0.682262
   9 H :    0.066693
  10 H :   -0.036032
  11 H :   -0.065973
  12 H :   -0.039068
  13 H :   -0.055260
Sum of atomic charges:    0.0000000

LOEWDIN ATOMIC CHARGES
----------------------
   0 C :   -0.024517
   1 C :   -0.278320
   2 N :    0.162599
   3 C :    0.172603
   4 H :   -0.083335
   5 H :   -0.082886
   6 H :    0.002558
   7 H :    0.012793
   8 C :    0.137189
   9 H :    0.022322
  10 H :    0.020106
  11 H :   -0.019718
  12 H :   -0.010875
  13 H :   -0.030518

  Mayer bond orders larger than 0.100000
B(  0-C ,  1-C ) :   1.3111 B(  0-C ,  8-C ) :   1.2473 B(  0-C ,  9-H ) :   0.8866
B(  0-C , 10-H ) :   0.8522 B(  0-C , 11-H ) :   0.1902 B(  0-C , 12-H ) :   0.1611
B(  0-C , 13-H ) :   0.2127 B(  1-C ,  2-N ) :   1.0887 B(  1-C ,  3-C ) :   2.0290
B(  1-C ,  4-H ) :   0.2416 B(  1-C ,  5-H ) :   0.1381 B(  1-C ,  9-H ) :   0.1928
B(  1-C , 10-H ) :   0.2053 B(  2-N ,  3-C ) :   0.2435 B(  2-N ,  6-H ) :   1.0523
B(  2-N ,  7-H ) :   1.1600 B(  3-C ,  4-H ) :   0.7820 B(  3-C ,  5-H ) :   0.8745
B(  6-H ,  7-H ) :  -0.1386 B(  8-C , 11-H ) :   0.8559 B(  8-C , 12-H ) :   0.8514
B(  8-C , 13-H ) :   0.7970

Dispersion correction           -0.000186100
FINAL SINGLE POINT ENERGY      -212.298781575566

DIPOLE MOMENT
-------------
                                X             Y             Z
Electronic contribution:     -0.48337       0.32153       2.81976
Nuclear contribution   :     -0.12319      -0.83296      -3.13501
                        -----------------------------------------
Total Dipole Moment    :     -0.60656      -0.51143      -0.31525
                        -----------------------------------------
Magnitude (a.u.)       :      0.85373
Magnitude (Debye)      :      2.17001

Rotational constants in cm-1:     0.266453     0.134423     0.106086
Rotational constants in MHz :  7988.053142  4029.892766  3180.375228

                             ****ORCA TERMINATED NORMALLY****
TOTAL RUN TIME: 0 days 0 hours 0 minutes 23 seconds 371 msec
