                         Program Version 5.0.0 -  RELEASE  -
|  1> !M062X D3Zero RIJCOSX def2-SVPD def2/J TightSCF xyzfile
|  2>
|  3> *xyzfile 0 1 D2.xyz
|  4>
|  5> %MaxCore 64000
|  6>
|  7> %pal nprocs 4
|  8> end
|  9>
| 10> %scf
| 11>   MaxIter 150
| 12> end
| 13>
| 14>
| 15>                          ****END OF INPUT****

CARTESIAN COORDINATES (ANGSTROEM)
---------------------------------
  C      4.602954   -2.440100    2.634780
  C     -0.914947    0.615112    2.505538
  C     -0.059146    1.503524    3.410578
  H      0.365364    2.344315    2.861161
  H     -0.692261    1.920207    4.198985
  C      1.083027    0.749640    4.085705
  C      3.860851   -1.591565    3.622893
  N      2.756502   -2.046159    4.166333
  C      4.254325   -0.362905    3.860455
  H      3.565256    0.310994    4.168983
  H      5.054292   -0.016059    3.337838
  H      2.439696   -2.973894    3.897395
  H      2.066869   -1.412532    4.549813
  F      2.228167    1.263475    4.019826
  O      0.810034   -0.345411    4.636269
  C      3.744685   -2.580557    1.361882
  C      0.772139    0.636882    0.562129
  C     -0.130740   -0.193985    1.470763
  H     -0.840563   -0.760165    0.856377
  H      0.466691   -0.938942    2.006959
  H     -1.647961    1.245963    1.991076
  H     -1.478180   -0.081046    3.130424
  C      3.203721   -1.256004    0.826211
  H      2.898939   -3.239289    1.583074
  H      4.334962   -3.095523    0.600188
  C      2.107815   -1.442385   -0.216865
  H      2.786775   -0.672760    1.650711
  H      4.021008   -0.652993    0.414046
  C      1.390662   -0.145912   -0.602422
  H      1.372179   -2.152184    0.176151
  H      2.523302   -1.906787   -1.117115
  H      1.561361    1.100094    1.161831
  H      0.195516    1.468325    0.142758
  H      0.602893   -0.398214   -1.319716
  H      2.087247    0.508272   -1.137335
  H      5.561557   -1.971347    2.407084
  H      4.810498   -3.422552    3.063099

 Total Charge           Charge          ....    0
 Multiplicity           Mult            ....    1
 Number of Electrons    NEL             ....  118
 Basis Dimension        Dim             ....  482

ORBITAL ENERGIES
----------------

  NO   OCC          E(Eh)            E(eV)
   0   2.0000     -25.345329      -689.6815
   1   2.0000     -19.673540      -535.3443
   2   2.0000     -14.728936      -400.7947
   3   2.0000     -10.762094      -292.8515
   4   2.0000     -10.592242      -288.2295
   5   2.0000     -10.571381      -287.6619
   6   2.0000     -10.555992      -287.2431
   7   2.0000     -10.553060      -287.1634
   8   2.0000     -10.552014      -287.1349
   9   2.0000     -10.547428      -287.0101
  10   2.0000     -10.542528      -286.8768
  11   2.0000     -10.541135      -286.8389
  12   2.0000     -10.537636      -286.7436
  13   2.0000     -10.535162      -286.6763
  14   2.0000     -10.458178      -284.5815
  15   2.0000      -1.465409       -39.8758
  16   2.0000      -1.174081       -31.9484
  17   2.0000      -1.007521       -27.4160
  18   2.0000      -0.928041       -25.2533
  19   2.0000      -0.899583       -24.4789
  20   2.0000      -0.871683       -23.7197
  21   2.0000      -0.836181       -22.7537
  22   2.0000      -0.804197       -21.8833
  23   2.0000      -0.792483       -21.5645
  24   2.0000      -0.760377       -20.6909
  25   2.0000      -0.731773       -19.9126
  26   2.0000      -0.696761       -18.9598
  27   2.0000      -0.667207       -18.1556
  28   2.0000      -0.661684       -18.0053
  29   2.0000      -0.651674       -17.7329
  30   2.0000      -0.640830       -17.4379
  31   2.0000      -0.627142       -17.0654
  32   2.0000      -0.604493       -16.4491
  33   2.0000      -0.574627       -15.6364
  34   2.0000      -0.559411       -15.2223
  35   2.0000      -0.552286       -15.0285
  36   2.0000      -0.536432       -14.5971
  37   2.0000      -0.526313       -14.3217
  38   2.0000      -0.517274       -14.0757
  39   2.0000      -0.504464       -13.7272
  40   2.0000      -0.493167       -13.4198
  41   2.0000      -0.480113       -13.0645
  42   2.0000      -0.477054       -12.9813
  43   2.0000      -0.464517       -12.6401
  44   2.0000      -0.447788       -12.1849
  45   2.0000      -0.439337       -11.9550
  46   2.0000      -0.438006       -11.9188
  47   2.0000      -0.432658       -11.7732
  48   2.0000      -0.418336       -11.3835
  49   2.0000      -0.412086       -11.2134
  50   2.0000      -0.406620       -11.0647
  51   2.0000      -0.396282       -10.7834
  52   2.0000      -0.385471       -10.4892
  53   2.0000      -0.382280       -10.4024
  54   2.0000      -0.379513       -10.3271
  55   2.0000      -0.372690       -10.1414
  56   2.0000      -0.363823        -9.9001
  57   2.0000      -0.356373        -9.6974
  58   2.0000      -0.225123        -6.1259
  59   0.0000      -0.012446        -0.3387
  60   0.0000       0.026587         0.7235
  61   0.0000       0.040374         1.0986
  62   0.0000       0.046237         1.2582
  63   0.0000       0.049710         1.3527

MULLIKEN ATOMIC CHARGES
-----------------------
   0 C :    0.647095
   1 C :    0.532683
   2 C :    0.139284
   3 H :    0.221662
   4 H :   -0.163134
   5 C :    0.803020
   6 C :   -0.466284
   7 N :    0.421480
   8 C :    1.005972
   9 H :   -0.842878
  10 H :   -0.077233
  11 H :    0.036753
  12 H :   -0.579218
  13 F :   -0.498774
  14 O :   -0.617171
  15 C :    0.224630
  16 C :   -0.185894
  17 C :   -0.147258
  18 H :   -0.211442
  19 H :   -0.049955
  20 H :   -0.078541
  21 H :    0.055186
  22 C :    0.204706
  23 H :    0.074089
  24 H :   -0.359539
  25 C :    0.022757
  26 H :   -0.440756
  27 H :   -0.029468
  28 C :    0.851379
  29 H :    0.162698
  30 H :   -0.395573
  31 H :    0.184863
  32 H :   -0.564029
  33 H :    0.086094
  34 H :   -0.024465
  35 H :    0.159725
  36 H :   -0.102465
Sum of atomic charges:   -0.0000000

LOEWDIN ATOMIC CHARGES
----------------------
   0 C :    0.017960
   1 C :   -0.012709
   2 C :    0.060457
   3 H :    0.027247
   4 H :    0.045719
   5 C :    0.072712
   6 C :   -0.262713
   7 N :    0.205440
   8 C :    0.193008
   9 H :   -0.141600
  10 H :   -0.075901
  11 H :    0.007879
  12 H :   -0.105160
  13 F :   -0.050607
  14 O :   -0.119698
  15 C :   -0.019713
  16 C :   -0.036805
  17 C :   -0.029130
  18 H :    0.033228
  19 H :    0.009776
  20 H :    0.030303
  21 H :    0.030142
  22 C :   -0.028484
  23 H :    0.012013
  24 H :    0.022152
  25 C :   -0.040429
  26 H :   -0.019054
  27 H :    0.038928
  28 C :   -0.028582
  29 H :    0.015277
  30 H :    0.024219
  31 H :    0.008413
  32 H :    0.024164
  33 H :    0.022305
  34 H :    0.024278
  35 H :    0.023890
  36 H :    0.021074

  Mayer bond orders larger than 0.100000
B(  0-C ,  6-C ) :   1.3023 B(  0-C ,  8-C ) :   0.1056 B(  0-C , 15-C ) :   1.0838
B(  0-C , 24-H ) :   0.1093 B(  0-C , 35-H ) :   0.7144 B(  0-C , 36-H ) :   0.5345
B(  1-C ,  2-C ) :   1.1799 B(  1-C ,  4-H ) :   0.1538 B(  1-C , 17-C ) :   1.2446
B(  1-C , 20-H ) :   0.7696 B(  1-C , 21-H ) :   0.6461 B(  1-C , 28-C ) :   0.1298
B(  2-C ,  3-H ) :   0.8159 B(  2-C ,  4-H ) :   0.7088 B(  2-C ,  5-C ) :   1.2017
B(  2-C , 17-C ) :   0.1182 B(  2-C , 20-H ) :   0.1424 B(  2-C , 21-H ) :   0.1038
B(  3-H ,  5-C ) :   0.1542 B(  4-H ,  5-C ) :   0.2636 B(  5-C , 13-F ) :   0.5651
B(  5-C , 14-O ) :   1.5139 B(  6-C ,  7-N ) :   0.8893 B(  6-C ,  8-C ) :   2.0410
B(  6-C ,  9-H ) :   0.3922 B(  6-C , 10-H ) :   0.2681 B(  6-C , 12-H ) :  -0.1358
B(  6-C , 24-H ) :  -0.1306 B(  6-C , 26-H ) :  -0.1266 B(  6-C , 35-H ) :   0.1802
B(  6-C , 36-H ) :   0.3347 B(  7-N ,  8-C ) :   0.3954 B(  7-N , 10-H ) :   0.1083
B(  7-N , 11-H ) :   0.9884 B(  7-N , 12-H ) :   1.1091 B(  8-C , 10-H ) :   0.7047
B(  9-H , 10-H ) :  -0.1053 B(  9-H , 13-F ) :   0.1808 B(  9-H , 24-H ) :  -0.1165
B( 11-H , 12-H ) :  -0.2757 B( 12-H , 14-O ) :   0.1613 B( 15-C , 22-C ) :   1.1175
B( 15-C , 23-H ) :   0.8104 B( 15-C , 24-H ) :   0.9479 B( 15-C , 26-H ) :   0.1136
B( 15-C , 35-H ) :   0.1405 B( 15-C , 36-H ) :   0.1797 B( 16-C , 17-C ) :   1.2568
B( 16-C , 18-H ) :   0.1817 B( 16-C , 19-H ) :   0.1313 B( 16-C , 25-C ) :   0.1679
B( 16-C , 28-C ) :   1.0719 B( 16-C , 31-H ) :   0.8024 B( 16-C , 32-H ) :   1.2024
B( 16-C , 33-H ) :   0.1350 B( 16-C , 34-H ) :   0.2877 B( 17-C , 18-H ) :   0.8972
B( 17-C , 19-H ) :   0.9564 B( 17-C , 20-H ) :   0.2030 B( 17-C , 21-H ) :   0.2395
B( 17-C , 25-C ) :   0.1079 B( 17-C , 32-H ) :   0.1101 B( 19-H , 29-H ) :   0.1013
B( 20-H , 21-H ) :  -0.1622 B( 22-C , 23-H ) :   0.1269 B( 22-C , 24-H ) :   0.2147
B( 22-C , 25-C ) :   1.1537 B( 22-C , 26-H ) :   1.0433 B( 22-C , 27-H ) :   0.7004
B( 22-C , 29-H ) :   0.1264 B( 22-C , 30-H ) :   0.2571 B( 25-C , 27-H ) :   0.1133
B( 25-C , 28-C ) :   1.1360 B( 25-C , 29-H ) :   0.7994 B( 25-C , 30-H ) :   1.0168
B( 25-C , 33-H ) :   0.2218 B( 25-C , 34-H ) :   0.1395 B( 26-H , 27-H ) :   0.2127
B( 26-H , 31-H ) :   0.2038 B( 26-H , 32-H ) :  -0.1401 B( 28-C , 32-H ) :  -0.1524
B( 28-C , 33-H ) :   0.6542 B( 28-C , 34-H ) :   0.6174 B( 33-H , 34-H ) :  -0.1488

Dispersion correction           -0.002525604
FINAL SINGLE POINT ENERGY      -699.496412953069

DIPOLE MOMENT
-------------
                                X             Y             Z
Electronic contribution:      0.06348       6.24417      15.10789
Nuclear contribution   :     -1.39991      -5.60370     -16.00470
                        -----------------------------------------
Total Dipole Moment    :     -1.33643       0.64047      -0.89681
                        -----------------------------------------
Magnitude (a.u.)       :      1.73220
Magnitude (Debye)      :      4.40291

Rotational constants in cm-1:     0.021622     0.017313     0.011402
Rotational constants in MHz :   648.226014   519.043632   341.814105

                             ****ORCA TERMINATED NORMALLY****
TOTAL RUN TIME: 0 days 0 hours 4 minutes 10 seconds 268 msec
