                         Program Version 5.0.0 -  RELEASE  -
|  1> !CAM-B3LYP RIJCOSX def2-SVPD def2/J TightSCF
|  2> *xyz -1 1
|  3> C         -2.12050        0.88520        1.78951
|  4> C         -0.77894        0.17197        1.80496
|  5> H          0.01569        0.91077        1.93915
|  6> H         -0.74355       -0.50683        2.66542
|  7> C         -0.60249       -0.63071        0.49224
|  8> H          0.31389       -1.24035        0.60350
|  9> H         -0.36383        0.11332       -0.30117
| 10> O         -1.71206       -1.37684        0.20253
| 11> H         -2.16160        1.54956        0.95175
| 12> H         -2.23761        1.44436        2.69423
| 13> H         -2.90702        0.16393        1.71165
| 14> *
| 15> %MaxCore 64000
| 16>
| 17> %pal nprocs 4
| 18> end
| 19> %scf
| 20>   MaxIter 150
| 21> end
| 22>
| 23>                          ****END OF INPUT****

CARTESIAN COORDINATES (ANGSTROEM)
---------------------------------
  C     -2.120500    0.885200    1.789510
  C     -0.778940    0.171970    1.804960
  H      0.015690    0.910770    1.939150
  H     -0.743550   -0.506830    2.665420
  C     -0.602490   -0.630710    0.492240
  H      0.313890   -1.240350    0.603500
  H     -0.363830    0.113320   -0.301170
  O     -1.712060   -1.376840    0.202530
  H     -2.161600    1.549560    0.951750
  H     -2.237610    1.444360    2.694230
  H     -2.907020    0.163930    1.711650

 Total Charge           Charge          ....   -1
 Multiplicity           Mult            ....    1
 Number of Electrons    NEL             ....   34
 Basis Dimension        Dim             ....  139

ORBITAL ENERGIES
----------------

  NO   OCC          E(Eh)            E(eV)
   0   2.0000     -18.882798      -513.8270
   1   2.0000     -10.075552      -274.1697
   2   2.0000     -10.067808      -273.9590
   3   2.0000     -10.064849      -273.8785
   4   2.0000      -0.757881       -20.6230
   5   2.0000      -0.655139       -17.8272
   6   2.0000      -0.535758       -14.5787
   7   2.0000      -0.435335       -11.8461
   8   2.0000      -0.345040        -9.3890
   9   2.0000      -0.334310        -9.0970
  10   2.0000      -0.280738        -7.6393
  11   2.0000      -0.251956        -6.8561
  12   2.0000      -0.222117        -6.0441
  13   2.0000      -0.217498        -5.9184
  14   2.0000      -0.179026        -4.8716
  15   2.0000      -0.037585        -1.0228
  16   2.0000      -0.035152        -0.9565
  17   0.0000       0.196026         5.3342
  18   0.0000       0.219336         5.9684
  19   0.0000       0.236112         6.4249
  20   0.0000       0.263626         7.1736
  21   0.0000       0.285031         7.7561

MULLIKEN ATOMIC CHARGES
-----------------------
   0 C :    0.768974
   1 C :   -0.300703
   2 H :   -0.174555
   3 H :   -0.138777
   4 C :    0.543089
   5 H :   -0.252396
   6 H :   -0.152635
   7 O :   -0.874834
   8 H :   -0.137920
   9 H :   -0.202748
  10 H :   -0.077496
Sum of atomic charges:   -1.0000000

LOEWDIN ATOMIC CHARGES
----------------------
   0 C :    0.075978
   1 C :   -0.112838
   2 H :   -0.014349
   3 H :    0.000200
   4 C :   -0.210954
   5 H :   -0.034149
   6 H :   -0.027057
   7 O :   -0.558411
   8 H :   -0.029702
   9 H :   -0.051051
  10 H :   -0.037666

  Mayer bond orders larger than 0.100000
B(  0-C ,  1-C ) :   1.2769 B(  0-C ,  2-H ) :   0.1035 B(  0-C ,  8-H ) :   0.7773
B(  0-C ,  9-H ) :   0.7671 B(  0-C , 10-H ) :   0.7990 B(  1-C ,  2-H ) :   0.9642
B(  1-C ,  3-H ) :   0.9342 B(  1-C ,  4-C ) :   1.0236 B(  1-C ,  5-H ) :   0.1463
B(  1-C ,  6-H ) :   0.1469 B(  1-C ,  8-H ) :   0.2053 B(  1-C ,  9-H ) :   0.2158
B(  1-C , 10-H ) :   0.2097 B(  3-H ,  4-C ) :   0.1040 B(  4-C ,  5-H ) :   0.9512
B(  4-C ,  6-H ) :   0.9081 B(  4-C ,  7-O ) :   1.1935

FINAL SINGLE POINT ENERGY      -193.510682741211

DIPOLE MOMENT
-------------
                                X             Y             Z
Electronic contribution:     -0.54877      -2.33684      -1.46416
Nuclear contribution   :      1.03476       3.87369       2.65163
                        -----------------------------------------
Total Dipole Moment    :      0.48599       1.53684       1.18747
                        -----------------------------------------
Magnitude (a.u.)       :      2.00204
Magnitude (Debye)      :      5.08879

Rotational constants in cm-1:     0.475803     0.193433     0.155403
Rotational constants in MHz : 14264.216647  5798.988361  4658.874800

                             ****ORCA TERMINATED NORMALLY****
TOTAL RUN TIME: 0 days 0 hours 0 minutes 18 seconds 297 msec
