                         Program Version 5.0.0 -  RELEASE  -
|  1> !CAM-B3LYP RIJCOSX def2-SVPD def2/J TightSCF
|  2> *xyz 1 1
|  3> C         -2.12050        0.88520        1.78951
|  4> C         -0.77894        0.17197        1.80496
|  5> H         -2.32419        1.47265        2.68608
|  6> H         -2.18770        1.54127        0.91948
|  7> N         -3.17690       -0.15948        1.61070
|  8> H          0.01569        0.91077        1.93915
|  9> H         -0.74355       -0.50683        2.66542
| 10> C         -0.60249       -0.63071        0.49224
| 11> H         -4.06474        0.23127        1.28675
| 12> H         -3.34407       -0.67151        2.48493
| 13> H         -2.71686       -0.78189        0.93588
| 14> H         -0.63812        0.03805       -0.34226
| 15> H         -1.38918       -1.35085        0.40604
| 16> H          0.34172       -1.13388        0.50602
| 17> *
| 18> %MaxCore 64000
| 19>
| 20> %pal nprocs 4
| 21> end
| 22>
| 23> %scf
| 24>   MaxIter 150
| 25> end
| 26>
| 27>
| 28>                          ****END OF INPUT****

CARTESIAN COORDINATES (ANGSTROEM)
---------------------------------
  C     -2.120500    0.885200    1.789510
  C     -0.778940    0.171970    1.804960
  H     -2.324190    1.472650    2.686080
  H     -2.187700    1.541270    0.919480
  N     -3.176900   -0.159480    1.610700
  H      0.015690    0.910770    1.939150
  H     -0.743550   -0.506830    2.665420
  C     -0.602490   -0.630710    0.492240
  H     -4.064740    0.231270    1.286750
  H     -3.344070   -0.671510    2.484930
  H     -2.716860   -0.781890    0.935880
  H     -0.638120    0.038050   -0.342260
  H     -1.389180   -1.350850    0.406040
  H      0.341720   -1.133880    0.506020

 Total Charge           Charge          ....    1
 Multiplicity           Mult            ....    1
 Number of Electrons    NEL             ....   34
 Basis Dimension        Dim             ....  160

ORBITAL ENERGIES
----------------

  NO   OCC          E(Eh)            E(eV)
   0   2.0000     -14.725522      -400.7018
   1   2.0000     -10.506384      -285.8933
   2   2.0000     -10.444872      -284.2194
   3   2.0000     -10.423714      -283.6437
   4   2.0000      -1.282731       -34.9049
   5   2.0000      -1.054806       -28.7027
   6   2.0000      -0.964055       -26.2333
   7   2.0000      -0.877355       -23.8740
   8   2.0000      -0.871736       -23.7211
   9   2.0000      -0.841277       -22.8923
  10   2.0000      -0.755152       -20.5487
  11   2.0000      -0.711199       -19.3527
  12   2.0000      -0.681824       -18.5534
  13   2.0000      -0.657006       -17.8781
  14   2.0000      -0.607848       -16.5404
  15   2.0000      -0.598017       -16.2729
  16   2.0000      -0.591161       -16.0863
  17   0.0000      -0.146171        -3.9775
  18   0.0000      -0.093257        -2.5377
  19   0.0000      -0.089856        -2.4451
  20   0.0000      -0.079459        -2.1622
  21   0.0000      -0.053396        -1.4530

MULLIKEN ATOMIC CHARGES
-----------------------
   0 C :    0.732443
   1 C :   -0.036479
   2 H :   -0.235970
   3 H :   -0.036747
   4 N :   -0.493096
   5 H :   -0.157410
   6 H :   -0.039733
   7 C :    0.875468
   8 H :    0.295204
   9 H :    0.379016
  10 H :    0.104215
  11 H :   -0.043617
  12 H :   -0.229179
  13 H :   -0.114115
Sum of atomic charges:    1.0000000

LOEWDIN ATOMIC CHARGES
----------------------
   0 C :    0.088268
   1 C :   -0.022513
   2 H :    0.052113
   3 H :    0.055264
   4 N :    0.341974
   5 H :    0.048266
   6 H :    0.038616
   7 C :    0.165740
   8 H :    0.109715
   9 H :    0.113451
  10 H :    0.020449
  11 H :    0.008995
  12 H :   -0.033835
  13 H :    0.013497

  Mayer bond orders larger than 0.100000
B(  0-C ,  1-C ) :   1.1409 B(  0-C ,  2-H ) :   0.9113 B(  0-C ,  3-H ) :   0.8639
B(  0-C ,  4-N ) :   0.8076 B(  0-C ,  5-H ) :   0.1034 B(  1-C ,  5-H ) :   0.9489
B(  1-C ,  6-H ) :   0.9046 B(  1-C ,  7-C ) :   1.2332 B(  1-C , 11-H ) :   0.1754
B(  1-C , 12-H ) :   0.1391 B(  1-C , 13-H ) :   0.1848 B(  2-H ,  4-N ) :   0.1514
B(  4-N ,  8-H ) :   0.8068 B(  4-N ,  9-H ) :   0.8050 B(  4-N , 10-H ) :   0.9338
B(  7-C , 11-H ) :   0.7487 B(  7-C , 12-H ) :   0.7910 B(  7-C , 13-H ) :   0.7928
B( 10-H , 12-H ) :   0.2963 B( 12-H , 13-H ) :   0.1043

FINAL SINGLE POINT ENERGY      -174.621250358537

DIPOLE MOMENT
-------------
                                X             Y             Z
Electronic contribution:     -1.85614       0.50742       0.93545
Nuclear contribution   :      0.18509      -0.64781      -0.64735
                        -----------------------------------------
Total Dipole Moment    :     -1.67105      -0.14039       0.28810
                        -----------------------------------------
Magnitude (a.u.)       :      1.70151
Magnitude (Debye)      :      4.32489

Rotational constants in cm-1:     0.411855     0.178330     0.145265
Rotational constants in MHz : 12347.103052  5346.196801  4354.936890

                             ****ORCA TERMINATED NORMALLY****
TOTAL RUN TIME: 0 days 0 hours 0 minutes 23 seconds 456 msec
