                         Program Version 5.0.0 -  RELEASE  -
|  1> !CAM-B3LYP RIJCOSX def2-SVPD def2/J TightSCF
|  2> *xyz 0 1
|  3> C         -2.12050        0.88520        1.78951
|  4> C         -0.77894        0.17197        1.80496
|  5> H          0.01569        0.91077        1.93915
|  6> H         -0.74355       -0.50683        2.66542
|  7> C         -0.60249       -0.63071        0.49224
|  8> H          0.31389       -1.24035        0.60350
|  9> H         -0.36383        0.11332       -0.30117
| 10> F         -1.71206       -1.37684        0.20253
| 11> H         -2.16160        1.54956        0.95175
| 12> H         -2.23761        1.44436        2.69423
| 13> H         -2.90702        0.16393        1.71165
| 14> *
| 15> %MaxCore 64000
| 16>
| 17> %pal nprocs 4
| 18> end
| 19> %scf
| 20>   MaxIter 150
| 21> end
| 22>
| 23>                          ****END OF INPUT****

CARTESIAN COORDINATES (ANGSTROEM)
---------------------------------
  C     -2.120500    0.885200    1.789510
  C     -0.778940    0.171970    1.804960
  H      0.015690    0.910770    1.939150
  H     -0.743550   -0.506830    2.665420
  C     -0.602490   -0.630710    0.492240
  H      0.313890   -1.240350    0.603500
  H     -0.363830    0.113320   -0.301170
  F     -1.712060   -1.376840    0.202530
  H     -2.161600    1.549560    0.951750
  H     -2.237610    1.444360    2.694230
  H     -2.907020    0.163930    1.711650

 Total Charge           Charge          ....    0
 Multiplicity           Mult            ....    1
 Number of Electrons    NEL             ....   34
 Basis Dimension        Dim             ....  139

ORBITAL ENERGIES
----------------

  NO   OCC          E(Eh)            E(eV)
   0   2.0000     -24.765058      -673.8915
   1   2.0000     -10.339444      -281.3506
   2   2.0000     -10.264417      -279.3090
   3   2.0000     -10.242765      -278.7198
   4   2.0000      -1.269427       -34.5429
   5   2.0000      -0.867049       -23.5936
   6   2.0000      -0.763674       -20.7806
   7   2.0000      -0.668982       -18.2039
   8   2.0000      -0.585605       -15.9351
   9   2.0000      -0.571709       -15.5570
  10   2.0000      -0.549905       -14.9637
  11   2.0000      -0.508296       -13.8314
  12   2.0000      -0.466598       -12.6968
  13   2.0000      -0.443782       -12.0759
  14   2.0000      -0.420758       -11.4494
  15   2.0000      -0.395097       -10.7511
  16   2.0000      -0.392107       -10.6698
  17   0.0000       0.051347         1.3972
  18   0.0000       0.075904         2.0655
  19   0.0000       0.085559         2.3282
  20   0.0000       0.102520         2.7897
  21   0.0000       0.126036         3.4296

MULLIKEN ATOMIC CHARGES
-----------------------
   0 C :    0.777961
   1 C :   -0.266875
   2 H :   -0.151907
   3 H :   -0.136842
   4 C :    0.831455
   5 H :   -0.172233
   6 H :   -0.073692
   7 F :   -0.428969
   8 H :   -0.121861
   9 H :   -0.174730
  10 H :   -0.082308
Sum of atomic charges:    0.0000000

LOEWDIN ATOMIC CHARGES
----------------------
   0 C :    0.112639
   1 C :   -0.063459
   2 H :    0.024011
   3 H :    0.022863
   4 C :    0.098978
   5 H :    0.028448
   6 H :    0.036127
   7 F :   -0.208234
   8 H :   -0.013770
   9 H :   -0.018962
  10 H :   -0.018642

  Mayer bond orders larger than 0.100000
B(  0-C ,  1-C ) :   1.3028 B(  0-C ,  8-H ) :   0.7790 B(  0-C ,  9-H ) :   0.7969
B(  0-C , 10-H ) :   0.8000 B(  1-C ,  2-H ) :   0.9371 B(  1-C ,  3-H ) :   0.9244
B(  1-C ,  4-C ) :   1.1527 B(  1-C ,  5-H ) :   0.1136 B(  1-C ,  6-H ) :   0.1170
B(  1-C ,  8-H ) :   0.1858 B(  1-C ,  9-H ) :   0.2009 B(  1-C , 10-H ) :   0.1798
B(  4-C ,  5-H ) :   0.9123 B(  4-C ,  6-H ) :   0.8725 B(  4-C ,  7-F ) :   0.7530

FINAL SINGLE POINT ENERGY      -218.122691898253

DIPOLE MOMENT
-------------
                                X             Y             Z
Electronic contribution:     -0.98869      -4.81831      -3.45548
Nuclear contribution   :      1.51874       5.24801       3.69322
                        -----------------------------------------
Total Dipole Moment    :      0.53005       0.42971       0.23774
                        -----------------------------------------
Magnitude (a.u.)       :      0.72258
Magnitude (Debye)      :      1.83665

Rotational constants in cm-1:     0.461913     0.182549     0.147043
Rotational constants in MHz : 13847.794369  5472.673442  4408.246847

                             ****ORCA TERMINATED NORMALLY****
TOTAL RUN TIME: 0 days 0 hours 0 minutes 18 seconds 222 msec
