                         Program Version 5.0.0 -  RELEASE  -
|  1> !CAM-B3LYP RIJCOSX def2-SVPD def2/J TightSCF
|  2> *xyz 0 1
|  3> C         -2.12050        0.88520        1.78951
|  4> C         -0.77894        0.17197        1.80496
|  5> H         -2.32419        1.47265        2.68608
|  6> H         -2.18770        1.54127        0.91948
|  7> C         -3.17690       -0.15948        1.61070
|  8> H          0.01569        0.91077        1.93915
|  9> H         -0.74355       -0.50683        2.66542
| 10> C         -0.60249       -0.63071        0.49224
| 11> H         -4.06474        0.23127        1.28675
| 12> H         -3.34407       -0.67151        2.48493
| 13> H         -2.71686       -0.78189        0.93588
| 14> H         -0.63812        0.03805       -0.34226
| 15> H         -1.38918       -1.35085        0.40604
| 16> H          0.34172       -1.13388        0.50602
| 17> *
| 18> %MaxCore 64000
| 19>
| 20> %pal nprocs 4
| 21> end
| 22>
| 23> %scf
| 24>   MaxIter 150
| 25> end
| 26>
| 27>
| 28>                          ****END OF INPUT****

CARTESIAN COORDINATES (ANGSTROEM)
---------------------------------
  C     -2.120500    0.885200    1.789510
  C     -0.778940    0.171970    1.804960
  H     -2.324190    1.472650    2.686080
  H     -2.187700    1.541270    0.919480
  C     -3.176900   -0.159480    1.610700
  H      0.015690    0.910770    1.939150
  H     -0.743550   -0.506830    2.665420
  C     -0.602490   -0.630710    0.492240
  H     -4.064740    0.231270    1.286750
  H     -3.344070   -0.671510    2.484930
  H     -2.716860   -0.781890    0.935880
  H     -0.638120    0.038050   -0.342260
  H     -1.389180   -1.350850    0.406040
  H      0.341720   -1.133880    0.506020

 Total Charge           Charge          ....    0
 Multiplicity           Mult            ....    1
 Number of Electrons    NEL             ....   34
 Basis Dimension        Dim             ....  160

ORBITAL ENERGIES
----------------

  NO   OCC          E(Eh)            E(eV)
   0   2.0000     -10.250360      -278.9265
   1   2.0000     -10.242528      -278.7134
   2   2.0000     -10.240672      -278.6629
   3   2.0000     -10.214282      -277.9448
   4   2.0000      -0.887725       -24.1562
   5   2.0000      -0.795620       -21.6499
   6   2.0000      -0.721489       -19.6327
   7   2.0000      -0.637490       -17.3470
   8   2.0000      -0.553978       -15.0745
   9   2.0000      -0.533058       -14.5052
  10   2.0000      -0.491854       -13.3840
  11   2.0000      -0.459752       -12.5105
  12   2.0000      -0.443021       -12.0552
  13   2.0000      -0.426376       -11.6023
  14   2.0000      -0.392743       -10.6871
  15   2.0000      -0.388683       -10.5766
  16   2.0000      -0.376904       -10.2561
  17   0.0000       0.058049         1.5796
  18   0.0000       0.078524         2.1367
  19   0.0000       0.082251         2.2382
  20   0.0000       0.090176         2.4538
  21   0.0000       0.128885         3.5071

MULLIKEN ATOMIC CHARGES
-----------------------
   0 C :   -0.098784
   1 C :   -0.030115
   2 H :   -0.323114
   3 H :   -0.040203
   4 C :    1.823821
   5 H :   -0.238026
   6 H :   -0.072585
   7 C :    0.849314
   8 H :   -0.220563
   9 H :   -0.135649
  10 H :   -1.136829
  11 H :   -0.056033
  12 H :   -0.178221
  13 H :   -0.143012
Sum of atomic charges:   -0.0000000

LOEWDIN ATOMIC CHARGES
----------------------
   0 C :   -0.075780
   1 C :   -0.062467
   2 H :    0.018736
   3 H :    0.023967
   4 C :    0.136125
   5 H :    0.014681
   6 H :    0.025092
   7 C :    0.131506
   8 H :   -0.028061
   9 H :   -0.020946
  10 H :   -0.093310
  11 H :   -0.008258
  12 H :   -0.043275
  13 H :   -0.018010

  Mayer bond orders larger than 0.100000
B(  0-C ,  1-C ) :   1.1277 B(  0-C ,  2-H ) :   0.9987 B(  0-C ,  3-H ) :   0.8583
B(  0-C ,  4-C ) :   1.0640 B(  0-C ,  6-H ) :   0.1169 B(  0-C ,  8-H ) :   0.1669
B(  0-C ,  9-H ) :   0.2541 B(  0-C , 10-H ) :   0.4106 B(  1-C ,  5-H ) :   0.9648
B(  1-C ,  6-H ) :   0.8853 B(  1-C ,  7-C ) :   1.2244 B(  1-C , 11-H ) :   0.2059
B(  1-C , 12-H ) :   0.1476 B(  1-C , 13-H ) :   0.1852 B(  3-H ,  4-C ) :   0.1068
B(  4-C ,  8-H ) :   0.4218 B(  4-C ,  9-H ) :   0.3949 B(  7-C , 11-H ) :   0.7402
B(  7-C , 12-H ) :   0.7643 B(  7-C , 13-H ) :   0.7501 B(  8-H ,  9-H ) :  -0.1345
B(  8-H , 10-H ) :   0.2972 B(  9-H , 10-H ) :   0.3038 B( 10-H , 12-H ) :   0.4439

FINAL SINGLE POINT ENERGY      -158.212963832912

DIPOLE MOMENT
-------------
                                X             Y             Z
Electronic contribution:      0.30899       0.71260       0.58726
Nuclear contribution   :     -0.27446      -0.71220      -0.58629
                        -----------------------------------------
Total Dipole Moment    :      0.03453       0.00040       0.00097
                        -----------------------------------------
Magnitude (a.u.)       :      0.03455
Magnitude (Debye)      :      0.08782

Rotational constants in cm-1:     0.419751     0.185753     0.151088
Rotational constants in MHz : 12583.819928  5568.732483  4529.512437

                             ****ORCA TERMINATED NORMALLY****
TOTAL RUN TIME: 0 days 0 hours 0 minutes 22 seconds 197 msec
