                         Program Version 5.0.0 -  RELEASE  -
|  1> !CAM-B3LYP RIJCOSX def2-SVPD def2/J TightSCF xyzfile
|  2>
|  3> *xyzfile 0 1 D.xyz
|  4>
|  5> %MaxCore 64000
|  6>
|  7> %pal nprocs 4
|  8> end
|  9>
| 10> %scf
| 11>   MaxIter 150
| 12> end
| 13>
| 14>
| 15>                          ****END OF INPUT****

CARTESIAN COORDINATES (ANGSTROEM)
---------------------------------
  C     -2.120502    0.885196    1.789506
  C     -0.778939    0.171966    1.804965
  H     -2.324193    1.472649    2.686078
  H     -2.187698    1.541272    0.919482
  C     -3.176900   -0.159484    1.610700
  H      0.015695    0.910767    1.939153
  H     -0.743553   -0.506827    2.665420
  C     -0.602493   -0.630712    0.492240
  H      0.313894   -1.240346    0.603498
  H     -0.363829    0.113322   -0.301169
  F     -1.712061   -1.376836    0.202535
  H     -4.064736    0.231272    1.286754
  H     -3.344073   -0.671511    2.484928
  H     -2.716861   -0.781886    0.935880

 Total Charge           Charge          ....    0
 Multiplicity           Mult            ....    1
 Number of Electrons    NEL             ....   42
 Basis Dimension        Dim             ....  175

ORBITAL ENERGIES
----------------

  NO   OCC          E(Eh)            E(eV)
   0   2.0000     -24.780547      -674.3130
   1   2.0000     -10.349284      -281.6183
   2   2.0000     -10.264241      -279.3042
   3   2.0000     -10.243440      -278.7382
   4   2.0000     -10.182646      -277.0839
   5   2.0000      -1.300248       -35.3815
   6   2.0000      -0.884819       -24.0771
   7   2.0000      -0.811444       -22.0805
   8   2.0000      -0.711212       -19.3531
   9   2.0000      -0.667306       -18.1583
  10   2.0000      -0.606695       -16.5090
  11   2.0000      -0.603153       -16.4126
  12   2.0000      -0.563750       -15.3404
  13   2.0000      -0.511059       -13.9066
  14   2.0000      -0.485166       -13.2020
  15   2.0000      -0.475246       -12.9321
  16   2.0000      -0.447817       -12.1857
  17   2.0000      -0.414494       -11.2789
  18   2.0000      -0.394207       -10.7269
  19   2.0000      -0.389126       -10.5887
  20   2.0000      -0.341989        -9.3060
  21   0.0000       0.050389         1.3712
  22   0.0000       0.076731         2.0880
  23   0.0000       0.080094         2.1795
  24   0.0000       0.084946         2.3115
  25   0.0000       0.115488         3.1426

MULLIKEN ATOMIC CHARGES
-----------------------
   0 C :   -0.078254
   1 C :    0.161684
   2 H :   -0.353087
   3 H :   -0.066575
   4 C :    2.113470
   5 H :   -0.233908
   6 H :   -0.042934
   7 C :    0.903106
   8 H :   -0.145851
   9 H :   -0.059279
  10 F :   -0.612993
  11 H :   -0.236197
  12 H :   -0.158957
  13 H :   -1.190224
Sum of atomic charges:    0.0000000

LOEWDIN ATOMIC CHARGES
----------------------
   0 C :   -0.059859
   1 C :   -0.017862
   2 H :    0.017174
   3 H :    0.025552
   4 C :    0.146994
   5 H :    0.024778
   6 H :    0.031044
   7 C :    0.155048
   8 H :    0.034494
   9 H :    0.043648
  10 F :   -0.186878
  11 H :   -0.030162
  12 H :   -0.022770
  13 H :   -0.161199

  Mayer bond orders larger than 0.100000
B(  0-C ,  1-C ) :   1.1241 B(  0-C ,  2-H ) :   0.9890 B(  0-C ,  3-H ) :   0.8400
B(  0-C ,  4-C ) :   0.9815 B(  0-C ,  5-H ) :   0.1028 B(  0-C , 11-H ) :   0.1972
B(  0-C , 12-H ) :   0.2609 B(  0-C , 13-H ) :   0.4512 B(  1-C ,  5-H ) :   0.9186
B(  1-C ,  6-H ) :   0.8531 B(  1-C ,  7-C ) :   1.2007 B(  1-C ,  8-H ) :   0.1270
B(  1-C ,  9-H ) :   0.1223 B(  1-C , 10-F ) :   0.1113 B(  2-H ,  3-H ) :  -0.1015
B(  3-H ,  4-C ) :   0.1070 B(  4-C , 10-F ) :  -0.1776 B(  4-C , 11-H ) :   0.4049
B(  4-C , 12-H ) :   0.2191 B(  4-C , 13-H ) :  -0.7155 B(  5-H ,  7-C ) :   0.1125
B(  7-C ,  8-H ) :   0.8458 B(  7-C ,  9-H ) :   0.8548 B(  7-C , 10-F ) :   0.6670
B( 10-F , 13-H ) :   0.3605 B( 11-H , 12-H ) :  -0.1393 B( 11-H , 13-H ) :   0.2826
B( 12-H , 13-H ) :   0.5174

FINAL SINGLE POINT ENERGY      -257.325272679830

DIPOLE MOMENT
-------------
                                X             Y             Z
Electronic contribution:      0.91851      -4.18064      -3.72905
Nuclear contribution   :     -0.20666       4.43855       3.76066
                        -----------------------------------------
Total Dipole Moment    :      0.71185       0.25791       0.03160
                        -----------------------------------------
Magnitude (a.u.)       :      0.75779
Magnitude (Debye)      :      1.92614

Rotational constants in cm-1:     0.236353     0.155239     0.105045
Rotational constants in MHz :  7085.692869  4653.957069  3149.180346

                             ****ORCA TERMINATED NORMALLY****
TOTAL RUN TIME: 0 days 0 hours 0 minutes 32 seconds 198 msec
