                         Program Version 5.0.0 -  RELEASE  -
|  1> !wB97X-D3 RIJCOSX def2-TZVPD def2/J TightSCF
|  2> *xyz -1 1
|  3> C          3.80351        1.37472       -3.26081
|  4> C          3.93993        0.32036       -4.36773
|  5> H          4.10504       -0.65508       -3.90773
|  6> H          3.02280        0.28052       -4.95712
|  7> C          5.10585        0.66802       -5.30546
|  8> O          4.80913        1.15019       -6.41436
|  9> O          6.26737        0.56500       -4.81948
| 10> H          3.64113        2.33595       -3.70189
| 11> H          4.69995        1.39701       -2.67703
| 12> H          2.97435        1.12625       -2.63180
| 13> *
| 14>
| 15> %MaxCore 64000
| 16>
| 17> %pal nprocs 4
| 18> end
| 19>
| 20> %scf
| 21>   MaxIter 150
| 22> end
| 23>
| 24>
| 25>                          ****END OF INPUT****

CARTESIAN COORDINATES (ANGSTROEM)
---------------------------------
  C      3.803510    1.374720   -3.260810
  C      3.939930    0.320360   -4.367730
  H      4.105040   -0.655080   -3.907730
  H      3.022800    0.280520   -4.957120
  C      5.105850    0.668020   -5.305460
  O      4.809130    1.150190   -6.414360
  O      6.267370    0.565000   -4.819480
  H      3.641130    2.335950   -3.701890
  H      4.699950    1.397010   -2.677030
  H      2.974350    1.126250   -2.631800

 Total Charge           Charge          ....   -1
 Multiplicity           Mult            ....    1
 Number of Electrons    NEL             ....   40
 Basis Dimension        Dim             ....  236

ORBITAL ENERGIES
----------------

  NO   OCC          E(Eh)            E(eV)
   0   2.0000     -18.965934      -516.0893
   1   2.0000     -18.962226      -515.9884
   2   2.0000     -10.157538      -276.4007
   3   2.0000     -10.110496      -275.1206
   4   2.0000     -10.098856      -274.8038
   5   2.0000      -0.936579       -25.4856
   6   2.0000      -0.842285       -22.9197
   7   2.0000      -0.720925       -19.6174
   8   2.0000      -0.583514       -15.8782
   9   2.0000      -0.425137       -11.5686
  10   2.0000      -0.392475       -10.6798
  11   2.0000      -0.361548        -9.8382
  12   2.0000      -0.328572        -8.9409
  13   2.0000      -0.311213        -8.4685
  14   2.0000      -0.306765        -8.3475
  15   2.0000      -0.272966        -7.4278
  16   2.0000      -0.260280        -7.0826
  17   2.0000      -0.141402        -3.8477
  18   2.0000      -0.132548        -3.6068
  19   2.0000      -0.124306        -3.3825
  20   0.0000       0.193305         5.2601
  21   0.0000       0.214120         5.8265
  22   0.0000       0.220346         5.9959
  23   0.0000       0.232090         6.3155
  24   0.0000       0.265182         7.2160

MULLIKEN ATOMIC CHARGES
-----------------------
   0 C :   -1.125500
   1 C :   -0.057129
   2 H :    0.223720
   3 H :    0.215022
   4 C :    0.406709
   5 O :   -0.749448
   6 O :   -0.773517
   7 H :    0.307798
   8 H :    0.280867
   9 H :    0.271478
Sum of atomic charges:   -1.0000000

LOEWDIN ATOMIC CHARGES
----------------------
   0 C :   -0.129678
   1 C :   -0.212584
   2 H :    0.089943
   3 H :    0.086910
   4 C :   -0.775412
   5 O :   -0.101945
   6 O :   -0.120989
   7 H :    0.062980
   8 H :    0.057701
   9 H :    0.043071

  Mayer bond orders larger than 0.100000
B(  0-C ,  1-C ) :   0.5702 B(  0-C ,  4-C ) :   0.2150 B(  0-C ,  7-H ) :   0.9573
B(  0-C ,  8-H ) :   1.0023 B(  0-C ,  9-H ) :   0.9394 B(  1-C ,  2-H ) :   0.9599
B(  1-C ,  3-H ) :   1.0004 B(  1-C ,  4-C ) :   0.8875 B(  4-C ,  5-O ) :   1.4608
B(  4-C ,  6-O ) :   1.4633

Dispersion correction           -0.001990616
FINAL SINGLE POINT ENERGY      -267.871092876871

DIPOLE MOMENT
-------------
                                X             Y             Z
Electronic contribution:      3.69932      -0.49447      -4.47642
Nuclear contribution   :     -5.15232       0.33441       5.87398
                        -----------------------------------------
Total Dipole Moment    :     -1.45300      -0.16006       1.39755
                        -----------------------------------------
Magnitude (a.u.)       :      2.02237
Magnitude (Debye)      :      5.14046

Rotational constants in cm-1:     0.295355     0.137164     0.110193
Rotational constants in MHz :  8854.523706  4112.077980  3303.490503

                             ****ORCA TERMINATED NORMALLY****
TOTAL RUN TIME: 0 days 0 hours 0 minutes 41 seconds 974 msec
