                         Program Version 5.0.0 -  RELEASE  -
|  1> !wB97X-D3 RIJCOSX def2-TZVPD def2/J TightSCF
|  2> *xyz 1 1
|  3> C          3.90595        2.81985       -3.75292
|  4> N          5.29562        3.13151       -4.10533
|  5> C          3.80351        1.37472       -3.26081
|  6> C          5.70862        3.46889       -5.32419
|  7> N          6.90470        3.03895       -5.71708
|  8> N          4.98188        4.29357       -6.09746
|  9> H          5.00055        4.10131       -7.08776
| 10> H          4.08469        4.59690       -5.73965
| 11> H          5.96336        2.52611       -3.64239
| 12> H          7.04716        2.06686       -5.47360
| 13> H          7.19815        3.30799       -6.64523
| 14> H          3.28202        2.94919       -4.64026
| 15> H          3.56525        3.51457       -2.98252
| 16> H          4.14157        0.71142       -4.02935
| 17> H          2.78528        1.15146       -3.01944
| 18> H          4.41205        1.25066       -2.38949
| 19> *
| 20>
| 21> %MaxCore 64000
| 22>
| 23> %pal nprocs 4
| 24> end
| 25>
| 26> %scf
| 27>   MaxIter 150
| 28> end
| 29>
| 30>
| 31>                          ****END OF INPUT****

CARTESIAN COORDINATES (ANGSTROEM)
---------------------------------
  C      3.905950    2.819850   -3.752920
  N      5.295620    3.131510   -4.105330
  C      3.803510    1.374720   -3.260810
  C      5.708620    3.468890   -5.324190
  N      6.904700    3.038950   -5.717080
  N      4.981880    4.293570   -6.097460
  H      5.000550    4.101310   -7.087760
  H      4.084690    4.596900   -5.739650
  H      5.963360    2.526110   -3.642390
  H      7.047160    2.066860   -5.473600
  H      7.198150    3.307990   -6.645230
  H      3.282020    2.949190   -4.640260
  H      3.565250    3.514570   -2.982520
  H      4.141570    0.711420   -4.029350
  H      2.785280    1.151460   -3.019440
  H      4.412050    1.250660   -2.389490

 Total Charge           Charge          ....    1
 Multiplicity           Mult            ....    1
 Number of Electrons    NEL             ....   48
 Basis Dimension        Dim             ....  312

ORBITAL ENERGIES
----------------

  NO   OCC          E(Eh)            E(eV)
   0   2.0000     -14.649066      -398.6214
   1   2.0000     -14.648748      -398.6127
   2   2.0000     -14.647597      -398.5814
   3   2.0000     -10.615674      -288.8672
   4   2.0000     -10.486025      -285.3392
   5   2.0000     -10.416915      -283.4587
   6   2.0000      -1.340609       -36.4798
   7   2.0000      -1.225320       -33.3427
   8   2.0000      -1.216857       -33.1124
   9   2.0000      -1.049996       -28.5718
  10   2.0000      -0.944710       -25.7069
  11   2.0000      -0.917679       -24.9713
  12   2.0000      -0.880891       -23.9703
  13   2.0000      -0.849496       -23.1160
  14   2.0000      -0.802921       -21.8486
  15   2.0000      -0.786931       -21.4135
  16   2.0000      -0.752277       -20.4705
  17   2.0000      -0.726620       -19.7723
  18   2.0000      -0.696455       -18.9515
  19   2.0000      -0.657608       -17.8944
  20   2.0000      -0.632813       -17.2197
  21   2.0000      -0.617407       -16.8005
  22   2.0000      -0.585023       -15.9193
  23   2.0000      -0.551834       -15.0162
  24   0.0000      -0.112441        -3.0597
  25   0.0000      -0.090754        -2.4695
  26   0.0000      -0.058160        -1.5826
  27   0.0000      -0.047034        -1.2799
  28   0.0000      -0.029511        -0.8030

MULLIKEN ATOMIC CHARGES
-----------------------
   0 C :   -0.365151
   1 N :   -0.139685
   2 C :   -1.355398
   3 C :    0.646431
   4 N :   -0.444634
   5 N :   -0.443703
   6 H :    0.249579
   7 H :    0.285254
   8 H :    0.285551
   9 H :    0.271049
  10 H :    0.267905
  11 H :    0.327772
  12 H :    0.297387
  13 H :    0.368389
  14 H :    0.351947
  15 H :    0.397307
Sum of atomic charges:    1.0000000

LOEWDIN ATOMIC CHARGES
----------------------
   0 C :   -0.201003
   1 N :    0.085009
   2 C :   -0.061811
   3 C :   -0.434750
   4 N :    0.203055
   5 N :    0.212889
   6 H :    0.139674
   7 H :    0.130357
   8 H :    0.156630
   9 H :    0.141933
  10 H :    0.138650
  11 H :    0.116927
  12 H :    0.128721
  13 H :    0.077845
  14 H :    0.085546
  15 H :    0.080328

  Mayer bond orders larger than 0.100000
B(  0-C ,  1-N ) :   0.8592 B(  0-C ,  2-C ) :   0.6470 B(  0-C , 11-H ) :   0.8487
B(  0-C , 12-H ) :   0.9611 B(  1-N ,  3-C ) :   1.3205 B(  1-N ,  8-H ) :   0.8603
B(  2-C , 13-H ) :   0.9443 B(  2-C , 14-H ) :   0.9355 B(  2-C , 15-H ) :   0.9181
B(  3-C ,  4-N ) :   1.1467 B(  3-C ,  5-N ) :   1.1198 B(  4-N ,  9-H ) :   0.9298
B(  4-N , 10-H ) :   0.9126 B(  5-N ,  6-H ) :   0.9456 B(  5-N ,  7-H ) :   0.9005

Dispersion correction           -0.003685608
FINAL SINGLE POINT ENERGY      -284.421407856114

DIPOLE MOMENT
-------------
                                X             Y             Z
Electronic contribution:      3.52054       3.40777      -2.66255
Nuclear contribution   :     -3.31456      -3.64300       1.57303
                        -----------------------------------------
Total Dipole Moment    :      0.20597      -0.23523      -1.08951
                        -----------------------------------------
Magnitude (a.u.)       :      1.13349
Magnitude (Debye)      :      2.88110

Rotational constants in cm-1:     0.229487     0.071000     0.059428
Rotational constants in MHz :  6879.840828  2128.520047  1781.605314

                             ****ORCA TERMINATED NORMALLY****
TOTAL RUN TIME: 0 days 0 hours 1 minutes 23 seconds 244 msec
