                         Program Version 5.0.0 -  RELEASE  -
|  1> !wB97X-D3 RIJCOSX def2-TZVPD def2/J TightSCF xyzfile
|  2>
|  3> *xyzfile 0 1 B.xyz
|  4>
|  5> %MaxCore 64000
|  6>
|  7> %pal nprocs 18
|  8> end
|  9>
| 10> %scf
| 11>   MaxIter 150
| 12> end
| 13>
| 14>
| 15>                          ****END OF INPUT****

CARTESIAN COORDINATES (ANGSTROEM)
---------------------------------
  C      3.905947    2.819855   -3.752920
  N      5.295615    3.131515   -4.105334
  C      3.803511    1.374716   -3.260807
  C      3.939934    0.320362   -4.367729
  H      4.105043   -0.655085   -3.907733
  H      3.022801    0.280517   -4.957117
  C      5.105846    0.668022   -5.305463
  C      5.708619    3.468885   -5.324190
  N      6.904696    3.038954   -5.717084
  N      4.981884    4.293570   -6.097457
  H      5.000546    4.101311   -7.087761
  H      4.084693    4.596899   -5.739652
  H      5.963358    2.526112   -3.642391
  H      7.047164    2.066861   -5.473604
  H      7.198145    3.307994   -6.645225
  H      3.282025    2.949187   -4.640259
  H      3.565254    3.514574   -2.982523
  H      4.574833    1.215157   -2.500443
  H      2.843514    1.260845   -2.751465
  O      4.809132    1.150187   -6.414361
  O      6.267366    0.564999   -4.819481

 Total Charge           Charge          ....    0
 Multiplicity           Mult            ....    1
 Number of Electrons    NEL             ....   78
 Basis Dimension        Dim             ....  475

ORBITAL ENERGIES
----------------

  NO   OCC          E(Eh)            E(eV)
   0   2.0000     -19.145525      -520.9762
   1   2.0000     -19.143219      -520.9135
   2   2.0000     -14.486871      -394.2078
   3   2.0000     -14.479181      -393.9985
   4   2.0000     -14.456054      -393.3692
   5   2.0000     -10.445560      -284.2381
   6   2.0000     -10.337910      -281.3088
   7   2.0000     -10.334061      -281.2041
   8   2.0000     -10.287438      -279.9354
   9   2.0000     -10.253820      -279.0206
  10   2.0000      -1.170344       -31.8467
  11   2.0000      -1.119918       -30.4745
  12   2.0000      -1.060299       -28.8522
  13   2.0000      -1.041411       -28.3382
  14   2.0000      -1.025582       -27.9075
  15   2.0000      -0.913108       -24.8469
  16   2.0000      -0.828236       -22.5375
  17   2.0000      -0.766093       -20.8464
  18   2.0000      -0.734394       -19.9839
  19   2.0000      -0.712303       -19.3828
  20   2.0000      -0.679046       -18.4778
  21   2.0000      -0.638128       -17.3644
  22   2.0000      -0.616463       -16.7748
  23   2.0000      -0.601761       -16.3747
  24   2.0000      -0.579387       -15.7659
  25   2.0000      -0.577310       -15.7094
  26   2.0000      -0.531906       -14.4739
  27   2.0000      -0.525198       -14.2914
  28   2.0000      -0.510231       -13.8841
  29   2.0000      -0.486906       -13.2494
  30   2.0000      -0.480036       -13.0624
  31   2.0000      -0.474567       -12.9136
  32   2.0000      -0.436706       -11.8834
  33   2.0000      -0.431331       -11.7371
  34   2.0000      -0.412264       -11.2183
  35   2.0000      -0.384626       -10.4662
  36   2.0000      -0.325985        -8.8705
  37   2.0000      -0.311824        -8.4852
  38   2.0000      -0.303687        -8.2638
  39   0.0000       0.048160         1.3105
  40   0.0000       0.055278         1.5042
  41   0.0000       0.071304         1.9403
  42   0.0000       0.079355         2.1594
  43   0.0000       0.094103         2.5607

MULLIKEN ATOMIC CHARGES
-----------------------
   0 C :   -0.565842
   1 N :   -0.126065
   2 C :   -0.657414
   3 C :   -0.480283
   4 H :    0.274989
   5 H :    0.286180
   6 C :    0.811029
   7 C :    0.448976
   8 N :   -0.393305
   9 N :   -0.474058
  10 H :    0.244016
  11 H :    0.273818
  12 H :    0.361541
  13 H :    0.277813
  14 H :    0.249188
  15 H :    0.351582
  16 H :    0.184273
  17 H :    0.313475
  18 H :    0.234454
  19 O :   -0.748988
  20 O :   -0.865379
Sum of atomic charges:    0.0000000

LOEWDIN ATOMIC CHARGES
----------------------
   0 C :   -0.161949
   1 N :    0.086835
   2 C :   -0.180746
   3 C :   -0.119929
   4 H :    0.113337
   5 H :    0.110284
   6 C :   -0.707605
   7 C :   -0.467270
   8 N :    0.196941
   9 N :    0.192096
  10 H :    0.128327
  11 H :    0.116325
  12 H :    0.145002
  13 H :    0.076851
  14 H :    0.128649
  15 H :    0.121359
  16 H :    0.116636
  17 H :    0.116438
  18 H :    0.111337
  19 O :   -0.040479
  20 O :   -0.082441

  Mayer bond orders larger than 0.100000
B(  0-C ,  1-N ) :   0.8583 B(  0-C ,  2-C ) :   1.0006 B(  0-C , 15-H ) :   0.8061
B(  0-C , 16-H ) :   1.0691 B(  1-N ,  7-C ) :   1.3226 B(  1-N , 12-H ) :   0.7516
B(  2-C ,  3-C ) :   0.9384 B(  2-C , 17-H ) :   0.8952 B(  2-C , 18-H ) :   0.9959
B(  3-C ,  4-H ) :   0.9242 B(  3-C ,  5-H ) :   0.9559 B(  3-C ,  6-C ) :   0.9588
B(  6-C , 19-O ) :   1.3280 B(  6-C , 20-O ) :   1.1777 B(  7-C ,  8-N ) :   1.1263
B(  7-C ,  9-N ) :   0.9937 B(  7-C , 19-O ) :   0.1495 B(  8-N , 13-H ) :   0.8183
B(  8-N , 14-H ) :   0.8821 B(  9-N , 10-H ) :   0.9229 B(  9-N , 11-H ) :   0.8811
B( 13-H , 20-O ) :   0.1484

Dispersion correction           -0.009113476
FINAL SINGLE POINT ENERGY      -511.951967185673

DIPOLE MOMENT
-------------
                                X             Y             Z
Electronic contribution:      4.16125       0.42120      -3.42371
Nuclear contribution   :     -4.94498       2.03334       3.78956
                        -----------------------------------------
Total Dipole Moment    :     -0.78373       2.45454       0.36584
                        -----------------------------------------
Magnitude (a.u.)       :      2.60247
Magnitude (Debye)      :      6.61495

Rotational constants in cm-1:     0.062533     0.042832     0.033687
Rotational constants in MHz :  1874.701390  1284.063603  1009.911042

                             ****ORCA TERMINATED NORMALLY****
TOTAL RUN TIME: 0 days 0 hours 1 minutes 5 seconds 190 msec
