                         Program Version 5.0.0 -  RELEASE  -
|  1> !wB97X-D3 RIJCOSX def2-TZVPD def2/J TightSCF
|  2> *xyz 0 1
|  3> C          3.80351        1.37472       -3.26081
|  4> C          3.93993        0.32036       -4.36773
|  5> H          4.10504       -0.65508       -3.90773
|  6> H          3.02280        0.28052       -4.95712
|  7> C          5.10585        0.66802       -5.30546
|  8> F          4.80913        1.15019       -6.41436
|  9> O          6.26737        0.56500       -4.81948
| 10> H          3.64113        2.33595       -3.70189
| 11> H          4.69995        1.39701       -2.67703
| 12> H          2.97435        1.12625       -2.63180
| 13> *
| 14>
| 15> %MaxCore 64000
| 16>
| 17> %pal nprocs 4
| 18> end
| 19>
| 20> %scf
| 21>   MaxIter 150
| 22> end
| 23>
| 24>
| 25>                          ****END OF INPUT****

CARTESIAN COORDINATES (ANGSTROEM)
---------------------------------
  C      3.803510    1.374720   -3.260810
  C      3.939930    0.320360   -4.367730
  H      4.105040   -0.655080   -3.907730
  H      3.022800    0.280520   -4.957120
  C      5.105850    0.668020   -5.305460
  F      4.809130    1.150190   -6.414360
  O      6.267370    0.565000   -4.819480
  H      3.641130    2.335950   -3.701890
  H      4.699950    1.397010   -2.677030
  H      2.974350    1.126250   -2.631800

 Total Charge           Charge          ....    0
 Multiplicity           Mult            ....    1
 Number of Electrons    NEL             ....   40
 Basis Dimension        Dim             ....  236

ORBITAL ENERGIES
----------------

  NO   OCC          E(Eh)            E(eV)
   0   2.0000     -24.861234      -676.5086
   1   2.0000     -19.235601      -523.4273
   2   2.0000     -10.456881      -284.5462
   3   2.0000     -10.307007      -280.4679
   4   2.0000     -10.280367      -279.7430
   5   2.0000      -1.445040       -39.3215
   6   2.0000      -1.144762       -31.1506
   7   2.0000      -0.918130       -24.9836
   8   2.0000      -0.802635       -21.8408
   9   2.0000      -0.752046       -20.4642
  10   2.0000      -0.659673       -17.9506
  11   2.0000      -0.645290       -17.5592
  12   2.0000      -0.612777       -16.6745
  13   2.0000      -0.566864       -15.4252
  14   2.0000      -0.535639       -14.5755
  15   2.0000      -0.496636       -13.5142
  16   2.0000      -0.476081       -12.9548
  17   2.0000      -0.469786       -12.7835
  18   2.0000      -0.441019       -12.0007
  19   2.0000      -0.387056       -10.5323
  20   0.0000       0.051042         1.3889
  21   0.0000       0.064353         1.7511
  22   0.0000       0.088962         2.4208
  23   0.0000       0.095268         2.5924
  24   0.0000       0.103404         2.8138

MULLIKEN ATOMIC CHARGES
-----------------------
   0 C :   -1.177648
   1 C :   -0.147352
   2 H :    0.263491
   3 H :    0.267277
   4 C :    0.613168
   5 F :   -0.218587
   6 O :   -0.569345
   7 H :    0.348182
   8 H :    0.323450
   9 H :    0.297364
Sum of atomic charges:    0.0000000

LOEWDIN ATOMIC CHARGES
----------------------
   0 C :   -0.089290
   1 C :   -0.155252
   2 H :    0.118431
   3 H :    0.107335
   4 C :   -0.482466
   5 F :    0.217627
   6 O :    0.064502
   7 H :    0.074821
   8 H :    0.074618
   9 H :    0.069673

  Mayer bond orders larger than 0.100000
B(  0-C ,  1-C ) :   0.6333 B(  0-C ,  4-C ) :   0.1897 B(  0-C ,  7-H ) :   0.9080
B(  0-C ,  8-H ) :   0.9812 B(  0-C ,  9-H ) :   0.9534 B(  1-C ,  2-H ) :   0.9491
B(  1-C ,  3-H ) :   0.9578 B(  1-C ,  4-C ) :   0.8787 B(  4-C ,  5-F ) :   0.9678
B(  4-C ,  6-O ) :   1.6805

Dispersion correction           -0.001944521
FINAL SINGLE POINT ENERGY      -292.434384383461

DIPOLE MOMENT
-------------
                                X             Y             Z
Electronic contribution:      3.98007      -0.01004      -7.44536
Nuclear contribution   :     -5.17129      -0.01923       7.59895
                        -----------------------------------------
Total Dipole Moment    :     -1.19122      -0.02927       0.15358
                        -----------------------------------------
Magnitude (a.u.)       :      1.20144
Magnitude (Debye)      :      3.05382

Rotational constants in cm-1:     0.282073     0.131822     0.105134
Rotational constants in MHz :  8456.328792  3951.925810  3151.840112

                             ****ORCA TERMINATED NORMALLY****
TOTAL RUN TIME: 0 days 0 hours 0 minutes 45 seconds 586 msec
