                         Program Version 5.0.0 -  RELEASE  -
|  1> !wB97X-D3 RIJCOSX def2-TZVPD def2/J TightSCF
|  2> *xyz 0 1
|  3> C          3.90595        2.81985       -3.75292
|  4> C          5.29562        3.13151       -4.10533
|  5> C          3.80351        1.37472       -3.26081
|  6> C          5.70862        3.46889       -5.32419
|  7> N          6.90470        3.03895       -5.71708
|  8> N          4.98188        4.29357       -6.09746
|  9> H          5.00055        4.10131       -7.08776
| 10> H          4.08469        4.59690       -5.73965
| 11> H          5.96336        2.52611       -3.64239
| 12> H          7.04716        2.06686       -5.47360
| 13> H          7.19815        3.30799       -6.64523
| 14> H          3.28202        2.94919       -4.64026
| 15> H          3.56525        3.51457       -2.98252
| 16> H          4.14157        0.71142       -4.02935
| 17> H          2.78528        1.15146       -3.01944
| 18> H          4.41205        1.25066       -2.38949
| 19> *
| 20>
| 21> %MaxCore 64000
| 22>
| 23> %pal nprocs 4
| 24> end
| 25>
| 26> %scf
| 27>   MaxIter 150
| 28> end
| 29>
| 30>
| 31>                          ****END OF INPUT****

CARTESIAN COORDINATES (ANGSTROEM)
---------------------------------
  C      3.905950    2.819850   -3.752920
  C      5.295620    3.131510   -4.105330
  C      3.803510    1.374720   -3.260810
  C      5.708620    3.468890   -5.324190
  N      6.904700    3.038950   -5.717080
  N      4.981880    4.293570   -6.097460
  H      5.000550    4.101310   -7.087760
  H      4.084690    4.596900   -5.739650
  H      5.963360    2.526110   -3.642390
  H      7.047160    2.066860   -5.473600
  H      7.198150    3.307990   -6.645230
  H      3.282020    2.949190   -4.640260
  H      3.565250    3.514570   -2.982520
  H      4.141570    0.711420   -4.029350
  H      2.785280    1.151460   -3.019440
  H      4.412050    1.250660   -2.389490

 Total Charge           Charge          ....    0
 Multiplicity           Mult            ....    1
 Number of Electrons    NEL             ....   48
 Basis Dimension        Dim             ....  312

ORBITAL ENERGIES
----------------

  NO   OCC          E(Eh)            E(eV)
   0   2.0000     -14.425541      -392.5389
   1   2.0000     -14.422241      -392.4491
   2   2.0000     -10.319204      -280.7998
   3   2.0000     -10.252749      -278.9915
   4   2.0000     -10.243848      -278.7493
   5   2.0000     -10.199101      -277.5317
   6   2.0000      -1.084155       -29.5013
   7   2.0000      -0.993040       -27.0220
   8   2.0000      -0.894606       -24.3435
   9   2.0000      -0.809903       -22.0386
  10   2.0000      -0.724073       -19.7030
  11   2.0000      -0.682603       -18.5746
  12   2.0000      -0.637854       -17.3569
  13   2.0000      -0.614087       -16.7102
  14   2.0000      -0.576962       -15.6999
  15   2.0000      -0.547817       -14.9069
  16   2.0000      -0.521074       -14.1792
  17   2.0000      -0.488414       -13.2904
  18   2.0000      -0.467729       -12.7275
  19   2.0000      -0.446738       -12.1563
  20   2.0000      -0.421416       -11.4673
  21   2.0000      -0.417921       -11.3722
  22   2.0000      -0.370150       -10.0723
  23   2.0000      -0.256779        -6.9873
  24   0.0000       0.061876         1.6837
  25   0.0000       0.088123         2.3979
  26   0.0000       0.089688         2.4405
  27   0.0000       0.104650         2.8477
  28   0.0000       0.117828         3.2063

MULLIKEN ATOMIC CHARGES
-----------------------
   0 C :    0.117647
   1 C :   -0.754346
   2 C :   -1.441589
   3 C :    0.181300
   4 N :   -0.474745
   5 N :   -0.487034
   6 H :    0.183182
   7 H :    0.244795
   8 H :    0.455976
   9 H :    0.236741
  10 H :    0.233572
  11 H :    0.258876
  12 H :    0.212364
  13 H :    0.356004
  14 H :    0.331727
  15 H :    0.345530
Sum of atomic charges:    0.0000000

LOEWDIN ATOMIC CHARGES
----------------------
   0 C :   -0.285440
   1 C :   -0.141019
   2 C :   -0.111453
   3 C :   -0.554324
   4 N :    0.107101
   5 N :    0.119198
   6 H :    0.098713
   7 H :    0.102471
   8 H :    0.063978
   9 H :    0.111214
  10 H :    0.099088
  11 H :    0.095265
  12 H :    0.100108
  13 H :    0.067973
  14 H :    0.060234
  15 H :    0.066893

  Mayer bond orders larger than 0.100000
B(  0-C ,  1-C ) :   0.5968 B(  0-C ,  2-C ) :   0.3810 B(  0-C , 11-H ) :   0.9289
B(  0-C , 12-H ) :   1.0003 B(  1-C ,  2-C ) :   0.3712 B(  1-C ,  3-C ) :   1.9480
B(  1-C ,  5-N ) :   0.1425 B(  1-C ,  8-H ) :   0.7944 B(  2-C , 13-H ) :   0.9593
B(  2-C , 14-H ) :   0.9406 B(  2-C , 15-H ) :   0.9629 B(  3-C ,  4-N ) :   1.0439
B(  3-C ,  5-N ) :   0.9144 B(  4-N ,  9-H ) :   0.9509 B(  4-N , 10-H ) :   0.9165
B(  5-N ,  6-H ) :   1.0061 B(  5-N ,  7-H ) :   0.8944

Dispersion correction           -0.003676899
FINAL SINGLE POINT ENERGY      -267.938677305923

DIPOLE MOMENT
-------------
                                X             Y             Z
Electronic contribution:      3.16297       3.24779      -2.83446
Nuclear contribution   :     -3.27358      -3.61654       1.70633
                        -----------------------------------------
Total Dipole Moment    :     -0.11060      -0.36876      -1.12813
                        -----------------------------------------
Magnitude (a.u.)       :      1.19201
Magnitude (Debye)      :      3.02986

Rotational constants in cm-1:     0.231961     0.071249     0.059473
Rotational constants in MHz :  6954.024434  2135.976855  1782.962814

                             ****ORCA TERMINATED NORMALLY****
TOTAL RUN TIME: 0 days 0 hours 1 minutes 30 seconds 673 msec
