                         Program Version 5.0.0 -  RELEASE  -
|  1> !wB97X-D3 RIJCOSX def2-TZVPD def2/J TightSCF
|  2> *xyz 0 1
|  3> C          3.80351        1.37472       -3.26081
|  4> C          3.93993        0.32036       -4.36773
|  5> H          4.10504       -0.65508       -3.90773
|  6> H          3.02280        0.28052       -4.95712
|  7> C          5.10585        0.66802       -5.30546
|  8> O          4.80913        1.15019       -6.41436
|  9> F          6.26737        0.56500       -4.81948
| 10> H          3.64113        2.33595       -3.70189
| 11> H          4.69995        1.39701       -2.67703
| 12> H          2.97435        1.12625       -2.63180
| 13> *
| 14>
| 15> %MaxCore 64000
| 16>
| 17> %pal nprocs 4
| 18> end
| 19>
| 20> %scf
| 21>   MaxIter 150
| 22> end
| 23>
| 24>
| 25>                          ****END OF INPUT****

CARTESIAN COORDINATES (ANGSTROEM)
---------------------------------
  C      3.803510    1.374720   -3.260810
  C      3.939930    0.320360   -4.367730
  H      4.105040   -0.655080   -3.907730
  H      3.022800    0.280520   -4.957120
  C      5.105850    0.668020   -5.305460
  O      4.809130    1.150190   -6.414360
  F      6.267370    0.565000   -4.819480
  H      3.641130    2.335950   -3.701890
  H      4.699950    1.397010   -2.677030
  H      2.974350    1.126250   -2.631800

 Total Charge           Charge          ....    0
 Multiplicity           Mult            ....    1
 Number of Electrons    NEL             ....   40
 Basis Dimension        Dim             ....  236

ORBITAL ENERGIES
----------------

  NO   OCC          E(Eh)            E(eV)
   0   2.0000     -24.854283      -676.3194
   1   2.0000     -19.238361      -523.5024
   2   2.0000     -10.454902      -284.4924
   3   2.0000     -10.306525      -280.4548
   4   2.0000     -10.283087      -279.8170
   5   2.0000      -1.431368       -38.9495
   6   2.0000      -1.155863       -31.4526
   7   2.0000      -0.920039       -25.0355
   8   2.0000      -0.797240       -21.6940
   9   2.0000      -0.750008       -20.4088
  10   2.0000      -0.653949       -17.7949
  11   2.0000      -0.640669       -17.4335
  12   2.0000      -0.609263       -16.5789
  13   2.0000      -0.566860       -15.4250
  14   2.0000      -0.536657       -14.6032
  15   2.0000      -0.500532       -13.6202
  16   2.0000      -0.481950       -13.1145
  17   2.0000      -0.470354       -12.7990
  18   2.0000      -0.449905       -12.2425
  19   2.0000      -0.387573       -10.5464
  20   0.0000       0.054523         1.4837
  21   0.0000       0.064756         1.7621
  22   0.0000       0.088417         2.4060
  23   0.0000       0.095085         2.5874
  24   0.0000       0.103494         2.8162

MULLIKEN ATOMIC CHARGES
-----------------------
   0 C :   -1.175773
   1 C :   -0.150920
   2 H :    0.287016
   3 H :    0.248333
   4 C :    0.607842
   5 O :   -0.554544
   6 F :   -0.234110
   7 H :    0.348796
   8 H :    0.328602
   9 H :    0.294757
Sum of atomic charges:    0.0000000

LOEWDIN ATOMIC CHARGES
----------------------
   0 C :   -0.090640
   1 C :   -0.153517
   2 H :    0.112732
   3 H :    0.116275
   4 C :   -0.483040
   5 O :    0.082396
   6 F :    0.197410
   7 H :    0.077340
   8 H :    0.070940
   9 H :    0.070104

  Mayer bond orders larger than 0.100000
B(  0-C ,  1-C ) :   0.6053 B(  0-C ,  4-C ) :   0.1843 B(  0-C ,  7-H ) :   0.9391
B(  0-C ,  8-H ) :   0.9424 B(  0-C ,  9-H ) :   0.9589 B(  1-C ,  2-H ) :   0.9316
B(  1-C ,  3-H ) :   0.9817 B(  1-C ,  4-C ) :   0.8888 B(  4-C ,  5-O ) :   1.6756
B(  4-C ,  6-F ) :   0.9469

Dispersion correction           -0.001942473
FINAL SINGLE POINT ENERGY      -292.439812506854

DIPOLE MOMENT
-------------
                                X             Y             Z
Electronic contribution:      6.41583      -0.99460      -4.75705
Nuclear contribution   :     -6.76123       0.61881       5.86003
                        -----------------------------------------
Total Dipole Moment    :     -0.34540      -0.37579       1.10298
                        -----------------------------------------
Magnitude (a.u.)       :      1.21535
Magnitude (Debye)      :      3.08918

Rotational constants in cm-1:     0.275298     0.134631     0.105723
Rotational constants in MHz :  8253.224169  4036.137572  3169.487264

                             ****ORCA TERMINATED NORMALLY****
TOTAL RUN TIME: 0 days 0 hours 0 minutes 45 seconds 555 msec
