                         Program Version 5.0.0 -  RELEASE  -
|  1> !wB97X-D3 RIJCOSX def2-TZVPD def2/J TightSCF
|  2> *xyz 0 1
|  3> C          3.90595        2.81985       -3.75292
|  4> N          5.29562        3.13151       -4.10533
|  5> C          3.80351        1.37472       -3.26081
|  6> C          5.70862        3.46889       -5.32419
|  7> C          6.90470        3.03895       -5.71708
|  8> N          4.98188        4.29357       -6.09746
|  9> H          5.00055        4.10131       -7.08776
| 10> H          4.08469        4.59690       -5.73965
| 11> H          5.96336        2.52611       -3.64239
| 12> H          7.04716        2.06686       -5.47360
| 13> H          7.19815        3.30799       -6.64523
| 14> H          3.28202        2.94919       -4.64026
| 15> H          3.56525        3.51457       -2.98252
| 16> H          4.14157        0.71142       -4.02935
| 17> H          2.78528        1.15146       -3.01944
| 18> H          4.41205        1.25066       -2.38949
| 19> *
| 20>
| 21> %MaxCore 64000
| 22>
| 23> %pal nprocs 4
| 24> end
| 25>
| 26> %scf
| 27>   MaxIter 150
| 28> end
| 29>
| 30>
| 31>                          ****END OF INPUT****

CARTESIAN COORDINATES (ANGSTROEM)
---------------------------------
  C      3.905950    2.819850   -3.752920
  N      5.295620    3.131510   -4.105330
  C      3.803510    1.374720   -3.260810
  C      5.708620    3.468890   -5.324190
  C      6.904700    3.038950   -5.717080
  N      4.981880    4.293570   -6.097460
  H      5.000550    4.101310   -7.087760
  H      4.084690    4.596900   -5.739650
  H      5.963360    2.526110   -3.642390
  H      7.047160    2.066860   -5.473600
  H      7.198150    3.307990   -6.645230
  H      3.282020    2.949190   -4.640260
  H      3.565250    3.514570   -2.982520
  H      4.141570    0.711420   -4.029350
  H      2.785280    1.151460   -3.019440
  H      4.412050    1.250660   -2.389490

 Total Charge           Charge          ....    0
 Multiplicity           Mult            ....    1
 Number of Electrons    NEL             ....   48
 Basis Dimension        Dim             ....  312

ORBITAL ENERGIES
----------------

  NO   OCC          E(Eh)            E(eV)
   0   2.0000     -14.425542      -392.5390
   1   2.0000     -14.424483      -392.5101
   2   2.0000     -10.324940      -280.9559
   3   2.0000     -10.316455      -280.7250
   4   2.0000     -10.273062      -279.5442
   5   2.0000     -10.183854      -277.1168
   6   2.0000      -1.089460       -29.6457
   7   2.0000      -1.005286       -27.3552
   8   2.0000      -0.890949       -24.2440
   9   2.0000      -0.821813       -22.3627
  10   2.0000      -0.742438       -20.2028
  11   2.0000      -0.703619       -19.1464
  12   2.0000      -0.637581       -17.3495
  13   2.0000      -0.596697       -16.2369
  14   2.0000      -0.587461       -15.9856
  15   2.0000      -0.552398       -15.0315
  16   2.0000      -0.523349       -14.2410
  17   2.0000      -0.500907       -13.6304
  18   2.0000      -0.477966       -13.0061
  19   2.0000      -0.470184       -12.7944
  20   2.0000      -0.467804       -12.7296
  21   2.0000      -0.435011       -11.8372
  22   2.0000      -0.355455        -9.6724
  23   2.0000      -0.262019        -7.1299
  24   0.0000       0.061815         1.6821
  25   0.0000       0.081014         2.2045
  26   0.0000       0.091140         2.4801
  27   0.0000       0.104174         2.8347
  28   0.0000       0.123438         3.3589

MULLIKEN ATOMIC CHARGES
-----------------------
   0 C :   -0.348861
   1 N :   -0.203272
   2 C :   -1.303240
   3 C :    0.691293
   4 C :   -1.317348
   5 N :   -0.479947
   6 H :    0.223099
   7 H :    0.233690
   8 H :    0.241306
   9 H :    0.315132
  10 H :    0.355671
  11 H :    0.302668
  12 H :    0.238885
  13 H :    0.351021
  14 H :    0.345300
  15 H :    0.354603
Sum of atomic charges:   -0.0000000

LOEWDIN ATOMIC CHARGES
----------------------
   0 C :   -0.236886
   1 N :    0.011932
   2 C :   -0.088791
   3 C :   -0.569289
   4 C :   -0.011903
   5 N :    0.121237
   6 H :    0.110412
   7 H :    0.094324
   8 H :    0.130376
   9 H :    0.011950
  10 H :    0.006812
  11 H :    0.105114
  12 H :    0.107811
  13 H :    0.072416
  14 H :    0.066351
  15 H :    0.068134

  Mayer bond orders larger than 0.100000
B(  0-C ,  1-N ) :   0.8316 B(  0-C ,  2-C ) :   0.5911 B(  0-C , 11-H ) :   0.8882
B(  0-C , 12-H ) :   1.0051 B(  1-N ,  3-C ) :   1.1933 B(  1-N ,  4-C ) :   0.1205
B(  1-N ,  8-H ) :   0.8614 B(  2-C , 13-H ) :   0.9774 B(  2-C , 14-H ) :   0.9337
B(  2-C , 15-H ) :   0.9407 B(  3-C ,  4-C ) :   1.1905 B(  3-C ,  5-N ) :   0.9883
B(  4-C ,  5-N ) :   0.1069 B(  4-C ,  9-H ) :   0.9571 B(  4-C , 10-H ) :   1.0348
B(  5-N ,  6-H ) :   0.9526 B(  5-N ,  7-H ) :   0.9108

Dispersion correction           -0.003710801
FINAL SINGLE POINT ENERGY      -267.927717158225

DIPOLE MOMENT
-------------
                                X             Y             Z
Electronic contribution:      1.50061       3.23262      -1.26840
Nuclear contribution   :     -2.93222      -3.63618       1.36440
                        -----------------------------------------
Total Dipole Moment    :     -1.43161      -0.40356       0.09600
                        -----------------------------------------
Magnitude (a.u.)       :      1.49050
Magnitude (Debye)      :      3.78854

Rotational constants in cm-1:     0.237993     0.072843     0.061284
Rotational constants in MHz :  7134.860770  2183.763760  1837.240960

                             ****ORCA TERMINATED NORMALLY****
TOTAL RUN TIME: 0 days 0 hours 1 minutes 29 seconds 158 msec
