                         Program Version 5.0.0 -  RELEASE  -
|  1> !wB97X-D3 RIJCOSX def2-TZVPD def2/J TightSCF
|  2> *xyz 0 1
|  3> C          3.90595        2.81985       -3.75292
|  4> N          5.29562        3.13151       -4.10533
|  5> C          3.80351        1.37472       -3.26081
|  6> C          5.70862        3.46889       -5.32419
|  7> N          6.90470        3.03895       -5.71708
|  8> C          4.98188        4.29357       -6.09746
|  9> H          5.00055        4.10131       -7.08776
| 10> H          4.08469        4.59690       -5.73965
| 11> H          5.96336        2.52611       -3.64239
| 12> H          7.04716        2.06686       -5.47360
| 13> H          7.19815        3.30799       -6.64523
| 14> H          3.28202        2.94919       -4.64026
| 15> H          3.56525        3.51457       -2.98252
| 16> H          4.14157        0.71142       -4.02935
| 17> H          2.78528        1.15146       -3.01944
| 18> H          4.41205        1.25066       -2.38949
| 19> *
| 20>
| 21> %MaxCore 64000
| 22>
| 23> %pal nprocs 4
| 24> end
| 25>
| 26> %scf
| 27>   MaxIter 150
| 28> end
| 29>
| 30>
| 31>                          ****END OF INPUT****

CARTESIAN COORDINATES (ANGSTROEM)
---------------------------------
  C      3.905950    2.819850   -3.752920
  N      5.295620    3.131510   -4.105330
  C      3.803510    1.374720   -3.260810
  C      5.708620    3.468890   -5.324190
  N      6.904700    3.038950   -5.717080
  C      4.981880    4.293570   -6.097460
  H      5.000550    4.101310   -7.087760
  H      4.084690    4.596900   -5.739650
  H      5.963360    2.526110   -3.642390
  H      7.047160    2.066860   -5.473600
  H      7.198150    3.307990   -6.645230
  H      3.282020    2.949190   -4.640260
  H      3.565250    3.514570   -2.982520
  H      4.141570    0.711420   -4.029350
  H      2.785280    1.151460   -3.019440
  H      4.412050    1.250660   -2.389490

 Total Charge           Charge          ....    0
 Multiplicity           Mult            ....    1
 Number of Electrons    NEL             ....   48
 Basis Dimension        Dim             ....  312

ORBITAL ENERGIES
----------------

  NO   OCC          E(Eh)            E(eV)
   0   2.0000     -14.426708      -392.5707
   1   2.0000     -14.424623      -392.5140
   2   2.0000     -10.323707      -280.9223
   3   2.0000     -10.310609      -280.5659
   4   2.0000     -10.270875      -279.4847
   5   2.0000     -10.189148      -277.2608
   6   2.0000      -1.094340       -29.7785
   7   2.0000      -1.007200       -27.4073
   8   2.0000      -0.879633       -23.9360
   9   2.0000      -0.823105       -22.3978
  10   2.0000      -0.755889       -20.5688
  11   2.0000      -0.674115       -18.3436
  12   2.0000      -0.640154       -17.4195
  13   2.0000      -0.620143       -16.8749
  14   2.0000      -0.575037       -15.6476
  15   2.0000      -0.557359       -15.1665
  16   2.0000      -0.505714       -13.7612
  17   2.0000      -0.499830       -13.6011
  18   2.0000      -0.490638       -13.3509
  19   2.0000      -0.470042       -12.7905
  20   2.0000      -0.459480       -12.5031
  21   2.0000      -0.436227       -11.8703
  22   2.0000      -0.353044        -9.6068
  23   2.0000      -0.265015        -7.2114
  24   0.0000       0.062305         1.6954
  25   0.0000       0.084274         2.2932
  26   0.0000       0.090892         2.4733
  27   0.0000       0.106447         2.8966
  28   0.0000       0.115347         3.1388

MULLIKEN ATOMIC CHARGES
-----------------------
   0 C :   -0.333181
   1 N :   -0.196036
   2 C :   -1.310670
   3 C :    0.669349
   4 N :   -0.499160
   5 C :   -1.377657
   6 H :    0.300602
   7 H :    0.416548
   8 H :    0.265251
   9 H :    0.211947
  10 H :    0.242760
  11 H :    0.313099
  12 H :    0.253408
  13 H :    0.346913
  14 H :    0.347683
  15 H :    0.349144
Sum of atomic charges:   -0.0000000

LOEWDIN ATOMIC CHARGES
----------------------
   0 C :   -0.230509
   1 N :    0.013029
   2 C :   -0.091319
   3 C :   -0.576703
   4 N :    0.110135
   5 C :    0.002730
   6 H :    0.009183
   7 H :    0.003778
   8 H :    0.126849
   9 H :    0.102510
  10 H :    0.108266
  11 H :    0.108790
  12 H :    0.111921
  13 H :    0.069074
  14 H :    0.066884
  15 H :    0.065381

  Mayer bond orders larger than 0.100000
B(  0-C ,  1-N ) :   0.8394 B(  0-C ,  2-C ) :   0.5328 B(  0-C ,  5-C ) :   0.1061
B(  0-C , 11-H ) :   0.8955 B(  0-C , 12-H ) :   0.9794 B(  1-N ,  3-C ) :   1.1147
B(  1-N ,  8-H ) :   0.8596 B(  2-C , 13-H ) :   0.9883 B(  2-C , 14-H ) :   0.9328
B(  2-C , 15-H ) :   0.9485 B(  3-C ,  4-N ) :   1.0108 B(  3-C ,  5-C ) :   1.2436
B(  4-N ,  5-C ) :   0.1106 B(  4-N ,  9-H ) :   0.9650 B(  4-N , 10-H ) :   0.9173
B(  5-C ,  6-H ) :   1.0619 B(  5-C ,  7-H ) :   0.8296

Dispersion correction           -0.003688026
FINAL SINGLE POINT ENERGY      -267.932135332281

DIPOLE MOMENT
-------------
                                X             Y             Z
Electronic contribution:      3.38234       2.04836      -0.97566
Nuclear contribution   :     -3.34013      -3.37002       1.28371
                        -----------------------------------------
Total Dipole Moment    :      0.04221      -1.32166       0.30805
                        -----------------------------------------
Magnitude (a.u.)       :      1.35774
Magnitude (Debye)      :      3.45110

Rotational constants in cm-1:     0.239537     0.072280     0.060961
Rotational constants in MHz :  7181.153552  2166.902802  1827.551447

                             ****ORCA TERMINATED NORMALLY****
TOTAL RUN TIME: 0 days 0 hours 1 minutes 26 seconds 129 msec
