                         Program Version 5.0.0 -  RELEASE  -
|  1> !wB97X-D3 RIJCOSX def2-TZVPD def2/J TightSCF xyzfile
|  2>
|  3> *xyzfile 0 1 D2.xyz
|  4>
|  5> %MaxCore 64000
|  6>
|  7> %pal nprocs 18
|  8> end
|  9>
| 10> %scf
| 11>   MaxIter 150
| 12> end
| 13>
| 14>
| 15>                          ****END OF INPUT****

CARTESIAN COORDINATES (ANGSTROEM)
---------------------------------
  C      3.905947    2.819855   -3.752920
  N      5.295615    3.131515   -4.105334
  C      3.803511    1.374716   -3.260807
  C      3.939934    0.320362   -4.367729
  H      4.105043   -0.655085   -3.907733
  H      3.022801    0.280517   -4.957117
  C      5.105846    0.668022   -5.305463
  C      5.708619    3.468885   -5.324190
  C      6.904696    3.038954   -5.717084
  N      4.981884    4.293570   -6.097457
  H      5.000546    4.101311   -7.087761
  H      4.084693    4.596899   -5.739652
  H      5.963358    2.526112   -3.642391
  H      7.047164    2.066861   -5.473604
  H      7.198145    3.307994   -6.645225
  H      3.282025    2.949187   -4.640259
  H      3.565254    3.514574   -2.982523
  H      4.574833    1.215157   -2.500443
  H      2.843514    1.260845   -2.751465
  F      4.809132    1.150187   -6.414361
  O      6.267366    0.564999   -4.819481

 Total Charge           Charge          ....    0
 Multiplicity           Mult            ....    1
 Number of Electrons    NEL             ....   78
 Basis Dimension        Dim             ....  475

ORBITAL ENERGIES
----------------

  NO   OCC          E(Eh)            E(eV)
   0   2.0000     -24.865806      -676.6330
   1   2.0000     -19.238571      -523.5081
   2   2.0000     -14.423428      -392.4814
   3   2.0000     -14.420732      -392.4081
   4   2.0000     -10.465067      -284.7690
   5   2.0000     -10.324634      -280.9476
   6   2.0000     -10.316208      -280.7183
   7   2.0000     -10.314677      -280.6766
   8   2.0000     -10.306865      -280.4640
   9   2.0000     -10.166585      -276.6468
  10   2.0000      -1.450390       -39.4671
  11   2.0000      -1.155788       -31.4506
  12   2.0000      -1.088195       -29.6113
  13   2.0000      -1.005789       -27.3689
  14   2.0000      -0.937763       -25.5178
  15   2.0000      -0.859908       -23.3993
  16   2.0000      -0.814407       -22.1611
  17   2.0000      -0.776189       -21.1212
  18   2.0000      -0.732412       -19.9299
  19   2.0000      -0.701799       -19.0969
  20   2.0000      -0.669664       -18.2225
  21   2.0000      -0.654030       -17.7971
  22   2.0000      -0.640396       -17.4261
  23   2.0000      -0.615648       -16.7526
  24   2.0000      -0.599558       -16.3148
  25   2.0000      -0.585412       -15.9299
  26   2.0000      -0.568984       -15.4828
  27   2.0000      -0.543255       -14.7827
  28   2.0000      -0.517676       -14.0867
  29   2.0000      -0.504750       -13.7349
  30   2.0000      -0.493871       -13.4389
  31   2.0000      -0.489253       -13.3133
  32   2.0000      -0.464237       -12.6325
  33   2.0000      -0.462551       -12.5867
  34   2.0000      -0.440583       -11.9889
  35   2.0000      -0.433711       -11.8019
  36   2.0000      -0.379075       -10.3152
  37   2.0000      -0.352188        -9.5835
  38   2.0000      -0.252985        -6.8841
  39   0.0000       0.040695         1.1074
  40   0.0000       0.056425         1.5354
  41   0.0000       0.073157         1.9907
  42   0.0000       0.077952         2.1212
  43   0.0000       0.087796         2.3891

MULLIKEN ATOMIC CHARGES
-----------------------
   0 C :   -0.663698
   1 N :   -0.203211
   2 C :   -0.587638
   3 C :   -0.517621
   4 H :    0.286792
   5 H :    0.316746
   6 C :    0.859978
   7 C :    0.496699
   8 C :   -1.390725
   9 N :   -0.501122
  10 H :    0.232661
  11 H :    0.242657
  12 H :    0.322542
  13 H :    0.535556
  14 H :    0.348665
  15 H :    0.349596
  16 H :    0.197128
  17 H :    0.319379
  18 H :    0.255188
  19 F :   -0.270459
  20 O :   -0.629111
Sum of atomic charges:   -0.0000000

LOEWDIN ATOMIC CHARGES
----------------------
   0 C :   -0.180111
   1 N :    0.031310
   2 C :   -0.175506
   3 C :   -0.087400
   4 H :    0.124621
   5 H :    0.116296
   6 C :   -0.464530
   7 C :   -0.582946
   8 C :   -0.000209
   9 N :    0.127400
  10 H :    0.109861
  11 H :    0.093801
  12 H :    0.132566
  13 H :   -0.010246
  14 H :    0.021553
  15 H :    0.115201
  16 H :    0.114266
  17 H :    0.120974
  18 H :    0.114144
  19 F :    0.232240
  20 O :    0.046716

  Mayer bond orders larger than 0.100000
B(  0-C ,  1-N ) :   0.8096 B(  0-C ,  2-C ) :   0.9414 B(  0-C ,  7-C ) :  -0.1078
B(  0-C ,  9-N ) :   0.1137 B(  0-C , 15-H ) :   0.8752 B(  0-C , 16-H ) :   1.0616
B(  1-N ,  7-C ) :   1.0489 B(  1-N , 12-H ) :   0.7561 B(  2-C ,  3-C ) :   0.9113
B(  2-C , 17-H ) :   0.9045 B(  2-C , 18-H ) :   0.9999 B(  3-C ,  4-H ) :   0.9107
B(  3-C ,  5-H ) :   0.9415 B(  3-C ,  6-C ) :   0.9276 B(  6-C , 19-F ) :   0.8587
B(  6-C , 20-O ) :   1.5781 B(  7-C ,  8-C ) :   1.3902 B(  7-C ,  9-N ) :   0.8880
B(  7-C , 14-H ) :  -0.1474 B(  8-C , 13-H ) :   0.7052 B(  8-C , 14-H ) :   1.1871
B(  9-N , 10-H ) :   0.9193 B(  9-N , 11-H ) :   0.8892

Dispersion correction           -0.008917352
FINAL SINGLE POINT ENERGY      -519.825760039554

DIPOLE MOMENT
-------------
                                X             Y             Z
Electronic contribution:      2.04104      -3.79398      -5.18711
Nuclear contribution   :     -4.40347       3.21582       5.36161
                        -----------------------------------------
Total Dipole Moment    :     -2.36243      -0.57817       0.17451
                        -----------------------------------------
Magnitude (a.u.)       :      2.43840
Magnitude (Debye)      :      6.19792

Rotational constants in cm-1:     0.061226     0.043199     0.033926
Rotational constants in MHz :  1835.503528  1295.087558  1017.061512

                             ****ORCA TERMINATED NORMALLY****
TOTAL RUN TIME: 0 days 0 hours 1 minutes 24 seconds 589 msec
