                         Program Version 5.0.0 -  RELEASE  -
|  1> !wB97X-D3 RIJCOSX def2-TZVPD def2/J TightSCF xyzfile
|  2>
|  3> *xyzfile 0 1 D6.xyz
|  4>
|  5> %MaxCore 64000
|  6>
|  7> %pal nprocs 18
|  8> end
|  9>
| 10> %scf
| 11>   MaxIter 150
| 12> end
| 13>
| 14>
| 15>                          ****END OF INPUT****

CARTESIAN COORDINATES (ANGSTROEM)
---------------------------------
  C      3.905947    2.819855   -3.752920
  N      5.295615    3.131515   -4.105334
  C      3.803511    1.374716   -3.260807
  C      3.939934    0.320362   -4.367729
  H      4.105043   -0.655085   -3.907733
  H      3.022801    0.280517   -4.957117
  C      5.105846    0.668022   -5.305463
  C      5.708619    3.468885   -5.324190
  N      6.904696    3.038954   -5.717084
  C      4.981884    4.293570   -6.097457
  H      5.000546    4.101311   -7.087761
  H      4.084693    4.596899   -5.739652
  H      5.963358    2.526112   -3.642391
  H      7.047164    2.066861   -5.473604
  H      7.198145    3.307994   -6.645225
  H      3.282025    2.949187   -4.640259
  H      3.565254    3.514574   -2.982523
  H      4.574833    1.215157   -2.500443
  H      2.843514    1.260845   -2.751465
  O      4.809132    1.150187   -6.414361
  F      6.267366    0.564999   -4.819481

 Total Charge           Charge          ....    0
 Multiplicity           Mult            ....    1
 Number of Electrons    NEL             ....   78
 Basis Dimension        Dim             ....  475

ORBITAL ENERGIES
----------------

  NO   OCC          E(Eh)            E(eV)
   0   2.0000     -24.877803      -676.9594
   1   2.0000     -19.250415      -523.8304
   2   2.0000     -14.430884      -392.6843
   3   2.0000     -14.409572      -392.1044
   4   2.0000     -10.467574      -284.8372
   5   2.0000     -10.319796      -280.8159
   6   2.0000     -10.317896      -280.7642
   7   2.0000     -10.317306      -280.7482
   8   2.0000     -10.308055      -280.4964
   9   2.0000     -10.182026      -277.0670
  10   2.0000      -1.458644       -39.6917
  11   2.0000      -1.169771       -31.8311
  12   2.0000      -1.093366       -29.7520
  13   2.0000      -1.007432       -27.4136
  14   2.0000      -0.936125       -25.4733
  15   2.0000      -0.853751       -23.2317
  16   2.0000      -0.817211       -22.2374
  17   2.0000      -0.791605       -21.5407
  18   2.0000      -0.745814       -20.2946
  19   2.0000      -0.686171       -18.6717
  20   2.0000      -0.680653       -18.5215
  21   2.0000      -0.670049       -18.2330
  22   2.0000      -0.627803       -17.0834
  23   2.0000      -0.615905       -16.7596
  24   2.0000      -0.604880       -16.4596
  25   2.0000      -0.586801       -15.9677
  26   2.0000      -0.581846       -15.8328
  27   2.0000      -0.530779       -14.4432
  28   2.0000      -0.526644       -14.3307
  29   2.0000      -0.503845       -13.7103
  30   2.0000      -0.492174       -13.3927
  31   2.0000      -0.486191       -13.2299
  32   2.0000      -0.478642       -13.0245
  33   2.0000      -0.463200       -12.6043
  34   2.0000      -0.455899       -12.4056
  35   2.0000      -0.428644       -11.6640
  36   2.0000      -0.397051       -10.8043
  37   2.0000      -0.350583        -9.5398
  38   2.0000      -0.258746        -7.0408
  39   0.0000       0.041837         1.1384
  40   0.0000       0.056962         1.5500
  41   0.0000       0.077209         2.1010
  42   0.0000       0.079535         2.1643
  43   0.0000       0.086991         2.3672

MULLIKEN ATOMIC CHARGES
-----------------------
   0 C :   -0.586770
   1 N :   -0.168262
   2 C :   -0.695318
   3 C :   -0.497813
   4 H :    0.310264
   5 H :    0.296150
   6 C :    0.823468
   7 C :    0.483417
   8 N :   -0.407568
   9 C :   -1.577282
  10 H :    0.382403
  11 H :    0.462366
  12 H :    0.349805
  13 H :    0.283823
  14 H :    0.255084
  15 H :    0.348200
  16 H :    0.216166
  17 H :    0.333149
  18 H :    0.244265
  19 O :   -0.535551
  20 F :   -0.319996
Sum of atomic charges:    0.0000000

LOEWDIN ATOMIC CHARGES
----------------------
   0 C :   -0.170474
   1 N :    0.031095
   2 C :   -0.178231
   3 C :   -0.086809
   4 H :    0.118788
   5 H :    0.126096
   6 C :   -0.477491
   7 C :   -0.592317
   8 N :    0.129659
   9 C :    0.008836
  10 H :    0.017558
  11 H :    0.007146
  12 H :    0.127213
  13 H :    0.073061
  14 H :    0.117358
  15 H :    0.122877
  16 H :    0.118501
  17 H :    0.115063
  18 H :    0.115606
  19 O :    0.104975
  20 F :    0.171489

  Mayer bond orders larger than 0.100000
B(  0-C ,  1-N ) :   0.8421 B(  0-C ,  2-C ) :   0.9271 B(  0-C ,  9-C ) :   0.1595
B(  0-C , 15-H ) :   0.8660 B(  0-C , 16-H ) :   1.0239 B(  1-N ,  7-C ) :   1.1566
B(  1-N , 12-H ) :   0.6773 B(  2-C ,  3-C ) :   0.8912 B(  2-C ,  6-C ) :   0.1146
B(  2-C , 17-H ) :   0.8985 B(  2-C , 18-H ) :   1.0114 B(  3-C ,  4-H ) :   0.9144
B(  3-C ,  5-H ) :   0.9489 B(  3-C ,  6-C ) :   0.9566 B(  6-C , 19-O ) :   1.6270
B(  6-C , 20-F ) :   0.7533 B(  7-C ,  8-N ) :   0.8918 B(  7-C ,  9-C ) :   1.2208
B(  8-N ,  9-C ) :   0.1233 B(  8-N , 13-H ) :   0.8089 B(  8-N , 14-H ) :   0.8621
B(  9-C , 10-H ) :   0.9015 B(  9-C , 11-H ) :   0.8087

Dispersion correction           -0.009056826
FINAL SINGLE POINT ENERGY      -519.841566644156

DIPOLE MOMENT
-------------
                                X             Y             Z
Electronic contribution:      5.95266      -5.73469      -2.31943
Nuclear contribution   :     -6.29470       4.03423       3.50525
                        -----------------------------------------
Total Dipole Moment    :     -0.34204      -1.70046       1.18583
                        -----------------------------------------
Magnitude (a.u.)       :      2.10113
Magnitude (Debye)      :      5.34064

Rotational constants in cm-1:     0.061094     0.043661     0.033867
Rotational constants in MHz :  1831.559881  1308.929520  1015.295167

                             ****ORCA TERMINATED NORMALLY****
TOTAL RUN TIME: 0 days 0 hours 1 minutes 34 seconds 329 msec
