                         Program Version 5.0.0 -  RELEASE  -
|  1> !BLYP D3BJ RIJCOSX def2-SVP def2/J TightSCF
|  2> *xyz -1 1
|  3> C         -2.79070       -0.78527        5.70281
|  4> C         -2.45380        0.05510        6.94145
|  5> C         -2.07842        1.48042        6.56410
|  6> H         -1.62558       -0.38216        7.49891
|  7> H         -3.32527        0.08775        7.59917
|  8> O         -0.90125        1.85816        6.82810
|  9> O         -2.93658        2.17731        5.96415
| 10> H         -1.94052       -0.82114        5.05412
| 11> H         -3.61590       -0.34261        5.18514
| 12> H         -3.05063       -1.77815        6.00536
| 13> *
| 14> %MaxCore 64000
| 15>
| 16> %pal nprocs 4
| 17> end
| 18>
| 19> %scf
| 20>   MaxIter 150
| 21> end
| 22>
| 23>
| 24>                          ****END OF INPUT****

CARTESIAN COORDINATES (ANGSTROEM)
---------------------------------
  C     -2.790700   -0.785270    5.702810
  C     -2.453800    0.055100    6.941450
  C     -2.078420    1.480420    6.564100
  H     -1.625580   -0.382160    7.498910
  H     -3.325270    0.087750    7.599170
  O     -0.901250    1.858160    6.828100
  O     -2.936580    2.177310    5.964150
  H     -1.940520   -0.821140    5.054120
  H     -3.615900   -0.342610    5.185140
  H     -3.050630   -1.778150    6.005360

 Total Charge           Charge          ....   -1
 Multiplicity           Mult            ....    1
 Number of Electrons    NEL             ....   40
 Basis Dimension        Dim             ....   95

ORBITAL ENERGIES
----------------

  NO   OCC          E(Eh)            E(eV)
   0   2.0000     -18.480771      -502.8873
   1   2.0000     -18.477951      -502.8106
   2   2.0000      -9.761243      -265.6169
   3   2.0000      -9.749125      -265.2872
   4   2.0000      -9.725832      -264.6534
   5   2.0000      -0.670216       -18.2375
   6   2.0000      -0.580986       -15.8094
   7   2.0000      -0.502496       -13.6736
   8   2.0000      -0.380270       -10.3477
   9   2.0000      -0.238221        -6.4823
  10   2.0000      -0.221691        -6.0325
  11   2.0000      -0.176858        -4.8126
  12   2.0000      -0.156199        -4.2504
  13   2.0000      -0.140023        -3.8102
  14   2.0000      -0.118937        -3.2365
  15   2.0000      -0.087440        -2.3794
  16   2.0000      -0.079961        -2.1758
  17   2.0000       0.037780         1.0281
  18   2.0000       0.046367         1.2617
  19   2.0000       0.068062         1.8521
  20   0.0000       0.196194         5.3387
  21   0.0000       0.243734         6.6323
  22   0.0000       0.254727         6.9315
  23   0.0000       0.260301         7.0831
  24   0.0000       0.264846         7.2068

MULLIKEN ATOMIC CHARGES
-----------------------
   0 C :    0.101225
   1 C :    0.135504
   2 C :   -0.100424
   3 H :   -0.107300
   4 H :   -0.090905
   5 O :   -0.378446
   6 O :   -0.377601
   7 H :   -0.048330
   8 H :   -0.048535
   9 H :   -0.085187
Sum of atomic charges:   -1.0000000

LOEWDIN ATOMIC CHARGES
----------------------
   0 C :   -0.048507
   1 C :   -0.077100
   2 C :   -0.089795
   3 H :   -0.016613
   4 H :   -0.009170
   5 O :   -0.373284
   6 O :   -0.371046
   7 H :    0.002315
   8 H :   -0.001182
   9 H :   -0.015617

  Mayer bond orders larger than 0.100000
B(  0-C ,  1-C ) :   1.1191 B(  0-C ,  7-H ) :   0.9615 B(  0-C ,  8-H ) :   0.9477
B(  0-C ,  9-H ) :   0.9470 B(  1-C ,  2-C ) :   0.9187 B(  1-C ,  3-H ) :   0.9014
B(  1-C ,  4-H ) :   0.9029 B(  2-C ,  5-O ) :   1.8904 B(  2-C ,  6-O ) :   1.8610
B(  5-O ,  6-O ) :   0.1391

Dispersion correction           -0.013570284
FINAL SINGLE POINT ENERGY      -267.536659189974

DIPOLE MOMENT
-------------
                                X             Y             Z
Electronic contribution:      1.75613       5.92956       0.61558
Nuclear contribution   :     -2.24498      -7.51881      -0.57245
                        -----------------------------------------
Total Dipole Moment    :     -0.48885      -1.58925       0.04313
                        -----------------------------------------
Magnitude (a.u.)       :      1.66330
Magnitude (Debye)      :      4.22777

Rotational constants in cm-1:     0.305589     0.135336     0.107479
Rotational constants in MHz :  9161.317320  4057.276612  3222.126231

                             ****ORCA TERMINATED NORMALLY****
TOTAL RUN TIME: 0 days 0 hours 0 minutes 6 seconds 544 msec
