                         Program Version 5.0.0 -  RELEASE  -
|  1> !BLYP D3BJ RIJCOSX def2-SVP def2/J TightSCF
|  2> *xyz 1 1
|  3> C         -0.69912        3.48945        3.75516
|  4> H         -0.96672        4.34901        3.14049
|  5> N         -1.08067        3.79296        5.15686
|  6> C          0.77696        3.13839        3.61741
|  7> H         -1.33146        2.65651        3.44632
|  8> H         -0.87449        4.76274        5.42734
|  9> H         -0.68079        3.13476        5.83900
| 10> H         -2.05755        3.53169        5.34620
| 11> H          0.99957        2.92898        2.59199
| 12> H          0.99576        2.27685        4.21303
| 13> H          1.37223        3.96279        3.95046
| 14> *
| 15> %MaxCore 64000
| 16>
| 17> %pal nprocs 4
| 18> end
| 19>
| 20> %scf
| 21>   MaxIter 150
| 22> end
| 23>
| 24>
| 25>                          ****END OF INPUT****

CARTESIAN COORDINATES (ANGSTROEM)
---------------------------------
  C     -0.699120    3.489450    3.755160
  H     -0.966720    4.349010    3.140490
  N     -1.080670    3.792960    5.156860
  C      0.776960    3.138390    3.617410
  H     -1.331460    2.656510    3.446320
  H     -0.874490    4.762740    5.427340
  H     -0.680790    3.134760    5.839000
  H     -2.057550    3.531690    5.346200
  H      0.999570    2.928980    2.591990
  H      0.995760    2.276850    4.213030
  H      1.372230    3.962790    3.950460

 Total Charge           Charge          ....    1
 Multiplicity           Mult            ....    1
 Number of Electrons    NEL             ....   26
 Basis Dimension        Dim             ....   82

ORBITAL ENERGIES
----------------

  NO   OCC          E(Eh)            E(eV)
   0   2.0000     -14.360359      -390.7652
   1   2.0000     -10.175922      -276.9009
   2   2.0000     -10.098844      -274.8035
   3   2.0000      -1.124330       -30.5946
   4   2.0000      -0.884939       -24.0804
   5   2.0000      -0.775515       -21.1028
   6   2.0000      -0.760455       -20.6930
   7   2.0000      -0.712772       -19.3955
   8   2.0000      -0.646416       -17.5899
   9   2.0000      -0.590610       -16.0713
  10   2.0000      -0.533152       -14.5078
  11   2.0000      -0.519835       -14.1454
  12   2.0000      -0.503097       -13.6900
  13   0.0000      -0.213963        -5.8222
  14   0.0000      -0.158574        -4.3150
  15   0.0000      -0.154624        -4.2075
  16   0.0000      -0.116487        -3.1698
  17   0.0000      -0.079113        -2.1528

MULLIKEN ATOMIC CHARGES
-----------------------
   0 C :    0.001739
   1 H :    0.076611
   2 N :    0.085441
   3 C :    0.055372
   4 H :    0.066922
   5 H :    0.205278
   6 H :    0.180116
   7 H :    0.189965
   8 H :    0.069128
   9 H :    0.034203
  10 H :    0.035225
Sum of atomic charges:    1.0000000

LOEWDIN ATOMIC CHARGES
----------------------
   0 C :    0.054972
   1 H :    0.052865
   2 N :    0.304767
   3 C :   -0.025290
   4 H :    0.049419
   5 H :    0.144368
   6 H :    0.139845
   7 H :    0.146375
   8 H :    0.060536
   9 H :    0.035527
  10 H :    0.036615

  Mayer bond orders larger than 0.100000
B(  0-C ,  1-H ) :   0.9444 B(  0-C ,  2-N ) :   0.9572 B(  0-C ,  3-C ) :   1.1313
B(  0-C ,  4-H ) :   0.9464 B(  2-N ,  5-H ) :   0.9368 B(  2-N ,  6-H ) :   0.9346
B(  2-N ,  7-H ) :   0.9362 B(  3-C ,  8-H ) :   0.9504 B(  3-C ,  9-H ) :   0.9615
B(  3-C , 10-H ) :   0.9662

Dispersion correction           -0.012385427
FINAL SINGLE POINT ENERGY      -135.353797968053

DIPOLE MOMENT
-------------
                                X             Y             Z
Electronic contribution:     -1.34558       0.58679       1.13788
Nuclear contribution   :      0.33986      -0.24565       0.10678
                        -----------------------------------------
Total Dipole Moment    :     -1.00573       0.34113       1.24466
                        -----------------------------------------
Magnitude (a.u.)       :      1.63617
Magnitude (Debye)      :      4.15881

Rotational constants in cm-1:     1.016237     0.277523     0.247812
Rotational constants in MHz : 30466.024354  8319.937961  7429.230177

                             ****ORCA TERMINATED NORMALLY****
TOTAL RUN TIME: 0 days 0 hours 0 minutes 5 seconds 850 msec
