                         Program Version 5.0.0 -  RELEASE  -
|  1> !BLYP D3BJ RIJCOSX def2-TZVP def2/J TightSCF xyzfile
|  2>
|  3> *xyzfile 0 1 B.xyz
|  4>
|  5> %MaxCore 64000
|  6>
|  7> %pal nprocs 18
|  8> end
|  9>
| 10> %scf
| 11>   MaxIter 150
| 12> end
| 13>
| 14>
| 15>                          ****END OF INPUT****

CARTESIAN COORDINATES (ANGSTROEM)
---------------------------------
  C     -0.699123    3.489451    3.755163
  H     -0.966716    4.349013    3.140491
  N     -1.080669    3.792957    5.156857
  C      0.776956    3.138391    3.617408
  H     -1.331455    2.656510    3.446323
  H      1.371398    3.888342    4.149744
  H      1.046926    3.232057    2.561331
  C      1.118917    1.731170    4.115155
  H      2.200573    1.654226    4.254882
  C      0.659466    0.635182    3.153306
  H      0.677024    1.576674    5.103150
  H      1.312288    0.638870    2.274207
  H     -0.339563    0.868049    2.772876
  C      0.639957   -0.771175    3.755619
  C     -0.341821   -0.965537    4.915046
  H      1.648266   -1.028665    4.097015
  H      0.398568   -1.482386    2.958453
  H     -0.279892   -2.005646    5.252547
  C     -1.789164   -0.639231    4.557496
  H     -0.032380   -0.352918    5.765118
  H     -2.107151   -1.270102    3.719619
  H     -1.856352    0.391636    4.197604
  C     -2.790700   -0.785275    5.702812
  H     -2.867308   -1.835651    6.001675
  H     -3.774554   -0.486577    5.334807
  C     -2.453797    0.055101    6.941445
  C     -2.078419    1.480421    6.564098
  H     -1.625584   -0.382163    7.498914
  H     -3.325274    0.087746    7.599175
  H     -0.874488    4.762737    5.427344
  H     -0.680793    3.134762    5.839000
  H     -2.057550    3.531691    5.346197
  O     -0.901252    1.858156    6.828104
  O     -2.936582    2.177309    5.964151

 Total Charge           Charge          ....    0
 Multiplicity           Mult            ....    1
 Number of Electrons    NEL             ....  104
 Basis Dimension        Dim             ....  529

ORBITAL ENERGIES
----------------

  NO   OCC          E(Eh)            E(eV)
   0   2.0000     -18.706812      -509.0382
   1   2.0000     -18.705249      -508.9957
   2   2.0000     -14.081412      -383.1747
   3   2.0000      -9.971082      -271.3269
   4   2.0000      -9.969946      -271.2960
   5   2.0000      -9.925608      -270.0895
   6   2.0000      -9.901439      -269.4318
   7   2.0000      -9.898242      -269.3449
   8   2.0000      -9.891900      -269.1723
   9   2.0000      -9.882505      -268.9166
  10   2.0000      -9.882384      -268.9134
  11   2.0000      -9.881363      -268.8856
  12   2.0000      -9.874874      -268.7090
  13   2.0000      -0.931577       -25.3495
  14   2.0000      -0.892603       -24.2890
  15   2.0000      -0.837276       -22.7834
  16   2.0000      -0.740061       -20.1381
  17   2.0000      -0.712804       -19.3964
  18   2.0000      -0.686622       -18.6839
  19   2.0000      -0.644402       -17.5351
  20   2.0000      -0.614459       -16.7203
  21   2.0000      -0.578950       -15.7540
  22   2.0000      -0.544606       -14.8195
  23   2.0000      -0.533555       -14.5188
  24   2.0000      -0.513033       -13.9603
  25   2.0000      -0.491242       -13.3674
  26   2.0000      -0.482783       -13.1372
  27   2.0000      -0.448141       -12.1945
  28   2.0000      -0.423279       -11.5180
  29   2.0000      -0.419475       -11.4145
  30   2.0000      -0.416033       -11.3208
  31   2.0000      -0.391954       -10.6656
  32   2.0000      -0.387295       -10.5388
  33   2.0000      -0.380184       -10.3453
  34   2.0000      -0.367617       -10.0034
  35   2.0000      -0.359848        -9.7920
  36   2.0000      -0.348012        -9.4699
  37   2.0000      -0.344650        -9.3784
  38   2.0000      -0.338231        -9.2037
  39   2.0000      -0.328355        -8.9350
  40   2.0000      -0.315877        -8.5955
  41   2.0000      -0.310498        -8.4491
  42   2.0000      -0.303626        -8.2621
  43   2.0000      -0.290467        -7.9040
  44   2.0000      -0.282622        -7.6905
  45   2.0000      -0.277080        -7.5397
  46   2.0000      -0.264834        -7.2065
  47   2.0000      -0.259909        -7.0725
  48   2.0000      -0.254067        -6.9135
  49   2.0000      -0.204771        -5.5721
  50   2.0000      -0.188537        -5.1303
  51   2.0000      -0.181538        -4.9399
  52   0.0000      -0.021102        -0.5742
  53   0.0000       0.015331         0.4172
  54   0.0000       0.018642         0.5073
  55   0.0000       0.026518         0.7216
  56   0.0000       0.030280         0.8240

MULLIKEN ATOMIC CHARGES
-----------------------
   0 C :   -0.160308
   1 H :    0.116152
   2 N :   -0.201610
   3 C :   -0.108746
   4 H :    0.132960
   5 H :    0.080474
   6 H :    0.083471
   7 C :   -0.214186
   8 H :    0.073955
   9 C :   -0.185211
  10 H :    0.149154
  11 H :    0.074906
  12 H :    0.083054
  13 C :   -0.088066
  14 C :   -0.211990
  15 H :    0.067209
  16 H :    0.068863
  17 H :    0.063351
  18 C :   -0.149032
  19 H :    0.128233
  20 H :    0.056841
  21 H :    0.077693
  22 C :   -0.119099
  23 H :    0.063867
  24 H :    0.070876
  25 C :   -0.124785
  26 C :    0.253162
  27 H :    0.076585
  28 H :    0.074194
  29 H :    0.223579
  30 H :    0.249310
  31 H :    0.255119
  32 O :   -0.483088
  33 O :   -0.476887
Sum of atomic charges:   -0.0000000

LOEWDIN ATOMIC CHARGES
----------------------
   0 C :   -0.272401
   1 H :    0.130058
   2 N :    0.138916
   3 C :   -0.264265
   4 H :    0.138272
   5 H :    0.133333
   6 H :    0.141366
   7 C :   -0.259159
   8 H :    0.134152
   9 C :   -0.264443
  10 H :    0.142821
  11 H :    0.130719
  12 H :    0.128560
  13 C :   -0.259729
  14 C :   -0.261607
  15 H :    0.132151
  16 H :    0.131851
  17 H :    0.131392
  18 C :   -0.263844
  19 H :    0.138663
  20 H :    0.129864
  21 H :    0.130130
  22 C :   -0.255839
  23 H :    0.129109
  24 H :    0.135641
  25 C :   -0.235268
  26 C :   -0.637847
  27 H :    0.134079
  28 H :    0.139261
  29 H :    0.177648
  30 H :    0.155637
  31 H :    0.167813
  32 O :   -0.042396
  33 O :   -0.034636

  Mayer bond orders larger than 0.100000
B(  0-C ,  1-H ) :   0.9686 B(  0-C ,  2-N ) :   0.9161 B(  0-C ,  3-C ) :   0.9624
B(  0-C ,  4-H ) :   0.9598 B(  2-N , 29-H ) :   0.9056 B(  2-N , 30-H ) :   0.7576
B(  2-N , 31-H ) :   0.7809 B(  3-C ,  5-H ) :   0.9611 B(  3-C ,  6-H ) :   0.9521
B(  3-C ,  7-C ) :   0.9590 B(  7-C ,  8-H ) :   0.9532 B(  7-C ,  9-C ) :   0.9383
B(  7-C , 10-H ) :   0.9734 B(  9-C , 11-H ) :   0.9535 B(  9-C , 12-H ) :   0.9752
B(  9-C , 13-C ) :   0.9657 B( 13-C , 14-C ) :   0.9717 B( 13-C , 15-H ) :   0.9629
B( 13-C , 16-H ) :   0.9601 B( 14-C , 17-H ) :   0.9551 B( 14-C , 18-C ) :   0.9362
B( 14-C , 19-H ) :   0.9732 B( 18-C , 20-H ) :   0.9574 B( 18-C , 21-H ) :   0.9708
B( 18-C , 22-C ) :   0.9871 B( 22-C , 23-H ) :   0.9562 B( 22-C , 24-H ) :   0.9493
B( 22-C , 25-C ) :   0.9624 B( 25-C , 26-C ) :   0.9438 B( 25-C , 27-H ) :   0.9684
B( 25-C , 28-H ) :   0.9393 B( 26-C , 32-O ) :   1.6424 B( 26-C , 33-O ) :   1.7004
B( 30-H , 32-O ) :   0.2464 B( 31-H , 33-O ) :   0.2086

Dispersion correction           -0.076156735
FINAL SINGLE POINT ENERGY      -598.950906702059

DIPOLE MOMENT
-------------
                                X             Y             Z
Electronic contribution:     -4.69653       4.84087       6.75610
Nuclear contribution   :      5.60885      -3.40606      -8.06960
                        -----------------------------------------
Total Dipole Moment    :      0.91232       1.43481      -1.31350
                        -----------------------------------------
Magnitude (a.u.)       :      2.14855
Magnitude (Debye)      :      5.46119

Rotational constants in cm-1:     0.028465     0.023505     0.015110
Rotational constants in MHz :   853.363165   704.655786   452.976312

                             ****ORCA TERMINATED NORMALLY****
TOTAL RUN TIME: 0 days 0 hours 0 minutes 23 seconds 289 msec
