                         Program Version 5.0.0 -  RELEASE  -
|  1> !BLYP D3BJ RIJCOSX def2-SVP def2/J TightSCF
|  2> *xyz 0 1
|  3> C         -2.79070       -0.78527        5.70281
|  4> C         -2.45380        0.05510        6.94145
|  5> C         -2.07842        1.48042        6.56410
|  6> H         -1.62558       -0.38216        7.49891
|  7> H         -3.32527        0.08775        7.59917
|  8> F         -0.90125        1.85816        6.82810
|  9> O         -2.93658        2.17731        5.96415
| 10> H         -1.94052       -0.82114        5.05412
| 11> H         -3.61590       -0.34261        5.18514
| 12> H         -3.05063       -1.77815        6.00536
| 13> *
| 14> %MaxCore 64000
| 15>
| 16> %pal nprocs 4
| 17> end
| 18>
| 19> %scf
| 20>   MaxIter 150
| 21> end
| 22>
| 23>
| 24>                          ****END OF INPUT****

CARTESIAN COORDINATES (ANGSTROEM)
---------------------------------
  C     -2.790700   -0.785270    5.702810
  C     -2.453800    0.055100    6.941450
  C     -2.078420    1.480420    6.564100
  H     -1.625580   -0.382160    7.498910
  H     -3.325270    0.087750    7.599170
  F     -0.901250    1.858160    6.828100
  O     -2.936580    2.177310    5.964150
  H     -1.940520   -0.821140    5.054120
  H     -3.615900   -0.342610    5.185140
  H     -3.050630   -1.778150    6.005360

 Total Charge           Charge          ....    0
 Multiplicity           Mult            ....    1
 Number of Electrons    NEL             ....   40
 Basis Dimension        Dim             ....   95

ORBITAL ENERGIES
----------------

  NO   OCC          E(Eh)            E(eV)
   0   2.0000     -24.349590      -662.5860
   1   2.0000     -18.778462      -510.9879
   2   2.0000     -10.079048      -274.2648
   3   2.0000      -9.947047      -270.6729
   4   2.0000      -9.927199      -270.1328
   5   2.0000      -1.173006       -31.9191
   6   2.0000      -0.913961       -24.8702
   7   2.0000      -0.709372       -19.3030
   8   2.0000      -0.602602       -16.3976
   9   2.0000      -0.554511       -15.0890
  10   2.0000      -0.470843       -12.8123
  11   2.0000      -0.455508       -12.3950
  12   2.0000      -0.431324       -11.7369
  13   2.0000      -0.403046       -10.9675
  14   2.0000      -0.370457       -10.0807
  15   2.0000      -0.344335        -9.3698
  16   2.0000      -0.324244        -8.8231
  17   2.0000      -0.317719        -8.6456
  18   2.0000      -0.290952        -7.9172
  19   2.0000      -0.227576        -6.1927
  20   0.0000      -0.052497        -1.4285
  21   0.0000       0.039504         1.0750
  22   0.0000       0.080911         2.2017
  23   0.0000       0.084325         2.2946
  24   0.0000       0.102704         2.7947

MULLIKEN ATOMIC CHARGES
-----------------------
   0 C :    0.077789
   1 C :    0.035827
   2 C :    0.121920
   3 H :   -0.015491
   4 H :    0.022454
   5 F :   -0.037469
   6 O :   -0.209552
   7 H :   -0.005341
   8 H :    0.013960
   9 H :   -0.004097
Sum of atomic charges:   -0.0000000

LOEWDIN ATOMIC CHARGES
----------------------
   0 C :   -0.023402
   1 C :   -0.057889
   2 C :    0.067795
   3 H :    0.019931
   4 H :    0.043591
   5 F :    0.055343
   6 O :   -0.173714
   7 H :    0.020403
   8 H :    0.025404
   9 H :    0.022538

  Mayer bond orders larger than 0.100000
B(  0-C ,  1-C ) :   1.1170 B(  0-C ,  7-H ) :   0.9704 B(  0-C ,  8-H ) :   0.9651
B(  0-C ,  9-H ) :   0.9594 B(  1-C ,  2-C ) :   1.0068 B(  1-C ,  3-H ) :   0.9198
B(  1-C ,  4-H ) :   0.9185 B(  2-C ,  5-F ) :   1.2368 B(  2-C ,  6-O ) :   2.0953

Dispersion correction           -0.012868030
FINAL SINGLE POINT ENERGY      -292.102220891602

DIPOLE MOMENT
-------------
                                X             Y             Z
Electronic contribution:      3.96902       7.58325       1.44164
Nuclear contribution   :     -3.69486      -8.49563      -1.04945
                        -----------------------------------------
Total Dipole Moment    :      0.27416      -0.91238       0.39219
                        -----------------------------------------
Magnitude (a.u.)       :      1.03025
Magnitude (Debye)      :      2.61868

Rotational constants in cm-1:     0.293725     0.129218     0.102393
Rotational constants in MHz :  8805.653529  3873.869810  3069.666716

                             ****ORCA TERMINATED NORMALLY****
TOTAL RUN TIME: 0 days 0 hours 0 minutes 6 seconds 192 msec
