                         Program Version 5.0.0 -  RELEASE  -
|  1> !BLYP D3BJ RIJCOSX def2-SVP def2/J TightSCF
|  2> *xyz 0 1
|  3> C         -0.69912        3.48945        3.75516
|  4> H         -0.96672        4.34901        3.14049
|  5> C         -1.08067        3.79296        5.15686
|  6> C          0.77696        3.13839        3.61741
|  7> H         -1.33146        2.65651        3.44632
|  8> H         -0.87449        4.76274        5.42734
|  9> H         -0.68079        3.13476        5.83900
| 10> H         -2.05755        3.53169        5.34620
| 11> H          0.99957        2.92898        2.59199
| 12> H          0.99576        2.27685        4.21303
| 13> H          1.37223        3.96279        3.95046
| 14> *
| 15> %MaxCore 64000
| 16>
| 17> %pal nprocs 4
| 18> end
| 19>
| 20> %scf
| 21>   MaxIter 150
| 22> end
| 23>
| 24>
| 25>                          ****END OF INPUT****

CARTESIAN COORDINATES (ANGSTROEM)
---------------------------------
  C     -0.699120    3.489450    3.755160
  H     -0.966720    4.349010    3.140490
  C     -1.080670    3.792960    5.156860
  C      0.776960    3.138390    3.617410
  H     -1.331460    2.656510    3.446320
  H     -0.874490    4.762740    5.427340
  H     -0.680790    3.134760    5.839000
  H     -2.057550    3.531690    5.346200
  H      0.999570    2.928980    2.591990
  H      0.995760    2.276850    4.213030
  H      1.372230    3.962790    3.950460

 Total Charge           Charge          ....    0
 Multiplicity           Mult            ....    1
 Number of Electrons    NEL             ....   26
 Basis Dimension        Dim             ....   82

ORBITAL ENERGIES
----------------

  NO   OCC          E(Eh)            E(eV)
   0   2.0000      -9.907777      -269.6043
   1   2.0000      -9.901103      -269.4227
   2   2.0000      -9.885163      -268.9890
   3   2.0000      -0.700673       -19.0663
   4   2.0000      -0.609045       -16.5730
   5   2.0000      -0.514546       -14.0015
   6   2.0000      -0.413454       -11.2507
   7   2.0000      -0.382691       -10.4136
   8   2.0000      -0.346797        -9.4368
   9   2.0000      -0.342949        -9.3321
  10   2.0000      -0.291609        -7.9351
  11   2.0000      -0.280886        -7.6433
  12   2.0000      -0.277097        -7.5402
  13   0.0000       0.042229         1.1491
  14   0.0000       0.086511         2.3541
  15   0.0000       0.090576         2.4647
  16   0.0000       0.092935         2.5289
  17   0.0000       0.121918         3.3176

MULLIKEN ATOMIC CHARGES
-----------------------
   0 C :    0.009701
   1 H :   -0.024866
   2 C :    0.146842
   3 C :    0.089869
   4 H :   -0.030776
   5 H :   -0.026362
   6 H :   -0.054900
   7 H :   -0.051900
   8 H :   -0.020618
   9 H :   -0.018445
  10 H :   -0.018546
Sum of atomic charges:    0.0000000

LOEWDIN ATOMIC CHARGES
----------------------
   0 C :   -0.028037
   1 H :    0.014711
   2 C :   -0.039875
   3 C :   -0.038717
   4 H :    0.014085
   5 H :    0.009326
   6 H :    0.010718
   7 H :    0.014349
   8 H :    0.014679
   9 H :    0.014350
  10 H :    0.014410

  Mayer bond orders larger than 0.100000
B(  0-C ,  1-H ) :   0.9419 B(  0-C ,  2-C ) :   1.1478 B(  0-C ,  3-C ) :   1.1323
B(  0-C ,  4-H ) :   0.9401 B(  2-C ,  5-H ) :   0.9657 B(  2-C ,  6-H ) :   0.9423
B(  2-C ,  7-H ) :   0.9389 B(  3-C ,  8-H ) :   0.9589 B(  3-C ,  9-H ) :   0.9651
B(  3-C , 10-H ) :   0.9688

Dispersion correction           -0.012469430
FINAL SINGLE POINT ENERGY      -118.946158014955

DIPOLE MOMENT
-------------
                                X             Y             Z
Electronic contribution:     -0.13163       0.12355      -0.39472
Nuclear contribution   :      0.10024      -0.14218       0.41628
                        -----------------------------------------
Total Dipole Moment    :     -0.03139      -0.01863       0.02156
                        -----------------------------------------
Magnitude (a.u.)       :      0.04239
Magnitude (Debye)      :      0.10775

Rotational constants in cm-1:     1.024179     0.291605     0.259489
Rotational constants in MHz : 30704.103454  8742.106283  7779.285909

                             ****ORCA TERMINATED NORMALLY****
TOTAL RUN TIME: 0 days 0 hours 0 minutes 5 seconds 742 msec
