                         Program Version 5.0.0 -  RELEASE  -
|  1> !BLYP D3BJ RIJCOSX def2-SVP def2/J TightSCF
|  2> *xyz 0 1
|  3> C         -2.79070       -0.78527        5.70281
|  4> C         -2.45380        0.05510        6.94145
|  5> C         -2.07842        1.48042        6.56410
|  6> H         -1.62558       -0.38216        7.49891
|  7> H         -3.32527        0.08775        7.59917
|  8> O         -0.90125        1.85816        6.82810
|  9> F         -2.93658        2.17731        5.96415
| 10> H         -1.94052       -0.82114        5.05412
| 11> H         -3.61590       -0.34261        5.18514
| 12> H         -3.05063       -1.77815        6.00536
| 13> *
| 14> %MaxCore 64000
| 15>
| 16> %pal nprocs 4
| 17> end
| 18>
| 19> %scf
| 20>   MaxIter 150
| 21> end
| 22>
| 23>
| 24>                          ****END OF INPUT****

CARTESIAN COORDINATES (ANGSTROEM)
---------------------------------
  C     -2.790700   -0.785270    5.702810
  C     -2.453800    0.055100    6.941450
  C     -2.078420    1.480420    6.564100
  H     -1.625580   -0.382160    7.498910
  H     -3.325270    0.087750    7.599170
  O     -0.901250    1.858160    6.828100
  F     -2.936580    2.177310    5.964150
  H     -1.940520   -0.821140    5.054120
  H     -3.615900   -0.342610    5.185140
  H     -3.050630   -1.778150    6.005360

 Total Charge           Charge          ....    0
 Multiplicity           Mult            ....    1
 Number of Electrons    NEL             ....   40
 Basis Dimension        Dim             ....   95

ORBITAL ENERGIES
----------------

  NO   OCC          E(Eh)            E(eV)
   0   2.0000     -24.353448      -662.6910
   1   2.0000     -18.775719      -510.9133
   2   2.0000     -10.078458      -274.2488
   3   2.0000      -9.946277      -270.6520
   4   2.0000      -9.931004      -270.2364
   5   2.0000      -1.178711       -32.0744
   6   2.0000      -0.908448       -24.7201
   7   2.0000      -0.712293       -19.3825
   8   2.0000      -0.600552       -16.3419
   9   2.0000      -0.560767       -15.2592
  10   2.0000      -0.474766       -12.9190
  11   2.0000      -0.460968       -12.5436
  12   2.0000      -0.427840       -11.6421
  13   2.0000      -0.402001       -10.9390
  14   2.0000      -0.373369       -10.1599
  15   2.0000      -0.345924        -9.4131
  16   2.0000      -0.326750        -8.8913
  17   2.0000      -0.319942        -8.7061
  18   2.0000      -0.291928        -7.9438
  19   2.0000      -0.220721        -6.0061
  20   0.0000      -0.049604        -1.3498
  21   0.0000       0.035555         0.9675
  22   0.0000       0.078665         2.1406
  23   0.0000       0.086459         2.3527
  24   0.0000       0.106672         2.9027

MULLIKEN ATOMIC CHARGES
-----------------------
   0 C :    0.057801
   1 C :    0.045047
   2 C :    0.118936
   3 H :    0.011035
   4 H :    0.004399
   5 O :   -0.209726
   6 F :   -0.034747
   7 H :    0.006261
   8 H :   -0.000141
   9 H :    0.001135
Sum of atomic charges:    0.0000000

LOEWDIN ATOMIC CHARGES
----------------------
   0 C :   -0.031231
   1 C :   -0.054404
   2 C :    0.065593
   3 H :    0.036659
   4 H :    0.032230
   5 O :   -0.176782
   6 F :    0.061269
   7 H :    0.022938
   8 H :    0.018960
   9 H :    0.024768

  Mayer bond orders larger than 0.100000
B(  0-C ,  1-C ) :   1.1008 B(  0-C ,  7-H ) :   0.9713 B(  0-C ,  8-H ) :   0.9677
B(  0-C ,  9-H ) :   0.9593 B(  1-C ,  2-C ) :   1.0178 B(  1-C ,  3-H ) :   0.9348
B(  1-C ,  4-H ) :   0.9117 B(  2-C ,  5-O ) :   2.1051 B(  2-C ,  6-F ) :   1.2312

Dispersion correction           -0.012791987
FINAL SINGLE POINT ENERGY      -292.099507938519

DIPOLE MOMENT
-------------
                                X             Y             Z
Electronic contribution:      0.66339       8.08712       0.03524
Nuclear contribution   :     -1.47571      -8.84360      -0.10748
                        -----------------------------------------
Total Dipole Moment    :     -0.81233      -0.75649      -0.07224
                        -----------------------------------------
Magnitude (a.u.)       :      1.11237
Magnitude (Debye)      :      2.82742

Rotational constants in cm-1:     0.283081     0.133379     0.103386
Rotational constants in MHz :  8486.545774  3998.599544  3099.448040

                             ****ORCA TERMINATED NORMALLY****
TOTAL RUN TIME: 0 days 0 hours 0 minutes 6 seconds 149 msec
