                         Program Version 5.0.0 -  RELEASE  -
|  1> !BLYP D3BJ RIJCOSX def2-TZVP def2/J TightSCF xyzfile
|  2>
|  3> *xyzfile 0 1 D1.xyz
|  4>
|  5> %MaxCore 64000
|  6>
|  7> %pal nprocs 18
|  8> end
|  9>
| 10> %scf
| 11>   MaxIter 150
| 12> end
| 13>
| 14>
| 15>                          ****END OF INPUT****

CARTESIAN COORDINATES (ANGSTROEM)
---------------------------------
  C     -0.699123    3.489451    3.755163
  H     -0.966716    4.349013    3.140491
  C     -1.080669    3.792957    5.156857
  C      0.776956    3.138391    3.617408
  H     -1.331455    2.656510    3.446323
  H      1.371398    3.888342    4.149744
  H      1.046926    3.232057    2.561331
  C      1.118917    1.731170    4.115155
  H      2.200573    1.654226    4.254882
  C      0.659466    0.635182    3.153306
  H      0.677024    1.576674    5.103150
  H      1.312288    0.638870    2.274207
  H     -0.339563    0.868049    2.772876
  C      0.639957   -0.771175    3.755619
  C     -0.341821   -0.965537    4.915046
  H      1.648266   -1.028665    4.097015
  H      0.398568   -1.482386    2.958453
  H     -0.279892   -2.005646    5.252547
  C     -1.789164   -0.639231    4.557496
  H     -0.032380   -0.352918    5.765118
  H     -2.107151   -1.270102    3.719619
  H     -1.856352    0.391636    4.197604
  C     -2.790700   -0.785275    5.702812
  H     -2.867308   -1.835651    6.001675
  H     -3.774554   -0.486577    5.334807
  C     -2.453797    0.055101    6.941445
  C     -2.078419    1.480421    6.564098
  H     -1.625584   -0.382163    7.498914
  H     -3.325274    0.087746    7.599175
  H     -0.874488    4.762737    5.427344
  H     -0.680793    3.134762    5.839000
  H     -2.057550    3.531691    5.346197
  F     -0.901252    1.858156    6.828104
  O     -2.936582    2.177309    5.964151

 Total Charge           Charge          ....    0
 Multiplicity           Mult            ....    1
 Number of Electrons    NEL             ....  104
 Basis Dimension        Dim             ....  529

ORBITAL ENERGIES
----------------

  NO   OCC          E(Eh)            E(eV)
   0   2.0000     -24.358966      -662.8412
   1   2.0000     -18.781975      -511.0835
   2   2.0000     -10.083120      -274.3756
   3   2.0000      -9.936653      -270.3901
   4   2.0000      -9.920000      -269.9369
   5   2.0000      -9.905613      -269.5454
   6   2.0000      -9.902674      -269.4655
   7   2.0000      -9.897595      -269.3273
   8   2.0000      -9.890606      -269.1371
   9   2.0000      -9.888014      -269.0665
  10   2.0000      -9.880990      -268.8754
  11   2.0000      -9.871439      -268.6155
  12   2.0000      -9.818957      -267.1874
  13   2.0000      -1.218315       -33.1520
  14   2.0000      -0.950552       -25.8658
  15   2.0000      -0.748760       -20.3748
  16   2.0000      -0.725505       -19.7420
  17   2.0000      -0.697446       -18.9785
  18   2.0000      -0.671504       -18.2725
  19   2.0000      -0.633111       -17.2278
  20   2.0000      -0.612292       -16.6613
  21   2.0000      -0.587309       -15.9815
  22   2.0000      -0.556783       -15.1508
  23   2.0000      -0.540851       -14.7173
  24   2.0000      -0.503080       -13.6895
  25   2.0000      -0.496574       -13.5125
  26   2.0000      -0.489143       -13.3103
  27   2.0000      -0.471296       -12.8246
  28   2.0000      -0.458707       -12.4820
  29   2.0000      -0.424272       -11.5450
  30   2.0000      -0.421294       -11.4640
  31   2.0000      -0.406017       -11.0483
  32   2.0000      -0.402513       -10.9529
  33   2.0000      -0.385227       -10.4826
  34   2.0000      -0.374359       -10.1868
  35   2.0000      -0.361132        -9.8269
  36   2.0000      -0.357537        -9.7291
  37   2.0000      -0.350555        -9.5391
  38   2.0000      -0.340510        -9.2658
  39   2.0000      -0.330141        -8.9836
  40   2.0000      -0.320210        -8.7133
  41   2.0000      -0.313554        -8.5322
  42   2.0000      -0.307054        -8.3554
  43   2.0000      -0.300590        -8.1795
  44   2.0000      -0.292005        -7.9459
  45   2.0000      -0.284656        -7.7459
  46   2.0000      -0.279144        -7.5959
  47   2.0000      -0.269824        -7.3423
  48   2.0000      -0.265394        -7.2217
  49   2.0000      -0.256703        -6.9852
  50   2.0000      -0.251174        -6.8348
  51   2.0000      -0.219022        -5.9599
  52   0.0000      -0.075988        -2.0677
  53   0.0000       0.008632         0.2349
  54   0.0000       0.025951         0.7062
  55   0.0000       0.028653         0.7797
  56   0.0000       0.036473         0.9925

MULLIKEN ATOMIC CHARGES
-----------------------
   0 C :   -0.157052
   1 H :    0.059949
   2 C :   -0.352851
   3 C :   -0.051731
   4 H :    0.070979
   5 H :    0.061547
   6 H :    0.054730
   7 C :   -0.186308
   8 H :    0.066555
   9 C :   -0.188456
  10 H :    0.078308
  11 H :    0.073990
  12 H :    0.095591
  13 C :   -0.082072
  14 C :   -0.206464
  15 H :    0.068798
  16 H :    0.072574
  17 H :    0.072663
  18 C :   -0.196968
  19 H :    0.090385
  20 H :    0.073921
  21 H :    0.113104
  22 C :   -0.119055
  23 H :    0.083521
  24 H :    0.094796
  25 C :   -0.180823
  26 C :    0.354677
  27 H :    0.104266
  28 H :    0.116869
  29 H :    0.077807
  30 H :    0.093093
  31 H :    0.140614
  32 F :   -0.093953
  33 O :   -0.303004
Sum of atomic charges:   -0.0000000

LOEWDIN ATOMIC CHARGES
----------------------
   0 C :   -0.296383
   1 H :    0.128894
   2 C :   -0.327610
   3 C :   -0.259472
   4 H :    0.126474
   5 H :    0.131054
   6 H :    0.129353
   7 C :   -0.259938
   8 H :    0.130170
   9 C :   -0.263159
  10 H :    0.128126
  11 H :    0.132325
  12 H :    0.131170
  13 C :   -0.259621
  14 C :   -0.263556
  15 H :    0.132710
  16 H :    0.132700
  17 H :    0.132722
  18 C :   -0.262195
  19 H :    0.128182
  20 H :    0.136756
  21 H :    0.137503
  22 C :   -0.246272
  23 H :    0.136597
  24 H :    0.141816
  25 C :   -0.228293
  26 C :   -0.497720
  27 H :    0.138751
  28 H :    0.154774
  29 H :    0.097034
  30 H :    0.097443
  31 H :    0.108842
  32 F :    0.342612
  33 O :    0.108211

  Mayer bond orders larger than 0.100000
B(  0-C ,  1-H ) :   0.9618 B(  0-C ,  2-C ) :   0.9396 B(  0-C ,  3-C ) :   0.9553
B(  0-C ,  4-H ) :   0.9917 B(  2-C , 29-H ) :   0.9549 B(  2-C , 30-H ) :   0.9864
B(  2-C , 31-H ) :   0.9569 B(  3-C ,  5-H ) :   0.9564 B(  3-C ,  6-H ) :   0.9554
B(  3-C ,  7-C ) :   0.9753 B(  7-C ,  8-H ) :   0.9529 B(  7-C ,  9-C ) :   0.9619
B(  7-C , 10-H ) :   0.9801 B(  9-C , 11-H ) :   0.9561 B(  9-C , 12-H ) :   0.9760
B(  9-C , 13-C ) :   0.9540 B( 13-C , 14-C ) :   0.9752 B( 13-C , 15-H ) :   0.9628
B( 13-C , 16-H ) :   0.9616 B( 14-C , 17-H ) :   0.9570 B( 14-C , 18-C ) :   0.9383
B( 14-C , 19-H ) :   0.9751 B( 18-C , 20-H ) :   0.9584 B( 18-C , 21-H ) :   0.9704
B( 18-C , 22-C ) :   0.9743 B( 22-C , 23-H ) :   0.9575 B( 22-C , 24-H ) :   0.9542
B( 22-C , 25-C ) :   0.9494 B( 25-C , 26-C ) :   0.9732 B( 25-C , 27-H ) :   0.9603
B( 25-C , 28-H ) :   0.9424 B( 26-C , 32-F ) :   1.1169 B( 26-C , 33-O ) :   1.9901

Dispersion correction           -0.074716834
FINAL SINGLE POINT ENERGY      -606.846001238496

DIPOLE MOMENT
-------------
                                X             Y             Z
Electronic contribution:     -5.48932       2.53354      10.83654
Nuclear contribution   :      5.54676      -3.70047     -10.28793
                        -----------------------------------------
Total Dipole Moment    :      0.05744      -1.16693       0.54861
                        -----------------------------------------
Magnitude (a.u.)       :      1.29073
Magnitude (Debye)      :      3.28078

Rotational constants in cm-1:     0.028503     0.023389     0.015214
Rotational constants in MHz :   854.502405   701.197575   456.108322

                             ****ORCA TERMINATED NORMALLY****
TOTAL RUN TIME: 0 days 0 hours 0 minutes 24 seconds 408 msec
