                         Program Version 5.0.0 -  RELEASE  -
|  1> !B3LYP D3BJ RIJCOSX def2-SVPD def2/J TightSCF
|  2> *xyz -1 1
|  3> C          2.09343        1.86104       -4.65684
|  4> S          1.87964        0.07859       -4.46297
|  5> O          3.20757       -0.46611       -4.42026
|  6> O          1.07506       -0.05616       -3.26876
|  7> O          1.13166       -0.31996       -5.67903
|  8> H          2.68437        2.05681       -5.52711
|  9> H          2.58708        2.25699       -3.79404
| 10> H          1.13553        2.32556       -4.76426
| 11> *
| 12>
| 13> %MaxCore 64000
| 14>
| 15> %pal nprocs 8
| 16> end
| 17>
| 18> %scf
| 19>   MaxIter 150
| 20> end
| 21>
| 22>
| 23>                          ****END OF INPUT****

CARTESIAN COORDINATES (ANGSTROEM)
---------------------------------
  C      2.093430    1.861040   -4.656840
  S      1.879640    0.078590   -4.462970
  O      3.207570   -0.466110   -4.420260
  O      1.075060   -0.056160   -3.268760
  O      1.131660   -0.319960   -5.679030
  H      2.684370    2.056810   -5.527110
  H      2.587080    2.256990   -3.794040
  H      1.135530    2.325560   -4.764260

 Total Charge           Charge          ....   -1
 Multiplicity           Mult            ....    1
 Number of Electrons    NEL             ....   50
 Basis Dimension        Dim             ....  140

ORBITAL ENERGIES
----------------

  NO   OCC          E(Eh)            E(eV)
   0   2.0000     -88.881743     -2418.5952
   1   2.0000     -18.921765      -514.8874
   2   2.0000     -18.917637      -514.7751
   3   2.0000     -18.906586      -514.4744
   4   2.0000     -10.032741      -273.0048
   5   2.0000      -7.935318      -215.9310
   6   2.0000      -5.904231      -160.6623
   7   2.0000      -5.904082      -160.6582
   8   2.0000      -5.903764      -160.6496
   9   2.0000      -0.931781       -25.3550
  10   2.0000      -0.794599       -21.6221
  11   2.0000      -0.768672       -20.9166
  12   2.0000      -0.574223       -15.6254
  13   2.0000      -0.384356       -10.4589
  14   2.0000      -0.302906        -8.2425
  15   2.0000      -0.287822        -7.8320
  16   2.0000      -0.287136        -7.8134
  17   2.0000      -0.249410        -6.7868
  18   2.0000      -0.246932        -6.7194
  19   2.0000      -0.153058        -4.1649
  20   2.0000      -0.152552        -4.1511
  21   2.0000      -0.118256        -3.2179
  22   2.0000      -0.110606        -3.0097
  23   2.0000      -0.101304        -2.7566
  24   2.0000      -0.066240        -1.8025
  25   0.0000       0.151311         4.1174
  26   0.0000       0.186522         5.0755
  27   0.0000       0.186972         5.0878
  28   0.0000       0.189453         5.1553
  29   0.0000       0.214234         5.8296

MULLIKEN ATOMIC CHARGES
-----------------------
   0 C :    0.714511
   1 S :    1.114072
   2 O :   -0.757213
   3 O :   -0.770925
   4 O :   -0.808119
   5 H :   -0.166228
   6 H :   -0.167655
   7 H :   -0.158442
Sum of atomic charges:   -1.0000000

LOEWDIN ATOMIC CHARGES
----------------------
   0 C :    0.063139
   1 S :    0.836202
   2 O :   -0.578084
   3 O :   -0.585121
   4 O :   -0.603396
   5 H :   -0.044147
   6 H :   -0.045639
   7 H :   -0.042953

  Mayer bond orders larger than 0.100000
B(  0-C ,  1-S ) :   0.9237 B(  0-C ,  5-H ) :   0.8869 B(  0-C ,  6-H ) :   0.8837
B(  0-C ,  7-H ) :   0.8873 B(  1-S ,  2-O ) :   1.3407 B(  1-S ,  3-O ) :   1.3311
B(  1-S ,  4-O ) :   1.2985 B(  1-S ,  5-H ) :   0.1276 B(  1-S ,  6-H ) :   0.1204
B(  1-S ,  7-H ) :   0.1293

Dispersion correction           -0.011099384
FINAL SINGLE POINT ENERGY      -663.324023077184

DIPOLE MOMENT
-------------
                                X             Y             Z
Electronic contribution:     -0.42492      -4.29064       0.56559
Nuclear contribution   :      0.72475       5.67579      -0.57287
                        -----------------------------------------
Total Dipole Moment    :      0.29983       1.38516      -0.00728
                        -----------------------------------------
Magnitude (a.u.)       :      1.41725
Magnitude (Debye)      :      3.60237

Rotational constants in cm-1:     0.171646     0.157781     0.155534
Rotational constants in MHz :  5145.813281  4730.160232  4662.792719

                             ****ORCA TERMINATED NORMALLY****
TOTAL RUN TIME: 0 days 0 hours 0 minutes 6 seconds 762 msec
