                         Program Version 5.0.0 -  RELEASE  -
|  1> !B3LYP D3BJ RIJCOSX def2-SVPD def2/J TightSCF
|  2> *xyz 1 1
|  3> C         -0.46129        2.23469       -4.98962
|  4> C         -0.42384        2.39877       -6.47432
|  5> N         -0.95947        3.49265       -7.00740
|  6> N          0.14558        1.48689       -7.20399
|  7> H          0.56537        0.69681       -6.72386
|  8> H          0.22068        1.58177       -8.20752
|  9> H         -1.40624        4.18151       -6.40326
| 10> H         -0.93421        3.68160       -7.99947
| 11> H          0.00645        1.31059       -4.72100
| 12> H         -1.47822        2.22967       -4.65687
| 13> H          0.06109        3.04632       -4.52779
| 14> *
| 15>
| 16> %MaxCore 64000
| 17>
| 18> %pal nprocs 8
| 19> end
| 20>
| 21> %scf
| 22>   MaxIter 150
| 23> end
| 24>
| 25>
| 26>                          ****END OF INPUT****

CARTESIAN COORDINATES (ANGSTROEM)
---------------------------------
  C     -0.461290    2.234690   -4.989620
  C     -0.423840    2.398770   -6.474320
  N     -0.959470    3.492650   -7.007400
  N      0.145580    1.486890   -7.203990
  H      0.565370    0.696810   -6.723860
  H      0.220680    1.581770   -8.207520
  H     -1.406240    4.181510   -6.403260
  H     -0.934210    3.681600   -7.999470
  H      0.006450    1.310590   -4.721000
  H     -1.478220    2.229670   -4.656870
  H      0.061090    3.046320   -4.527790

 Total Charge           Charge          ....    1
 Multiplicity           Mult            ....    1
 Number of Electrons    NEL             ....   32
 Basis Dimension        Dim             ....  136

ORBITAL ENERGIES
----------------

  NO   OCC          E(Eh)            E(eV)
   0   2.0000     -14.586770      -396.9262
   1   2.0000     -14.579567      -396.7302
   2   2.0000     -10.515558      -286.1429
   3   2.0000     -10.383777      -282.5569
   4   2.0000      -1.203183       -32.7403
   5   2.0000      -1.107934       -30.1484
   6   2.0000      -0.951149       -25.8821
   7   2.0000      -0.842800       -22.9338
   8   2.0000      -0.787272       -21.4228
   9   2.0000      -0.770934       -20.9782
  10   2.0000      -0.709674       -19.3112
  11   2.0000      -0.662989       -18.0408
  12   2.0000      -0.621659       -16.9162
  13   2.0000      -0.604793       -16.4572
  14   2.0000      -0.579730       -15.7753
  15   2.0000      -0.501401       -13.6438
  16   0.0000      -0.217841        -5.9277
  17   0.0000      -0.167325        -4.5531
  18   0.0000      -0.121115        -3.2957
  19   0.0000      -0.119576        -3.2538
  20   0.0000      -0.097711        -2.6589

MULLIKEN ATOMIC CHARGES
-----------------------
   0 C :    0.808197
   1 C :    0.317158
   2 N :    0.211739
   3 N :    0.161015
   4 H :    0.051881
   5 H :   -0.176398
   6 H :   -0.008371
   7 H :   -0.197792
   8 H :   -0.055175
   9 H :   -0.050550
  10 H :   -0.061705
Sum of atomic charges:    1.0000000

LOEWDIN ATOMIC CHARGES
----------------------
   0 C :    0.241639
   1 C :   -0.068200
   2 N :    0.281169
   3 N :    0.288867
   4 H :    0.055280
   5 H :    0.053512
   6 H :    0.057860
   7 H :    0.042541
   8 H :    0.003989
   9 H :    0.021385
  10 H :    0.021960

  Mayer bond orders larger than 0.100000
B(  0-C ,  1-C ) :   1.2597 B(  0-C ,  8-H ) :   0.7485 B(  0-C ,  9-H ) :   0.7099
B(  0-C , 10-H ) :   0.7296 B(  1-C ,  2-N ) :   1.1657 B(  1-C ,  3-N ) :   1.1159
B(  1-C ,  5-H ) :  -0.2454 B(  1-C ,  7-H ) :  -0.1803 B(  1-C ,  8-H ) :   0.2795
B(  1-C ,  9-H ) :   0.2043 B(  1-C , 10-H ) :   0.1915 B(  2-N ,  3-N ) :   0.1542
B(  2-N ,  6-H ) :   1.1232 B(  2-N ,  7-H ) :   1.2661 B(  3-N ,  4-H ) :   1.0516
B(  3-N ,  5-H ) :   1.3662 B(  4-H ,  5-H ) :  -0.1797 B(  6-H ,  7-H ) :  -0.1670
B(  8-H ,  9-H ) :   0.1002 B(  9-H , 10-H ) :   0.1108

Dispersion correction           -0.011426476
FINAL SINGLE POINT ENERGY      -189.487755208695

DIPOLE MOMENT
-------------
                                X             Y             Z
Electronic contribution:      0.06297       0.17567      -2.17670
Nuclear contribution   :     -0.00094      -0.11553       1.69525
                        -----------------------------------------
Total Dipole Moment    :      0.06203       0.06014      -0.48145
                        -----------------------------------------
Magnitude (a.u.)       :      0.48914
Magnitude (Debye)      :      1.24329

Rotational constants in cm-1:     0.329971     0.303414     0.162776
Rotational constants in MHz :  9892.292308  9096.128349  4879.901854

                             ****ORCA TERMINATED NORMALLY****
TOTAL RUN TIME: 0 days 0 hours 0 minutes 6 seconds 337 msec
