                         Program Version 5.0.0 -  RELEASE  -
|  1> !B3LYP D3BJ RIJCOSX def2-SVPD def2/J TightSCF
|  2> *xyz 0 1
|  3> C          2.09343        1.86104       -4.65684
|  4> S          1.87964        0.07859       -4.46297
|  5> F          3.20757       -0.46611       -4.42026
|  6> O          1.07506       -0.05616       -3.26876
|  7> O          1.13166       -0.31996       -5.67903
|  8> H          2.68437        2.05681       -5.52711
|  9> H          2.58708        2.25699       -3.79404
| 10> H          1.13553        2.32556       -4.76426
| 11> *
| 12>
| 13> %MaxCore 64000
| 14>
| 15> %pal nprocs 8
| 16> end
| 17>
| 18> %scf
| 19>   MaxIter 150
| 20> end
| 21>
| 22>
| 23>                          ****END OF INPUT****

CARTESIAN COORDINATES (ANGSTROEM)
---------------------------------
  C      2.093430    1.861040   -4.656840
  S      1.879640    0.078590   -4.462970
  F      3.207570   -0.466110   -4.420260
  O      1.075060   -0.056160   -3.268760
  O      1.131660   -0.319960   -5.679030
  H      2.684370    2.056810   -5.527110
  H      2.587080    2.256990   -3.794040
  H      1.135530    2.325560   -4.764260

 Total Charge           Charge          ....    0
 Multiplicity           Mult            ....    1
 Number of Electrons    NEL             ....   50
 Basis Dimension        Dim             ....  140

ORBITAL ENERGIES
----------------

  NO   OCC          E(Eh)            E(eV)
   0   2.0000     -89.147551     -2425.8282
   1   2.0000     -24.824930      -675.5207
   2   2.0000     -19.157077      -521.2906
   3   2.0000     -19.145656      -520.9798
   4   2.0000     -10.243343      -278.7355
   5   2.0000      -8.201806      -223.1825
   6   2.0000      -6.174870      -168.0268
   7   2.0000      -6.168297      -167.8479
   8   2.0000      -6.167223      -167.8187
   9   2.0000      -1.389233       -37.8030
  10   2.0000      -1.112370       -30.2691
  11   2.0000      -1.007753       -27.4223
  12   2.0000      -0.799171       -21.7465
  13   2.0000      -0.727370       -19.7928
  14   2.0000      -0.613688       -16.6993
  15   2.0000      -0.600059       -16.3284
  16   2.0000      -0.560925       -15.2636
  17   2.0000      -0.481695       -13.1076
  18   2.0000      -0.480368       -13.0715
  19   2.0000      -0.469614       -12.7789
  20   2.0000      -0.443625       -12.0716
  21   2.0000      -0.392096       -10.6695
  22   2.0000      -0.342186        -9.3114
  23   2.0000      -0.331096        -9.0096
  24   2.0000      -0.312438        -8.5019
  25   0.0000      -0.013264        -0.3609
  26   0.0000       0.026893         0.7318
  27   0.0000       0.032668         0.8889
  28   0.0000       0.044488         1.2106
  29   0.0000       0.045186         1.2296

MULLIKEN ATOMIC CHARGES
-----------------------
   0 C :    0.682217
   1 S :    1.270578
   2 F :   -0.374390
   3 O :   -0.623141
   4 O :   -0.657416
   5 H :   -0.099902
   6 H :   -0.098096
   7 H :   -0.099850
Sum of atomic charges:   -0.0000000

LOEWDIN ATOMIC CHARGES
----------------------
   0 C :    0.131854
   1 S :    1.108066
   2 F :   -0.254026
   3 O :   -0.465774
   4 O :   -0.482544
   5 H :   -0.017302
   6 H :   -0.017877
   7 H :   -0.002397

  Mayer bond orders larger than 0.100000
B(  0-C ,  1-S ) :   0.9823 B(  0-C ,  5-H ) :   0.8881 B(  0-C ,  6-H ) :   0.8856
B(  0-C ,  7-H ) :   0.8868 B(  1-S ,  2-F ) :   0.7186 B(  1-S ,  3-O ) :   1.5392
B(  1-S ,  4-O ) :   1.5068 B(  1-S ,  7-H ) :   0.1288

Dispersion correction           -0.010395573
FINAL SINGLE POINT ENERGY      -687.803444838391

DIPOLE MOMENT
-------------
                                X             Y             Z
Electronic contribution:      1.80205      -5.16613       0.65674
Nuclear contribution   :     -0.60459       6.33153      -0.64388
                        -----------------------------------------
Total Dipole Moment    :      1.19746       1.16539       0.01286
                        -----------------------------------------
Magnitude (a.u.)       :      1.67100
Magnitude (Debye)      :      4.24733

Rotational constants in cm-1:     0.163601     0.155191     0.147098
Rotational constants in MHz :  4904.622287  4652.507792  4409.891356

                             ****ORCA TERMINATED NORMALLY****
TOTAL RUN TIME: 0 days 0 hours 0 minutes 6 seconds 960 msec
