                         Program Version 5.0.0 -  RELEASE  -
|  1> !B3LYP D3BJ RIJCOSX def2-SVPD def2/J TightSCF
|  2> *xyz 0 1
|  3> C         -0.46129        2.23469       -4.98962
|  4> C         -0.42384        2.39877       -6.47432
|  5> C         -0.95947        3.49265       -7.00740
|  6> N          0.14558        1.48689       -7.20399
|  7> H          0.56537        0.69681       -6.72386
|  8> H          0.22068        1.58177       -8.20752
|  9> H         -1.40624        4.18151       -6.40326
| 10> H         -0.93421        3.68160       -7.99947
| 11> H          0.00645        1.31059       -4.72100
| 12> H         -1.47822        2.22967       -4.65687
| 13> H          0.06109        3.04632       -4.52779
| 14> *
| 15>
| 16> %MaxCore 64000
| 17>
| 18> %pal nprocs 8
| 19> end
| 20>
| 21> %scf
| 22>   MaxIter 150
| 23> end
| 24>
| 25>
| 26>                          ****END OF INPUT****

CARTESIAN COORDINATES (ANGSTROEM)
---------------------------------
  C     -0.461290    2.234690   -4.989620
  C     -0.423840    2.398770   -6.474320
  C     -0.959470    3.492650   -7.007400
  N      0.145580    1.486890   -7.203990
  H      0.565370    0.696810   -6.723860
  H      0.220680    1.581770   -8.207520
  H     -1.406240    4.181510   -6.403260
  H     -0.934210    3.681600   -7.999470
  H      0.006450    1.310590   -4.721000
  H     -1.478220    2.229670   -4.656870
  H      0.061090    3.046320   -4.527790

 Total Charge           Charge          ....    0
 Multiplicity           Mult            ....    1
 Number of Electrons    NEL             ....   32
 Basis Dimension        Dim             ....  136

ORBITAL ENERGIES
----------------

  NO   OCC          E(Eh)            E(eV)
   0   2.0000     -14.335159      -390.0795
   1   2.0000     -10.203355      -277.6474
   2   2.0000     -10.174646      -276.8662
   3   2.0000     -10.111357      -275.1440
   4   2.0000      -0.928064       -25.2539
   5   2.0000      -0.749411       -20.3925
   6   2.0000      -0.680007       -18.5039
   7   2.0000      -0.573879       -15.6160
   8   2.0000      -0.531571       -14.4648
   9   2.0000      -0.472604       -12.8602
  10   2.0000      -0.431683       -11.7467
  11   2.0000      -0.398626       -10.8472
  12   2.0000      -0.389881       -10.6092
  13   2.0000      -0.354795        -9.6545
  14   2.0000      -0.340472        -9.2647
  15   2.0000      -0.184450        -5.0191
  16   0.0000       0.015851         0.4313
  17   0.0000       0.044487         1.2105
  18   0.0000       0.052498         1.4285
  19   0.0000       0.060329         1.6416
  20   0.0000       0.085748         2.3333

MULLIKEN ATOMIC CHARGES
-----------------------
   0 C :    1.042772
   1 C :   -0.387399
   2 C :    0.556496
   3 N :    0.328406
   4 H :   -0.115409
   5 H :   -0.233225
   6 H :   -0.284000
   7 H :   -0.555015
   8 H :   -0.218723
   9 H :   -0.057327
  10 H :   -0.076574
Sum of atomic charges:   -0.0000000

LOEWDIN ATOMIC CHARGES
----------------------
   0 C :    0.173582
   1 C :   -0.291910
   2 C :    0.167983
   3 N :    0.169987
   4 H :   -0.001716
   5 H :    0.011708
   6 H :   -0.083862
   7 H :   -0.098681
   8 H :   -0.031190
   9 H :   -0.008076
  10 H :   -0.007825

  Mayer bond orders larger than 0.100000
B(  0-C ,  1-C ) :   1.0582 B(  0-C ,  2-C ) :   0.1168 B(  0-C ,  3-N ) :   0.1184
B(  0-C ,  8-H ) :   0.6462 B(  0-C ,  9-H ) :   0.6767 B(  0-C , 10-H ) :   0.6986
B(  1-C ,  2-C ) :   1.7053 B(  1-C ,  3-N ) :   1.1483 B(  1-C ,  5-H ) :  -0.1482
B(  1-C ,  7-H ) :   0.1882 B(  1-C ,  8-H ) :   0.3272 B(  1-C ,  9-H ) :   0.2215
B(  1-C , 10-H ) :   0.2081 B(  2-C ,  3-N ) :   0.2522 B(  2-C ,  6-H ) :   0.8028
B(  2-C ,  7-H ) :   0.7164 B(  3-N ,  4-H ) :   1.0664 B(  3-N ,  5-H ) :   1.3073
B(  4-H ,  5-H ) :  -0.1543

Dispersion correction           -0.012067881
FINAL SINGLE POINT ENERGY      -173.031082091049

DIPOLE MOMENT
-------------
                                X             Y             Z
Electronic contribution:      0.54311      -0.82160      -1.53822
Nuclear contribution   :     -0.12116       0.12783       1.56719
                        -----------------------------------------
Total Dipole Moment    :      0.42195      -0.69377       0.02897
                        -----------------------------------------
Magnitude (a.u.)       :      0.81252
Magnitude (Debye)      :      2.06527

Rotational constants in cm-1:     0.350065     0.307664     0.168807
Rotational constants in MHz : 10494.676477  9223.531181  5060.697310

                             ****ORCA TERMINATED NORMALLY****
TOTAL RUN TIME: 0 days 0 hours 0 minutes 6 seconds 855 msec
