                         Program Version 5.0.0 -  RELEASE  -
|  1> !B3LYP D3BJ RIJCOSX def2-SVPD def2/J TightSCF
|  2> *xyz 0 1
|  3> C          2.09343        1.86104       -4.65684
|  4> S          1.87964        0.07859       -4.46297
|  5> O          3.20757       -0.46611       -4.42026
|  6> F          1.07506       -0.05616       -3.26876
|  7> O          1.13166       -0.31996       -5.67903
|  8> H          2.68437        2.05681       -5.52711
|  9> H          2.58708        2.25699       -3.79404
| 10> H          1.13553        2.32556       -4.76426
| 11> *
| 12>
| 13> %MaxCore 64000
| 14>
| 15> %pal nprocs 8
| 16> end
| 17>
| 18> %scf
| 19>   MaxIter 150
| 20> end
| 21>
| 22>
| 23>                          ****END OF INPUT****

CARTESIAN COORDINATES (ANGSTROEM)
---------------------------------
  C      2.093430    1.861040   -4.656840
  S      1.879640    0.078590   -4.462970
  O      3.207570   -0.466110   -4.420260
  F      1.075060   -0.056160   -3.268760
  O      1.131660   -0.319960   -5.679030
  H      2.684370    2.056810   -5.527110
  H      2.587080    2.256990   -3.794040
  H      1.135530    2.325560   -4.764260

 Total Charge           Charge          ....    0
 Multiplicity           Mult            ....    1
 Number of Electrons    NEL             ....   50
 Basis Dimension        Dim             ....  140

ORBITAL ENERGIES
----------------

  NO   OCC          E(Eh)            E(eV)
   0   2.0000     -89.147034     -2425.8141
   1   2.0000     -24.819173      -675.3640
   2   2.0000     -19.161153      -521.4015
   3   2.0000     -19.145448      -520.9741
   4   2.0000     -10.243152      -278.7303
   5   2.0000      -8.201274      -223.1680
   6   2.0000      -6.174278      -168.0106
   7   2.0000      -6.167852      -167.8358
   8   2.0000      -6.166727      -167.8052
   9   2.0000      -1.379833       -37.5472
  10   2.0000      -1.117053       -30.3966
  11   2.0000      -1.011200       -27.5162
  12   2.0000      -0.798939       -21.7402
  13   2.0000      -0.722542       -19.6614
  14   2.0000      -0.608632       -16.5617
  15   2.0000      -0.593476       -16.1493
  16   2.0000      -0.560415       -15.2497
  17   2.0000      -0.483175       -13.1479
  18   2.0000      -0.480693       -13.0803
  19   2.0000      -0.468785       -12.7563
  20   2.0000      -0.445560       -12.1243
  21   2.0000      -0.394909       -10.7460
  22   2.0000      -0.346787        -9.4365
  23   2.0000      -0.331486        -9.0202
  24   2.0000      -0.315104        -8.5744
  25   0.0000      -0.012412        -0.3378
  26   0.0000       0.027315         0.7433
  27   0.0000       0.033576         0.9136
  28   0.0000       0.044977         1.2239
  29   0.0000       0.045387         1.2350

MULLIKEN ATOMIC CHARGES
-----------------------
   0 C :    0.681225
   1 S :    1.271170
   2 O :   -0.613331
   3 F :   -0.380031
   4 O :   -0.660429
   5 H :   -0.106790
   6 H :   -0.099939
   7 H :   -0.091876
Sum of atomic charges:    0.0000000

LOEWDIN ATOMIC CHARGES
----------------------
   0 C :    0.131995
   1 S :    1.107231
   2 O :   -0.459322
   3 F :   -0.259697
   4 O :   -0.482706
   5 H :   -0.003207
   6 H :   -0.018409
   7 H :   -0.015887

  Mayer bond orders larger than 0.100000
B(  0-C ,  1-S ) :   0.9815 B(  0-C ,  5-H ) :   0.8866 B(  0-C ,  6-H ) :   0.8850
B(  0-C ,  7-H ) :   0.8898 B(  1-S ,  2-O ) :   1.5485 B(  1-S ,  3-F ) :   0.7077
B(  1-S ,  4-O ) :   1.5067 B(  1-S ,  5-H ) :   0.1279 B(  1-S ,  7-H ) :   0.1022

Dispersion correction           -0.010393513
FINAL SINGLE POINT ENERGY      -687.808596519583

DIPOLE MOMENT
-------------
                                X             Y             Z
Electronic contribution:     -1.73430      -4.48806       2.57083
Nuclear contribution   :      1.52593       5.92196      -1.79430
                        -----------------------------------------
Total Dipole Moment    :     -0.20837       1.43390       0.77653
                        -----------------------------------------
Magnitude (a.u.)       :      1.64393
Magnitude (Debye)      :      4.17853

Rotational constants in cm-1:     0.162837     0.155564     0.147443
Rotational constants in MHz :  4881.731197  4663.686927  4420.233103

                             ****ORCA TERMINATED NORMALLY****
TOTAL RUN TIME: 0 days 0 hours 0 minutes 6 seconds 899 msec
