                         Program Version 5.0.0 -  RELEASE  -
|  1> !B3LYP D3BJ RIJCOSX def2-SVPD def2/J TightSCF
|  2> *xyz 0 1
|  3> C         -0.46129        2.23469       -4.98962
|  4> C         -0.42384        2.39877       -6.47432
|  5> N         -0.95947        3.49265       -7.00740
|  6> C          0.14558        1.48689       -7.20399
|  7> H          0.56537        0.69681       -6.72386
|  8> H          0.22068        1.58177       -8.20752
|  9> H         -1.40624        4.18151       -6.40326
| 10> H         -0.93421        3.68160       -7.99947
| 11> H          0.00645        1.31059       -4.72100
| 12> H         -1.47822        2.22967       -4.65687
| 13> H          0.06109        3.04632       -4.52779
| 14> *
| 15>
| 16> %MaxCore 64000
| 17>
| 18> %pal nprocs 8
| 19> end
| 20>
| 21> %scf
| 22>   MaxIter 150
| 23> end
| 24>
| 25>
| 26>                          ****END OF INPUT****

CARTESIAN COORDINATES (ANGSTROEM)
---------------------------------
  C     -0.461290    2.234690   -4.989620
  C     -0.423840    2.398770   -6.474320
  N     -0.959470    3.492650   -7.007400
  C      0.145580    1.486890   -7.203990
  H      0.565370    0.696810   -6.723860
  H      0.220680    1.581770   -8.207520
  H     -1.406240    4.181510   -6.403260
  H     -0.934210    3.681600   -7.999470
  H      0.006450    1.310590   -4.721000
  H     -1.478220    2.229670   -4.656870
  H      0.061090    3.046320   -4.527790

 Total Charge           Charge          ....    0
 Multiplicity           Mult            ....    1
 Number of Electrons    NEL             ....   32
 Basis Dimension        Dim             ....  136

ORBITAL ENERGIES
----------------

  NO   OCC          E(Eh)            E(eV)
   0   2.0000     -14.330433      -389.9509
   1   2.0000     -10.202118      -277.6137
   2   2.0000     -10.172997      -276.8213
   3   2.0000     -10.115956      -275.2691
   4   2.0000      -0.915124       -24.9018
   5   2.0000      -0.753590       -20.5062
   6   2.0000      -0.683914       -18.6103
   7   2.0000      -0.569643       -15.5008
   8   2.0000      -0.521924       -14.2023
   9   2.0000      -0.475218       -12.9313
  10   2.0000      -0.431526       -11.7424
  11   2.0000      -0.396420       -10.7871
  12   2.0000      -0.396062       -10.7774
  13   2.0000      -0.355238        -9.6665
  14   2.0000      -0.332609        -9.0508
  15   2.0000      -0.194464        -5.2916
  16   0.0000       0.017019         0.4631
  17   0.0000       0.050053         1.3620
  18   0.0000       0.052998         1.4422
  19   0.0000       0.062248         1.6938
  20   0.0000       0.088790         2.4161

MULLIKEN ATOMIC CHARGES
-----------------------
   0 C :    1.075862
   1 C :   -0.455928
   2 N :    0.344987
   3 C :    0.544426
   4 H :   -0.172034
   5 H :   -0.548820
   6 H :   -0.197409
   7 H :   -0.257274
   8 H :   -0.067326
   9 H :   -0.127801
  10 H :   -0.138682
Sum of atomic charges:    0.0000000

LOEWDIN ATOMIC CHARGES
----------------------
   0 C :    0.170204
   1 C :   -0.294890
   2 N :    0.168388
   3 C :    0.172791
   4 H :   -0.083662
   5 H :   -0.084468
   6 H :   -0.000591
   7 H :   -0.000267
   8 H :   -0.017514
   9 H :   -0.015431
  10 H :   -0.014560

  Mayer bond orders larger than 0.100000
B(  0-C ,  1-C ) :   1.2468 B(  0-C ,  8-H ) :   0.7603 B(  0-C ,  9-H ) :   0.6019
B(  0-C , 10-H ) :   0.5969 B(  1-C ,  2-N ) :   1.1954 B(  1-C ,  3-C ) :   1.6681
B(  1-C ,  5-H ) :   0.1849 B(  1-C ,  8-H ) :   0.2561 B(  1-C ,  9-H ) :   0.3154
B(  1-C , 10-H ) :   0.3228 B(  2-N ,  3-C ) :   0.2745 B(  2-N ,  6-H ) :   1.1560
B(  2-N ,  7-H ) :   1.2222 B(  3-C ,  4-H ) :   0.8925 B(  3-C ,  5-H ) :   0.6663
B(  6-H ,  7-H ) :  -0.1410

Dispersion correction           -0.012066151
FINAL SINGLE POINT ENERGY      -173.034955650892

DIPOLE MOMENT
-------------
                                X             Y             Z
Electronic contribution:     -0.44230       0.95160      -1.40239
Nuclear contribution   :      0.12666      -0.32199       1.52310
                        -----------------------------------------
Total Dipole Moment    :     -0.31564       0.62960       0.12071
                        -----------------------------------------
Magnitude (a.u.)       :      0.71456
Magnitude (Debye)      :      1.81627

Rotational constants in cm-1:     0.352483     0.305471     0.168700
Rotational constants in MHz : 10567.165953  9157.779739  5057.501411

                             ****ORCA TERMINATED NORMALLY****
TOTAL RUN TIME: 0 days 0 hours 0 minutes 6 seconds 689 msec
