                         Program Version 5.0.0 -  RELEASE  -
|  1> !B3LYP D3BJ RIJCOSX def2-SVPD def2/J TightSCF
|  2> *xyz 0 1
|  3> C          2.09343        1.86104       -4.65684
|  4> S          1.87964        0.07859       -4.46297
|  5> O          3.20757       -0.46611       -4.42026
|  6> O          1.07506       -0.05616       -3.26876
|  7> F          1.13166       -0.31996       -5.67903
|  8> H          2.68437        2.05681       -5.52711
|  9> H          2.58708        2.25699       -3.79404
| 10> H          1.13553        2.32556       -4.76426
| 11> *
| 12>
| 13> %MaxCore 64000
| 14>
| 15> %pal nprocs 8
| 16> end
| 17>
| 18> %scf
| 19>   MaxIter 150
| 20> end
| 21>
| 22>
| 23>                          ****END OF INPUT****

CARTESIAN COORDINATES (ANGSTROEM)
---------------------------------
  C      2.093430    1.861040   -4.656840
  S      1.879640    0.078590   -4.462970
  O      3.207570   -0.466110   -4.420260
  O      1.075060   -0.056160   -3.268760
  F      1.131660   -0.319960   -5.679030
  H      2.684370    2.056810   -5.527110
  H      2.587080    2.256990   -3.794040
  H      1.135530    2.325560   -4.764260

 Total Charge           Charge          ....    0
 Multiplicity           Mult            ....    1
 Number of Electrons    NEL             ....   50
 Basis Dimension        Dim             ....  140

ORBITAL ENERGIES
----------------

  NO   OCC          E(Eh)            E(eV)
   0   2.0000     -89.145242     -2425.7654
   1   2.0000     -24.801778      -674.8907
   2   2.0000     -19.160797      -521.3918
   3   2.0000     -19.156490      -521.2746
   4   2.0000     -10.242299      -278.7071
   5   2.0000      -8.199420      -223.1176
   6   2.0000      -6.172206      -167.9543
   7   2.0000      -6.166192      -167.7906
   8   2.0000      -6.165078      -167.7603
   9   2.0000      -1.349783       -36.7295
  10   2.0000      -1.124807       -30.6076
  11   2.0000      -1.029973       -28.0270
  12   2.0000      -0.796305       -21.6686
  13   2.0000      -0.707791       -19.2600
  14   2.0000      -0.594595       -16.1797
  15   2.0000      -0.572689       -15.5837
  16   2.0000      -0.557361       -15.1666
  17   2.0000      -0.484647       -13.1879
  18   2.0000      -0.480758       -13.0821
  19   2.0000      -0.467586       -12.7237
  20   2.0000      -0.450475       -12.2580
  21   2.0000      -0.399604       -10.8738
  22   2.0000      -0.350193        -9.5292
  23   2.0000      -0.342740        -9.3264
  24   2.0000      -0.328275        -8.9328
  25   0.0000      -0.010452        -0.2844
  26   0.0000       0.028688         0.7806
  27   0.0000       0.032065         0.8725
  28   0.0000       0.045570         1.2400
  29   0.0000       0.046308         1.2601

MULLIKEN ATOMIC CHARGES
-----------------------
   0 C :    0.680281
   1 S :    1.278450
   2 O :   -0.623899
   3 O :   -0.636578
   4 F :   -0.397446
   5 H :   -0.099783
   6 H :   -0.107265
   7 H :   -0.093759
Sum of atomic charges:   -0.0000000

LOEWDIN ATOMIC CHARGES
----------------------
   0 C :    0.132347
   1 S :    1.105408
   2 O :   -0.459638
   3 O :   -0.466451
   4 F :   -0.274040
   5 H :   -0.016998
   6 H :   -0.004252
   7 H :   -0.016376

  Mayer bond orders larger than 0.100000
B(  0-C ,  1-S ) :   0.9812 B(  0-C ,  5-H ) :   0.8903 B(  0-C ,  6-H ) :   0.8823
B(  0-C ,  7-H ) :   0.8892 B(  1-S ,  2-O ) :   1.5449 B(  1-S ,  3-O ) :   1.5363
B(  1-S ,  4-F ) :   0.6654 B(  1-S ,  5-H ) :   0.1016 B(  1-S ,  6-H ) :   0.1222
B(  1-S ,  7-H ) :   0.1026 B(  2-O ,  3-O ) :   0.1017

Dispersion correction           -0.010394707
FINAL SINGLE POINT ENERGY      -687.823467584054

DIPOLE MOMENT
-------------
                                X             Y             Z
Electronic contribution:     -1.65120      -4.92954      -1.45391
Nuclear contribution   :      1.46938       6.18552       0.61372
                        -----------------------------------------
Total Dipole Moment    :     -0.18182       1.25598      -0.84019
                        -----------------------------------------
Magnitude (a.u.)       :      1.52199
Magnitude (Debye)      :      3.86859

Rotational constants in cm-1:     0.163578     0.153284     0.148718
Rotational constants in MHz :  4903.939615  4595.352658  4458.447794

                             ****ORCA TERMINATED NORMALLY****
TOTAL RUN TIME: 0 days 0 hours 0 minutes 7 seconds 108 msec
