                         Program Version 5.0.0 -  RELEASE  -
|  1> !B3LYP D3BJ RIJCOSX def2-SVPD def2/J TightSCF xyzfile
|  2>
|  3> *xyzfile 0 1 D5.xyz
|  4>
|  5> %MaxCore 64000
|  6>
|  7> %pal nprocs 4
|  8> end
|  9>
| 10> %scf
| 11>   MaxIter 150
| 12> end
| 13>
| 14>
| 15>                          ****END OF INPUT****

CARTESIAN COORDINATES (ANGSTROEM)
---------------------------------
  C     -0.461293    2.234686   -4.989619
  C      0.848883    2.667967   -4.302351
  C      2.093434    1.861037   -4.656845
  H      2.444814    2.041567   -5.674990
  H      2.901748    2.137864   -3.980338
  S      1.879644    0.078594   -4.462965
  C     -0.423841    2.398772   -6.474317
  C     -0.959467    3.492647   -7.007401
  N      0.145585    1.486891   -7.203987
  H      0.565371    0.696807   -6.723858
  H      0.220682    1.581768   -8.207520
  H     -1.406243    4.181507   -6.403261
  H     -0.934215    3.681601   -7.999468
  O      3.207574   -0.466111   -4.420259
  O      1.075064   -0.056160   -3.268758
  F      1.131661   -0.319960   -5.679031
  H      0.668432    2.559427   -3.232850
  H      1.034074    3.729426   -4.497081
  H     -1.288884    2.826737   -4.594997
  H     -0.651696    1.186343   -4.756552

 Total Charge           Charge          ....    0
 Multiplicity           Mult            ....    1
 Number of Electrons    NEL             ....   88
 Basis Dimension        Dim             ....  296

ORBITAL ENERGIES
----------------

  NO   OCC          E(Eh)            E(eV)
   0   2.0000     -89.150204     -2425.9004
   1   2.0000     -24.822307      -675.4493
   2   2.0000     -19.168358      -521.5975
   3   2.0000     -19.164336      -521.4881
   4   2.0000     -14.335861      -390.0986
   5   2.0000     -10.247982      -278.8618
   6   2.0000     -10.213339      -277.9191
   7   2.0000     -10.212075      -277.8847
   8   2.0000     -10.198433      -277.5135
   9   2.0000     -10.125550      -275.5302
  10   2.0000      -8.204567      -223.2576
  11   2.0000      -6.177772      -168.1057
  12   2.0000      -6.171260      -167.9285
  13   2.0000      -6.169594      -167.8832
  14   2.0000      -1.373631       -37.3784
  15   2.0000      -1.133894       -30.8548
  16   2.0000      -1.037514       -28.2322
  17   2.0000      -0.938726       -25.5440
  18   2.0000      -0.833835       -22.6898
  19   2.0000      -0.768341       -20.9076
  20   2.0000      -0.748841       -20.3770
  21   2.0000      -0.697647       -18.9839
  22   2.0000      -0.657937       -17.9034
  23   2.0000      -0.606563       -16.5054
  24   2.0000      -0.594976       -16.1901
  25   2.0000      -0.575655       -15.6644
  26   2.0000      -0.558738       -15.2040
  27   2.0000      -0.537645       -14.6301
  28   2.0000      -0.504852       -13.7377
  29   2.0000      -0.491377       -13.3710
  30   2.0000      -0.478981       -13.0337
  31   2.0000      -0.473780       -12.8922
  32   2.0000      -0.453031       -12.3276
  33   2.0000      -0.426210       -11.5978
  34   2.0000      -0.408798       -11.1240
  35   2.0000      -0.400139       -10.8883
  36   2.0000      -0.391917       -10.6646
  37   2.0000      -0.381418       -10.3789
  38   2.0000      -0.355645        -9.6776
  39   2.0000      -0.353768        -9.6265
  40   2.0000      -0.345042        -9.3891
  41   2.0000      -0.338108        -9.2004
  42   2.0000      -0.333087        -9.0638
  43   2.0000      -0.197767        -5.3815
  44   0.0000      -0.011127        -0.3028
  45   0.0000       0.017729         0.4824
  46   0.0000       0.018668         0.5080
  47   0.0000       0.025341         0.6896
  48   0.0000       0.034462         0.9378

MULLIKEN ATOMIC CHARGES
-----------------------
   0 C :    0.621077
   1 C :    0.348001
   2 C :    0.297993
   3 H :    0.072337
   4 H :   -0.229679
   5 S :    1.486318
   6 C :   -0.059875
   7 C :    0.488416
   8 N :    0.785394
   9 H :   -0.437522
  10 H :   -0.262076
  11 H :   -0.186940
  12 H :   -0.544528
  13 O :   -0.668138
  14 O :   -0.696826
  15 F :   -0.567040
  16 H :    0.092572
  17 H :   -0.283180
  18 H :   -0.073031
  19 H :   -0.183273
Sum of atomic charges:    0.0000000

LOEWDIN ATOMIC CHARGES
----------------------
   0 C :    0.032305
   1 C :   -0.007391
   2 C :   -0.027826
   3 H :    0.019013
   4 H :    0.028070
   5 S :    1.135824
   6 C :   -0.247436
   7 C :    0.187012
   8 N :    0.202820
   9 H :   -0.095400
  10 H :    0.020750
  11 H :   -0.084962
  12 H :   -0.091810
  13 O :   -0.444795
  14 O :   -0.447238
  15 F :   -0.275023
  16 H :    0.024498
  17 H :    0.034291
  18 H :    0.030744
  19 H :    0.006553

  Mayer bond orders larger than 0.100000
B(  0-C ,  1-C ) :   1.1478 B(  0-C ,  6-C ) :   1.1190 B(  0-C ,  8-N ) :   0.1205
B(  0-C , 16-H ) :   0.1579 B(  0-C , 17-H ) :   0.1216 B(  0-C , 18-H ) :   0.6813
B(  0-C , 19-H ) :   0.6698 B(  1-C ,  2-C ) :   1.3265 B(  1-C ,  3-H ) :   0.1450
B(  1-C ,  4-H ) :   0.2069 B(  1-C , 16-H ) :   0.7519 B(  1-C , 17-H ) :   0.8131
B(  1-C , 18-H ) :   0.1541 B(  1-C , 19-H ) :   0.1845 B(  2-C ,  3-H ) :   0.8651
B(  2-C ,  4-H ) :   0.7681 B(  2-C ,  5-S ) :   0.9612 B(  2-C , 15-F ) :   0.1027
B(  2-C , 16-H ) :   0.1559 B(  2-C , 17-H ) :   0.1198 B(  5-S , 13-O ) :   1.5526
B(  5-S , 14-O ) :   1.5237 B(  5-S , 15-F ) :   0.6348 B(  6-C ,  7-C ) :   1.5177
B(  6-C ,  8-N ) :   1.1702 B(  6-C , 10-H ) :  -0.1281 B(  6-C , 12-H ) :   0.1759
B(  6-C , 18-H ) :   0.1991 B(  6-C , 19-H ) :   0.1757 B(  7-C ,  8-N ) :   0.2063
B(  7-C , 11-H ) :   0.9193 B(  7-C , 12-H ) :   0.5573 B(  8-N ,  9-H ) :   0.9012
B(  8-N , 10-H ) :   1.2112 B(  9-H , 10-H ) :  -0.1966 B(  9-H , 15-F ) :   0.1377
B( 13-O , 14-O ) :   0.1097

Dispersion correction           -0.038033739
FINAL SINGLE POINT ENERGY      -898.921435854009

DIPOLE MOMENT
-------------
                                X             Y             Z
Electronic contribution:      6.40887     -13.37967       3.14917
Nuclear contribution   :     -6.26130      13.99605      -3.80018
                        -----------------------------------------
Total Dipole Moment    :      0.14756       0.61638      -0.65101
                        -----------------------------------------
Magnitude (a.u.)       :      0.90858
Magnitude (Debye)      :      2.30942

Rotational constants in cm-1:     0.079895     0.025630     0.022948
Rotational constants in MHz :  2395.188639   768.373696   687.955250

                             ****ORCA TERMINATED NORMALLY****
TOTAL RUN TIME: 0 days 0 hours 1 minutes 5 seconds 295 msec
