                         Program Version 5.0.0 -  RELEASE  -
|  1> !LC-BLYP RIJCOSX def2-TZVP def2/J TightSCF
|  2> *xyz -1 1
|  3> C         -2.79070       -0.78527        5.70281
|  4> C         -2.45380        0.05510        6.94145
|  5> C         -2.07842        1.48042        6.56410
|  6> H         -1.62558       -0.38216        7.49891
|  7> H         -3.32527        0.08775        7.59917
|  8> O         -0.90125        1.85816        6.82810
|  9> O         -2.93658        2.17731        5.96415
| 10> H         -1.94052       -0.82114        5.05412
| 11> H         -3.61590       -0.34261        5.18514
| 12> H         -3.05063       -1.77815        6.00536
| 13> *
| 14> %MaxCore 64000
| 15>
| 16> %pal nprocs 4
| 17> end
| 18>
| 19> %scf
| 20>   MaxIter 150
| 21> end
| 22>
| 23>
| 24>                          ****END OF INPUT****

CARTESIAN COORDINATES (ANGSTROEM)
---------------------------------
  C     -2.790700   -0.785270    5.702810
  C     -2.453800    0.055100    6.941450
  C     -2.078420    1.480420    6.564100
  H     -1.625580   -0.382160    7.498910
  H     -3.325270    0.087750    7.599170
  O     -0.901250    1.858160    6.828100
  O     -2.936580    2.177310    5.964150
  H     -1.940520   -0.821140    5.054120
  H     -3.615900   -0.342610    5.185140
  H     -3.050630   -1.778150    6.005360

 Total Charge           Charge          ....   -1
 Multiplicity           Mult            ....    1
 Number of Electrons    NEL             ....   40
 Basis Dimension        Dim             ....  185

ORBITAL ENERGIES
----------------

  NO   OCC          E(Eh)            E(eV)
   0   2.0000     -18.661798      -507.8133
   1   2.0000     -18.660056      -507.7659
   2   2.0000      -9.944777      -270.6111
   3   2.0000      -9.903207      -269.4800
   4   2.0000      -9.890754      -269.1411
   5   2.0000      -0.901987       -24.5443
   6   2.0000      -0.806845       -21.9554
   7   2.0000      -0.713407       -19.4128
   8   2.0000      -0.580486       -15.7958
   9   2.0000      -0.424116       -11.5408
  10   2.0000      -0.396718       -10.7952
  11   2.0000      -0.357875        -9.7383
  12   2.0000      -0.330340        -8.9890
  13   2.0000      -0.311347        -8.4722
  14   2.0000      -0.303240        -8.2516
  15   2.0000      -0.270560        -7.3623
  16   2.0000      -0.258641        -7.0380
  17   2.0000      -0.137535        -3.7425
  18   2.0000      -0.132915        -3.6168
  19   2.0000      -0.116803        -3.1784
  20   0.0000       0.246942         6.7196
  21   0.0000       0.288471         7.8497
  22   0.0000       0.311851         8.4859
  23   0.0000       0.314056         8.5459
  24   0.0000       0.333624         9.0784

MULLIKEN ATOMIC CHARGES
-----------------------
   0 C :   -0.380989
   1 C :   -0.170666
   2 C :    0.074668
   3 H :    0.060216
   4 H :    0.054719
   5 O :   -0.468646
   6 O :   -0.465051
   7 H :    0.108516
   8 H :    0.115070
   9 H :    0.072163
Sum of atomic charges:   -1.0000000

LOEWDIN ATOMIC CHARGES
----------------------
   0 C :   -0.336278
   1 C :   -0.299442
   2 C :   -0.719744
   3 H :    0.122824
   4 H :    0.124343
   5 O :   -0.114365
   6 O :   -0.104898
   7 H :    0.113789
   8 H :    0.116008
   9 H :    0.097763

  Mayer bond orders larger than 0.100000
B(  0-C ,  1-C ) :   0.9326 B(  0-C ,  7-H ) :   0.9836 B(  0-C ,  8-H ) :   0.9707
B(  0-C ,  9-H ) :   0.9791 B(  1-C ,  2-C ) :   0.9157 B(  1-C ,  3-H ) :   0.9631
B(  1-C ,  4-H ) :   0.9622 B(  2-C ,  5-O ) :   1.9645 B(  2-C ,  6-O ) :   1.9248

FINAL SINGLE POINT ENERGY      -267.346828559697

DIPOLE MOMENT
-------------
                                X             Y             Z
Electronic contribution:      1.65000       5.58243       0.67634
Nuclear contribution   :     -2.24498      -7.51881      -0.57245
                        -----------------------------------------
Total Dipole Moment    :     -0.59498      -1.93638       0.10389
                        -----------------------------------------
Magnitude (a.u.)       :      2.02838
Magnitude (Debye)      :      5.15574

Rotational constants in cm-1:     0.305589     0.135336     0.107479
Rotational constants in MHz :  9161.317320  4057.276612  3222.126231

                             ****ORCA TERMINATED NORMALLY****
TOTAL RUN TIME: 0 days 0 hours 0 minutes 23 seconds 225 msec
