                         Program Version 5.0.0 -  RELEASE  -
|  1> !LC-BLYP RIJCOSX def2-TZVP def2/J TightSCF
|  2> *xyz 1 1
|  3> C         -0.69912        3.48945        3.75516
|  4> H         -0.96672        4.34901        3.14049
|  5> N         -1.08067        3.79296        5.15686
|  6> C          0.77696        3.13839        3.61741
|  7> H         -1.33146        2.65651        3.44632
|  8> H         -0.87449        4.76274        5.42734
|  9> H         -0.68079        3.13476        5.83900
| 10> H         -2.05755        3.53169        5.34620
| 11> H          0.99957        2.92898        2.59199
| 12> H          0.99576        2.27685        4.21303
| 13> H          1.37223        3.96279        3.95046
| 14> *
| 15> %MaxCore 64000
| 16>
| 17> %pal nprocs 4
| 18> end
| 19>
| 20> %scf
| 21>   MaxIter 150
| 22> end
| 23>
| 24>
| 25>                          ****END OF INPUT****

CARTESIAN COORDINATES (ANGSTROEM)
---------------------------------
  C     -0.699120    3.489450    3.755160
  H     -0.966720    4.349010    3.140490
  N     -1.080670    3.792960    5.156860
  C      0.776960    3.138390    3.617410
  H     -1.331460    2.656510    3.446320
  H     -0.874490    4.762740    5.427340
  H     -0.680790    3.134760    5.839000
  H     -2.057550    3.531690    5.346200
  H      0.999570    2.928980    2.591990
  H      0.995760    2.276850    4.213030
  H      1.372230    3.962790    3.950460

 Total Charge           Charge          ....    1
 Multiplicity           Mult            ....    1
 Number of Electrons    NEL             ....   26
 Basis Dimension        Dim             ....  141

ORBITAL ENERGIES
----------------

  NO   OCC          E(Eh)            E(eV)
   0   2.0000     -14.503771      -394.6677
   1   2.0000     -10.322257      -280.8829
   2   2.0000     -10.240723      -278.6642
   3   2.0000      -1.319544       -35.9066
   4   2.0000      -1.075922       -29.2773
   5   2.0000      -0.954288       -25.9675
   6   2.0000      -0.920367       -25.0445
   7   2.0000      -0.871849       -23.7242
   8   2.0000      -0.802190       -21.8287
   9   2.0000      -0.747073       -20.3289
  10   2.0000      -0.681810       -18.5530
  11   2.0000      -0.667261       -18.1571
  12   2.0000      -0.647945       -17.6315
  13   0.0000      -0.131934        -3.5901
  14   0.0000      -0.068629        -1.8675
  15   0.0000      -0.064869        -1.7652
  16   0.0000      -0.045624        -1.2415
  17   0.0000      -0.007427        -0.2021

MULLIKEN ATOMIC CHARGES
-----------------------
   0 C :   -0.247154
   1 H :    0.214348
   2 N :   -0.294625
   3 C :   -0.403739
   4 H :    0.201964
   5 H :    0.341523
   6 H :    0.323998
   7 H :    0.332833
   8 H :    0.196491
   9 H :    0.166977
  10 H :    0.167386
Sum of atomic charges:    1.0000000

LOEWDIN ATOMIC CHARGES
----------------------
   0 C :   -0.291143
   1 H :    0.158635
   2 N :    0.162938
   3 C :   -0.290053
   4 H :    0.156748
   5 H :    0.227159
   6 H :    0.225434
   7 H :    0.228594
   8 H :    0.152049
   9 H :    0.134145
  10 H :    0.135494

  Mayer bond orders larger than 0.100000
B(  0-C ,  1-H ) :   0.9561 B(  0-C ,  2-N ) :   0.8350 B(  0-C ,  3-C ) :   0.9551
B(  0-C ,  4-H ) :   0.9540 B(  2-N ,  5-H ) :   0.8706 B(  2-N ,  6-H ) :   0.8774
B(  2-N ,  7-H ) :   0.8814 B(  3-C ,  8-H ) :   0.9585 B(  3-C ,  9-H ) :   0.9560
B(  3-C , 10-H ) :   0.9551

FINAL SINGLE POINT ENERGY      -135.186084182154

DIPOLE MOMENT
-------------
                                X             Y             Z
Electronic contribution:     -1.34526       0.57354       1.11213
Nuclear contribution   :      0.33986      -0.24565       0.10678
                        -----------------------------------------
Total Dipole Moment    :     -1.00540       0.32788       1.21891
                        -----------------------------------------
Magnitude (a.u.)       :      1.61371
Magnitude (Debye)      :      4.10174

Rotational constants in cm-1:     1.016237     0.277523     0.247812
Rotational constants in MHz : 30466.024354  8319.937961  7429.230177

                             ****ORCA TERMINATED NORMALLY****
TOTAL RUN TIME: 0 days 0 hours 0 minutes 13 seconds 735 msec
