                         Program Version 5.0.0 -  RELEASE  -
|  1> !LC-BLYP RIJCOSX def2-TZVP def2/J TightSCF xyzfile
|  2>
|  3> *xyzfile 0 1 B.xyz
|  4>
|  5> %MaxCore 64000
|  6>
|  7> %pal nprocs 18
|  8> end
|  9>
| 10> %scf
| 11>   MaxIter 150
| 12> end
| 13>
| 14>
| 15>                          ****END OF INPUT****

CARTESIAN COORDINATES (ANGSTROEM)
---------------------------------
  C     -0.699123    3.489451    3.755163
  H     -0.966716    4.349013    3.140491
  N     -1.080669    3.792957    5.156857
  C      0.776956    3.138391    3.617408
  H     -1.331455    2.656510    3.446323
  H      1.371398    3.888342    4.149744
  H      1.046926    3.232057    2.561331
  C      1.118917    1.731170    4.115155
  H      2.200573    1.654226    4.254882
  C      0.659466    0.635182    3.153306
  H      0.677024    1.576674    5.103150
  H      1.312288    0.638870    2.274207
  H     -0.339563    0.868049    2.772876
  C      0.639957   -0.771175    3.755619
  C     -0.341821   -0.965537    4.915046
  H      1.648266   -1.028665    4.097015
  H      0.398568   -1.482386    2.958453
  H     -0.279892   -2.005646    5.252547
  C     -1.789164   -0.639231    4.557496
  H     -0.032380   -0.352918    5.765118
  H     -2.107151   -1.270102    3.719619
  H     -1.856352    0.391636    4.197604
  C     -2.790700   -0.785275    5.702812
  H     -2.867308   -1.835651    6.001675
  H     -3.774554   -0.486577    5.334807
  C     -2.453797    0.055101    6.941445
  C     -2.078419    1.480421    6.564098
  H     -1.625584   -0.382163    7.498914
  H     -3.325274    0.087746    7.599175
  H     -0.874488    4.762737    5.427344
  H     -0.680793    3.134762    5.839000
  H     -2.057550    3.531691    5.346197
  O     -0.901252    1.858156    6.828104
  O     -2.936582    2.177309    5.964151

 Total Charge           Charge          ....    0
 Multiplicity           Mult            ....    1
 Number of Electrons    NEL             ....  104
 Basis Dimension        Dim             ....  529

ORBITAL ENERGIES
----------------

  NO   OCC          E(Eh)            E(eV)
   0   2.0000     -18.872634      -513.5505
   1   2.0000     -18.871061      -513.5077
   2   2.0000     -14.248333      -387.7168
   3   2.0000     -10.144751      -276.0527
   4   2.0000     -10.137844      -275.8648
   5   2.0000     -10.090994      -274.5899
   6   2.0000     -10.066031      -273.9106
   7   2.0000     -10.062954      -273.8269
   8   2.0000     -10.056541      -273.6524
   9   2.0000     -10.047477      -273.4058
  10   2.0000     -10.047202      -273.3983
  11   2.0000     -10.045778      -273.3595
  12   2.0000     -10.040244      -273.2089
  13   2.0000      -1.123487       -30.5716
  14   2.0000      -1.082518       -29.4568
  15   2.0000      -1.020798       -27.7773
  16   2.0000      -0.933226       -25.3944
  17   2.0000      -0.904459       -24.6116
  18   2.0000      -0.876145       -23.8411
  19   2.0000      -0.828638       -22.5484
  20   2.0000      -0.797008       -21.6877
  21   2.0000      -0.758423       -20.6377
  22   2.0000      -0.719964       -19.5912
  23   2.0000      -0.702689       -19.1211
  24   2.0000      -0.684405       -18.6236
  25   2.0000      -0.659431       -17.9440
  26   2.0000      -0.650925       -17.7126
  27   2.0000      -0.606352       -16.4997
  28   2.0000      -0.588041       -16.0014
  29   2.0000      -0.581468       -15.8225
  30   2.0000      -0.580181       -15.7875
  31   2.0000      -0.552652       -15.0384
  32   2.0000      -0.547286       -14.8924
  33   2.0000      -0.537681       -14.6310
  34   2.0000      -0.524772       -14.2798
  35   2.0000      -0.510744       -13.8981
  36   2.0000      -0.502507       -13.6739
  37   2.0000      -0.500446       -13.6178
  38   2.0000      -0.488195       -13.2845
  39   2.0000      -0.481601       -13.1050
  40   2.0000      -0.462848       -12.5947
  41   2.0000      -0.456082       -12.4106
  42   2.0000      -0.449338       -12.2271
  43   2.0000      -0.433991       -11.8095
  44   2.0000      -0.422483       -11.4964
  45   2.0000      -0.418348       -11.3838
  46   2.0000      -0.403902       -10.9907
  47   2.0000      -0.397759       -10.8236
  48   2.0000      -0.391502       -10.6533
  49   2.0000      -0.347461        -9.4549
  50   2.0000      -0.333003        -9.0615
  51   2.0000      -0.331502        -9.0206
  52   0.0000       0.064990         1.7685
  53   0.0000       0.100879         2.7451
  54   0.0000       0.109478         2.9791
  55   0.0000       0.113577         3.0906
  56   0.0000       0.123692         3.3658

MULLIKEN ATOMIC CHARGES
-----------------------
   0 C :   -0.249315
   1 H :    0.164915
   2 N :   -0.273195
   3 C :   -0.243961
   4 H :    0.180004
   5 H :    0.138053
   6 H :    0.139409
   7 C :   -0.293901
   8 H :    0.132479
   9 C :   -0.288641
  10 H :    0.177581
  11 H :    0.131731
  12 H :    0.132924
  13 C :   -0.221905
  14 C :   -0.295996
  15 H :    0.125901
  16 H :    0.127475
  17 H :    0.123808
  18 C :   -0.276247
  19 H :    0.176961
  20 H :    0.122926
  21 H :    0.115175
  22 C :   -0.217296
  23 H :    0.118783
  24 H :    0.130520
  25 C :   -0.260603
  26 C :    0.205640
  27 H :    0.138293
  28 H :    0.129492
  29 H :    0.261707
  30 H :    0.281499
  31 H :    0.290878
  32 O :   -0.467406
  33 O :   -0.457687
Sum of atomic charges:   -0.0000000

LOEWDIN ATOMIC CHARGES
----------------------
   0 C :   -0.286337
   1 H :    0.138571
   2 N :    0.129293
   3 C :   -0.280787
   4 H :    0.146172
   5 H :    0.142081
   6 H :    0.149749
   7 C :   -0.273888
   8 H :    0.142734
   9 C :   -0.280646
  10 H :    0.149377
  11 H :    0.139257
  12 H :    0.135700
  13 C :   -0.276880
  14 C :   -0.277190
  15 H :    0.140721
  16 H :    0.140320
  17 H :    0.140088
  18 C :   -0.278931
  19 H :    0.145852
  20 H :    0.139008
  21 H :    0.136634
  22 C :   -0.272273
  23 H :    0.137656
  24 H :    0.144401
  25 C :   -0.248101
  26 C :   -0.640159
  27 H :    0.142768
  28 H :    0.148139
  29 H :    0.188859
  30 H :    0.163321
  31 H :    0.177137
  32 O :   -0.055303
  33 O :   -0.047342

  Mayer bond orders larger than 0.100000
B(  0-C ,  1-H ) :   0.9867 B(  0-C ,  2-N ) :   0.8746 B(  0-C ,  3-C ) :   0.9142
B(  0-C ,  4-H ) :   0.9769 B(  2-N , 29-H ) :   0.9038 B(  2-N , 30-H ) :   0.7585
B(  2-N , 31-H ) :   0.7853 B(  3-C ,  5-H ) :   0.9813 B(  3-C ,  6-H ) :   0.9728
B(  3-C ,  7-C ) :   0.9276 B(  7-C ,  8-H ) :   0.9777 B(  7-C ,  9-C ) :   0.8542
B(  7-C , 10-H ) :   0.9872 B(  9-C , 11-H ) :   0.9783 B(  9-C , 12-H ) :   0.9978
B(  9-C , 13-C ) :   0.9311 B( 13-C , 14-C ) :   0.9335 B( 13-C , 15-H ) :   0.9900
B( 13-C , 16-H ) :   0.9885 B( 14-C , 17-H ) :   0.9814 B( 14-C , 18-C ) :   0.8575
B( 14-C , 19-H ) :   0.9830 B( 18-C , 20-H ) :   0.9808 B( 18-C , 21-H ) :   0.9878
B( 18-C , 22-C ) :   0.9539 B( 22-C , 23-H ) :   0.9816 B( 22-C , 24-H ) :   0.9783
B( 22-C , 25-C ) :   0.9144 B( 25-C , 26-C ) :   0.9202 B( 25-C , 27-H ) :   0.9873
B( 25-C , 28-H ) :   0.9646 B( 26-C , 32-O ) :   1.6877 B( 26-C , 33-O ) :   1.7541
B( 30-H , 32-O ) :   0.2358 B( 31-H , 33-O ) :   0.1909

FINAL SINGLE POINT ENERGY      -597.621355766408

DIPOLE MOMENT
-------------
                                X             Y             Z
Electronic contribution:     -4.67496       4.85209       6.70804
Nuclear contribution   :      5.60885      -3.40606      -8.06960
                        -----------------------------------------
Total Dipole Moment    :      0.93389       1.44604      -1.36155
                        -----------------------------------------
Magnitude (a.u.)       :      2.19476
Magnitude (Debye)      :      5.57865

Rotational constants in cm-1:     0.028465     0.023505     0.015110
Rotational constants in MHz :   853.363165   704.655786   452.976312

                             ****ORCA TERMINATED NORMALLY****
TOTAL RUN TIME: 0 days 0 hours 1 minutes 9 seconds 676 msec
