                         Program Version 5.0.0 -  RELEASE  -
|  1> !LC-BLYP RIJCOSX def2-TZVP def2/J TightSCF
|  2> *xyz 0 1
|  3> C         -2.79070       -0.78527        5.70281
|  4> C         -2.45380        0.05510        6.94145
|  5> C         -2.07842        1.48042        6.56410
|  6> H         -1.62558       -0.38216        7.49891
|  7> H         -3.32527        0.08775        7.59917
|  8> F         -0.90125        1.85816        6.82810
|  9> O         -2.93658        2.17731        5.96415
| 10> H         -1.94052       -0.82114        5.05412
| 11> H         -3.61590       -0.34261        5.18514
| 12> H         -3.05063       -1.77815        6.00536
| 13> *
| 14> %MaxCore 64000
| 15>
| 16> %pal nprocs 4
| 17> end
| 18>
| 19> %scf
| 20>   MaxIter 150
| 21> end
| 22>
| 23>
| 24>                          ****END OF INPUT****

CARTESIAN COORDINATES (ANGSTROEM)
---------------------------------
  C     -2.790700   -0.785270    5.702810
  C     -2.453800    0.055100    6.941450
  C     -2.078420    1.480420    6.564100
  H     -1.625580   -0.382160    7.498910
  H     -3.325270    0.087750    7.599170
  F     -0.901250    1.858160    6.828100
  O     -2.936580    2.177310    5.964150
  H     -1.940520   -0.821140    5.054120
  H     -3.615900   -0.342610    5.185140
  H     -3.050630   -1.778150    6.005360

 Total Charge           Charge          ....    0
 Multiplicity           Mult            ....    1
 Number of Electrons    NEL             ....   40
 Basis Dimension        Dim             ....  185

ORBITAL ENERGIES
----------------

  NO   OCC          E(Eh)            E(eV)
   0   2.0000     -24.520914      -667.2480
   1   2.0000     -18.944589      -515.5085
   2   2.0000     -10.249384      -278.8999
   3   2.0000     -10.102144      -274.8933
   4   2.0000     -10.074301      -274.1357
   5   2.0000      -1.392744       -37.8985
   6   2.0000      -1.125341       -30.6221
   7   2.0000      -0.913366       -24.8540
   8   2.0000      -0.796653       -21.6780
   9   2.0000      -0.742496       -20.2044
  10   2.0000      -0.654220       -17.8022
  11   2.0000      -0.637160       -17.3380
  12   2.0000      -0.613177       -16.6854
  13   2.0000      -0.571259       -15.5447
  14   2.0000      -0.538024       -14.6404
  15   2.0000      -0.502549       -13.6751
  16   2.0000      -0.480517       -13.0755
  17   2.0000      -0.474609       -12.9148
  18   2.0000      -0.448949       -12.2165
  19   2.0000      -0.394636       -10.7386
  20   0.0000       0.051325         1.3966
  21   0.0000       0.098111         2.6697
  22   0.0000       0.136768         3.7217
  23   0.0000       0.152802         4.1580
  24   0.0000       0.163705         4.4546

MULLIKEN ATOMIC CHARGES
-----------------------
   0 C :   -0.403648
   1 C :   -0.256911
   2 C :    0.290328
   3 H :    0.131694
   4 H :    0.150736
   5 F :   -0.070370
   6 O :   -0.277232
   7 H :    0.137382
   8 H :    0.158467
   9 H :    0.139554
Sum of atomic charges:    0.0000000

LOEWDIN ATOMIC CHARGES
----------------------
   0 C :   -0.299044
   1 C :   -0.268705
   2 C :   -0.516143
   3 H :    0.143823
   4 H :    0.159220
   5 F :    0.326447
   6 O :    0.075249
   7 H :    0.124790
   8 H :    0.130248
   9 H :    0.124115

  Mayer bond orders larger than 0.100000
B(  0-C ,  1-C ) :   0.9367 B(  0-C ,  7-H ) :   0.9722 B(  0-C ,  8-H ) :   0.9662
B(  0-C ,  9-H ) :   0.9748 B(  1-C ,  2-C ) :   0.9584 B(  1-C ,  3-H ) :   0.9632
B(  1-C ,  4-H ) :   0.9481 B(  2-C ,  5-F ) :   1.2065 B(  2-C ,  6-O ) :   2.1093

FINAL SINGLE POINT ENERGY      -291.904438821126

DIPOLE MOMENT
-------------
                                X             Y             Z
Electronic contribution:      3.96998       7.42200       1.49856
Nuclear contribution   :     -3.69486      -8.49563      -1.04945
                        -----------------------------------------
Total Dipole Moment    :      0.27512      -1.07364       0.44911
                        -----------------------------------------
Magnitude (a.u.)       :      1.19586
Magnitude (Debye)      :      3.03964

Rotational constants in cm-1:     0.293725     0.129218     0.102393
Rotational constants in MHz :  8805.653529  3873.869810  3069.666716

                             ****ORCA TERMINATED NORMALLY****
TOTAL RUN TIME: 0 days 0 hours 0 minutes 23 seconds 775 msec
