                         Program Version 5.0.0 -  RELEASE  -
|  1> !LC-BLYP RIJCOSX def2-TZVP def2/J TightSCF
|  2> *xyz 0 1
|  3> C         -0.69912        3.48945        3.75516
|  4> H         -0.96672        4.34901        3.14049
|  5> C         -1.08067        3.79296        5.15686
|  6> C          0.77696        3.13839        3.61741
|  7> H         -1.33146        2.65651        3.44632
|  8> H         -0.87449        4.76274        5.42734
|  9> H         -0.68079        3.13476        5.83900
| 10> H         -2.05755        3.53169        5.34620
| 11> H          0.99957        2.92898        2.59199
| 12> H          0.99576        2.27685        4.21303
| 13> H          1.37223        3.96279        3.95046
| 14> *
| 15> %MaxCore 64000
| 16>
| 17> %pal nprocs 4
| 18> end
| 19>
| 20> %scf
| 21>   MaxIter 150
| 22> end
| 23>
| 24>
| 25>                          ****END OF INPUT****

CARTESIAN COORDINATES (ANGSTROEM)
---------------------------------
  C     -0.699120    3.489450    3.755160
  H     -0.966720    4.349010    3.140490
  C     -1.080670    3.792960    5.156860
  C      0.776960    3.138390    3.617410
  H     -1.331460    2.656510    3.446320
  H     -0.874490    4.762740    5.427340
  H     -0.680790    3.134760    5.839000
  H     -2.057550    3.531690    5.346200
  H      0.999570    2.928980    2.591990
  H      0.995760    2.276850    4.213030
  H      1.372230    3.962790    3.950460

 Total Charge           Charge          ....    0
 Multiplicity           Mult            ....    1
 Number of Electrons    NEL             ....   26
 Basis Dimension        Dim             ....  141

ORBITAL ENERGIES
----------------

  NO   OCC          E(Eh)            E(eV)
   0   2.0000     -10.054437      -273.5951
   1   2.0000     -10.044435      -273.3230
   2   2.0000     -10.027129      -272.8521
   3   2.0000      -0.901008       -24.5177
   4   2.0000      -0.800243       -21.7757
   5   2.0000      -0.695875       -18.9357
   6   2.0000      -0.579497       -15.7689
   7   2.0000      -0.545242       -14.8368
   8   2.0000      -0.502006       -13.6603
   9   2.0000      -0.497133       -13.5277
  10   2.0000      -0.438123       -11.9219
  11   2.0000      -0.425084       -11.5671
  12   2.0000      -0.422996       -11.5103
  13   0.0000       0.103395         2.8135
  14   0.0000       0.146675         3.9912
  15   0.0000       0.152538         4.1508
  16   0.0000       0.158461         4.3119
  17   0.0000       0.182549         4.9674

MULLIKEN ATOMIC CHARGES
-----------------------
   0 C :   -0.193785
   1 H :    0.107873
   2 C :   -0.403116
   3 C :   -0.378303
   4 H :    0.106739
   5 H :    0.129102
   6 H :    0.126723
   7 H :    0.133515
   8 H :    0.125656
   9 H :    0.124021
  10 H :    0.121575
Sum of atomic charges:    0.0000000

LOEWDIN ATOMIC CHARGES
----------------------
   0 C :   -0.331007
   1 H :    0.135841
   2 C :   -0.325037
   3 C :   -0.319234
   4 H :    0.136752
   5 H :    0.111890
   6 H :    0.116312
   7 H :    0.117050
   8 H :    0.118537
   9 H :    0.118982
  10 H :    0.119916

  Mayer bond orders larger than 0.100000
B(  0-C ,  1-H ) :   0.9797 B(  0-C ,  2-C ) :   0.9214 B(  0-C ,  3-C ) :   0.9446
B(  0-C ,  4-H ) :   0.9849 B(  2-C ,  5-H ) :   0.9769 B(  2-C ,  6-H ) :   0.9803
B(  2-C ,  7-H ) :   0.9858 B(  3-C ,  8-H ) :   0.9836 B(  3-C ,  9-H ) :   0.9777
B(  3-C , 10-H ) :   0.9755

FINAL SINGLE POINT ENERGY      -118.779725223458

DIPOLE MOMENT
-------------
                                X             Y             Z
Electronic contribution:     -0.14994       0.11725      -0.39659
Nuclear contribution   :      0.10024      -0.14218       0.41628
                        -----------------------------------------
Total Dipole Moment    :     -0.04970      -0.02494       0.01969
                        -----------------------------------------
Magnitude (a.u.)       :      0.05899
Magnitude (Debye)      :      0.14994

Rotational constants in cm-1:     1.024179     0.291605     0.259489
Rotational constants in MHz : 30704.103454  8742.106283  7779.285909

                             ****ORCA TERMINATED NORMALLY****
TOTAL RUN TIME: 0 days 0 hours 0 minutes 14 seconds 636 msec
