                         Program Version 5.0.0 -  RELEASE  -
|  1> !LC-BLYP RIJCOSX def2-TZVP def2/J TightSCF
|  2> *xyz 0 1
|  3> C         -2.79070       -0.78527        5.70281
|  4> C         -2.45380        0.05510        6.94145
|  5> C         -2.07842        1.48042        6.56410
|  6> H         -1.62558       -0.38216        7.49891
|  7> H         -3.32527        0.08775        7.59917
|  8> O         -0.90125        1.85816        6.82810
|  9> F         -2.93658        2.17731        5.96415
| 10> H         -1.94052       -0.82114        5.05412
| 11> H         -3.61590       -0.34261        5.18514
| 12> H         -3.05063       -1.77815        6.00536
| 13> *
| 14> %MaxCore 64000
| 15>
| 16> %pal nprocs 4
| 17> end
| 18>
| 19> %scf
| 20>   MaxIter 150
| 21> end
| 22>
| 23>
| 24>                          ****END OF INPUT****

CARTESIAN COORDINATES (ANGSTROEM)
---------------------------------
  C     -2.790700   -0.785270    5.702810
  C     -2.453800    0.055100    6.941450
  C     -2.078420    1.480420    6.564100
  H     -1.625580   -0.382160    7.498910
  H     -3.325270    0.087750    7.599170
  O     -0.901250    1.858160    6.828100
  F     -2.936580    2.177310    5.964150
  H     -1.940520   -0.821140    5.054120
  H     -3.615900   -0.342610    5.185140
  H     -3.050630   -1.778150    6.005360

 Total Charge           Charge          ....    0
 Multiplicity           Mult            ....    1
 Number of Electrons    NEL             ....   40
 Basis Dimension        Dim             ....  185

ORBITAL ENERGIES
----------------

  NO   OCC          E(Eh)            E(eV)
   0   2.0000     -24.524187      -667.3371
   1   2.0000     -18.942614      -515.4547
   2   2.0000     -10.249147      -278.8935
   3   2.0000     -10.101651      -274.8799
   4   2.0000     -10.078408      -274.2474
   5   2.0000      -1.398017       -38.0420
   6   2.0000      -1.120431       -30.4885
   7   2.0000      -0.916538       -24.9403
   8   2.0000      -0.794210       -21.6116
   9   2.0000      -0.749416       -20.3927
  10   2.0000      -0.658370       -17.9152
  11   2.0000      -0.644022       -17.5247
  12   2.0000      -0.606752       -16.5105
  13   2.0000      -0.571388       -15.5483
  14   2.0000      -0.538670       -14.6579
  15   2.0000      -0.505642       -13.7592
  16   2.0000      -0.484204       -13.1759
  17   2.0000      -0.477113       -12.9829
  18   2.0000      -0.450735       -12.2651
  19   2.0000      -0.388002       -10.5581
  20   0.0000       0.054645         1.4870
  21   0.0000       0.094555         2.5730
  22   0.0000       0.135556         3.6887
  23   0.0000       0.154901         4.2151
  24   0.0000       0.168278         4.5791

MULLIKEN ATOMIC CHARGES
-----------------------
   0 C :   -0.408843
   1 C :   -0.253736
   2 C :    0.284581
   3 H :    0.153965
   4 H :    0.138362
   5 O :   -0.281099
   6 F :   -0.067438
   7 H :    0.148561
   8 H :    0.141767
   9 H :    0.143881
Sum of atomic charges:    0.0000000

LOEWDIN ATOMIC CHARGES
----------------------
   0 C :   -0.304863
   1 C :   -0.265383
   2 C :   -0.519221
   3 H :    0.156292
   4 H :    0.151544
   5 O :    0.065244
   6 F :    0.338611
   7 H :    0.127308
   8 H :    0.124530
   9 H :    0.125938

  Mayer bond orders larger than 0.100000
B(  0-C ,  1-C ) :   0.9234 B(  0-C ,  7-H ) :   0.9694 B(  0-C ,  8-H ) :   0.9692
B(  0-C ,  9-H ) :   0.9746 B(  1-C ,  2-C ) :   0.9749 B(  1-C ,  3-H ) :   0.9677
B(  1-C ,  4-H ) :   0.9458 B(  2-C ,  5-O ) :   2.1234 B(  2-C ,  6-F ) :   1.1985

FINAL SINGLE POINT ENERGY      -291.901899826659

DIPOLE MOMENT
-------------
                                X             Y             Z
Electronic contribution:      0.57746       7.93003       0.06256
Nuclear contribution   :     -1.47571      -8.84360      -0.10748
                        -----------------------------------------
Total Dipole Moment    :     -0.89825      -0.91357      -0.04492
                        -----------------------------------------
Magnitude (a.u.)       :      1.28199
Magnitude (Debye)      :      3.25855

Rotational constants in cm-1:     0.283081     0.133379     0.103386
Rotational constants in MHz :  8486.545774  3998.599544  3099.448040

                             ****ORCA TERMINATED NORMALLY****
TOTAL RUN TIME: 0 days 0 hours 0 minutes 23 seconds 592 msec
