                         Program Version 5.0.0 -  RELEASE  -
|  1> !wB97X-D3 RIJCOSX def2-TZVPD def2/J TightSCF
|  2> *xyz -1 1
|  3> C         -5.57236       -5.80780       -0.81644
|  4> S         -6.90318       -4.61903       -0.52846
|  5> O         -8.11485       -5.25093       -0.95701
|  6> O         -6.53271       -3.42684       -1.31485
|  7> O         -6.86563       -4.29496        0.91412
|  8> C         -3.82708       -4.66110        0.78617
|  9> C         -4.45780       -5.94187        0.22919
| 10> H         -5.17735       -5.54257       -1.79771
| 11> H         -6.07420       -6.76889       -0.92127
| 12> H         -3.68106       -6.56224       -0.22988
| 13> H         -4.84394       -6.51273        1.07581
| 14> H         -3.43706       -4.07576       -0.02016
| 15> H         -3.03403       -4.91680        1.45744
| 16> H         -4.56975       -4.09647        1.31013
| 17> *
| 18> %MaxCore 64000
| 19>
| 20> %pal nprocs 18
| 21> end
| 22>
| 23> %scf
| 24>   MaxIter 150
| 25> end
| 26>
| 27>                          ****END OF INPUT****

CARTESIAN COORDINATES (ANGSTROEM)
---------------------------------
  C     -5.572360   -5.807800   -0.816440
  S     -6.903180   -4.619030   -0.528460
  O     -8.114850   -5.250930   -0.957010
  O     -6.532710   -3.426840   -1.314850
  O     -6.865630   -4.294960    0.914120
  C     -3.827080   -4.661100    0.786170
  C     -4.457800   -5.941870    0.229190
  H     -5.177350   -5.542570   -1.797710
  H     -6.074200   -6.768890   -0.921270
  H     -3.681060   -6.562240   -0.229880
  H     -4.843940   -6.512730    1.075810
  H     -3.437060   -4.075760   -0.020160
  H     -3.034030   -4.916800    1.457440
  H     -4.569750   -4.096470    1.310130

 Total Charge           Charge          ....   -1
 Multiplicity           Mult            ....    1
 Number of Electrons    NEL             ....   66
 Basis Dimension        Dim             ....  340

ORBITAL ENERGIES
----------------

  NO   OCC          E(Eh)            E(eV)
   0   2.0000     -88.937870     -2420.1225
   1   2.0000     -19.016604      -517.4681
   2   2.0000     -19.003762      -517.1187
   3   2.0000     -19.002417      -517.0821
   4   2.0000     -10.148223      -276.1472
   5   2.0000     -10.139519      -275.9103
   6   2.0000     -10.122140      -275.4374
   7   2.0000      -8.000695      -217.7100
   8   2.0000      -5.954994      -162.0436
   9   2.0000      -5.953701      -162.0084
  10   2.0000      -5.953367      -161.9993
  11   2.0000      -1.040418       -28.3112
  12   2.0000      -0.907662       -24.6987
  13   2.0000      -0.884942       -24.0805
  14   2.0000      -0.771925       -21.0051
  15   2.0000      -0.681723       -18.5506
  16   2.0000      -0.583148       -15.8683
  17   2.0000      -0.486791       -13.2463
  18   2.0000      -0.435001       -11.8370
  19   2.0000      -0.417927       -11.3724
  20   2.0000      -0.393186       -10.6991
  21   2.0000      -0.378742       -10.3061
  22   2.0000      -0.361823        -9.8457
  23   2.0000      -0.348666        -9.4877
  24   2.0000      -0.317940        -8.6516
  25   2.0000      -0.311143        -8.4666
  26   2.0000      -0.297376        -8.0920
  27   2.0000      -0.249882        -6.7996
  28   2.0000      -0.247255        -6.7282
  29   2.0000      -0.212514        -5.7828
  30   2.0000      -0.198527        -5.4022
  31   2.0000      -0.196896        -5.3578
  32   2.0000      -0.159213        -4.3324
  33   0.0000       0.172229         4.6866
  34   0.0000       0.182413         4.9637
  35   0.0000       0.183802         5.0015
  36   0.0000       0.188625         5.1327
  37   0.0000       0.209386         5.6977

MULLIKEN ATOMIC CHARGES
-----------------------
   0 C :   -0.720331
   1 S :    1.211774
   2 O :   -0.694848
   3 O :   -0.736730
   4 O :   -0.733603
   5 C :   -1.206407
   6 C :   -0.150918
   7 H :    0.310183
   8 H :    0.254169
   9 H :    0.254062
  10 H :    0.252671
  11 H :    0.297576
  12 H :    0.335448
  13 H :    0.326955
Sum of atomic charges:   -1.0000000

LOEWDIN ATOMIC CHARGES
----------------------
   0 C :   -0.273071
   1 S :    0.373327
   2 O :   -0.383205
   3 O :   -0.416366
   4 O :   -0.409799
   5 C :   -0.122110
   6 C :   -0.289379
   7 H :    0.084967
   8 H :    0.079585
   9 H :    0.091339
  10 H :    0.098377
  11 H :    0.065267
  12 H :    0.051419
  13 H :    0.049646

  Mayer bond orders larger than 0.100000
B(  0-C ,  1-S ) :   0.8672 B(  0-C ,  2-O ) :   0.1406 B(  0-C ,  3-O ) :   0.1639
B(  0-C ,  5-C ) :   0.1499 B(  0-C ,  6-C ) :   0.8337 B(  0-C ,  7-H ) :   0.9345
B(  0-C ,  8-H ) :   0.9954 B(  1-S ,  2-O ) :   1.4989 B(  1-S ,  3-O ) :   1.4891
B(  1-S ,  4-O ) :   1.4837 B(  5-C ,  6-C ) :   0.6421 B(  5-C , 11-H ) :   0.9682
B(  5-C , 12-H ) :   0.9047 B(  5-C , 13-H ) :   1.0036 B(  6-C ,  9-H ) :   0.9583
B(  6-C , 10-H ) :   0.9365

Dispersion correction           -0.004498576
FINAL SINGLE POINT ENERGY      -742.535637811706

DIPOLE MOMENT
-------------
                                X             Y             Z
Electronic contribution:     -9.86715       3.22734      -2.57897
Nuclear contribution   :     11.75544      -4.53524       2.70749
                        -----------------------------------------
Total Dipole Moment    :      1.88829      -1.30789       0.12853
                        -----------------------------------------
Magnitude (a.u.)       :      2.30060
Magnitude (Debye)      :      5.84765

Rotational constants in cm-1:     0.134586     0.054907     0.051455
Rotational constants in MHz :  4034.798577  1646.069534  1542.570153

                             ****ORCA TERMINATED NORMALLY****
TOTAL RUN TIME: 0 days 0 hours 0 minutes 40 seconds 143 msec
