                         Program Version 5.0.0 -  RELEASE  -
|  1> !wB97X-D3 RIJCOSX def2-TZVPD def2/J TightSCF
|  2> *xyz 1 1
|  3> C         -4.38262       -1.67089        1.21620
|  4> N         -5.76354       -1.91517        0.70501
|  5> C         -3.28173       -2.19127        0.29436
|  6> H         -5.84081       -2.11520       -0.30065
|  7> H         -6.40882       -1.14866        0.93612
|  8> H         -6.17478       -2.79061        1.05143
|  9> H         -4.32862       -2.13922        2.19810
| 10> H         -4.26158       -0.59740        1.35725
| 11> C         -3.47464       -3.60590       -0.25961
| 12> H         -2.35455       -2.12760        0.87143
| 13> H         -3.16661       -1.49969       -0.54504
| 14> H         -2.64612       -3.85908       -0.88759
| 15> H         -4.37934       -3.64545       -0.82956
| 16> H         -3.53324       -4.30157        0.55126
| 17> *
| 18> %MaxCore 64000
| 19>
| 20> %pal nprocs 18
| 21> end
| 22>
| 23> %scf
| 24>   MaxIter 150
| 25> end
| 26>
| 27>                          ****END OF INPUT****

CARTESIAN COORDINATES (ANGSTROEM)
---------------------------------
  C     -4.382620   -1.670890    1.216200
  N     -5.763540   -1.915170    0.705010
  C     -3.281730   -2.191270    0.294360
  H     -5.840810   -2.115200   -0.300650
  H     -6.408820   -1.148660    0.936120
  H     -6.174780   -2.790610    1.051430
  H     -4.328620   -2.139220    2.198100
  H     -4.261580   -0.597400    1.357250
  C     -3.474640   -3.605900   -0.259610
  H     -2.354550   -2.127600    0.871430
  H     -3.166610   -1.499690   -0.545040
  H     -2.646120   -3.859080   -0.887590
  H     -4.379340   -3.645450   -0.829560
  H     -3.533240   -4.301570    0.551260

 Total Charge           Charge          ....    1
 Multiplicity           Mult            ....    1
 Number of Electrons    NEL             ....   34
 Basis Dimension        Dim             ....  238

ORBITAL ENERGIES
----------------

  NO   OCC          E(Eh)            E(eV)
   0   2.0000     -14.751832      -401.4177
   1   2.0000     -10.522407      -286.3292
   2   2.0000     -10.451557      -284.4013
   3   2.0000     -10.421307      -283.5782
   4   2.0000      -1.326723       -36.1020
   5   2.0000      -1.089247       -29.6399
   6   2.0000      -1.002364       -27.2757
   7   2.0000      -0.902738       -24.5648
   8   2.0000      -0.892822       -24.2949
   9   2.0000      -0.869574       -23.6623
  10   2.0000      -0.789102       -21.4726
  11   2.0000      -0.735382       -20.0108
  12   2.0000      -0.705184       -19.1890
  13   2.0000      -0.681266       -18.5382
  14   2.0000      -0.622354       -16.9351
  15   2.0000      -0.619240       -16.8504
  16   2.0000      -0.601148       -16.3581
  17   0.0000      -0.118571        -3.2265
  18   0.0000      -0.068732        -1.8703
  19   0.0000      -0.062891        -1.7113
  20   0.0000      -0.051722        -1.4074
  21   0.0000      -0.029553        -0.8042

MULLIKEN ATOMIC CHARGES
-----------------------
   0 C :   -0.594813
   1 N :   -0.295047
   2 C :   -0.284606
   3 H :    0.334034
   4 H :    0.362891
   5 H :    0.410792
   6 H :    0.331803
   7 H :    0.307941
   8 C :   -1.237206
   9 H :    0.316888
  10 H :    0.336981
  11 H :    0.328049
  12 H :    0.331871
  13 H :    0.350422
Sum of atomic charges:    1.0000000

LOEWDIN ATOMIC CHARGES
----------------------
   0 C :   -0.154293
   1 N :    0.183202
   2 C :   -0.227224
   3 H :    0.170525
   4 H :    0.183520
   5 H :    0.181387
   6 H :    0.137908
   7 H :    0.135591
   8 C :   -0.083436
   9 H :    0.127374
  10 H :    0.119814
  11 H :    0.086047
  12 H :    0.058869
  13 H :    0.080715

  Mayer bond orders larger than 0.100000
B(  0-C ,  1-N ) :   1.0213 B(  0-C ,  2-C ) :   0.8894 B(  0-C ,  6-H ) :   0.9224
B(  0-C ,  7-H ) :   0.9068 B(  1-N ,  3-H ) :   0.8590 B(  1-N ,  4-H ) :   0.8592
B(  1-N ,  5-H ) :   0.8057 B(  2-C ,  8-C ) :   0.6799 B(  2-C ,  9-H ) :   0.9333
B(  2-C , 10-H ) :   0.9191 B(  8-C , 11-H ) :   0.9821 B(  8-C , 12-H ) :   0.8901
B(  8-C , 13-H ) :   0.9873

Dispersion correction           -0.002896416
FINAL SINGLE POINT ENERGY      -174.865787560803

DIPOLE MOMENT
-------------
                                X             Y             Z
Electronic contribution:     -1.72652       1.31454       0.78779
Nuclear contribution   :     -0.18358      -0.73024      -0.44649
                        -----------------------------------------
Total Dipole Moment    :     -1.91009       0.58430       0.34129
                        -----------------------------------------
Magnitude (a.u.)       :      2.02641
Magnitude (Debye)      :      5.15073

Rotational constants in cm-1:     0.423641     0.164544     0.133152
Rotational constants in MHz : 12700.438743  4932.897948  3991.802402

                             ****ORCA TERMINATED NORMALLY****
TOTAL RUN TIME: 0 days 0 hours 0 minutes 19 seconds 160 msec
