                         Program Version 5.0.0 -  RELEASE  -
|  1> !wB97X-D3 RIJCOSX def2-TZVPD def2/J TightSCF xyzfile
|  2>
|  3> *xyzfile 0 1 B.xyz
|  4>
|  5> %MaxCore 64000
|  6>
|  7> %pal nprocs 18
|  8> end
|  9>
| 10> %scf
| 11>   MaxIter 150
| 12> end
| 13>
| 14>
| 15>                          ****END OF INPUT****

CARTESIAN COORDINATES (ANGSTROEM)
---------------------------------
  C     -4.382623   -1.670889    1.216201
  N     -5.763539   -1.915170    0.705012
  C     -3.281728   -2.191272    0.294361
  C     -5.572364   -5.807798   -0.816445
  S     -6.903179   -4.619033   -0.528458
  H     -5.840812   -2.115205   -0.300646
  H     -6.408823   -1.148656    0.936124
  H     -6.174781   -2.790606    1.051433
  O     -8.114853   -5.250932   -0.957007
  O     -6.532715   -3.426838   -1.314848
  H     -4.328618   -2.139223    2.198103
  H     -4.261583   -0.597399    1.357248
  O     -6.865632   -4.294957    0.914118
  C     -3.474641   -3.605898   -0.259608
  H     -2.354548   -2.127602    0.871433
  H     -3.166611   -1.499693   -0.545037
  C     -3.827078   -4.661097    0.786174
  H     -2.560559   -3.889391   -0.788050
  H     -4.255932   -3.570040   -1.019300
  C     -4.457800   -5.941875    0.229195
  H     -5.177347   -5.542575   -1.797714
  H     -6.074202   -6.768894   -0.921272
  H     -4.530506   -4.253640    1.511979
  H     -2.933400   -4.932302    1.356825
  H     -3.681064   -6.562236   -0.229885
  H     -4.843942   -6.512728    1.075805

 Total Charge           Charge          ....    0
 Multiplicity           Mult            ....    1
 Number of Electrons    NEL             ....   98
 Basis Dimension        Dim             ....  560

ORBITAL ENERGIES
----------------

  NO   OCC          E(Eh)            E(eV)
   0   2.0000     -89.104955     -2424.6691
   1   2.0000     -19.185851      -522.0736
   2   2.0000     -19.182006      -521.9689
   3   2.0000     -19.170163      -521.6467
   4   2.0000     -14.530028      -395.3822
   5   2.0000     -10.364224      -282.0249
   6   2.0000     -10.310546      -280.5642
   7   2.0000     -10.284649      -279.8595
   8   2.0000     -10.281661      -279.7782
   9   2.0000     -10.280003      -279.7331
  10   2.0000     -10.278715      -279.6981
  11   2.0000      -8.168495      -222.2760
  12   2.0000      -6.122588      -166.6041
  13   2.0000      -6.122073      -166.5901
  14   2.0000      -6.120580      -166.5494
  15   2.0000      -1.213508       -33.0212
  16   2.0000      -1.125110       -30.6158
  17   2.0000      -1.073936       -29.2233
  18   2.0000      -1.070847       -29.1392
  19   2.0000      -0.950275       -25.8583
  20   2.0000      -0.909083       -24.7374
  21   2.0000      -0.857567       -23.3356
  22   2.0000      -0.804937       -21.9035
  23   2.0000      -0.749006       -20.3815
  24   2.0000      -0.705948       -19.2098
  25   2.0000      -0.696500       -18.9527
  26   2.0000      -0.679824       -18.4990
  27   2.0000      -0.644882       -17.5481
  28   2.0000      -0.614294       -16.7158
  29   2.0000      -0.592956       -16.1352
  30   2.0000      -0.586989       -15.9728
  31   2.0000      -0.571157       -15.5420
  32   2.0000      -0.549526       -14.9534
  33   2.0000      -0.541117       -14.7245
  34   2.0000      -0.531973       -14.4757
  35   2.0000      -0.519110       -14.1257
  36   2.0000      -0.517033       -14.0692
  37   2.0000      -0.483774       -13.1642
  38   2.0000      -0.472653       -12.8616
  39   2.0000      -0.468284       -12.7427
  40   2.0000      -0.440195       -11.9783
  41   2.0000      -0.433945       -11.8083
  42   2.0000      -0.426969       -11.6184
  43   2.0000      -0.417449       -11.3594
  44   2.0000      -0.414565       -11.2809
  45   2.0000      -0.376831       -10.2541
  46   2.0000      -0.370101       -10.0709
  47   2.0000      -0.360670        -9.8143
  48   2.0000      -0.338307        -9.2058
  49   0.0000       0.035778         0.9736
  50   0.0000       0.062066         1.6889
  51   0.0000       0.065004         1.7688
  52   0.0000       0.072729         1.9791
  53   0.0000       0.083259         2.2656

MULLIKEN ATOMIC CHARGES
-----------------------
   0 C :   -0.770192
   1 N :   -0.128540
   2 C :   -0.595447
   3 C :   -0.834336
   4 S :    1.236970
   5 H :    0.366439
   6 H :    0.342777
   7 H :    0.305495
   8 O :   -0.645744
   9 O :   -0.842472
  10 H :    0.387368
  11 H :    0.312778
  12 O :   -0.858545
  13 C :   -0.511847
  14 H :    0.314961
  15 H :    0.314012
  16 C :   -0.321325
  17 H :    0.329171
  18 H :    0.340945
  19 C :   -0.710664
  20 H :    0.429027
  21 H :    0.313971
  22 H :    0.272612
  23 H :    0.317525
  24 H :    0.300717
  25 H :    0.334343
Sum of atomic charges:   -0.0000000

LOEWDIN ATOMIC CHARGES
----------------------
   0 C :   -0.158626
   1 N :    0.156875
   2 C :   -0.181278
   3 C :   -0.233825
   4 S :    0.468677
   5 H :    0.103038
   6 H :    0.173305
   7 H :    0.064124
   8 O :   -0.313454
   9 O :   -0.391661
  10 H :    0.124279
  11 H :    0.120867
  12 O :   -0.373330
  13 C :   -0.200310
  14 H :    0.118451
  15 H :    0.116538
  16 C :   -0.210054
  17 H :    0.121470
  18 H :    0.085797
  19 C :   -0.214187
  20 H :    0.097814
  21 H :    0.096926
  22 H :    0.084533
  23 H :    0.117636
  24 H :    0.112771
  25 H :    0.113623

  Mayer bond orders larger than 0.100000
B(  0-C ,  1-N ) :   1.0117 B(  0-C ,  2-C ) :   0.8797 B(  0-C , 10-H ) :   0.8827
B(  0-C , 11-H ) :   0.8791 B(  0-C , 16-C ) :   0.2256 B(  1-N ,  5-H ) :   0.7945
B(  1-N ,  6-H ) :   0.8307 B(  1-N ,  7-H ) :   0.8879 B(  2-C , 13-C ) :   0.9441
B(  2-C , 14-H ) :   0.8979 B(  2-C , 15-H ) :   0.9299 B(  2-C , 16-C ) :   0.1854
B(  2-C , 18-H ) :   0.1075 B(  3-C ,  4-S ) :   0.8338 B(  3-C ,  8-O ) :   0.1995
B(  3-C ,  9-O ) :   0.1326 B(  3-C , 13-C ) :   0.1270 B(  3-C , 19-C ) :   0.9160
B(  3-C , 20-H ) :   0.8337 B(  3-C , 21-H ) :   0.9678 B(  4-S ,  8-O ) :   1.3657
B(  4-S ,  9-O ) :   1.4221 B(  4-S , 12-O ) :   1.4110 B(  4-S , 19-C ) :   0.1040
B(  9-O , 12-O ) :   0.1186 B( 13-C , 16-C ) :   0.3816 B( 13-C , 17-H ) :   0.8891
B( 13-C , 18-H ) :   1.0298 B( 13-C , 19-C ) :   0.3282 B( 13-C , 22-H ) :  -0.1054
B( 16-C , 19-C ) :   1.0092 B( 16-C , 22-H ) :   0.9968 B( 16-C , 23-H ) :   0.8765
B( 19-C , 24-H ) :   0.9061 B( 19-C , 25-H ) :   0.8998

Dispersion correction           -0.013284279
FINAL SINGLE POINT ENERGY      -916.385344088562

DIPOLE MOMENT
-------------
                                X             Y             Z
Electronic contribution:    -13.51221      -2.90783      -3.66466
Nuclear contribution   :     16.18863       5.15617       4.97370
                        -----------------------------------------
Total Dipole Moment    :      2.67642       2.24834       1.30905
                        -----------------------------------------
Magnitude (a.u.)       :      3.73254
Magnitude (Debye)      :      9.48736

Rotational constants in cm-1:     0.048546     0.025588     0.020102
Rotational constants in MHz :  1455.374030   767.095631   602.645620

                             ****ORCA TERMINATED NORMALLY****
TOTAL RUN TIME: 0 days 0 hours 1 minutes 49 seconds 88 msec
