                         Program Version 5.0.0 -  RELEASE  -
|  1> !wB97X-D3 RIJCOSX def2-TZVPD def2/J TightSCF
|  2> *xyz 0 1
|  3> C         -5.57236       -5.80780       -0.81644
|  4> S         -6.90318       -4.61903       -0.52846
|  5> F         -8.11485       -5.25093       -0.95701
|  6> O         -6.53271       -3.42684       -1.31485
|  7> O         -6.86563       -4.29496        0.91412
|  8> C         -3.82708       -4.66110        0.78617
|  9> C         -4.45780       -5.94187        0.22919
| 10> H         -5.17735       -5.54257       -1.79771
| 11> H         -6.07420       -6.76889       -0.92127
| 12> H         -3.68106       -6.56224       -0.22988
| 13> H         -4.84394       -6.51273        1.07581
| 14> H         -3.43706       -4.07576       -0.02016
| 15> H         -3.03403       -4.91680        1.45744
| 16> H         -4.56975       -4.09647        1.31013
| 17> *
| 18> %MaxCore 64000
| 19>
| 20> %pal nprocs 18
| 21> end
| 22>
| 23> %scf
| 24>   MaxIter 150
| 25> end
| 26>
| 27>                          ****END OF INPUT****

CARTESIAN COORDINATES (ANGSTROEM)
---------------------------------
  C     -5.572360   -5.807800   -0.816440
  S     -6.903180   -4.619030   -0.528460
  F     -8.114850   -5.250930   -0.957010
  O     -6.532710   -3.426840   -1.314850
  O     -6.865630   -4.294960    0.914120
  C     -3.827080   -4.661100    0.786170
  C     -4.457800   -5.941870    0.229190
  H     -5.177350   -5.542570   -1.797710
  H     -6.074200   -6.768890   -0.921270
  H     -3.681060   -6.562240   -0.229880
  H     -4.843940   -6.512730    1.075810
  H     -3.437060   -4.075760   -0.020160
  H     -3.034030   -4.916800    1.457440
  H     -4.569750   -4.096470    1.310130

 Total Charge           Charge          ....    0
 Multiplicity           Mult            ....    1
 Number of Electrons    NEL             ....   66
 Basis Dimension        Dim             ....  340

ORBITAL ENERGIES
----------------

  NO   OCC          E(Eh)            E(eV)
   0   2.0000     -89.198126     -2427.2044
   1   2.0000     -24.913674      -677.9355
   2   2.0000     -19.235303      -523.4192
   3   2.0000     -19.234986      -523.4106
   4   2.0000     -10.338320      -281.3200
   5   2.0000     -10.304510      -280.4000
   6   2.0000     -10.261562      -279.2313
   7   2.0000      -8.261497      -224.8068
   8   2.0000      -6.218773      -169.2214
   9   2.0000      -6.212564      -169.0525
  10   2.0000      -6.212097      -169.0397
  11   2.0000      -1.510692       -41.1080
  12   2.0000      -1.210436       -32.9376
  13   2.0000      -1.111987       -30.2587
  14   2.0000      -0.945373       -25.7249
  15   2.0000      -0.871854       -23.7243
  16   2.0000      -0.821487       -22.3538
  17   2.0000      -0.747878       -20.3508
  18   2.0000      -0.700006       -19.0481
  19   2.0000      -0.690626       -18.7929
  20   2.0000      -0.656199       -17.8561
  21   2.0000      -0.595367       -16.2008
  22   2.0000      -0.581788       -15.8313
  23   2.0000      -0.556347       -15.1390
  24   2.0000      -0.542580       -14.7643
  25   2.0000      -0.516676       -14.0595
  26   2.0000      -0.483586       -13.1591
  27   2.0000      -0.470267       -12.7966
  28   2.0000      -0.464928       -12.6513
  29   2.0000      -0.450287       -12.2529
  30   2.0000      -0.417082       -11.3494
  31   2.0000      -0.414279       -11.2731
  32   2.0000      -0.396578       -10.7914
  33   0.0000       0.047018         1.2794
  34   0.0000       0.062093         1.6896
  35   0.0000       0.065819         1.7910
  36   0.0000       0.075112         2.0439
  37   0.0000       0.093778         2.5518

MULLIKEN ATOMIC CHARGES
-----------------------
   0 C :   -0.708723
   1 S :    1.209401
   2 F :   -0.107871
   3 O :   -0.609596
   4 O :   -0.613204
   5 C :   -1.268531
   6 C :   -0.213093
   7 H :    0.364589
   8 H :    0.358101
   9 H :    0.282013
  10 H :    0.285283
  11 H :    0.327844
  12 H :    0.344612
  13 H :    0.349175
Sum of atomic charges:   -0.0000000

LOEWDIN ATOMIC CHARGES
----------------------
   0 C :   -0.233110
   1 S :    0.620574
   2 F :   -0.045550
   3 O :   -0.300862
   4 O :   -0.303059
   5 C :   -0.098976
   6 C :   -0.261410
   7 H :    0.104338
   8 H :    0.095115
   9 H :    0.112864
  10 H :    0.110074
  11 H :    0.074695
  12 H :    0.069450
  13 H :    0.055856

  Mayer bond orders larger than 0.100000
B(  0-C ,  1-S ) :   0.8479 B(  0-C ,  3-O ) :   0.1307 B(  0-C ,  5-C ) :   0.1498
B(  0-C ,  6-C ) :   0.9154 B(  0-C ,  7-H ) :   0.9003 B(  0-C ,  8-H ) :   0.8540
B(  1-S ,  2-F ) :   1.0104 B(  1-S ,  3-O ) :   1.6490 B(  1-S ,  4-O ) :   1.6452
B(  5-C ,  6-C ) :   0.6415 B(  5-C , 11-H ) :   0.9468 B(  5-C , 12-H ) :   0.9111
B(  5-C , 13-H ) :   0.9856 B(  6-C ,  9-H ) :   0.9277 B(  6-C , 10-H ) :   0.9174

Dispersion correction           -0.004490134
FINAL SINGLE POINT ENERGY      -767.047385680268

DIPOLE MOMENT
-------------
                                X             Y             Z
Electronic contribution:    -13.41945       2.44363      -3.89074
Nuclear contribution   :     13.81909      -4.05404       3.42760
                        -----------------------------------------
Total Dipole Moment    :      0.39964      -1.61041      -0.46314
                        -----------------------------------------
Magnitude (a.u.)       :      1.72268
Magnitude (Debye)      :      4.37870

Rotational constants in cm-1:     0.132500     0.053014     0.049575
Rotational constants in MHz :  3972.256497  1589.318970  1486.215991

                             ****ORCA TERMINATED NORMALLY****
TOTAL RUN TIME: 0 days 0 hours 0 minutes 28 seconds 687 msec
