                         Program Version 5.0.0 -  RELEASE  -
|  1> !wB97X-D3 RIJCOSX def2-TZVPD def2/J TightSCF
|  2> *xyz 0 1
|  3> C         -4.38262       -1.67089        1.21620
|  4> C         -5.76354       -1.91517        0.70501
|  5> C         -3.28173       -2.19127        0.29436
|  6> H         -5.84081       -2.11520       -0.30065
|  7> H         -6.40882       -1.14866        0.93612
|  8> H         -6.17478       -2.79061        1.05143
|  9> H         -4.32862       -2.13922        2.19810
| 10> H         -4.26158       -0.59740        1.35725
| 11> C         -3.47464       -3.60590       -0.25961
| 12> H         -2.35455       -2.12760        0.87143
| 13> H         -3.16661       -1.49969       -0.54504
| 14> H         -2.64612       -3.85908       -0.88759
| 15> H         -4.37934       -3.64545       -0.82956
| 16> H         -3.53324       -4.30157        0.55126
| 17> *
| 18> %MaxCore 64000
| 19>
| 20> %pal nprocs 18
| 21> end
| 22>
| 23> %scf
| 24>   MaxIter 150
| 25> end
| 26>
| 27>                          ****END OF INPUT****

CARTESIAN COORDINATES (ANGSTROEM)
---------------------------------
  C     -4.382620   -1.670890    1.216200
  C     -5.763540   -1.915170    0.705010
  C     -3.281730   -2.191270    0.294360
  H     -5.840810   -2.115200   -0.300650
  H     -6.408820   -1.148660    0.936120
  H     -6.174780   -2.790610    1.051430
  H     -4.328620   -2.139220    2.198100
  H     -4.261580   -0.597400    1.357250
  C     -3.474640   -3.605900   -0.259610
  H     -2.354550   -2.127600    0.871430
  H     -3.166610   -1.499690   -0.545040
  H     -2.646120   -3.859080   -0.887590
  H     -4.379340   -3.645450   -0.829560
  H     -3.533240   -4.301570    0.551260

 Total Charge           Charge          ....    0
 Multiplicity           Mult            ....    1
 Number of Electrons    NEL             ....   34
 Basis Dimension        Dim             ....  238

ORBITAL ENERGIES
----------------

  NO   OCC          E(Eh)            E(eV)
   0   2.0000     -10.263517      -279.2845
   1   2.0000     -10.259912      -279.1864
   2   2.0000     -10.252010      -278.9714
   3   2.0000     -10.230779      -278.3936
   4   2.0000      -0.916576       -24.9413
   5   2.0000      -0.842544       -22.9268
   6   2.0000      -0.763098       -20.7650
   7   2.0000      -0.674484       -18.3536
   8   2.0000      -0.567345       -15.4382
   9   2.0000      -0.562346       -15.3022
  10   2.0000      -0.516571       -14.0566
  11   2.0000      -0.492538       -13.4026
  12   2.0000      -0.479922       -13.0593
  13   2.0000      -0.454405       -12.3650
  14   2.0000      -0.420123       -11.4321
  15   2.0000      -0.412894       -11.2354
  16   2.0000      -0.404269       -11.0007
  17   0.0000       0.074996         2.0408
  18   0.0000       0.091460         2.4888
  19   0.0000       0.095025         2.5858
  20   0.0000       0.103590         2.8188
  21   0.0000       0.134079         3.6485

MULLIKEN ATOMIC CHARGES
-----------------------
   0 C :   -0.081366
   1 C :   -1.521468
   2 C :   -0.366976
   3 H :    0.398168
   4 H :    0.342068
   5 H :    0.394341
   6 H :    0.253884
   7 H :    0.263638
   8 C :   -1.132616
   9 H :    0.240771
  10 H :    0.287496
  11 H :    0.327431
  12 H :    0.278189
  13 H :    0.316439
Sum of atomic charges:   -0.0000000

LOEWDIN ATOMIC CHARGES
----------------------
   0 C :   -0.264766
   1 C :   -0.123851
   2 C :   -0.269161
   3 H :    0.048573
   4 H :    0.053906
   5 H :    0.056409
   6 H :    0.106782
   7 H :    0.103876
   8 C :   -0.108830
   9 H :    0.100697
  10 H :    0.106095
  11 H :    0.063506
  12 H :    0.056792
  13 H :    0.069973

  Mayer bond orders larger than 0.100000
B(  0-C ,  1-C ) :   0.5887 B(  0-C ,  2-C ) :   0.8801 B(  0-C ,  6-H ) :   0.9325
B(  0-C ,  7-H ) :   0.9435 B(  1-C ,  2-C ) :   0.1899 B(  1-C ,  3-H ) :   0.8383
B(  1-C ,  4-H ) :   0.9186 B(  1-C ,  5-H ) :   0.9099 B(  2-C ,  8-C ) :   0.6917
B(  2-C ,  9-H ) :   0.9835 B(  2-C , 10-H ) :   0.9320 B(  8-C , 11-H ) :   0.9517
B(  8-C , 12-H ) :   0.9672 B(  8-C , 13-H ) :   0.9844

Dispersion correction           -0.002801691
FINAL SINGLE POINT ENERGY      -158.451235167959

DIPOLE MOMENT
-------------
                                X             Y             Z
Electronic contribution:      0.63827       0.59373       0.37897
Nuclear contribution   :     -0.64996      -0.59433      -0.37777
                        -----------------------------------------
Total Dipole Moment    :     -0.01169      -0.00060       0.00119
                        -----------------------------------------
Magnitude (a.u.)       :      0.01176
Magnitude (Debye)      :      0.02990

Rotational constants in cm-1:     0.431358     0.171688     0.138554
Rotational constants in MHz : 12931.797515  5147.084397  4153.759343

                             ****ORCA TERMINATED NORMALLY****
TOTAL RUN TIME: 0 days 0 hours 0 minutes 17 seconds 962 msec
