                         Program Version 5.0.0 -  RELEASE  -
|  1> !wB97X-D3 RIJCOSX def2-TZVPD def2/J TightSCF
|  2> *xyz 0 1
|  3> C         -5.57236       -5.80780       -0.81644
|  4> S         -6.90318       -4.61903       -0.52846
|  5> O         -8.11485       -5.25093       -0.95701
|  6> F         -6.53271       -3.42684       -1.31485
|  7> O         -6.86563       -4.29496        0.91412
|  8> C         -3.82708       -4.66110        0.78617
|  9> C         -4.45780       -5.94187        0.22919
| 10> H         -5.17735       -5.54257       -1.79771
| 11> H         -6.07420       -6.76889       -0.92127
| 12> H         -3.68106       -6.56224       -0.22988
| 13> H         -4.84394       -6.51273        1.07581
| 14> H         -3.43706       -4.07576       -0.02016
| 15> H         -3.03403       -4.91680        1.45744
| 16> H         -4.56975       -4.09647        1.31013
| 17> *
| 18> %MaxCore 64000
| 19>
| 20> %pal nprocs 18
| 21> end
| 22>
| 23> %scf
| 24>   MaxIter 150
| 25> end
| 26>
| 27>                          ****END OF INPUT****

CARTESIAN COORDINATES (ANGSTROEM)
---------------------------------
  C     -5.572360   -5.807800   -0.816440
  S     -6.903180   -4.619030   -0.528460
  O     -8.114850   -5.250930   -0.957010
  F     -6.532710   -3.426840   -1.314850
  O     -6.865630   -4.294960    0.914120
  C     -3.827080   -4.661100    0.786170
  C     -4.457800   -5.941870    0.229190
  H     -5.177350   -5.542570   -1.797710
  H     -6.074200   -6.768890   -0.921270
  H     -3.681060   -6.562240   -0.229880
  H     -4.843940   -6.512730    1.075810
  H     -3.437060   -4.075760   -0.020160
  H     -3.034030   -4.916800    1.457440
  H     -4.569750   -4.096470    1.310130

 Total Charge           Charge          ....    0
 Multiplicity           Mult            ....    1
 Number of Electrons    NEL             ....   66
 Basis Dimension        Dim             ....  340

ORBITAL ENERGIES
----------------

  NO   OCC          E(Eh)            E(eV)
   0   2.0000     -89.195838     -2427.1421
   1   2.0000     -24.891126      -677.3220
   2   2.0000     -19.248961      -523.7908
   3   2.0000     -19.234515      -523.3978
   4   2.0000     -10.337813      -281.3062
   5   2.0000     -10.304177      -280.3909
   6   2.0000     -10.267824      -279.4017
   7   2.0000      -8.259196      -224.7442
   8   2.0000      -6.216648      -169.1636
   9   2.0000      -6.210397      -168.9935
  10   2.0000      -6.209631      -168.9727
  11   2.0000      -1.473922       -40.1074
  12   2.0000      -1.227071       -33.3903
  13   2.0000      -1.127471       -30.6800
  14   2.0000      -0.946480       -25.7550
  15   2.0000      -0.866528       -23.5794
  16   2.0000      -0.811051       -22.0698
  17   2.0000      -0.744233       -20.2516
  18   2.0000      -0.675953       -18.3936
  19   2.0000      -0.671435       -18.2707
  20   2.0000      -0.656325       -17.8595
  21   2.0000      -0.599946       -16.3254
  22   2.0000      -0.580377       -15.7929
  23   2.0000      -0.554086       -15.0774
  24   2.0000      -0.545977       -14.8568
  25   2.0000      -0.533009       -14.5039
  26   2.0000      -0.491313       -13.3693
  27   2.0000      -0.474876       -12.9220
  28   2.0000      -0.471430       -12.8283
  29   2.0000      -0.452558       -12.3147
  30   2.0000      -0.430373       -11.7110
  31   2.0000      -0.418821       -11.3967
  32   2.0000      -0.405940       -11.0462
  33   0.0000       0.052466         1.4277
  34   0.0000       0.062371         1.6972
  35   0.0000       0.070637         1.9221
  36   0.0000       0.071163         1.9365
  37   0.0000       0.096975         2.6388

MULLIKEN ATOMIC CHARGES
-----------------------
   0 C :   -0.718508
   1 S :    1.216891
   2 O :   -0.586756
   3 F :   -0.164032
   4 O :   -0.611599
   5 C :   -1.289058
   6 C :   -0.180014
   7 H :    0.410539
   8 H :    0.312758
   9 H :    0.292292
  10 H :    0.294761
  11 H :    0.334013
  12 H :    0.335046
  13 H :    0.353667
Sum of atomic charges:   -0.0000000

LOEWDIN ATOMIC CHARGES
----------------------
   0 C :   -0.227076
   1 S :    0.621720
   2 O :   -0.270079
   3 F :   -0.078522
   4 O :   -0.300180
   5 C :   -0.104177
   6 C :   -0.264759
   7 H :    0.100971
   8 H :    0.104837
   9 H :    0.111501
  10 H :    0.112082
  11 H :    0.071029
  12 H :    0.069975
  13 H :    0.052678

  Mayer bond orders larger than 0.100000
B(  0-C ,  1-S ) :   0.8524 B(  0-C ,  2-O ) :   0.1173 B(  0-C ,  5-C ) :   0.1926
B(  0-C ,  6-C ) :   0.8818 B(  0-C ,  7-H ) :   0.8183 B(  0-C ,  8-H ) :   0.9440
B(  1-S ,  2-O ) :   1.6589 B(  1-S ,  3-F ) :   0.9686 B(  1-S ,  4-O ) :   1.6429
B(  5-C ,  6-C ) :   0.5772 B(  5-C , 11-H ) :   0.9446 B(  5-C , 12-H ) :   0.9227
B(  5-C , 13-H ) :   0.9839 B(  6-C ,  9-H ) :   0.9353 B(  6-C , 10-H ) :   0.9301

Dispersion correction           -0.004434251
FINAL SINGLE POINT ENERGY      -767.065723468834

DIPOLE MOMENT
-------------
                                X             Y             Z
Electronic contribution:    -10.67165       5.59879      -4.51099
Nuclear contribution   :     12.11759      -6.01574       3.81244
                        -----------------------------------------
Total Dipole Moment    :      1.44594      -0.41695      -0.69855
                        -----------------------------------------
Magnitude (a.u.)       :      1.65908
Magnitude (Debye)      :      4.21706

Rotational constants in cm-1:     0.128152     0.053825     0.050608
Rotational constants in MHz :  3841.897096  1613.621976  1517.196867

                             ****ORCA TERMINATED NORMALLY****
TOTAL RUN TIME: 0 days 0 hours 0 minutes 26 seconds 332 msec
