                         Program Version 5.0.0 -  RELEASE  -
|  1> !wB97X-D3 RIJCOSX def2-TZVPD def2/J TightSCF
|  2> *xyz 0 1
|  3> C         -5.57236       -5.80780       -0.81644
|  4> S         -6.90318       -4.61903       -0.52846
|  5> O         -8.11485       -5.25093       -0.95701
|  6> O         -6.53271       -3.42684       -1.31485
|  7> F         -6.86563       -4.29496        0.91412
|  8> C         -3.82708       -4.66110        0.78617
|  9> C         -4.45780       -5.94187        0.22919
| 10> H         -5.17735       -5.54257       -1.79771
| 11> H         -6.07420       -6.76889       -0.92127
| 12> H         -3.68106       -6.56224       -0.22988
| 13> H         -4.84394       -6.51273        1.07581
| 14> H         -3.43706       -4.07576       -0.02016
| 15> H         -3.03403       -4.91680        1.45744
| 16> H         -4.56975       -4.09647        1.31013
| 17> *
| 18> %MaxCore 64000
| 19>
| 20> %pal nprocs 18
| 21> end
| 22>
| 23> %scf
| 24>   MaxIter 150
| 25> end
| 26>
| 27>                          ****END OF INPUT****

CARTESIAN COORDINATES (ANGSTROEM)
---------------------------------
  C     -5.572360   -5.807800   -0.816440
  S     -6.903180   -4.619030   -0.528460
  O     -8.114850   -5.250930   -0.957010
  O     -6.532710   -3.426840   -1.314850
  F     -6.865630   -4.294960    0.914120
  C     -3.827080   -4.661100    0.786170
  C     -4.457800   -5.941870    0.229190
  H     -5.177350   -5.542570   -1.797710
  H     -6.074200   -6.768890   -0.921270
  H     -3.681060   -6.562240   -0.229880
  H     -4.843940   -6.512730    1.075810
  H     -3.437060   -4.075760   -0.020160
  H     -3.034030   -4.916800    1.457440
  H     -4.569750   -4.096470    1.310130

 Total Charge           Charge          ....    0
 Multiplicity           Mult            ....    1
 Number of Electrons    NEL             ....   66
 Basis Dimension        Dim             ....  340

ORBITAL ENERGIES
----------------

  NO   OCC          E(Eh)            E(eV)
   0   2.0000     -89.194474     -2427.1050
   1   2.0000     -24.889872      -677.2878
   2   2.0000     -19.248053      -523.7661
   3   2.0000     -19.233148      -523.3606
   4   2.0000     -10.336686      -281.2755
   5   2.0000     -10.310751      -280.5698
   6   2.0000     -10.278219      -279.6846
   7   2.0000      -8.257914      -224.7093
   8   2.0000      -6.215461      -169.1313
   9   2.0000      -6.208914      -168.9531
  10   2.0000      -6.208445      -168.9404
  11   2.0000      -1.471556       -40.0431
  12   2.0000      -1.226854       -33.3844
  13   2.0000      -1.126688       -30.6587
  14   2.0000      -0.950966       -25.8771
  15   2.0000      -0.867790       -23.6138
  16   2.0000      -0.811958       -22.0945
  17   2.0000      -0.751011       -20.4360
  18   2.0000      -0.683273       -18.5928
  19   2.0000      -0.672483       -18.2992
  20   2.0000      -0.645458       -17.5638
  21   2.0000      -0.599081       -16.3018
  22   2.0000      -0.575512       -15.6605
  23   2.0000      -0.567793       -15.4504
  24   2.0000      -0.548692       -14.9307
  25   2.0000      -0.531730       -14.4691
  26   2.0000      -0.494117       -13.4456
  27   2.0000      -0.484241       -13.1769
  28   2.0000      -0.474846       -12.9212
  29   2.0000      -0.459480       -12.5031
  30   2.0000      -0.429039       -11.6748
  31   2.0000      -0.417057       -11.3487
  32   2.0000      -0.407400       -11.0859
  33   0.0000       0.051778         1.4089
  34   0.0000       0.061998         1.6871
  35   0.0000       0.070153         1.9090
  36   0.0000       0.072288         1.9670
  37   0.0000       0.094879         2.5818

MULLIKEN ATOMIC CHARGES
-----------------------
   0 C :   -0.598783
   1 S :    1.231060
   2 O :   -0.587825
   3 O :   -0.614796
   4 F :   -0.172549
   5 C :   -1.221011
   6 C :   -0.303455
   7 H :    0.359450
   8 H :    0.314251
   9 H :    0.286727
  10 H :    0.297110
  11 H :    0.330617
  12 H :    0.340360
  13 H :    0.338843
Sum of atomic charges:    0.0000000

LOEWDIN ATOMIC CHARGES
----------------------
   0 C :   -0.224298
   1 S :    0.615505
   2 O :   -0.270688
   3 O :   -0.303189
   4 F :   -0.083148
   5 C :   -0.100454
   6 C :   -0.269149
   7 H :    0.110572
   8 H :    0.100680
   9 H :    0.112714
  10 H :    0.108251
  11 H :    0.076828
  12 H :    0.070949
  13 H :    0.055426

  Mayer bond orders larger than 0.100000
B(  0-C ,  1-S ) :   0.8136 B(  0-C ,  2-O ) :   0.1109 B(  0-C ,  3-O ) :   0.1319
B(  0-C ,  5-C ) :   0.1058 B(  0-C ,  6-C ) :   0.8891 B(  0-C ,  7-H ) :   0.8951
B(  0-C ,  8-H ) :   0.9477 B(  1-S ,  2-O ) :   1.6530 B(  1-S ,  3-O ) :   1.6402
B(  1-S ,  4-F ) :   0.9839 B(  5-C ,  6-C ) :   0.6165 B(  5-C , 11-H ) :   0.9670
B(  5-C , 12-H ) :   0.9277 B(  5-C , 13-H ) :   0.9657 B(  6-C ,  9-H ) :   0.9316
B(  6-C , 10-H ) :   0.9352

Dispersion correction           -0.004470388
FINAL SINGLE POINT ENERGY      -767.065524750021

DIPOLE MOMENT
-------------
                                X             Y             Z
Electronic contribution:    -11.17541       4.06361      -0.66583
Nuclear contribution   :     12.47562      -5.08213       1.41531
                        -----------------------------------------
Total Dipole Moment    :      1.30022      -1.01852       0.74948
                        -----------------------------------------
Magnitude (a.u.)       :      1.81374
Magnitude (Debye)      :      4.61017

Rotational constants in cm-1:     0.128398     0.054249     0.051014
Rotational constants in MHz :  3849.278549  1626.338413  1529.351405

                             ****ORCA TERMINATED NORMALLY****
TOTAL RUN TIME: 0 days 0 hours 0 minutes 30 seconds 123 msec
