                         Program Version 5.0.0 -  RELEASE  -
|  1> !wB97X-D3 RIJCOSX def2-TZVPD def2/J TightSCF xyzfile
|  2>
|  3> *xyzfile 0 1 D2.xyz
|  4>
|  5> %MaxCore 64000
|  6>
|  7> %pal nprocs 18
|  8> end
|  9>
| 10> %scf
| 11>   MaxIter 150
| 12> end
| 13>
| 14>
| 15>                          ****END OF INPUT****

CARTESIAN COORDINATES (ANGSTROEM)
---------------------------------
  C     -4.382623   -1.670889    1.216201
  C     -5.763539   -1.915170    0.705012
  C     -3.281728   -2.191272    0.294361
  C     -5.572364   -5.807798   -0.816445
  S     -6.903179   -4.619033   -0.528458
  H     -5.840812   -2.115205   -0.300646
  H     -6.408823   -1.148656    0.936124
  H     -6.174781   -2.790606    1.051433
  O     -8.114853   -5.250932   -0.957007
  F     -6.532715   -3.426838   -1.314848
  H     -4.328618   -2.139223    2.198103
  H     -4.261583   -0.597399    1.357248
  O     -6.865632   -4.294957    0.914118
  C     -3.474641   -3.605898   -0.259608
  H     -2.354548   -2.127602    0.871433
  H     -3.166611   -1.499693   -0.545037
  C     -3.827078   -4.661097    0.786174
  H     -2.560559   -3.889391   -0.788050
  H     -4.255932   -3.570040   -1.019300
  C     -4.457800   -5.941875    0.229195
  H     -5.177347   -5.542575   -1.797714
  H     -6.074202   -6.768894   -0.921272
  H     -4.530506   -4.253640    1.511979
  H     -2.933400   -4.932302    1.356825
  H     -3.681064   -6.562236   -0.229885
  H     -4.843942   -6.512728    1.075805

 Total Charge           Charge          ....    0
 Multiplicity           Mult            ....    1
 Number of Electrons    NEL             ....   98
 Basis Dimension        Dim             ....  560

ORBITAL ENERGIES
----------------

  NO   OCC          E(Eh)            E(eV)
   0   2.0000     -89.201202     -2427.2881
   1   2.0000     -24.896107      -677.4575
   2   2.0000     -19.253559      -523.9160
   3   2.0000     -19.239103      -523.5226
   4   2.0000     -10.340341      -281.3750
   5   2.0000     -10.303828      -280.3814
   6   2.0000     -10.278165      -279.6831
   7   2.0000     -10.276692      -279.6430
   8   2.0000     -10.265788      -279.3463
   9   2.0000     -10.252467      -278.9838
  10   2.0000     -10.200300      -277.5643
  11   2.0000      -8.264828      -224.8974
  12   2.0000      -6.222237      -169.3157
  13   2.0000      -6.216022      -169.1466
  14   2.0000      -6.215230      -169.1250
  15   2.0000      -1.482861       -40.3507
  16   2.0000      -1.233682       -33.5702
  17   2.0000      -1.137441       -30.9513
  18   2.0000      -0.956546       -26.0290
  19   2.0000      -0.921738       -25.0818
  20   2.0000      -0.872070       -23.7302
  21   2.0000      -0.844117       -22.9696
  22   2.0000      -0.806143       -21.9363
  23   2.0000      -0.769215       -20.9314
  24   2.0000      -0.727237       -19.7891
  25   2.0000      -0.690313       -18.7844
  26   2.0000      -0.678402       -18.4603
  27   2.0000      -0.663196       -18.0465
  28   2.0000      -0.661470       -17.9995
  29   2.0000      -0.601928       -16.3793
  30   2.0000      -0.592881       -16.1331
  31   2.0000      -0.573118       -15.5953
  32   2.0000      -0.564972       -15.3737
  33   2.0000      -0.557667       -15.1749
  34   2.0000      -0.537698       -14.6315
  35   2.0000      -0.523285       -14.2393
  36   2.0000      -0.503661       -13.7053
  37   2.0000      -0.494516       -13.4565
  38   2.0000      -0.488698       -13.2982
  39   2.0000      -0.484305       -13.1786
  40   2.0000      -0.454938       -12.3795
  41   2.0000      -0.450029       -12.2459
  42   2.0000      -0.448250       -12.1975
  43   2.0000      -0.431633       -11.7453
  44   2.0000      -0.421113       -11.4591
  45   2.0000      -0.414617       -11.2823
  46   2.0000      -0.403878       -10.9901
  47   2.0000      -0.402277       -10.9465
  48   2.0000      -0.369067       -10.0428
  49   0.0000       0.049448         1.3456
  50   0.0000       0.059770         1.6264
  51   0.0000       0.066943         1.8216
  52   0.0000       0.072539         1.9739
  53   0.0000       0.088699         2.4136

MULLIKEN ATOMIC CHARGES
-----------------------
   0 C :   -0.179804
   1 C :   -1.644796
   2 C :   -0.890085
   3 C :   -0.818139
   4 S :    1.158541
   5 H :    0.534645
   6 H :    0.438035
   7 H :    0.497558
   8 O :   -0.578457
   9 F :   -0.220419
  10 H :    0.313912
  11 H :    0.261339
  12 O :   -0.666554
  13 C :   -0.311298
  14 H :    0.266483
  15 H :    0.299700
  16 C :   -0.374632
  17 H :    0.328416
  18 H :    0.184506
  19 C :   -0.675470
  20 H :    0.487252
  21 H :    0.313370
  22 H :    0.301243
  23 H :    0.311763
  24 H :    0.318175
  25 H :    0.344716
Sum of atomic charges:   -0.0000000

LOEWDIN ATOMIC CHARGES
----------------------
   0 C :   -0.238665
   1 C :   -0.123479
   2 C :   -0.205111
   3 C :   -0.211352
   4 S :    0.656334
   5 H :    0.033296
   6 H :    0.069400
   7 H :   -0.008795
   8 O :   -0.255127
   9 F :   -0.103633
  10 H :    0.106855
  11 H :    0.105686
  12 O :   -0.295565
  13 C :   -0.203011
  14 H :    0.108325
  15 H :    0.112726
  16 C :   -0.201660
  17 H :    0.116932
  18 H :    0.082587
  19 C :   -0.206658
  20 H :    0.102701
  21 H :    0.106944
  22 H :    0.094316
  23 H :    0.121857
  24 H :    0.118315
  25 H :    0.116780

  Mayer bond orders larger than 0.100000
B(  0-C ,  1-C ) :   0.4843 B(  0-C ,  2-C ) :   0.8951 B(  0-C , 10-H ) :   0.8719
B(  0-C , 11-H ) :   0.9661 B(  0-C , 16-C ) :   0.2219 B(  1-C ,  2-C ) :   0.2188
B(  1-C ,  4-S ) :   0.1134 B(  1-C ,  5-H ) :   0.7638 B(  1-C ,  6-H ) :   0.7994
B(  1-C ,  7-H ) :   0.9296 B(  1-C ,  9-F ) :   0.1659 B(  1-C , 12-O ) :   0.1600
B(  2-C , 13-C ) :   0.9390 B(  2-C , 14-H ) :   0.9070 B(  2-C , 15-H ) :   0.9235
B(  2-C , 16-C ) :   0.2899 B(  2-C , 18-H ) :   0.1442 B(  3-C ,  4-S ) :   0.8452
B(  3-C ,  8-O ) :   0.1684 B(  3-C , 13-C ) :   0.1468 B(  3-C , 19-C ) :   0.8984
B(  3-C , 20-H ) :   0.7440 B(  3-C , 21-H ) :   0.9589 B(  4-S ,  8-O ) :   1.4252
B(  4-S ,  9-F ) :   1.0356 B(  4-S , 12-O ) :   1.6688 B(  4-S , 19-C ) :   0.1006
B(  5-H ,  9-F ) :  -0.1095 B(  7-H , 12-O ) :  -0.2201 B( 13-C , 16-C ) :   0.4256
B( 13-C , 17-H ) :   0.8706 B( 13-C , 18-H ) :   1.0660 B( 13-C , 19-C ) :   0.3048
B( 16-C , 18-H ) :  -0.1056 B( 16-C , 19-C ) :   0.9697 B( 16-C , 22-H ) :   0.9895
B( 16-C , 23-H ) :   0.8701 B( 19-C , 24-H ) :   0.9105 B( 19-C , 25-H ) :   0.8924

Dispersion correction           -0.012960698
FINAL SINGLE POINT ENERGY      -924.282906280914

DIPOLE MOMENT
-------------
                                X             Y             Z
Electronic contribution:    -15.97912      -5.36735      -7.22779
Nuclear contribution   :     17.25367       4.78608       6.55647
                        -----------------------------------------
Total Dipole Moment    :      1.27455      -0.58127      -0.67132
                        -----------------------------------------
Magnitude (a.u.)       :      1.55339
Magnitude (Debye)      :      3.94841

Rotational constants in cm-1:     0.048508     0.025517     0.020225
Rotational constants in MHz :  1454.219007   764.979652   606.316599

                             ****ORCA TERMINATED NORMALLY****
TOTAL RUN TIME: 0 days 0 hours 1 minutes 44 seconds 545 msec
