                         Program Version 5.0.0 -  RELEASE  -
|  1> !M062X D3Zero RIJCOSX def2-SVPD def2/J TightSCF
|  2> *xyz -1 1
|  3> C         -0.81136       -2.90878       -4.60763
|  4> C         -1.91658       -2.48508       -3.64367
|  5> H         -2.55452       -1.71243       -4.09199
|  6> C         -1.36353       -1.98134       -2.29361
|  7> H         -2.55345       -3.35567       -3.45881
|  8> O         -0.35039       -2.74969       -1.79601
|  9> H         -2.22622       -1.90839       -1.60204
| 10> H         -1.05135       -0.91567       -2.44333
| 11> H         -1.24783       -3.24801       -5.52377
| 12> H         -0.24047       -3.70079       -4.16978
| 13> H         -0.17107       -2.07453       -4.80501
| 14> *
| 15>
| 16> %MaxCore 64000
| 17> %pal nprocs 4
| 18> end
| 19>
| 20> %scf
| 21>   MaxIter 150
| 22> end
| 23>
| 24>
| 25>                          ****END OF INPUT****

CARTESIAN COORDINATES (ANGSTROEM)
---------------------------------
  C     -0.811360   -2.908780   -4.607630
  C     -1.916580   -2.485080   -3.643670
  H     -2.554520   -1.712430   -4.091990
  C     -1.363530   -1.981340   -2.293610
  H     -2.553450   -3.355670   -3.458810
  O     -0.350390   -2.749690   -1.796010
  H     -2.226220   -1.908390   -1.602040
  H     -1.051350   -0.915670   -2.443330
  H     -1.247830   -3.248010   -5.523770
  H     -0.240470   -3.700790   -4.169780
  H     -0.171070   -2.074530   -4.805010

 Total Charge           Charge          ....   -1
 Multiplicity           Mult            ....    1
 Number of Electrons    NEL             ....   34
 Basis Dimension        Dim             ....  139

ORBITAL ENERGIES
----------------

  NO   OCC          E(Eh)            E(eV)
   0   2.0000     -19.303470      -525.2741
   1   2.0000     -10.366406      -282.0842
   2   2.0000     -10.363124      -281.9950
   3   2.0000     -10.357503      -281.8420
   4   2.0000      -0.785199       -21.3664
   5   2.0000      -0.668820       -18.1995
   6   2.0000      -0.547676       -14.9030
   7   2.0000      -0.436255       -11.8711
   8   2.0000      -0.344067        -9.3625
   9   2.0000      -0.331744        -9.0272
  10   2.0000      -0.277834        -7.5602
  11   2.0000      -0.251984        -6.8568
  12   2.0000      -0.221914        -6.0386
  13   2.0000      -0.209893        -5.7115
  14   2.0000      -0.178175        -4.8484
  15   2.0000      -0.038158        -1.0383
  16   2.0000      -0.034053        -0.9266
  17   0.0000       0.185683         5.0527
  18   0.0000       0.211155         5.7458
  19   0.0000       0.229713         6.2508
  20   0.0000       0.259160         7.0521
  21   0.0000       0.278054         7.5662

MULLIKEN ATOMIC CHARGES
-----------------------
   0 C :    0.627967
   1 C :   -0.486998
   2 H :   -0.130454
   3 C :    0.455482
   4 H :   -0.087743
   5 O :   -0.884767
   6 H :   -0.179934
   7 H :   -0.104935
   8 H :   -0.107992
   9 H :   -0.028156
  10 H :   -0.072468
Sum of atomic charges:   -1.0000000

LOEWDIN ATOMIC CHARGES
----------------------
   0 C :    0.083728
   1 C :   -0.117266
   2 H :   -0.010614
   3 C :   -0.213205
   4 H :   -0.002775
   5 O :   -0.568540
   6 H :   -0.032373
   7 H :   -0.025326
   8 H :   -0.049957
   9 H :   -0.034208
  10 H :   -0.029464

  Mayer bond orders larger than 0.100000
B(  0-C ,  1-C ) :   1.2810 B(  0-C ,  8-H ) :   0.7976 B(  0-C ,  9-H ) :   0.8198
B(  0-C , 10-H ) :   0.8181 B(  1-C ,  2-H ) :   1.0063 B(  1-C ,  3-C ) :   1.0564
B(  1-C ,  4-H ) :   0.9458 B(  1-C ,  6-H ) :   0.1427 B(  1-C ,  7-H ) :   0.1407
B(  1-C ,  8-H ) :   0.1994 B(  1-C ,  9-H ) :   0.2118 B(  1-C , 10-H ) :   0.2005
B(  3-C ,  4-H ) :   0.1036 B(  3-C ,  5-O ) :   1.1560 B(  3-C ,  6-H ) :   0.9590
B(  3-C ,  7-H ) :   0.9384

Dispersion correction           -0.000077968
FINAL SINGLE POINT ENERGY      -193.501789819631

DIPOLE MOMENT
-------------
                                X             Y             Z
Electronic contribution:      1.25157      -0.54597       2.51777
Nuclear contribution   :     -2.20255       0.75707      -4.26861
                        -----------------------------------------
Total Dipole Moment    :     -0.95099       0.21110      -1.75084
                        -----------------------------------------
Magnitude (a.u.)       :      2.00359
Magnitude (Debye)      :      5.09273

Rotational constants in cm-1:     0.480704     0.187939     0.150770
Rotational constants in MHz : 14411.155440  5634.276828  4519.982802

                             ****ORCA TERMINATED NORMALLY****
TOTAL RUN TIME: 0 days 0 hours 0 minutes 11 seconds 339 msec
