                         Program Version 5.0.0 -  RELEASE  -
|  1> !M062X D3Zero RIJCOSX def2-SVPD def2/J TightSCF
|  2> *xyz 1 1
|  3> C          1.64703       -2.34528       -5.02041
|  4> C          0.21763       -1.81402       -4.92439
|  5> C          2.20996       -2.81239       -3.66571
|  6> H          2.30838       -1.58870       -5.45713
|  7> H          1.67429       -3.20348       -5.69739
|  8> C          2.48901       -1.66851       -2.73754
|  9> N          3.59631       -0.94761       -2.95225
| 10> N          1.66394       -1.41369       -1.77781
| 11> H          0.81164       -1.96318       -1.70275
| 12> H          1.84550       -0.63508       -1.15875
| 13> H          4.20535       -1.17600       -3.73383
| 14> H          3.81723       -0.12585       -2.40604
| 15> H          3.14311       -3.36280       -3.81152
| 16> H          1.48768       -3.45893       -3.16521
| 17> H         -0.11459       -1.50684       -5.89401
| 18> H          0.19193       -0.97796       -4.25713
| 19> H         -0.42543       -2.58523       -4.55479
| 20> *
| 21>
| 22> %MaxCore 64000
| 23> %pal nprocs 4
| 24> end
| 25>
| 26> %scf
| 27>   MaxIter 150
| 28> end
| 29>
| 30>
| 31>                          ****END OF INPUT****

CARTESIAN COORDINATES (ANGSTROEM)
---------------------------------
  C      1.647030   -2.345280   -5.020410
  C      0.217630   -1.814020   -4.924390
  C      2.209960   -2.812390   -3.665710
  H      2.308380   -1.588700   -5.457130
  H      1.674290   -3.203480   -5.697390
  C      2.489010   -1.668510   -2.737540
  N      3.596310   -0.947610   -2.952250
  N      1.663940   -1.413690   -1.777810
  H      0.811640   -1.963180   -1.702750
  H      1.845500   -0.635080   -1.158750
  H      4.205350   -1.176000   -3.733830
  H      3.817230   -0.125850   -2.406040
  H      3.143110   -3.362800   -3.811520
  H      1.487680   -3.458930   -3.165210
  H     -0.114590   -1.506840   -5.894010
  H      0.191930   -0.977960   -4.257130
  H     -0.425430   -2.585230   -4.554790

 Total Charge           Charge          ....    1
 Multiplicity           Mult            ....    1
 Number of Electrons    NEL             ....   48
 Basis Dimension        Dim             ....  208

ORBITAL ENERGIES
----------------

  NO   OCC          E(Eh)            E(eV)
   0   2.0000     -15.012483      -408.5104
   1   2.0000     -15.002346      -408.2346
   2   2.0000     -10.874322      -295.9053
   3   2.0000     -10.744351      -292.3687
   4   2.0000     -10.712526      -291.5026
   5   2.0000     -10.677611      -290.5526
   6   2.0000      -1.304282       -35.4913
   7   2.0000      -1.200412       -32.6649
   8   2.0000      -1.063367       -28.9357
   9   2.0000      -0.972809       -26.4715
  10   2.0000      -0.912558       -24.8320
  11   2.0000      -0.864675       -23.5290
  12   2.0000      -0.843938       -22.9647
  13   2.0000      -0.810204       -22.0468
  14   2.0000      -0.772533       -21.0217
  15   2.0000      -0.725126       -19.7317
  16   2.0000      -0.693604       -18.8739
  17   2.0000      -0.666797       -18.1445
  18   2.0000      -0.637870       -17.3573
  19   2.0000      -0.626081       -17.0365
  20   2.0000      -0.566600       -15.4180
  21   2.0000      -0.561969       -15.2920
  22   2.0000      -0.557349       -15.1662
  23   2.0000      -0.546689       -14.8762
  24   0.0000      -0.167305        -4.5526
  25   0.0000      -0.134225        -3.6525
  26   0.0000      -0.095808        -2.6071
  27   0.0000      -0.090462        -2.4616
  28   0.0000      -0.065565        -1.7841

MULLIKEN ATOMIC CHARGES
-----------------------
   0 C :   -0.312932
   1 C :    0.725999
   2 C :    0.017563
   3 H :   -0.027899
   4 H :   -0.035269
   5 C :    0.781812
   6 N :   -0.056409
   7 N :   -0.009860
   8 H :    0.101415
   9 H :   -0.090770
  10 H :    0.056834
  11 H :   -0.122562
  12 H :   -0.022203
  13 H :    0.073323
  14 H :   -0.035487
  15 H :   -0.104909
  16 H :    0.061352
Sum of atomic charges:    1.0000000

LOEWDIN ATOMIC CHARGES
----------------------
   0 C :   -0.043378
   1 C :    0.143006
   2 C :    0.045335
   3 H :    0.026729
   4 H :    0.039919
   5 C :   -0.044780
   6 N :    0.276460
   7 N :    0.284438
   8 H :    0.061899
   9 H :    0.056461
  10 H :    0.052597
  11 H :    0.043493
  12 H :    0.047966
  13 H :    0.037891
  14 H :    0.000746
  15 H :   -0.023737
  16 H :   -0.005045

  Mayer bond orders larger than 0.100000
B(  0-C ,  1-C ) :   1.3286 B(  0-C ,  2-C ) :   1.1441 B(  0-C ,  3-H ) :   0.9245
B(  0-C ,  4-H ) :   0.9971 B(  0-C , 13-H ) :   0.1073 B(  0-C , 14-H ) :   0.2038
B(  0-C , 15-H ) :   0.2256 B(  0-C , 16-H ) :   0.2011 B(  1-C , 14-H ) :   0.8065
B(  1-C , 15-H ) :   0.8097 B(  1-C , 16-H ) :   0.7712 B(  2-C ,  3-H ) :   0.1241
B(  2-C ,  5-C ) :   1.1021 B(  2-C ,  6-N ) :   0.1046 B(  2-C , 12-H ) :   0.9436
B(  2-C , 13-H ) :   0.8152 B(  5-C ,  6-N ) :   1.0286 B(  5-C ,  7-N ) :   1.0893
B(  5-C ,  9-H ) :  -0.1754 B(  5-C , 10-H ) :  -0.1034 B(  5-C , 11-H ) :  -0.1724
B(  5-C , 13-H ) :   0.1567 B(  6-N ,  7-N ) :   0.1593 B(  6-N , 10-H ) :   1.0939
B(  6-N , 11-H ) :   1.2966 B(  7-N ,  8-H ) :   1.0602 B(  7-N ,  9-H ) :   1.2980
B(  8-H ,  9-H ) :  -0.1799 B( 10-H , 11-H ) :  -0.1872

Dispersion correction           -0.000354004
FINAL SINGLE POINT ENERGY      -268.025218506890

DIPOLE MOMENT
-------------
                                X             Y             Z
Electronic contribution:      3.25683       1.27313       4.36233
Nuclear contribution   :     -2.54148      -0.64126      -3.14660
                        -----------------------------------------
Total Dipole Moment    :      0.71534       0.63188       1.21573
                        -----------------------------------------
Magnitude (a.u.)       :      1.54563
Magnitude (Debye)      :      3.92869

Rotational constants in cm-1:     0.179759     0.078784     0.067518
Rotational constants in MHz :  5389.046501  2361.884510  2024.132984

                             ****ORCA TERMINATED NORMALLY****
TOTAL RUN TIME: 0 days 0 hours 0 minutes 26 seconds 182 msec
