                         Program Version 5.0.0 -  RELEASE  -
|  1> !M062X D3Zero RIJCOSX def2-SVPD def2/J TightSCF xyzfile
|  2>
|  3> *xyzfile 0 1 B.xyz
|  4>
|  5> %MaxCore 64000
|  6>
|  7> %pal nprocs 4
|  8> end
|  9>
| 10> %scf
| 11>   MaxIter 150
| 12> end
| 13>
| 14>
| 15>                          ****END OF INPUT****

CARTESIAN COORDINATES (ANGSTROEM)
---------------------------------
  C      1.647032   -2.345276   -5.020411
  C      0.217628   -1.814022   -4.924389
  C      2.209964   -2.812388   -3.665708
  C     -0.811356   -2.908780   -4.607625
  C     -1.916579   -2.485081   -3.643665
  H     -2.554525   -1.712428   -4.091993
  C     -1.363531   -1.981337   -2.293608
  H     -2.553448   -3.355667   -3.458815
  O     -0.350395   -2.749689   -1.796006
  H      2.308385   -1.588704   -5.457128
  H      1.674286   -3.203478   -5.697392
  C      2.489007   -1.668510   -2.737538
  N      3.596314   -0.947608   -2.952247
  N      1.663936   -1.413685   -1.777806
  H      0.811642   -1.963178   -1.702755
  H      1.845503   -0.635078   -1.158749
  H      4.205351   -1.176003   -3.733825
  H      3.817230   -0.125845   -2.406041
  H     -1.244829   -3.280884   -5.541040
  H     -0.306331   -3.757746   -4.142734
  H     -0.036244   -1.318555   -5.865303
  H      0.175004   -1.035382   -4.158095
  H      3.143106   -3.362803   -3.811524
  H      1.487683   -3.458935   -3.165211
  H     -2.226220   -1.908386   -1.602039
  H     -1.051353   -0.915671   -2.443331

 Total Charge           Charge          ....    0
 Multiplicity           Mult            ....    1
 Number of Electrons    NEL             ....   80
 Basis Dimension        Dim             ....  331

ORBITAL ENERGIES
----------------

  NO   OCC          E(Eh)            E(eV)
   0   2.0000     -19.492526      -530.4186
   1   2.0000     -14.840454      -403.8293
   2   2.0000     -14.794559      -402.5804
   3   2.0000     -10.694451      -291.0108
   4   2.0000     -10.576179      -287.7925
   5   2.0000     -10.564595      -287.4772
   6   2.0000     -10.534634      -286.6620
   7   2.0000     -10.526180      -286.4319
   8   2.0000     -10.514747      -286.1208
   9   2.0000     -10.497143      -285.6418
  10   2.0000      -1.123640       -30.5758
  11   2.0000      -1.024539       -27.8791
  12   2.0000      -0.979662       -26.6579
  13   2.0000      -0.907880       -24.7047
  14   2.0000      -0.843429       -22.9509
  15   2.0000      -0.790011       -21.4973
  16   2.0000      -0.731522       -19.9057
  17   2.0000      -0.712990       -19.4014
  18   2.0000      -0.674051       -18.3419
  19   2.0000      -0.667130       -18.1535
  20   2.0000      -0.638131       -17.3644
  21   2.0000      -0.597799       -16.2670
  22   2.0000      -0.574695       -15.6383
  23   2.0000      -0.558320       -15.1926
  24   2.0000      -0.534228       -14.5371
  25   2.0000      -0.509140       -13.8544
  26   2.0000      -0.500214       -13.6115
  27   2.0000      -0.470521       -12.8035
  28   2.0000      -0.456142       -12.4123
  29   2.0000      -0.452256       -12.3065
  30   2.0000      -0.419341       -11.4108
  31   2.0000      -0.413118       -11.2415
  32   2.0000      -0.401693       -10.9306
  33   2.0000      -0.382979       -10.4214
  34   2.0000      -0.372034       -10.1236
  35   2.0000      -0.360463        -9.8087
  36   2.0000      -0.351101        -9.5540
  37   2.0000      -0.345508        -9.4017
  38   2.0000      -0.234524        -6.3817
  39   2.0000      -0.228320        -6.2129
  40   0.0000       0.000602         0.0164
  41   0.0000       0.004608         0.1254
  42   0.0000       0.036842         1.0025
  43   0.0000       0.057218         1.5570
  44   0.0000       0.060534         1.6472

MULLIKEN ATOMIC CHARGES
-----------------------
   0 C :    0.345773
   1 C :    0.194610
   2 C :    0.153762
   3 C :    0.114339
   4 C :    0.269228
   5 H :   -0.186022
   6 C :    0.505645
   7 H :    0.037472
   8 O :   -0.754517
   9 H :   -0.108112
  10 H :   -0.103089
  11 C :    0.766533
  12 N :   -0.055765
  13 N :    0.387856
  14 H :   -0.389711
  15 H :   -0.131083
  16 H :   -0.035657
  17 H :   -0.150740
  18 H :   -0.256497
  19 H :    0.025098
  20 H :   -0.204022
  21 H :   -0.110128
  22 H :   -0.125960
  23 H :    0.046941
  24 H :   -0.405098
  25 H :    0.169146
Sum of atomic charges:    0.0000000

LOEWDIN ATOMIC CHARGES
----------------------
   0 C :   -0.015168
   1 C :   -0.015134
   2 C :    0.055357
   3 C :   -0.029431
   4 C :   -0.032961
   5 H :    0.015666
   6 C :   -0.081089
   7 H :    0.019168
   8 O :   -0.419997
   9 H :    0.011324
  10 H :    0.028892
  11 C :   -0.044495
  12 N :    0.230840
  13 N :    0.307037
  14 H :   -0.192888
  15 H :    0.040220
  16 H :    0.026590
  17 H :    0.020328
  18 H :    0.015650
  19 H :    0.002702
  20 H :    0.020085
  21 H :   -0.003540
  22 H :    0.030751
  23 H :    0.011176
  24 H :    0.005076
  25 H :   -0.006158

  Mayer bond orders larger than 0.100000
B(  0-C ,  1-C ) :   1.2156 B(  0-C ,  2-C ) :   1.1328 B(  0-C ,  9-H ) :   0.7419
B(  0-C , 10-H ) :   0.8760 B(  0-C , 21-H ) :   0.1426 B(  1-C ,  2-C ) :   0.1350
B(  1-C ,  3-C ) :   1.1511 B(  1-C ,  9-H ) :   0.1738 B(  1-C , 18-H ) :   0.2218
B(  1-C , 20-H ) :   0.8780 B(  1-C , 21-H ) :   0.7968 B(  2-C ,  9-H ) :   0.1404
B(  2-C , 10-H ) :   0.1177 B(  2-C , 11-C ) :   1.0850 B(  2-C , 22-H ) :   0.8369
B(  2-C , 23-H ) :   0.8206 B(  3-C ,  4-C ) :   1.2488 B(  3-C ,  5-H ) :   0.1311
B(  3-C ,  7-H ) :   0.2204 B(  3-C , 18-H ) :   0.8974 B(  3-C , 19-H ) :   0.8016
B(  3-C , 20-H ) :   0.1066 B(  3-C , 21-H ) :   0.1508 B(  4-C ,  5-H ) :   0.9356
B(  4-C ,  6-C ) :   1.1160 B(  4-C ,  7-H ) :   0.6805 B(  4-C , 24-H ) :   0.1281
B(  4-C , 25-H ) :   0.1104 B(  5-H ,  7-H ) :  -0.1025 B(  6-C ,  7-H ) :   0.1217
B(  6-C ,  8-O ) :   0.9515 B(  6-C , 24-H ) :   1.0857 B(  6-C , 25-H ) :   0.7580
B(  8-O , 14-H ) :   0.5076 B(  9-H , 10-H ) :  -0.1410 B( 11-C , 12-N ) :   0.8987
B( 11-C , 13-N ) :   1.2020 B( 11-C , 15-H ) :  -0.2340 B( 11-C , 16-H ) :  -0.1640
B( 11-C , 17-H ) :  -0.1383 B( 11-C , 22-H ) :   0.1343 B( 11-C , 23-H ) :   0.2066
B( 12-N , 13-N ) :   0.1592 B( 12-N , 16-H ) :   1.2087 B( 12-N , 17-H ) :   1.2848
B( 13-N , 14-H ) :   0.9732 B( 13-N , 15-H ) :   1.2736 B( 14-H , 15-H ) :  -0.2161
B( 16-H , 17-H ) :  -0.1873 B( 19-H , 23-H ) :   0.1377 B( 20-H , 21-H ) :  -0.1263
B( 24-H , 25-H ) :  -0.1093

Dispersion correction           -0.001070473
FINAL SINGLE POINT ENERGY      -460.540290662606

DIPOLE MOMENT
-------------
                                X             Y             Z
Electronic contribution:      5.58983       0.90548       4.29526
Nuclear contribution   :     -2.25948       0.71378      -5.15247
                        -----------------------------------------
Total Dipole Moment    :      3.33035       1.61926      -0.85721
                        -----------------------------------------
Magnitude (a.u.)       :      3.80105
Magnitude (Debye)      :      9.66151

Rotational constants in cm-1:     0.063973     0.031829     0.024059
Rotational constants in MHz :  1917.874550   954.201145   721.285252

                             ****ORCA TERMINATED NORMALLY****
TOTAL RUN TIME: 0 days 0 hours 1 minutes 45 seconds 791 msec
