                         Program Version 5.0.0 -  RELEASE  -
|  1> !M062X D3Zero RIJCOSX def2-SVPD def2/J TightSCF
|  2> *xyz 0 1
|  3> C         -0.81136       -2.90878       -4.60763
|  4> C         -1.91658       -2.48508       -3.64367
|  5> H         -2.55452       -1.71243       -4.09199
|  6> C         -1.36353       -1.98134       -2.29361
|  7> H         -2.55345       -3.35567       -3.45881
|  8> F         -0.35039       -2.74969       -1.79601
|  9> H         -2.22622       -1.90839       -1.60204
| 10> H         -1.05135       -0.91567       -2.44333
| 11> H         -1.24783       -3.24801       -5.52377
| 12> H         -0.24047       -3.70079       -4.16978
| 13> H         -0.17107       -2.07453       -4.80501
| 14> *
| 15>
| 16> %MaxCore 64000
| 17> %pal nprocs 4
| 18> end
| 19>
| 20> %scf
| 21>   MaxIter 150
| 22> end
| 23>
| 24>
| 25>                          ****END OF INPUT****

CARTESIAN COORDINATES (ANGSTROEM)
---------------------------------
  C     -0.811360   -2.908780   -4.607630
  C     -1.916580   -2.485080   -3.643670
  H     -2.554520   -1.712430   -4.091990
  C     -1.363530   -1.981340   -2.293610
  H     -2.553450   -3.355670   -3.458810
  F     -0.350390   -2.749690   -1.796010
  H     -2.226220   -1.908390   -1.602040
  H     -1.051350   -0.915670   -2.443330
  H     -1.247830   -3.248010   -5.523770
  H     -0.240470   -3.700790   -4.169780
  H     -0.171070   -2.074530   -4.805010

 Total Charge           Charge          ....    0
 Multiplicity           Mult            ....    1
 Number of Electrons    NEL             ....   34
 Basis Dimension        Dim             ....  139

ORBITAL ENERGIES
----------------

  NO   OCC          E(Eh)            E(eV)
   0   2.0000     -25.247367      -687.0158
   1   2.0000     -10.630731      -289.2769
   2   2.0000     -10.556611      -287.2600
   3   2.0000     -10.536338      -286.7083
   4   2.0000      -1.323476       -36.0136
   5   2.0000      -0.879125       -23.9222
   6   2.0000      -0.776531       -21.1305
   7   2.0000      -0.676591       -18.4110
   8   2.0000      -0.591845       -16.1049
   9   2.0000      -0.580550       -15.7976
  10   2.0000      -0.556013       -15.1299
  11   2.0000      -0.510614       -13.8945
  12   2.0000      -0.473881       -12.8949
  13   2.0000      -0.442395       -12.0382
  14   2.0000      -0.420476       -11.4417
  15   2.0000      -0.391899       -10.6641
  16   2.0000      -0.386349       -10.5131
  17   0.0000       0.038751         1.0545
  18   0.0000       0.064040         1.7426
  19   0.0000       0.072965         1.9855
  20   0.0000       0.094382         2.5683
  21   0.0000       0.116407         3.1676

MULLIKEN ATOMIC CHARGES
-----------------------
   0 C :    0.574247
   1 C :   -0.540279
   2 H :   -0.067647
   3 C :    0.700657
   4 H :   -0.041275
   5 F :   -0.462497
   6 H :   -0.066987
   7 H :    0.001360
   8 H :   -0.058311
   9 H :    0.003008
  10 H :   -0.042277
Sum of atomic charges:   -0.0000000

LOEWDIN ATOMIC CHARGES
----------------------
   0 C :    0.119714
   1 C :   -0.068675
   2 H :    0.026792
   3 C :    0.108405
   4 H :    0.019707
   5 F :   -0.223911
   6 H :    0.029005
   7 H :    0.038182
   8 H :   -0.018577
   9 H :   -0.016436
  10 H :   -0.014206

  Mayer bond orders larger than 0.100000
B(  0-C ,  1-C ) :   1.3128 B(  0-C ,  8-H ) :   0.8331 B(  0-C ,  9-H ) :   0.8282
B(  0-C , 10-H ) :   0.8305 B(  1-C ,  2-H ) :   0.9898 B(  1-C ,  3-C ) :   1.1931
B(  1-C ,  4-H ) :   0.9527 B(  1-C ,  6-H ) :   0.1070 B(  1-C ,  7-H ) :   0.1138
B(  1-C ,  8-H ) :   0.1839 B(  1-C ,  9-H ) :   0.1734 B(  1-C , 10-H ) :   0.1805
B(  3-C ,  5-F ) :   0.6756 B(  3-C ,  6-H ) :   0.9389 B(  3-C ,  7-H ) :   0.9065

Dispersion correction           -0.000084745
FINAL SINGLE POINT ENERGY      -218.111769684784

DIPOLE MOMENT
-------------
                                X             Y             Z
Electronic contribution:      2.57992      -0.69160       5.47342
Nuclear contribution   :     -3.10989       1.02097      -5.82098
                        -----------------------------------------
Total Dipole Moment    :     -0.52998       0.32937      -0.34756
                        -----------------------------------------
Magnitude (a.u.)       :      0.71425
Magnitude (Debye)      :      1.81548

Rotational constants in cm-1:     0.466172     0.177379     0.142652
Rotational constants in MHz : 13975.492374  5317.681709  4276.599690

                             ****ORCA TERMINATED NORMALLY****
TOTAL RUN TIME: 0 days 0 hours 0 minutes 9 seconds 975 msec
