                         Program Version 5.0.0 -  RELEASE  -
|  1> !M062X D3Zero RIJCOSX def2-SVPD def2/J TightSCF
|  2> *xyz 0 1
|  3> C          1.64703       -2.34528       -5.02041
|  4> C          0.21763       -1.81402       -4.92439
|  5> C          2.20996       -2.81239       -3.66571
|  6> H          2.30838       -1.58870       -5.45713
|  7> H          1.67429       -3.20348       -5.69739
|  8> C          2.48901       -1.66851       -2.73754
|  9> C          3.59631       -0.94761       -2.95225
| 10> N          1.66394       -1.41369       -1.77781
| 11> H          0.81164       -1.96318       -1.70275
| 12> H          1.84550       -0.63508       -1.15875
| 13> H          4.20535       -1.17600       -3.73383
| 14> H          3.81723       -0.12585       -2.40604
| 15> H          3.14311       -3.36280       -3.81152
| 16> H          1.48768       -3.45893       -3.16521
| 17> H         -0.11459       -1.50684       -5.89401
| 18> H          0.19193       -0.97796       -4.25713
| 19> H         -0.42543       -2.58523       -4.55479
| 20> *
| 21>
| 22> %MaxCore 64000
| 23> %pal nprocs 4
| 24> end
| 25>
| 26> %scf
| 27>   MaxIter 150
| 28> end
| 29>
| 30>
| 31>                          ****END OF INPUT****

CARTESIAN COORDINATES (ANGSTROEM)
---------------------------------
  C      1.647030   -2.345280   -5.020410
  C      0.217630   -1.814020   -4.924390
  C      2.209960   -2.812390   -3.665710
  H      2.308380   -1.588700   -5.457130
  H      1.674290   -3.203480   -5.697390
  C      2.489010   -1.668510   -2.737540
  C      3.596310   -0.947610   -2.952250
  N      1.663940   -1.413690   -1.777810
  H      0.811640   -1.963180   -1.702750
  H      1.845500   -0.635080   -1.158750
  H      4.205350   -1.176000   -3.733830
  H      3.817230   -0.125850   -2.406040
  H      3.143110   -3.362800   -3.811520
  H      1.487680   -3.458930   -3.165210
  H     -0.114590   -1.506840   -5.894010
  H      0.191930   -0.977960   -4.257130
  H     -0.425430   -2.585230   -4.554790

 Total Charge           Charge          ....    0
 Multiplicity           Mult            ....    1
 Number of Electrons    NEL             ....   48
 Basis Dimension        Dim             ....  208

ORBITAL ENERGIES
----------------

  NO   OCC          E(Eh)            E(eV)
   0   2.0000     -14.767598      -401.8468
   1   2.0000     -10.571218      -287.6575
   2   2.0000     -10.548254      -287.0326
   3   2.0000     -10.545684      -286.9626
   4   2.0000     -10.532738      -286.6104
   5   2.0000     -10.480740      -285.1954
   6   2.0000      -1.038103       -28.2482
   7   2.0000      -0.883997       -24.0548
   8   2.0000      -0.817066       -22.2335
   9   2.0000      -0.762400       -20.7460
  10   2.0000      -0.686302       -18.6752
  11   2.0000      -0.638473       -17.3737
  12   2.0000      -0.603658       -16.4264
  13   2.0000      -0.556525       -15.1438
  14   2.0000      -0.522519       -14.2185
  15   2.0000      -0.498672       -13.5695
  16   2.0000      -0.469533       -12.7766
  17   2.0000      -0.456442       -12.4204
  18   2.0000      -0.438991       -11.9456
  19   2.0000      -0.422400       -11.4941
  20   2.0000      -0.398861       -10.8536
  21   2.0000      -0.388951       -10.5839
  22   2.0000      -0.384218       -10.4551
  23   2.0000      -0.236361        -6.4317
  24   0.0000       0.035566         0.9678
  25   0.0000       0.061452         1.6722
  26   0.0000       0.063940         1.7399
  27   0.0000       0.067578         1.8389
  28   0.0000       0.089383         2.4322

MULLIKEN ATOMIC CHARGES
-----------------------
   0 C :   -0.368743
   1 C :    0.716972
   2 C :    0.309765
   3 H :   -0.046899
   4 H :   -0.095835
   5 C :   -0.087756
   6 C :    0.435937
   7 N :    0.096349
   8 H :   -0.021922
   9 H :   -0.122950
  10 H :   -0.154567
  11 H :   -0.508255
  12 H :    0.019000
  13 H :   -0.046168
  14 H :   -0.074219
  15 H :   -0.095336
  16 H :    0.044626
Sum of atomic charges:   -0.0000000

LOEWDIN ATOMIC CHARGES
----------------------
   0 C :   -0.064112
   1 C :    0.121806
   2 C :    0.005252
   3 H :    0.019900
   4 H :    0.016407
   5 C :   -0.269739
   6 C :    0.178285
   7 N :    0.163755
   8 H :    0.010375
   9 H :    0.018206
  10 H :   -0.083033
  11 H :   -0.094046
  12 H :    0.027595
  13 H :    0.013296
  14 H :   -0.019714
  15 H :   -0.024905
  16 H :   -0.019328

  Mayer bond orders larger than 0.100000
B(  0-C ,  1-C ) :   1.3052 B(  0-C ,  2-C ) :   1.1509 B(  0-C ,  3-H ) :   0.9580
B(  0-C ,  4-H ) :   1.0036 B(  0-C , 13-H ) :   0.1423 B(  0-C , 14-H ) :   0.2135
B(  0-C , 15-H ) :   0.2321 B(  0-C , 16-H ) :   0.2129 B(  1-C , 14-H ) :   0.7898
B(  1-C , 15-H ) :   0.8238 B(  1-C , 16-H ) :   0.7669 B(  2-C ,  3-H ) :   0.1435
B(  2-C ,  5-C ) :   1.0507 B(  2-C ,  6-C ) :   0.1618 B(  2-C ,  7-N ) :   0.1173
B(  2-C , 12-H ) :   0.8622 B(  2-C , 13-H ) :   0.7068 B(  5-C ,  6-C ) :   1.7511
B(  5-C ,  7-N ) :   1.1334 B(  5-C ,  9-H ) :  -0.1008 B(  5-C , 11-H ) :   0.1676
B(  5-C , 12-H ) :   0.1241 B(  5-C , 13-H ) :   0.2355 B(  6-C ,  7-N ) :   0.2640
B(  6-C , 10-H ) :   0.8400 B(  6-C , 11-H ) :   0.7787 B(  7-N ,  8-H ) :   1.0619
B(  7-N ,  9-H ) :   1.2290 B(  8-H ,  9-H ) :  -0.1646 B( 10-H , 11-H ) :  -0.1423

Dispersion correction           -0.000350717
FINAL SINGLE POINT ENERGY      -251.568325062455

DIPOLE MOMENT
-------------
                                X             Y             Z
Electronic contribution:      1.44676       0.28474       3.28830
Nuclear contribution   :     -2.15663      -0.43764      -3.01766
                        -----------------------------------------
Total Dipole Moment    :     -0.70988      -0.15290       0.27064
                        -----------------------------------------
Magnitude (a.u.)       :      0.77495
Magnitude (Debye)      :      1.96977

Rotational constants in cm-1:     0.184410     0.080989     0.069427
Rotational constants in MHz :  5528.462717  2427.993314  2081.376031

                             ****ORCA TERMINATED NORMALLY****
TOTAL RUN TIME: 0 days 0 hours 0 minutes 27 seconds 882 msec
