                         Program Version 5.0.0 -  RELEASE  -
|  1> !M062X D3Zero RIJCOSX def2-SVPD def2/J TightSCF
|  2> *xyz 0 1
|  3> C          1.64703       -2.34528       -5.02041
|  4> C          0.21763       -1.81402       -4.92439
|  5> C          2.20996       -2.81239       -3.66571
|  6> H          2.30838       -1.58870       -5.45713
|  7> H          1.67429       -3.20348       -5.69739
|  8> C          2.48901       -1.66851       -2.73754
|  9> N          3.59631       -0.94761       -2.95225
| 10> C          1.66394       -1.41369       -1.77781
| 11> H          0.81164       -1.96318       -1.70275
| 12> H          1.84550       -0.63508       -1.15875
| 13> H          4.20535       -1.17600       -3.73383
| 14> H          3.81723       -0.12585       -2.40604
| 15> H          3.14311       -3.36280       -3.81152
| 16> H          1.48768       -3.45893       -3.16521
| 17> H         -0.11459       -1.50684       -5.89401
| 18> H          0.19193       -0.97796       -4.25713
| 19> H         -0.42543       -2.58523       -4.55479
| 20> *
| 21>
| 22> %MaxCore 64000
| 23> %pal nprocs 4
| 24> end
| 25>
| 26> %scf
| 27>   MaxIter 150
| 28> end
| 29>
| 30>
| 31>                          ****END OF INPUT****

CARTESIAN COORDINATES (ANGSTROEM)
---------------------------------
  C      1.647030   -2.345280   -5.020410
  C      0.217630   -1.814020   -4.924390
  C      2.209960   -2.812390   -3.665710
  H      2.308380   -1.588700   -5.457130
  H      1.674290   -3.203480   -5.697390
  C      2.489010   -1.668510   -2.737540
  N      3.596310   -0.947610   -2.952250
  C      1.663940   -1.413690   -1.777810
  H      0.811640   -1.963180   -1.702750
  H      1.845500   -0.635080   -1.158750
  H      4.205350   -1.176000   -3.733830
  H      3.817230   -0.125850   -2.406040
  H      3.143110   -3.362800   -3.811520
  H      1.487680   -3.458930   -3.165210
  H     -0.114590   -1.506840   -5.894010
  H      0.191930   -0.977960   -4.257130
  H     -0.425430   -2.585230   -4.554790

 Total Charge           Charge          ....    0
 Multiplicity           Mult            ....    1
 Number of Electrons    NEL             ....   48
 Basis Dimension        Dim             ....  208

ORBITAL ENERGIES
----------------

  NO   OCC          E(Eh)            E(eV)
   0   2.0000     -14.760501      -401.6536
   1   2.0000     -10.567965      -287.5689
   2   2.0000     -10.546887      -286.9954
   3   2.0000     -10.546538      -286.9859
   4   2.0000     -10.527280      -286.4619
   5   2.0000     -10.484424      -285.2957
   6   2.0000      -1.018538       -27.7158
   7   2.0000      -0.883087       -24.0300
   8   2.0000      -0.824852       -22.4454
   9   2.0000      -0.767382       -20.8815
  10   2.0000      -0.674606       -18.3570
  11   2.0000      -0.639395       -17.3988
  12   2.0000      -0.594456       -16.1760
  13   2.0000      -0.547864       -14.9081
  14   2.0000      -0.517085       -14.0706
  15   2.0000      -0.510745       -13.8981
  16   2.0000      -0.464805       -12.6480
  17   2.0000      -0.455857       -12.4045
  18   2.0000      -0.437230       -11.8976
  19   2.0000      -0.427569       -11.6348
  20   2.0000      -0.396976       -10.8023
  21   2.0000      -0.383004       -10.4221
  22   2.0000      -0.378899       -10.3104
  23   2.0000      -0.249896        -6.8000
  24   0.0000       0.036819         1.0019
  25   0.0000       0.061899         1.6843
  26   0.0000       0.062956         1.7131
  27   0.0000       0.069990         1.9045
  28   0.0000       0.093367         2.5406

MULLIKEN ATOMIC CHARGES
-----------------------
   0 C :   -0.277650
   1 C :    0.726525
   2 C :    0.214570
   3 H :   -0.071134
   4 H :   -0.079502
   5 C :    0.004625
   6 N :    0.019013
   7 C :    0.379545
   8 H :   -0.078174
   9 H :   -0.434839
  10 H :   -0.094251
  11 H :   -0.160992
  12 H :   -0.120554
  13 H :    0.102639
  14 H :   -0.070956
  15 H :   -0.086323
  16 H :    0.027457
Sum of atomic charges:    0.0000000

LOEWDIN ATOMIC CHARGES
----------------------
   0 C :   -0.068344
   1 C :    0.124815
   2 C :    0.003316
   3 H :    0.014480
   4 H :    0.015715
   5 C :   -0.266454
   6 N :    0.164603
   7 C :    0.173480
   8 H :   -0.070606
   9 H :   -0.077288
  10 H :    0.000027
  11 H :    0.003657
  12 H :    0.020950
  13 H :    0.022322
  14 H :   -0.020927
  15 H :   -0.024323
  16 H :   -0.015424

  Mayer bond orders larger than 0.100000
B(  0-C ,  1-C ) :   1.3050 B(  0-C ,  2-C ) :   1.1254 B(  0-C ,  3-H ) :   0.9225
B(  0-C ,  4-H ) :   0.9549 B(  0-C , 13-H ) :   0.1137 B(  0-C , 14-H ) :   0.2170
B(  0-C , 15-H ) :   0.2325 B(  0-C , 16-H ) :   0.2124 B(  1-C , 14-H ) :   0.7864
B(  1-C , 15-H ) :   0.8281 B(  1-C , 16-H ) :   0.7664 B(  2-C ,  3-H ) :   0.1462
B(  2-C ,  4-H ) :   0.1074 B(  2-C ,  5-C ) :   1.1014 B(  2-C ,  6-N ) :   0.1263
B(  2-C ,  7-C ) :   0.1383 B(  2-C , 12-H ) :   0.9315 B(  2-C , 13-H ) :   0.7739
B(  5-C ,  6-N ) :   1.0928 B(  5-C ,  7-C ) :   1.7833 B(  5-C ,  8-H ) :   0.1562
B(  5-C ,  9-H ) :   0.2811 B(  5-C , 12-H ) :   0.1550 B(  5-C , 13-H ) :   0.1579
B(  6-N ,  7-C ) :   0.2285 B(  6-N , 10-H ) :   1.1633 B(  6-N , 11-H ) :   1.2436
B(  7-C ,  8-H ) :   0.9217 B(  7-C ,  9-H ) :   0.6345 B(  8-H ,  9-H ) :  -0.1150
B( 10-H , 11-H ) :  -0.1684

Dispersion correction           -0.000349733
FINAL SINGLE POINT ENERGY      -251.572678643300

DIPOLE MOMENT
-------------
                                X             Y             Z
Electronic contribution:      3.10736       0.70162       2.30737
Nuclear contribution   :     -2.61370      -0.54788      -2.73987
                        -----------------------------------------
Total Dipole Moment    :      0.49366       0.15374      -0.43250
                        -----------------------------------------
Magnitude (a.u.)       :      0.67408
Magnitude (Debye)      :      1.71338

Rotational constants in cm-1:     0.186678     0.079942     0.069329
Rotational constants in MHz :  5596.476267  2396.611465  2078.426257

                             ****ORCA TERMINATED NORMALLY****
TOTAL RUN TIME: 0 days 0 hours 0 minutes 26 seconds 562 msec
