                         Program Version 5.0.0 -  RELEASE  -
|  1> !M062X D3Zero RIJCOSX def2-SVPD def2/J TightSCF xyzfile
|  2>
|  3> *xyzfile 0 1 D1.xyz
|  4>
|  5> %MaxCore 64000
|  6>
|  7> %pal nprocs 4
|  8> end
|  9>
| 10> %scf
| 11>   MaxIter 150
| 12> end
| 13>
| 14>
| 15>                          ****END OF INPUT****

CARTESIAN COORDINATES (ANGSTROEM)
---------------------------------
  C      1.647032   -2.345276   -5.020411
  C      0.217628   -1.814022   -4.924389
  C      2.209964   -2.812388   -3.665708
  C     -0.811356   -2.908780   -4.607625
  C     -1.916579   -2.485081   -3.643665
  H     -2.554525   -1.712428   -4.091993
  C     -1.363531   -1.981337   -2.293608
  H     -2.553448   -3.355667   -3.458815
  F     -0.350395   -2.749689   -1.796006
  H      2.308385   -1.588704   -5.457128
  H      1.674286   -3.203478   -5.697392
  C      2.489007   -1.668510   -2.737538
  C      3.596314   -0.947608   -2.952247
  N      1.663936   -1.413685   -1.777806
  H      0.811642   -1.963178   -1.702755
  H      1.845503   -0.635078   -1.158749
  H      4.205351   -1.176003   -3.733825
  H      3.817230   -0.125845   -2.406041
  H     -1.244829   -3.280884   -5.541040
  H     -0.306331   -3.757746   -4.142734
  H     -0.036244   -1.318555   -5.865303
  H      0.175004   -1.035382   -4.158095
  H      3.143106   -3.362803   -3.811524
  H      1.487683   -3.458935   -3.165211
  H     -2.226220   -1.908386   -1.602039
  H     -1.051353   -0.915671   -2.443331

 Total Charge           Charge          ....    0
 Multiplicity           Mult            ....    1
 Number of Electrons    NEL             ....   80
 Basis Dimension        Dim             ....  331

ORBITAL ENERGIES
----------------

  NO   OCC          E(Eh)            E(eV)
   0   2.0000     -25.294115      -688.2879
   1   2.0000     -14.731243      -400.8575
   2   2.0000     -10.652584      -289.8715
   3   2.0000     -10.569039      -287.5982
   4   2.0000     -10.555465      -287.2288
   5   2.0000     -10.552980      -287.1612
   6   2.0000     -10.544692      -286.9357
   7   2.0000     -10.541358      -286.8449
   8   2.0000     -10.536851      -286.7223
   9   2.0000     -10.465241      -284.7737
  10   2.0000      -1.379331       -37.5335
  11   2.0000      -1.016022       -27.6474
  12   2.0000      -0.914551       -24.8862
  13   2.0000      -0.870607       -23.6904
  14   2.0000      -0.824844       -22.4451
  15   2.0000      -0.778380       -21.1808
  16   2.0000      -0.751502       -20.4494
  17   2.0000      -0.693902       -18.8820
  18   2.0000      -0.674050       -18.3418
  19   2.0000      -0.657819       -17.9002
  20   2.0000      -0.623649       -16.9703
  21   2.0000      -0.607575       -16.5330
  22   2.0000      -0.593064       -16.1381
  23   2.0000      -0.560658       -15.2563
  24   2.0000      -0.539452       -14.6792
  25   2.0000      -0.533178       -14.5085
  26   2.0000      -0.513822       -13.9818
  27   2.0000      -0.488729       -13.2990
  28   2.0000      -0.487061       -13.2536
  29   2.0000      -0.455570       -12.3967
  30   2.0000      -0.435401       -11.8479
  31   2.0000      -0.429373       -11.6838
  32   2.0000      -0.426884       -11.6161
  33   2.0000      -0.419912       -11.4264
  34   2.0000      -0.402914       -10.9639
  35   2.0000      -0.393165       -10.6986
  36   2.0000      -0.379902       -10.3377
  37   2.0000      -0.371717       -10.1149
  38   2.0000      -0.367756       -10.0072
  39   2.0000      -0.219290        -5.9672
  40   0.0000       0.031734         0.8635
  41   0.0000       0.047027         1.2797
  42   0.0000       0.053653         1.4600
  43   0.0000       0.057682         1.5696
  44   0.0000       0.075847         2.0639

MULLIKEN ATOMIC CHARGES
-----------------------
   0 C :    0.251492
   1 C :    0.189358
   2 C :    0.603862
   3 C :    0.078534
   4 C :    0.206727
   5 H :   -0.112432
   6 C :    0.640945
   7 H :    0.024721
   8 F :   -0.494701
   9 H :   -0.074381
  10 H :   -0.142579
  11 C :   -0.083487
  12 C :    0.281260
  13 N :    0.550951
  14 H :   -0.493877
  15 H :   -0.137357
  16 H :   -0.145823
  17 H :   -0.385853
  18 H :   -0.245866
  19 H :    0.030047
  20 H :   -0.196467
  21 H :   -0.098476
  22 H :   -0.011885
  23 H :   -0.218786
  24 H :   -0.286547
  25 H :    0.270618
Sum of atomic charges:   -0.0000000

LOEWDIN ATOMIC CHARGES
----------------------
   0 C :   -0.014390
   1 C :   -0.014853
   2 C :    0.024847
   3 C :   -0.025644
   4 C :   -0.010416
   5 H :    0.035935
   6 C :    0.155411
   7 H :    0.024795
   8 F :   -0.188421
   9 H :    0.021244
  10 H :    0.021268
  11 C :   -0.249622
  12 C :    0.170121
  13 N :    0.197607
  14 H :   -0.133137
  15 H :    0.020258
  16 H :   -0.088823
  17 H :   -0.097442
  18 H :    0.025192
  19 H :    0.006305
  20 H :    0.021421
  21 H :   -0.000502
  22 H :    0.029414
  23 H :   -0.006012
  24 H :    0.038329
  25 H :    0.037114

  Mayer bond orders larger than 0.100000
B(  0-C ,  1-C ) :   1.2389 B(  0-C ,  2-C ) :   1.1543 B(  0-C ,  9-H ) :   0.7713
B(  0-C , 10-H ) :   0.9070 B(  0-C , 21-H ) :   0.1558 B(  0-C , 23-H ) :   0.1581
B(  1-C ,  2-C ) :   0.1117 B(  1-C ,  3-C ) :   1.1546 B(  1-C ,  9-H ) :   0.1869
B(  1-C , 10-H ) :   0.1100 B(  1-C , 18-H ) :   0.2064 B(  1-C , 20-H ) :   0.8776
B(  1-C , 21-H ) :   0.7939 B(  2-C ,  9-H ) :   0.1535 B(  2-C , 11-C ) :   0.9677
B(  2-C , 13-N ) :   0.1062 B(  2-C , 14-H ) :  -0.1044 B(  2-C , 17-H ) :   0.1384
B(  2-C , 22-H ) :   0.7796 B(  2-C , 23-H ) :   0.6220 B(  3-C ,  4-C ) :   1.2325
B(  3-C ,  5-H ) :   0.1222 B(  3-C ,  7-H ) :   0.2049 B(  3-C , 18-H ) :   0.9239
B(  3-C , 19-H ) :   0.8270 B(  3-C , 20-H ) :   0.1018 B(  3-C , 21-H ) :   0.1538
B(  4-C ,  5-H ) :   0.9154 B(  4-C ,  6-C ) :   1.2401 B(  4-C ,  7-H ) :   0.7109
B(  4-C , 24-H ) :   0.1332 B(  6-C ,  8-F ) :   0.5363 B(  6-C , 24-H ) :   1.0477
B(  6-C , 25-H ) :   0.7548 B(  8-F , 14-H ) :   0.1442 B(  9-H , 10-H ) :  -0.1746
B(  9-H , 19-H ) :  -0.1026 B( 11-C , 12-C ) :   1.7399 B( 11-C , 13-N ) :   1.1846
B( 11-C , 15-H ) :  -0.1149 B( 11-C , 16-H ) :   0.1129 B( 11-C , 17-H ) :   0.1553
B( 11-C , 22-H ) :   0.1646 B( 11-C , 23-H ) :   0.2528 B( 12-C , 13-N ) :   0.1582
B( 12-C , 16-H ) :   0.8650 B( 12-C , 17-H ) :   0.7140 B( 13-N , 14-H ) :   0.9202
B( 13-N , 15-H ) :   1.1897 B( 14-H , 15-H ) :  -0.2147 B( 14-H , 23-H ) :   0.1264
B( 18-H , 19-H ) :  -0.1146 B( 19-H , 23-H ) :   0.1310 B( 20-H , 21-H ) :  -0.1083

Dispersion correction           -0.001060790
FINAL SINGLE POINT ENERGY      -468.482627261522

DIPOLE MOMENT
-------------
                                X             Y             Z
Electronic contribution:     -1.29257      -1.72863       6.91087
Nuclear contribution   :     -0.37390       1.73388      -6.94752
                        -----------------------------------------
Total Dipole Moment    :     -1.66647       0.00525      -0.03665
                        -----------------------------------------
Magnitude (a.u.)       :      1.66688
Magnitude (Debye)      :      4.23688

Rotational constants in cm-1:     0.062220     0.032742     0.024374
Rotational constants in MHz :  1865.297979   981.573941   730.711364

                             ****ORCA TERMINATED NORMALLY****
TOTAL RUN TIME: 0 days 0 hours 1 minutes 40 seconds 22 msec
