                         Program Version 5.0.0 -  RELEASE  -
|  1> !LC-PBE RIJCOSX def2-TZVPD def2/J TightSCF
|  2> *xyz -1 1
|  3> C         -5.57236       -5.80780       -0.81644
|  4> S         -6.90318       -4.61903       -0.52846
|  5> O         -8.11485       -5.25093       -0.95701
|  6> O         -6.53271       -3.42684       -1.31485
|  7> O         -6.86563       -4.29496        0.91412
|  8> C         -4.45780       -5.94187        0.22919
|  9> H         -5.17735       -5.54257       -1.79771
| 10> H         -6.07420       -6.76889       -0.92127
| 11> H         -3.75515       -6.68239       -0.09144
| 12> H         -4.88182       -6.23486        1.16689
| 13> H         -3.95908       -5.00189        0.34143
| 14> *
| 15> %MaxCore 64000
| 16>
| 17> %pal nprocs 4
| 18> end
| 19>
| 20> %scf
| 21>   MaxIter 150
| 22> end
| 23>
| 24>                          ****END OF INPUT****

CARTESIAN COORDINATES (ANGSTROEM)
---------------------------------
  C     -5.572360   -5.807800   -0.816440
  S     -6.903180   -4.619030   -0.528460
  O     -8.114850   -5.250930   -0.957010
  O     -6.532710   -3.426840   -1.314850
  O     -6.865630   -4.294960    0.914120
  C     -4.457800   -5.941870    0.229190
  H     -5.177350   -5.542570   -1.797710
  H     -6.074200   -6.768890   -0.921270
  H     -3.755150   -6.682390   -0.091440
  H     -4.881820   -6.234860    1.166890
  H     -3.959080   -5.001890    0.341430

 Total Charge           Charge          ....   -1
 Multiplicity           Mult            ....    1
 Number of Electrons    NEL             ....   58
 Basis Dimension        Dim             ....  285

ORBITAL ENERGIES
----------------

  NO   OCC          E(Eh)            E(eV)
   0   2.0000     -88.272672     -2402.0215
   1   2.0000     -18.763172      -510.5719
   2   2.0000     -18.748449      -510.1712
   3   2.0000     -18.747784      -510.1531
   4   2.0000      -9.981685      -271.6154
   5   2.0000      -9.974071      -271.4083
   6   2.0000      -7.883292      -214.5153
   7   2.0000      -5.900252      -160.5540
   8   2.0000      -5.898685      -160.5114
   9   2.0000      -5.898397      -160.5036
  10   2.0000      -1.098362       -29.8879
  11   2.0000      -0.953865       -25.9560
  12   2.0000      -0.930189       -25.3117
  13   2.0000      -0.812386       -22.1061
  14   2.0000      -0.677404       -18.4331
  15   2.0000      -0.534479       -14.5439
  16   2.0000      -0.466994       -12.7075
  17   2.0000      -0.463750       -12.6193
  18   2.0000      -0.422111       -11.4862
  19   2.0000      -0.405603       -11.0370
  20   2.0000      -0.401582       -10.9276
  21   2.0000      -0.362690        -9.8693
  22   2.0000      -0.353945        -9.6313
  23   2.0000      -0.291830        -7.9411
  24   2.0000      -0.290913        -7.9161
  25   2.0000      -0.251655        -6.8479
  26   2.0000      -0.236880        -6.4458
  27   2.0000      -0.236052        -6.4233
  28   2.0000      -0.196325        -5.3423
  29   0.0000       0.169621         4.6156
  30   0.0000       0.181104         4.9281
  31   0.0000       0.182797         4.9741
  32   0.0000       0.190894         5.1945
  33   0.0000       0.216051         5.8791

MULLIKEN ATOMIC CHARGES
-----------------------
   0 C :   -0.684467
   1 S :    1.093846
   2 O :   -0.669830
   3 O :   -0.711770
   4 O :   -0.715201
   5 C :   -1.129119
   6 H :    0.387790
   7 H :    0.382376
   8 H :    0.383913
   9 H :    0.343435
  10 H :    0.319026
Sum of atomic charges:   -1.0000000

LOEWDIN ATOMIC CHARGES
----------------------
   0 C :   -0.334061
   1 S :    0.338475
   2 O :   -0.380165
   3 O :   -0.418327
   4 O :   -0.411940
   5 C :   -0.164080
   6 H :    0.088602
   7 H :    0.084673
   8 H :    0.058410
   9 H :    0.066414
  10 H :    0.071998

  Mayer bond orders larger than 0.100000
B(  0-C ,  1-S ) :   0.9043 B(  0-C ,  2-O ) :   0.1137 B(  0-C ,  3-O ) :   0.1188
B(  0-C ,  5-C ) :   0.5093 B(  0-C ,  6-H ) :   0.9168 B(  0-C ,  7-H ) :   0.9111
B(  1-S ,  2-O ) :   1.5275 B(  1-S ,  3-O ) :   1.4883 B(  1-S ,  4-O ) :   1.4777
B(  5-C ,  8-H ) :   0.8877 B(  5-C ,  9-H ) :   0.9538 B(  5-C , 10-H ) :   0.9666

FINAL SINGLE POINT ENERGY      -702.101637992299

DIPOLE MOMENT
-------------
                                X             Y             Z
Electronic contribution:     -6.61256       4.24699      -0.93083
Nuclear contribution   :      8.13140      -5.68016       0.80206
                        -----------------------------------------
Total Dipole Moment    :      1.51884      -1.43317      -0.12877
                        -----------------------------------------
Magnitude (a.u.)       :      2.09223
Magnitude (Debye)      :      5.31802

Rotational constants in cm-1:     0.162101     0.080498     0.079099
Rotational constants in MHz :  4859.669771  2413.267251  2371.338602

                             ****ORCA TERMINATED NORMALLY****
TOTAL RUN TIME: 0 days 0 hours 0 minutes 49 seconds 725 msec
