                         Program Version 5.0.0 -  RELEASE  -
|  1> !LC-PBE RIJCOSX def2-TZVPD def2/J TightSCF
|  2> *xyz 1 1
|  3> C         -4.38262       -1.67089        1.21620
|  4> N         -5.76354       -1.91517        0.70501
|  5> C         -3.28173       -2.19127        0.29436
|  6> H         -5.84081       -2.11520       -0.30065
|  7> H         -6.40882       -1.14866        0.93612
|  8> H         -6.17478       -2.79061        1.05143
|  9> H         -4.32862       -2.13922        2.19810
| 10> H         -4.26158       -0.59740        1.35725
| 11> H         -3.36057       -1.71407       -0.66008
| 12> H         -3.38775       -3.24919        0.17403
| 13> H         -2.32559       -1.97514        0.72329
| 14> *
| 15> %MaxCore 64000
| 16>
| 17> %pal nprocs 4
| 18> end
| 19>
| 20> %scf
| 21>   MaxIter 150
| 22> end
| 23>
| 24>                          ****END OF INPUT****

CARTESIAN COORDINATES (ANGSTROEM)
---------------------------------
  C     -4.382620   -1.670890    1.216200
  N     -5.763540   -1.915170    0.705010
  C     -3.281730   -2.191270    0.294360
  H     -5.840810   -2.115200   -0.300650
  H     -6.408820   -1.148660    0.936120
  H     -6.174780   -2.790610    1.051430
  H     -4.328620   -2.139220    2.198100
  H     -4.261580   -0.597400    1.357250
  H     -3.360570   -1.714070   -0.660080
  H     -3.387750   -3.249190    0.174030
  H     -2.325590   -1.975140    0.723290

 Total Charge           Charge          ....    1
 Multiplicity           Mult            ....    1
 Number of Electrons    NEL             ....   26
 Basis Dimension        Dim             ....  183

ORBITAL ENERGIES
----------------

  NO   OCC          E(Eh)            E(eV)
   0   2.0000     -14.549887      -395.9226
   1   2.0000     -10.370060      -282.1837
   2   2.0000     -10.286130      -279.8998
   3   2.0000      -1.389600       -37.8129
   4   2.0000      -1.141227       -31.0544
   5   2.0000      -1.011613       -27.5274
   6   2.0000      -0.944839       -25.7104
   7   2.0000      -0.923266       -25.1233
   8   2.0000      -0.845414       -23.0049
   9   2.0000      -0.781902       -21.2766
  10   2.0000      -0.717869       -19.5342
  11   2.0000      -0.698954       -19.0195
  12   2.0000      -0.677986       -18.4489
  13   0.0000      -0.121469        -3.3053
  14   0.0000      -0.070326        -1.9137
  15   0.0000      -0.064801        -1.7633
  16   0.0000      -0.058338        -1.5875
  17   0.0000      -0.028834        -0.7846

MULLIKEN ATOMIC CHARGES
-----------------------
   0 C :   -0.377381
   1 N :   -0.447401
   2 C :   -1.337132
   3 H :    0.397213
   4 H :    0.394140
   5 H :    0.414886
   6 H :    0.354707
   7 H :    0.365336
   8 H :    0.431801
   9 H :    0.419908
  10 H :    0.383923
Sum of atomic charges:    1.0000000

LOEWDIN ATOMIC CHARGES
----------------------
   0 C :   -0.211198
   1 N :    0.172071
   2 C :   -0.080483
   3 H :    0.184584
   4 H :    0.188185
   5 H :    0.186072
   6 H :    0.141534
   7 H :    0.140600
   8 H :    0.090167
   9 H :    0.089653
  10 H :    0.098815

  Mayer bond orders larger than 0.100000
B(  0-C ,  1-N ) :   0.9077 B(  0-C ,  2-C ) :   0.6132 B(  0-C ,  6-H ) :   0.9042
B(  0-C ,  7-H ) :   0.8760 B(  1-N ,  3-H ) :   0.8268 B(  1-N ,  4-H ) :   0.8440
B(  1-N ,  5-H ) :   0.8203 B(  2-C ,  8-H ) :   0.8590 B(  2-C ,  9-H ) :   0.8861
B(  2-C , 10-H ) :   0.9145

FINAL SINGLE POINT ENERGY      -135.126635588914

DIPOLE MOMENT
-------------
                                X             Y             Z
Electronic contribution:     -1.81695       0.23762       0.30553
Nuclear contribution   :      0.19437      -0.25358      -0.32106
                        -----------------------------------------
Total Dipole Moment    :     -1.62258      -0.01597      -0.01553
                        -----------------------------------------
Magnitude (a.u.)       :      1.62273
Magnitude (Debye)      :      4.12465

Rotational constants in cm-1:     1.030014     0.272489     0.242697
Rotational constants in MHz : 30879.030706  8169.007780  7275.865152

                             ****ORCA TERMINATED NORMALLY****
TOTAL RUN TIME: 0 days 0 hours 0 minutes 20 seconds 313 msec
