                         Program Version 5.0.0 -  RELEASE  -
|  1> !LC-PBE RIJCOSX def2-TZVPD def2/J TightSCF xyzfile
|  2>
|  3> *xyzfile 0 1 B.xyz
|  4>
|  5> %MaxCore 64000
|  6>
|  7> %pal nprocs 4
|  8> end
|  9>
| 10> %scf
| 11>   MaxIter 150
| 12> end
| 13>
| 14>
| 15>                          ****END OF INPUT****

CARTESIAN COORDINATES (ANGSTROEM)
---------------------------------
  C     -4.382623   -1.670889    1.216201
  N     -5.763539   -1.915170    0.705012
  C     -3.281728   -2.191272    0.294361
  C     -5.572364   -5.807798   -0.816445
  S     -6.903179   -4.619033   -0.528458
  H     -5.840812   -2.115205   -0.300646
  H     -6.408823   -1.148656    0.936124
  H     -6.174781   -2.790606    1.051433
  O     -8.114853   -5.250932   -0.957007
  O     -6.532715   -3.426838   -1.314848
  H     -4.328618   -2.139223    2.198103
  H     -4.261583   -0.597399    1.357248
  O     -6.865632   -4.294957    0.914118
  C     -3.474641   -3.605898   -0.259608
  H     -2.354548   -2.127602    0.871433
  H     -3.166611   -1.499693   -0.545037
  C     -3.827078   -4.661097    0.786174
  H     -2.560559   -3.889391   -0.788050
  H     -4.255932   -3.570040   -1.019300
  C     -4.457800   -5.941875    0.229195
  H     -5.177347   -5.542575   -1.797714
  H     -6.074202   -6.768894   -0.921272
  H     -4.530506   -4.253640    1.511979
  H     -2.933400   -4.932302    1.356825
  H     -3.681064   -6.562236   -0.229885
  H     -4.843942   -6.512728    1.075805

 Total Charge           Charge          ....    0
 Multiplicity           Mult            ....    1
 Number of Electrons    NEL             ....   98
 Basis Dimension        Dim             ....  560

ORBITAL ENERGIES
----------------

  NO   OCC          E(Eh)            E(eV)
   0   2.0000     -88.442811     -2406.6512
   1   2.0000     -18.935254      -515.2545
   2   2.0000     -18.931461      -515.1513
   3   2.0000     -18.918756      -514.8055
   4   2.0000     -14.321953      -389.7202
   5   2.0000     -10.204940      -277.6905
   6   2.0000     -10.150964      -276.2218
   7   2.0000     -10.125090      -275.5177
   8   2.0000     -10.124356      -275.4977
   9   2.0000     -10.121280      -275.4140
  10   2.0000     -10.119308      -275.3604
  11   2.0000      -8.054167      -219.1650
  12   2.0000      -6.070790      -165.1946
  13   2.0000      -6.070293      -165.1811
  14   2.0000      -6.068640      -165.1361
  15   2.0000      -1.274949       -34.6931
  16   2.0000      -1.182955       -32.1899
  17   2.0000      -1.123380       -30.5687
  18   2.0000      -1.120222       -30.4828
  19   2.0000      -1.014461       -27.6049
  20   2.0000      -0.971061       -26.4239
  21   2.0000      -0.915949       -24.9242
  22   2.0000      -0.860511       -23.4157
  23   2.0000      -0.801415       -21.8076
  24   2.0000      -0.754105       -20.5203
  25   2.0000      -0.745719       -20.2920
  26   2.0000      -0.727437       -19.7946
  27   2.0000      -0.690622       -18.7928
  28   2.0000      -0.657861       -17.9013
  29   2.0000      -0.640806       -17.4372
  30   2.0000      -0.633455       -17.2372
  31   2.0000      -0.618083       -16.8189
  32   2.0000      -0.594003       -16.1636
  33   2.0000      -0.586718       -15.9654
  34   2.0000      -0.576698       -15.6927
  35   2.0000      -0.561447       -15.2777
  36   2.0000      -0.558649       -15.2016
  37   2.0000      -0.521983       -14.2039
  38   2.0000      -0.510060       -13.8794
  39   2.0000      -0.506276       -13.7765
  40   2.0000      -0.478210       -13.0128
  41   2.0000      -0.471301       -12.8247
  42   2.0000      -0.467050       -12.7091
  43   2.0000      -0.458200       -12.4682
  44   2.0000      -0.453098       -12.3294
  45   2.0000      -0.418760       -11.3950
  46   2.0000      -0.410934       -11.1821
  47   2.0000      -0.397864       -10.8264
  48   2.0000      -0.378443       -10.2980
  49   0.0000       0.033262         0.9051
  50   0.0000       0.058481         1.5914
  51   0.0000       0.061339         1.6691
  52   0.0000       0.069513         1.8915
  53   0.0000       0.079233         2.1560

MULLIKEN ATOMIC CHARGES
-----------------------
   0 C :   -0.821241
   1 N :   -0.337250
   2 C :   -0.747978
   3 C :   -1.061753
   4 S :    1.233115
   5 H :    0.441283
   6 H :    0.352914
   7 H :    0.403395
   8 O :   -0.630321
   9 O :   -0.838081
  10 H :    0.439921
  11 H :    0.390465
  12 O :   -0.838972
  13 C :   -0.738895
  14 H :    0.384793
  15 H :    0.379169
  16 C :   -0.617213
  17 H :    0.410481
  18 H :    0.472508
  19 C :   -0.799800
  20 H :    0.515609
  21 H :    0.447249
  22 H :    0.383079
  23 H :    0.397704
  24 H :    0.384256
  25 H :    0.395563
Sum of atomic charges:    0.0000000

LOEWDIN ATOMIC CHARGES
----------------------
   0 C :   -0.177045
   1 N :    0.149734
   2 C :   -0.198815
   3 C :   -0.248085
   4 S :    0.444698
   5 H :    0.105750
   6 H :    0.178838
   7 H :    0.065365
   8 O :   -0.307303
   9 O :   -0.385314
  10 H :    0.132505
  11 H :    0.128992
  12 O :   -0.366400
  13 C :   -0.216816
  14 H :    0.126899
  15 H :    0.125149
  16 C :   -0.226910
  17 H :    0.129743
  18 H :    0.093651
  19 C :   -0.231008
  20 H :    0.107476
  21 H :    0.105720
  22 H :    0.093072
  23 H :    0.126114
  24 H :    0.121635
  25 H :    0.122357

  Mayer bond orders larger than 0.100000
B(  0-C ,  1-N ) :   0.8814 B(  0-C ,  2-C ) :   0.7592 B(  0-C , 10-H ) :   0.9032
B(  0-C , 11-H ) :   0.8670 B(  0-C , 16-C ) :   0.1369 B(  1-N ,  5-H ) :   0.7613
B(  1-N ,  6-H ) :   0.8578 B(  1-N ,  7-H ) :   0.8237 B(  2-C , 13-C ) :   0.7864
B(  2-C , 14-H ) :   0.9058 B(  2-C , 15-H ) :   0.9391 B(  3-C ,  4-S ) :   0.8977
B(  3-C ,  8-O ) :   0.1731 B(  3-C ,  9-O ) :   0.1227 B(  3-C , 19-C ) :   0.5960
B(  3-C , 20-H ) :   0.8129 B(  3-C , 21-H ) :   0.8954 B(  4-S ,  8-O ) :   1.4167
B(  4-S ,  9-O ) :   1.3400 B(  4-S , 12-O ) :   1.3479 B(  9-O , 12-O ) :   0.1161
B(  9-O , 18-H ) :  -0.1101 B( 13-C , 16-C ) :   0.3297 B( 13-C , 17-H ) :   0.8615
B( 13-C , 18-H ) :   0.9799 B( 13-C , 22-H ) :  -0.1185 B( 16-C , 19-C ) :   0.8736
B( 16-C , 22-H ) :   1.0015 B( 16-C , 23-H ) :   0.8554 B( 19-C , 24-H ) :   0.9210
B( 19-C , 25-H ) :   0.9016

FINAL SINGLE POINT ENERGY      -914.601649704834

DIPOLE MOMENT
-------------
                                X             Y             Z
Electronic contribution:    -13.46087      -2.91940      -3.65966
Nuclear contribution   :     16.18863       5.15617       4.97370
                        -----------------------------------------
Total Dipole Moment    :      2.72776       2.23677       1.31404
                        -----------------------------------------
Magnitude (a.u.)       :      3.76438
Magnitude (Debye)      :      9.56828

Rotational constants in cm-1:     0.048546     0.025588     0.020102
Rotational constants in MHz :  1455.374030   767.095631   602.645620

                             ****ORCA TERMINATED NORMALLY****
TOTAL RUN TIME: 0 days 0 hours 3 minutes 55 seconds 237 msec
