                         Program Version 5.0.0 -  RELEASE  -
|  1> !LC-PBE RIJCOSX def2-TZVPD def2/J TightSCF
|  2> *xyz 0 1
|  3> C         -5.57236       -5.80780       -0.81644
|  4> S         -6.90318       -4.61903       -0.52846
|  5> F         -8.11485       -5.25093       -0.95701
|  6> O         -6.53271       -3.42684       -1.31485
|  7> O         -6.86563       -4.29496        0.91412
|  8> C         -4.45780       -5.94187        0.22919
|  9> H         -5.17735       -5.54257       -1.79771
| 10> H         -6.07420       -6.76889       -0.92127
| 11> H         -3.75515       -6.68239       -0.09144
| 12> H         -4.88182       -6.23486        1.16689
| 13> H         -3.95908       -5.00189        0.34143
| 14> *
| 15> %MaxCore 64000
| 16>
| 17> %pal nprocs 4
| 18> end
| 19>
| 20> %scf
| 21>   MaxIter 150
| 22> end
| 23>
| 24>                          ****END OF INPUT****

CARTESIAN COORDINATES (ANGSTROEM)
---------------------------------
  C     -5.572360   -5.807800   -0.816440
  S     -6.903180   -4.619030   -0.528460
  F     -8.114850   -5.250930   -0.957010
  O     -6.532710   -3.426840   -1.314850
  O     -6.865630   -4.294960    0.914120
  C     -4.457800   -5.941870    0.229190
  H     -5.177350   -5.542570   -1.797710
  H     -6.074200   -6.768890   -0.921270
  H     -3.755150   -6.682390   -0.091440
  H     -4.881820   -6.234860    1.166890
  H     -3.959080   -5.001890    0.341430

 Total Charge           Charge          ....    0
 Multiplicity           Mult            ....    1
 Number of Electrons    NEL             ....   58
 Basis Dimension        Dim             ....  285

ORBITAL ENERGIES
----------------

  NO   OCC          E(Eh)            E(eV)
   0   2.0000     -88.537976     -2409.2408
   1   2.0000     -24.623536      -670.0405
   2   2.0000     -18.984285      -516.5887
   3   2.0000     -18.984211      -516.5867
   4   2.0000     -10.184603      -277.1371
   5   2.0000     -10.135430      -275.7991
   6   2.0000      -8.149069      -221.7475
   7   2.0000      -6.169397      -167.8778
   8   2.0000      -6.162528      -167.6909
   9   2.0000      -6.161908      -167.6741
  10   2.0000      -1.557810       -42.3902
  11   2.0000      -1.267674       -34.4952
  12   2.0000      -1.161951       -31.6183
  13   2.0000      -1.002647       -27.2834
  14   2.0000      -0.906111       -24.6565
  15   2.0000      -0.844968       -22.9928
  16   2.0000      -0.753584       -20.5061
  17   2.0000      -0.750989       -20.4355
  18   2.0000      -0.708013       -19.2660
  19   2.0000      -0.642315       -17.4783
  20   2.0000      -0.628466       -17.1014
  21   2.0000      -0.586985       -15.9727
  22   2.0000      -0.569691       -15.5021
  23   2.0000      -0.544277       -14.8105
  24   2.0000      -0.528052       -14.3690
  25   2.0000      -0.521328       -14.1860
  26   2.0000      -0.463042       -12.6000
  27   2.0000      -0.457719       -12.4552
  28   2.0000      -0.438496       -11.9321
  29   0.0000       0.044311         1.2058
  30   0.0000       0.058146         1.5822
  31   0.0000       0.063578         1.7301
  32   0.0000       0.070403         1.9158
  33   0.0000       0.095918         2.6101

MULLIKEN ATOMIC CHARGES
-----------------------
   0 C :   -0.659992
   1 S :    1.071448
   2 F :   -0.082520
   3 O :   -0.569694
   4 O :   -0.578301
   5 C :   -1.201025
   6 H :    0.434340
   7 H :    0.446563
   8 H :    0.398659
   9 H :    0.380664
  10 H :    0.359859
Sum of atomic charges:   -0.0000000

LOEWDIN ATOMIC CHARGES
----------------------
   0 C :   -0.291461
   1 S :    0.584579
   2 F :   -0.031077
   3 O :   -0.300145
   4 O :   -0.298207
   5 C :   -0.122078
   6 H :    0.108078
   7 H :    0.100630
   8 H :    0.082455
   9 H :    0.080411
  10 H :    0.086815

  Mayer bond orders larger than 0.100000
B(  0-C ,  1-S ) :   0.8904 B(  0-C ,  5-C ) :   0.6005 B(  0-C ,  6-H ) :   0.8694
B(  0-C ,  7-H ) :   0.8093 B(  1-S ,  2-F ) :   1.0578 B(  1-S ,  3-O ) :   1.6804
B(  1-S ,  4-O ) :   1.6697 B(  5-C ,  8-H ) :   0.8791 B(  5-C ,  9-H ) :   0.9110
B(  5-C , 10-H ) :   0.9326

FINAL SINGLE POINT ENERGY      -726.583055493326

DIPOLE MOMENT
-------------
                                X             Y             Z
Electronic contribution:     -9.38610       3.51344      -1.88247
Nuclear contribution   :      9.80704      -5.24335       1.35017
                        -----------------------------------------
Total Dipole Moment    :      0.42094      -1.72991      -0.53230
                        -----------------------------------------
Magnitude (a.u.)       :      1.85825
Magnitude (Debye)      :      4.72331

Rotational constants in cm-1:     0.156316     0.078308     0.076228
Rotational constants in MHz :  4686.224999  2347.601204  2285.245115

                             ****ORCA TERMINATED NORMALLY****
TOTAL RUN TIME: 0 days 0 hours 0 minutes 46 seconds 264 msec
