                         Program Version 5.0.0 -  RELEASE  -
|  1> !LC-PBE RIJCOSX def2-TZVPD def2/J TightSCF
|  2> *xyz 0 1
|  3> C         -4.38262       -1.67089        1.21620
|  4> C         -5.76354       -1.91517        0.70501
|  5> C         -3.28173       -2.19127        0.29436
|  6> H         -5.84081       -2.11520       -0.30065
|  7> H         -6.40882       -1.14866        0.93612
|  8> H         -6.17478       -2.79061        1.05143
|  9> H         -4.32862       -2.13922        2.19810
| 10> H         -4.26158       -0.59740        1.35725
| 11> H         -3.36057       -1.71407       -0.66008
| 12> H         -3.38775       -3.24919        0.17403
| 13> H         -2.32559       -1.97514        0.72329
| 14> *
| 15> %MaxCore 64000
| 16>
| 17> %pal nprocs 4
| 18> end
| 19>
| 20> %scf
| 21>   MaxIter 150
| 22> end
| 23>
| 24>                          ****END OF INPUT****

CARTESIAN COORDINATES (ANGSTROEM)
---------------------------------
  C     -4.382620   -1.670890    1.216200
  C     -5.763540   -1.915170    0.705010
  C     -3.281730   -2.191270    0.294360
  H     -5.840810   -2.115200   -0.300650
  H     -6.408820   -1.148660    0.936120
  H     -6.174780   -2.790610    1.051430
  H     -4.328620   -2.139220    2.198100
  H     -4.261580   -0.597400    1.357250
  H     -3.360570   -1.714070   -0.660080
  H     -3.387750   -3.249190    0.174030
  H     -2.325590   -1.975140    0.723290

 Total Charge           Charge          ....    0
 Multiplicity           Mult            ....    1
 Number of Electrons    NEL             ....   26
 Basis Dimension        Dim             ....  183

ORBITAL ENERGIES
----------------

  NO   OCC          E(Eh)            E(eV)
   0   2.0000     -10.101618      -274.8790
   1   2.0000     -10.090082      -274.5651
   2   2.0000     -10.070832      -274.0413
   3   2.0000      -0.967991       -26.3404
   4   2.0000      -0.861901       -23.4535
   5   2.0000      -0.749921       -20.4064
   6   2.0000      -0.609768       -16.5926
   7   2.0000      -0.586252       -15.9527
   8   2.0000      -0.548605       -14.9283
   9   2.0000      -0.520966       -14.1762
  10   2.0000      -0.469902       -12.7867
  11   2.0000      -0.462625       -12.5887
  12   2.0000      -0.447215       -12.1693
  13   0.0000       0.074038         2.0147
  14   0.0000       0.091789         2.4977
  15   0.0000       0.094822         2.5802
  16   0.0000       0.126538         3.4433
  17   0.0000       0.149176         4.0593

MULLIKEN ATOMIC CHARGES
-----------------------
   0 C :   -0.327599
   1 C :   -1.264269
   2 C :   -1.253999
   3 H :    0.386904
   4 H :    0.354317
   5 H :    0.375105
   6 H :    0.314807
   7 H :    0.332120
   8 H :    0.374907
   9 H :    0.352024
  10 H :    0.355683
Sum of atomic charges:    0.0000000

LOEWDIN ATOMIC CHARGES
----------------------
   0 C :   -0.327615
   1 C :   -0.149381
   2 C :   -0.139436
   3 H :    0.060084
   4 H :    0.060242
   5 H :    0.059684
   6 H :    0.109983
   7 H :    0.108409
   8 H :    0.074582
   9 H :    0.074974
  10 H :    0.068473

  Mayer bond orders larger than 0.100000
B(  0-C ,  1-C ) :   0.6184 B(  0-C ,  2-C ) :   0.5776 B(  0-C ,  6-H ) :   0.9377
B(  0-C ,  7-H ) :   0.9219 B(  1-C ,  3-H ) :   0.8840 B(  1-C ,  4-H ) :   0.9307
B(  1-C ,  5-H ) :   0.9548 B(  2-C ,  8-H ) :   0.9280 B(  2-C ,  9-H ) :   0.9477
B(  2-C , 10-H ) :   0.9528

FINAL SINGLE POINT ENERGY      -118.733132381556

DIPOLE MOMENT
-------------
                                X             Y             Z
Electronic contribution:      0.18350       0.23494       0.33766
Nuclear contribution   :     -0.21528      -0.24783      -0.32864
                        -----------------------------------------
Total Dipole Moment    :     -0.03177      -0.01289       0.00902
                        -----------------------------------------
Magnitude (a.u.)       :      0.03545
Magnitude (Debye)      :      0.09012

Rotational constants in cm-1:     1.037566     0.286459     0.254172
Rotational constants in MHz : 31105.431429  8587.814531  7619.871198

                             ****ORCA TERMINATED NORMALLY****
TOTAL RUN TIME: 0 days 0 hours 0 minutes 18 seconds 6 msec
