                         Program Version 5.0.0 -  RELEASE  -
|  1> !LC-PBE RIJCOSX def2-TZVPD def2/J TightSCF
|  2> *xyz 0 1
|  3> C         -5.57236       -5.80780       -0.81644
|  4> S         -6.90318       -4.61903       -0.52846
|  5> O         -8.11485       -5.25093       -0.95701
|  6> F         -6.53271       -3.42684       -1.31485
|  7> O         -6.86563       -4.29496        0.91412
|  8> C         -4.45780       -5.94187        0.22919
|  9> H         -5.17735       -5.54257       -1.79771
| 10> H         -6.07420       -6.76889       -0.92127
| 11> H         -3.75515       -6.68239       -0.09144
| 12> H         -4.88182       -6.23486        1.16689
| 13> H         -3.95908       -5.00189        0.34143
| 14> *
| 15> %MaxCore 64000
| 16>
| 17> %pal nprocs 4
| 18> end
| 19>
| 20> %scf
| 21>   MaxIter 150
| 22> end
| 23>
| 24>                          ****END OF INPUT****

CARTESIAN COORDINATES (ANGSTROEM)
---------------------------------
  C     -5.572360   -5.807800   -0.816440
  S     -6.903180   -4.619030   -0.528460
  O     -8.114850   -5.250930   -0.957010
  F     -6.532710   -3.426840   -1.314850
  O     -6.865630   -4.294960    0.914120
  C     -4.457800   -5.941870    0.229190
  H     -5.177350   -5.542570   -1.797710
  H     -6.074200   -6.768890   -0.921270
  H     -3.755150   -6.682390   -0.091440
  H     -4.881820   -6.234860    1.166890
  H     -3.959080   -5.001890    0.341430

 Total Charge           Charge          ....    0
 Multiplicity           Mult            ....    1
 Number of Electrons    NEL             ....   58
 Basis Dimension        Dim             ....  285

ORBITAL ENERGIES
----------------

  NO   OCC          E(Eh)            E(eV)
   0   2.0000     -88.535560     -2409.1751
   1   2.0000     -24.600423      -669.4116
   2   2.0000     -18.999217      -516.9950
   3   2.0000     -18.983873      -516.5774
   4   2.0000     -10.183828      -277.1160
   5   2.0000     -10.135138      -275.7911
   6   2.0000      -8.146648      -221.6816
   7   2.0000      -6.167150      -167.8167
   8   2.0000      -6.160243      -167.6287
   9   2.0000      -6.159342      -167.6042
  10   2.0000      -1.521237       -41.3950
  11   2.0000      -1.283750       -34.9326
  12   2.0000      -1.177625       -32.0448
  13   2.0000      -1.002525       -27.2801
  14   2.0000      -0.892924       -24.2977
  15   2.0000      -0.835968       -22.7478
  16   2.0000      -0.736978       -20.0542
  17   2.0000      -0.725177       -19.7331
  18   2.0000      -0.703664       -19.1477
  19   2.0000      -0.641201       -17.4480
  20   2.0000      -0.628674       -17.1071
  21   2.0000      -0.600285       -16.3346
  22   2.0000      -0.573133       -15.5957
  23   2.0000      -0.543324       -14.7846
  24   2.0000      -0.540262       -14.7013
  25   2.0000      -0.520068       -14.1518
  26   2.0000      -0.475137       -12.9291
  27   2.0000      -0.462353       -12.5813
  28   2.0000      -0.451719       -12.2919
  29   0.0000       0.047743         1.2992
  30   0.0000       0.059604         1.6219
  31   0.0000       0.064030         1.7423
  32   0.0000       0.069100         1.8803
  33   0.0000       0.096047         2.6136

MULLIKEN ATOMIC CHARGES
-----------------------
   0 C :   -0.661555
   1 S :    1.081617
   2 O :   -0.542559
   3 F :   -0.127766
   4 O :   -0.581269
   5 C :   -1.176925
   6 H :    0.461224
   7 H :    0.414616
   8 H :    0.398844
   9 H :    0.377281
  10 H :    0.356493
Sum of atomic charges:   -0.0000000

LOEWDIN ATOMIC CHARGES
----------------------
   0 C :   -0.286567
   1 S :    0.584839
   2 O :   -0.265704
   3 F :   -0.067356
   4 O :   -0.297257
   5 C :   -0.127632
   6 H :    0.104701
   7 H :    0.109880
   8 H :    0.081416
   9 H :    0.081537
  10 H :    0.082144

  Mayer bond orders larger than 0.100000
B(  0-C ,  1-S ) :   0.8907 B(  0-C ,  5-C ) :   0.5763 B(  0-C ,  6-H ) :   0.7977
B(  0-C ,  7-H ) :   0.8791 B(  1-S ,  2-O ) :   1.7180 B(  1-S ,  3-F ) :   1.0098
B(  1-S ,  4-O ) :   1.6635 B(  5-C ,  8-H ) :   0.8865 B(  5-C ,  9-H ) :   0.9299
B(  5-C , 10-H ) :   0.9197

FINAL SINGLE POINT ENERGY      -726.602242960393

DIPOLE MOMENT
-------------
                                X             Y             Z
Electronic contribution:     -6.66820       6.66170      -2.51772
Nuclear contribution   :      8.15840      -7.14411       1.72305
                        -----------------------------------------
Total Dipole Moment    :      1.49020      -0.48241      -0.79467
                        -----------------------------------------
Magnitude (a.u.)       :      1.75639
Magnitude (Debye)      :      4.46439

Rotational constants in cm-1:     0.153926     0.078297     0.077402
Rotational constants in MHz :  4614.585804  2347.272644  2320.438903

                             ****ORCA TERMINATED NORMALLY****
TOTAL RUN TIME: 0 days 0 hours 0 minutes 42 seconds 563 msec
