                         Program Version 5.0.0 -  RELEASE  -
|  1> !LC-PBE RIJCOSX def2-TZVPD def2/J TightSCF
|  2> *xyz 0 1
|  3> C         -5.57236       -5.80780       -0.81644
|  4> S         -6.90318       -4.61903       -0.52846
|  5> O         -8.11485       -5.25093       -0.95701
|  6> O         -6.53271       -3.42684       -1.31485
|  7> F         -6.86563       -4.29496        0.91412
|  8> C         -4.45780       -5.94187        0.22919
|  9> H         -5.17735       -5.54257       -1.79771
| 10> H         -6.07420       -6.76889       -0.92127
| 11> H         -3.75515       -6.68239       -0.09144
| 12> H         -4.88182       -6.23486        1.16689
| 13> H         -3.95908       -5.00189        0.34143
| 14> *
| 15> %MaxCore 64000
| 16>
| 17> %pal nprocs 4
| 18> end
| 19>
| 20> %scf
| 21>   MaxIter 150
| 22> end
| 23>
| 24>                          ****END OF INPUT****

CARTESIAN COORDINATES (ANGSTROEM)
---------------------------------
  C     -5.572360   -5.807800   -0.816440
  S     -6.903180   -4.619030   -0.528460
  O     -8.114850   -5.250930   -0.957010
  O     -6.532710   -3.426840   -1.314850
  F     -6.865630   -4.294960    0.914120
  C     -4.457800   -5.941870    0.229190
  H     -5.177350   -5.542570   -1.797710
  H     -6.074200   -6.768890   -0.921270
  H     -3.755150   -6.682390   -0.091440
  H     -4.881820   -6.234860    1.166890
  H     -3.959080   -5.001890    0.341430

 Total Charge           Charge          ....    0
 Multiplicity           Mult            ....    1
 Number of Electrons    NEL             ....   58
 Basis Dimension        Dim             ....  285

ORBITAL ENERGIES
----------------

  NO   OCC          E(Eh)            E(eV)
   0   2.0000     -88.535020     -2409.1604
   1   2.0000     -24.599011      -669.3731
   2   2.0000     -18.998887      -516.9860
   3   2.0000     -18.983246      -516.5604
   4   2.0000     -10.183059      -277.0951
   5   2.0000     -10.142623      -275.9948
   6   2.0000      -8.146144      -221.6678
   7   2.0000      -6.166755      -167.8059
   8   2.0000      -6.159539      -167.6096
   9   2.0000      -6.158948      -167.5935
  10   2.0000      -1.518272       -41.3143
  11   2.0000      -1.284352       -34.9490
  12   2.0000      -1.178321       -32.0637
  13   2.0000      -1.005707       -27.3667
  14   2.0000      -0.889464       -24.2035
  15   2.0000      -0.840832       -22.8802
  16   2.0000      -0.742863       -20.2143
  17   2.0000      -0.724186       -19.7061
  18   2.0000      -0.694927       -18.9099
  19   2.0000      -0.645906       -17.5760
  20   2.0000      -0.621602       -16.9146
  21   2.0000      -0.596501       -16.2316
  22   2.0000      -0.588379       -16.0106
  23   2.0000      -0.553404       -15.0589
  24   2.0000      -0.533690       -14.5224
  25   2.0000      -0.528256       -14.3746
  26   2.0000      -0.474848       -12.9213
  27   2.0000      -0.461505       -12.5582
  28   2.0000      -0.451076       -12.2744
  29   0.0000       0.048053         1.3076
  30   0.0000       0.058836         1.6010
  31   0.0000       0.065515         1.7828
  32   0.0000       0.068787         1.8718
  33   0.0000       0.096256         2.6193

MULLIKEN ATOMIC CHARGES
-----------------------
   0 C :   -0.591242
   1 S :    1.085366
   2 O :   -0.541914
   3 O :   -0.579687
   4 F :   -0.138002
   5 C :   -1.241639
   6 H :    0.422639
   7 H :    0.430388
   8 H :    0.381545
   9 H :    0.400250
  10 H :    0.372297
Sum of atomic charges:    0.0000000

LOEWDIN ATOMIC CHARGES
----------------------
   0 C :   -0.282604
   1 S :    0.583537
   2 O :   -0.265569
   3 O :   -0.301720
   4 F :   -0.066401
   5 C :   -0.130017
   6 H :    0.114041
   7 H :    0.105902
   8 H :    0.082224
   9 H :    0.077609
  10 H :    0.082998

  Mayer bond orders larger than 0.100000
B(  0-C ,  1-S ) :   0.8812 B(  0-C ,  5-C ) :   0.5326 B(  0-C ,  6-H ) :   0.8688
B(  0-C ,  7-H ) :   0.8604 B(  1-S ,  2-O ) :   1.7199 B(  1-S ,  3-O ) :   1.6763
B(  1-S ,  4-F ) :   1.0030 B(  5-C ,  8-H ) :   0.9090 B(  5-C ,  9-H ) :   0.8830
B(  5-C , 10-H ) :   0.9257

FINAL SINGLE POINT ENERGY      -726.602602891967

DIPOLE MOMENT
-------------
                                X             Y             Z
Electronic contribution:     -7.22081       5.13436       1.32588
Nuclear contribution   :      8.50531      -6.23950      -0.59960
                        -----------------------------------------
Total Dipole Moment    :      1.28450      -1.10514       0.72628
                        -----------------------------------------
Magnitude (a.u.)       :      1.84357
Magnitude (Debye)      :      4.68599

Rotational constants in cm-1:     0.152799     0.080212     0.076962
Rotational constants in MHz :  4580.804531  2404.707790  2307.252710

                             ****ORCA TERMINATED NORMALLY****
TOTAL RUN TIME: 0 days 0 hours 0 minutes 46 seconds 583 msec
