                         Program Version 5.0.0 -  RELEASE  -
|  1> !LC-PBE RIJCOSX def2-TZVPD def2/J TightSCF xyzfile
|  2>
|  3> *xyzfile 0 1 D1.xyz
|  4>
|  5> %MaxCore 64000
|  6>
|  7> %pal nprocs 4
|  8> end
|  9>
| 10> %scf
| 11>   MaxIter 150
| 12> end
| 13>
| 14>
| 15>                          ****END OF INPUT****

CARTESIAN COORDINATES (ANGSTROEM)
---------------------------------
  C     -4.382623   -1.670889    1.216201
  C     -5.763539   -1.915170    0.705012
  C     -3.281728   -2.191272    0.294361
  C     -5.572364   -5.807798   -0.816445
  S     -6.903179   -4.619033   -0.528458
  H     -5.840812   -2.115205   -0.300646
  H     -6.408823   -1.148656    0.936124
  H     -6.174781   -2.790606    1.051433
  F     -8.114853   -5.250932   -0.957007
  O     -6.532715   -3.426838   -1.314848
  H     -4.328618   -2.139223    2.198103
  H     -4.261583   -0.597399    1.357248
  O     -6.865632   -4.294957    0.914118
  C     -3.474641   -3.605898   -0.259608
  H     -2.354548   -2.127602    0.871433
  H     -3.166611   -1.499693   -0.545037
  C     -3.827078   -4.661097    0.786174
  H     -2.560559   -3.889391   -0.788050
  H     -4.255932   -3.570040   -1.019300
  C     -4.457800   -5.941875    0.229195
  H     -5.177347   -5.542575   -1.797714
  H     -6.074202   -6.768894   -0.921272
  H     -4.530506   -4.253640    1.511979
  H     -2.933400   -4.932302    1.356825
  H     -3.681064   -6.562236   -0.229885
  H     -4.843942   -6.512728    1.075805

 Total Charge           Charge          ....    0
 Multiplicity           Mult            ....    1
 Number of Electrons    NEL             ....   98
 Basis Dimension        Dim             ....  560

ORBITAL ENERGIES
----------------

  NO   OCC          E(Eh)            E(eV)
   0   2.0000     -88.545722     -2409.4516
   1   2.0000     -24.628744      -670.1822
   2   2.0000     -18.992922      -516.8237
   3   2.0000     -18.992045      -516.7998
   4   2.0000     -10.185711      -277.1673
   5   2.0000     -10.145397      -276.0703
   6   2.0000     -10.111060      -275.1359
   7   2.0000     -10.100134      -274.8386
   8   2.0000     -10.091440      -274.6021
   9   2.0000     -10.076865      -274.2054
  10   2.0000     -10.016228      -272.5554
  11   2.0000      -8.157041      -221.9644
  12   2.0000      -6.177228      -168.0909
  13   2.0000      -6.170486      -167.9075
  14   2.0000      -6.170008      -167.8944
  15   2.0000      -1.563353       -42.5410
  16   2.0000      -1.281563       -34.8731
  17   2.0000      -1.175948       -31.9992
  18   2.0000      -1.018882       -27.7252
  19   2.0000      -0.976041       -26.5594
  20   2.0000      -0.927295       -25.2330
  21   2.0000      -0.897673       -24.4269
  22   2.0000      -0.859901       -23.3991
  23   2.0000      -0.812591       -22.1117
  24   2.0000      -0.775926       -21.1140
  25   2.0000      -0.761161       -20.7122
  26   2.0000      -0.744048       -20.2466
  27   2.0000      -0.708592       -19.2818
  28   2.0000      -0.695701       -18.9310
  29   2.0000      -0.647338       -17.6150
  30   2.0000      -0.642997       -17.4968
  31   2.0000      -0.620655       -16.8889
  32   2.0000      -0.614215       -16.7136
  33   2.0000      -0.585653       -15.9364
  34   2.0000      -0.576288       -15.6816
  35   2.0000      -0.560856       -15.2617
  36   2.0000      -0.548416       -14.9232
  37   2.0000      -0.523860       -14.2550
  38   2.0000      -0.515916       -14.0388
  39   2.0000      -0.511047       -13.9063
  40   2.0000      -0.481144       -13.0926
  41   2.0000      -0.476007       -12.9528
  42   2.0000      -0.469475       -12.7751
  43   2.0000      -0.463917       -12.6238
  44   2.0000      -0.452396       -12.3103
  45   2.0000      -0.438863       -11.9421
  46   2.0000      -0.418683       -11.3929
  47   2.0000      -0.413257       -11.2453
  48   2.0000      -0.391240       -10.6462
  49   0.0000       0.034377         0.9355
  50   0.0000       0.055438         1.5086
  51   0.0000       0.056917         1.5488
  52   0.0000       0.071896         1.9564
  53   0.0000       0.087684         2.3860

MULLIKEN ATOMIC CHARGES
-----------------------
   0 C :   -0.556309
   1 C :   -1.798388
   2 C :   -0.897787
   3 C :   -1.054592
   4 S :    1.112900
   5 H :    0.687200
   6 H :    0.461161
   7 H :    0.584825
   8 F :   -0.045706
   9 O :   -0.671199
  10 H :    0.397073
  11 H :    0.372064
  12 O :   -0.655204
  13 C :   -0.611815
  14 H :    0.337638
  15 H :    0.369156
  16 C :   -0.647541
  17 H :    0.396385
  18 H :    0.386645
  19 C :   -0.787067
  20 H :    0.535137
  21 H :    0.513289
  22 H :    0.397237
  23 H :    0.388606
  24 H :    0.384871
  25 H :    0.401420
Sum of atomic charges:   -0.0000000

LOEWDIN ATOMIC CHARGES
----------------------
   0 C :   -0.259942
   1 C :   -0.147794
   2 C :   -0.222520
   3 C :   -0.228553
   4 S :    0.647746
   5 H :    0.027134
   6 H :    0.074796
   7 H :   -0.003820
   8 F :   -0.017741
   9 O :   -0.302567
  10 H :    0.112497
  11 H :    0.112134
  12 O :   -0.292067
  13 C :   -0.218529
  14 H :    0.114491
  15 H :    0.121609
  16 C :   -0.216715
  17 H :    0.123088
  18 H :    0.092366
  19 C :   -0.221352
  20 H :    0.115672
  21 H :    0.106517
  22 H :    0.102643
  23 H :    0.129124
  24 H :    0.128267
  25 H :    0.123517

  Mayer bond orders larger than 0.100000
B(  0-C ,  1-C ) :   0.2613 B(  0-C ,  2-C ) :   0.7223 B(  0-C , 10-H ) :   0.9008
B(  0-C , 11-H ) :   0.9167 B(  0-C , 16-C ) :   0.1229 B(  1-C ,  5-H ) :   0.5451
B(  1-C ,  6-H ) :   0.8407 B(  1-C ,  7-H ) :   0.7479 B(  1-C ,  9-O ) :   0.1580
B(  1-C , 12-O ) :   0.1754 B(  2-C , 13-C ) :   0.8767 B(  2-C , 14-H ) :   0.9479
B(  2-C , 15-H ) :   0.9242 B(  3-C ,  4-S ) :   0.8964 B(  3-C ,  9-O ) :   0.1183
B(  3-C , 13-C ) :   0.1143 B(  3-C , 19-C ) :   0.6560 B(  3-C , 20-H ) :   0.7982
B(  3-C , 21-H ) :   0.7723 B(  4-S ,  8-F ) :   0.9502 B(  4-S ,  9-O ) :   1.6509
B(  4-S , 12-O ) :   1.6889 B(  5-H ,  9-O ) :  -0.1863 B(  7-H , 12-O ) :  -0.3038
B(  9-O , 12-O ) :   0.1660 B( 13-C , 16-C ) :   0.3978 B( 13-C , 17-H ) :   0.8766
B( 13-C , 18-H ) :   1.0104 B( 16-C , 18-H ) :  -0.1035 B( 16-C , 19-C ) :   0.8193
B( 16-C , 22-H ) :   0.9853 B( 16-C , 23-H ) :   0.8674 B( 19-C , 24-H ) :   0.9217
B( 19-C , 25-H ) :   0.8848

FINAL SINGLE POINT ENERGY      -922.468518829656

DIPOLE MOMENT
-------------
                                X             Y             Z
Electronic contribution:    -18.95794      -8.73640      -6.75623
Nuclear contribution   :     19.08524       6.89775       6.14221
                        -----------------------------------------
Total Dipole Moment    :      0.12730      -1.83865      -0.61402
                        -----------------------------------------
Magnitude (a.u.)       :      1.94264
Magnitude (Debye)      :      4.93779

Rotational constants in cm-1:     0.049343     0.024787     0.019726
Rotational constants in MHz :  1479.262779   743.087234   591.370705

                             ****ORCA TERMINATED NORMALLY****
TOTAL RUN TIME: 0 days 0 hours 3 minutes 55 seconds 778 msec
