                         Program Version 5.0.0 -  RELEASE  -
|  1> !LC-PBE RIJCOSX def2-TZVPD def2/J TightSCF xyzfile
|  2>
|  3> *xyzfile 0 1 D2.xyz
|  4>
|  5> %MaxCore 64000
|  6>
|  7> %pal nprocs 4
|  8> end
|  9>
| 10> %scf
| 11>   MaxIter 150
| 12> end
| 13>
| 14>
| 15>                          ****END OF INPUT****

CARTESIAN COORDINATES (ANGSTROEM)
---------------------------------
  C     -4.382623   -1.670889    1.216201
  C     -5.763539   -1.915170    0.705012
  C     -3.281728   -2.191272    0.294361
  C     -5.572364   -5.807798   -0.816445
  S     -6.903179   -4.619033   -0.528458
  H     -5.840812   -2.115205   -0.300646
  H     -6.408823   -1.148656    0.936124
  H     -6.174781   -2.790606    1.051433
  O     -8.114853   -5.250932   -0.957007
  F     -6.532715   -3.426838   -1.314848
  H     -4.328618   -2.139223    2.198103
  H     -4.261583   -0.597399    1.357248
  O     -6.865632   -4.294957    0.914118
  C     -3.474641   -3.605898   -0.259608
  H     -2.354548   -2.127602    0.871433
  H     -3.166611   -1.499693   -0.545037
  C     -3.827078   -4.661097    0.786174
  H     -2.560559   -3.889391   -0.788050
  H     -4.255932   -3.570040   -1.019300
  C     -4.457800   -5.941875    0.229195
  H     -5.177347   -5.542575   -1.797714
  H     -6.074202   -6.768894   -0.921272
  H     -4.530506   -4.253640    1.511979
  H     -2.933400   -4.932302    1.356825
  H     -3.681064   -6.562236   -0.229885
  H     -4.843942   -6.512728    1.075805

 Total Charge           Charge          ....    0
 Multiplicity           Mult            ....    1
 Number of Electrons    NEL             ....   98
 Basis Dimension        Dim             ....  560

ORBITAL ENERGIES
----------------

  NO   OCC          E(Eh)            E(eV)
   0   2.0000     -88.540323     -2409.3047
   1   2.0000     -24.604219      -669.5148
   2   2.0000     -19.002997      -517.0978
   3   2.0000     -18.988372      -516.6999
   4   2.0000     -10.183612      -277.1102
   5   2.0000     -10.145170      -276.0641
   6   2.0000     -10.118607      -275.3413
   7   2.0000     -10.117259      -275.3046
   8   2.0000     -10.106076      -275.0003
   9   2.0000     -10.092826      -274.6398
  10   2.0000     -10.040415      -273.2136
  11   2.0000      -8.151646      -221.8176
  12   2.0000      -6.172123      -167.9520
  13   2.0000      -6.165192      -167.7634
  14   2.0000      -6.164318      -167.7396
  15   2.0000      -1.529011       -41.6065
  16   2.0000      -1.289950       -35.1013
  17   2.0000      -1.187998       -32.3271
  18   2.0000      -1.022264       -27.8172
  19   2.0000      -0.985790       -26.8247
  20   2.0000      -0.931061       -25.3354
  21   2.0000      -0.900262       -24.4974
  22   2.0000      -0.859586       -23.3905
  23   2.0000      -0.824407       -22.4333
  24   2.0000      -0.780686       -21.2435
  25   2.0000      -0.742183       -20.1958
  26   2.0000      -0.728449       -19.8221
  27   2.0000      -0.711925       -19.3725
  28   2.0000      -0.709254       -19.2998
  29   2.0000      -0.649827       -17.6827
  30   2.0000      -0.639914       -17.4129
  31   2.0000      -0.619512       -16.8578
  32   2.0000      -0.610360       -16.6088
  33   2.0000      -0.602559       -16.3965
  34   2.0000      -0.581400       -15.8207
  35   2.0000      -0.565863       -15.3979
  36   2.0000      -0.547167       -14.8892
  37   2.0000      -0.536706       -14.6045
  38   2.0000      -0.528456       -14.3800
  39   2.0000      -0.524658       -14.2767
  40   2.0000      -0.493840       -13.4381
  41   2.0000      -0.489267       -13.3136
  42   2.0000      -0.485729       -13.2174
  43   2.0000      -0.471585       -12.8325
  44   2.0000      -0.456588       -12.4244
  45   2.0000      -0.451420       -12.2838
  46   2.0000      -0.437538       -11.9060
  47   2.0000      -0.436022       -11.8648
  48   2.0000      -0.403405       -10.9772
  49   0.0000       0.045863         1.2480
  50   0.0000       0.055875         1.5204
  51   0.0000       0.063634         1.7316
  52   0.0000       0.069231         1.8839
  53   0.0000       0.085368         2.3230

MULLIKEN ATOMIC CHARGES
-----------------------
   0 C :   -0.552516
   1 C :   -1.872271
   2 C :   -0.886807
   3 C :   -1.017261
   4 S :    1.095730
   5 H :    0.668119
   6 H :    0.463580
   7 H :    0.689102
   8 O :   -0.554133
   9 F :   -0.194145
  10 H :    0.403165
  11 H :    0.369511
  12 O :   -0.646522
  13 C :   -0.590562
  14 H :    0.337611
  15 H :    0.371298
  16 C :   -0.646910
  17 H :    0.395663
  18 H :    0.335724
  19 C :   -0.772503
  20 H :    0.569378
  21 H :    0.436162
  22 H :    0.403716
  23 H :    0.388885
  24 H :    0.396051
  25 H :    0.409936
Sum of atomic charges:   -0.0000000

LOEWDIN ATOMIC CHARGES
----------------------
   0 C :   -0.256532
   1 C :   -0.144090
   2 C :   -0.222732
   3 C :   -0.225561
   4 S :    0.629475
   5 H :    0.039426
   6 H :    0.077089
   7 H :   -0.004945
   8 O :   -0.248626
   9 F :   -0.089349
  10 H :    0.115737
  11 H :    0.114080
  12 O :   -0.289844
  13 C :   -0.219901
  14 H :    0.117216
  15 H :    0.121537
  16 C :   -0.218518
  17 H :    0.125356
  18 H :    0.090852
  19 C :   -0.223494
  20 H :    0.112257
  21 H :    0.115437
  22 H :    0.102564
  23 H :    0.130175
  24 H :    0.126927
  25 H :    0.125463

  Mayer bond orders larger than 0.100000
B(  0-C ,  1-C ) :   0.2692 B(  0-C ,  2-C ) :   0.7271 B(  0-C , 10-H ) :   0.9014
B(  0-C , 11-H ) :   0.9212 B(  0-C , 16-C ) :   0.1260 B(  1-C ,  4-S ) :   0.1490
B(  1-C ,  5-H ) :   0.5042 B(  1-C ,  6-H ) :   0.8233 B(  1-C ,  7-H ) :   0.5891
B(  1-C ,  9-F ) :   0.1887 B(  1-C , 12-O ) :   0.2344 B(  2-C , 13-C ) :   0.8640
B(  2-C , 14-H ) :   0.9411 B(  2-C , 15-H ) :   0.9303 B(  3-C ,  4-S ) :   0.9069
B(  3-C ,  8-O ) :   0.1397 B(  3-C , 19-C ) :   0.6005 B(  3-C , 20-H ) :   0.7225
B(  3-C , 21-H ) :   0.8886 B(  4-S ,  8-O ) :   1.4999 B(  4-S ,  9-F ) :   1.0363
B(  4-S , 12-O ) :   1.6565 B(  5-H ,  9-F ) :  -0.1372 B(  7-H , 12-O ) :  -0.3146
B( 13-C , 16-C ) :   0.3953 B( 13-C , 17-H ) :   0.8723 B( 13-C , 18-H ) :   1.0523
B( 16-C , 18-H ) :  -0.1263 B( 16-C , 19-C ) :   0.8248 B( 16-C , 22-H ) :   0.9814
B( 16-C , 23-H ) :   0.8602 B( 19-C , 24-H ) :   0.9246 B( 19-C , 25-H ) :   0.8892

FINAL SINGLE POINT ENERGY      -922.486747973931

DIPOLE MOMENT
-------------
                                X             Y             Z
Electronic contribution:    -15.92731      -5.38071      -7.24356
Nuclear contribution   :     17.25367       4.78608       6.55647
                        -----------------------------------------
Total Dipole Moment    :      1.32636      -0.59463      -0.68709
                        -----------------------------------------
Magnitude (a.u.)       :      1.60776
Magnitude (Debye)      :      4.08660

Rotational constants in cm-1:     0.048508     0.025517     0.020225
Rotational constants in MHz :  1454.219007   764.979652   606.316599

                             ****ORCA TERMINATED NORMALLY****
TOTAL RUN TIME: 0 days 0 hours 3 minutes 54 seconds 954 msec
