                         Program Version 5.0.0 -  RELEASE  -
|  1> !LC-PBE RIJCOSX def2-TZVPD def2/J TightSCF xyzfile
|  2>
|  3> *xyzfile 0 1 D3.xyz
|  4>
|  5> %MaxCore 64000
|  6>
|  7> %pal nprocs 4
|  8> end
|  9>
| 10> %scf
| 11>   MaxIter 150
| 12> end
| 13>
| 14>
| 15>                          ****END OF INPUT****

CARTESIAN COORDINATES (ANGSTROEM)
---------------------------------
  C     -4.382623   -1.670889    1.216201
  C     -5.763539   -1.915170    0.705012
  C     -3.281728   -2.191272    0.294361
  C     -5.572364   -5.807798   -0.816445
  S     -6.903179   -4.619033   -0.528458
  H     -5.840812   -2.115205   -0.300646
  H     -6.408823   -1.148656    0.936124
  H     -6.174781   -2.790606    1.051433
  O     -8.114853   -5.250932   -0.957007
  O     -6.532715   -3.426838   -1.314848
  H     -4.328618   -2.139223    2.198103
  H     -4.261583   -0.597399    1.357248
  F     -6.865632   -4.294957    0.914118
  C     -3.474641   -3.605898   -0.259608
  H     -2.354548   -2.127602    0.871433
  H     -3.166611   -1.499693   -0.545037
  C     -3.827078   -4.661097    0.786174
  H     -2.560559   -3.889391   -0.788050
  H     -4.255932   -3.570040   -1.019300
  C     -4.457800   -5.941875    0.229195
  H     -5.177347   -5.542575   -1.797714
  H     -6.074202   -6.768894   -0.921272
  H     -4.530506   -4.253640    1.511979
  H     -2.933400   -4.932302    1.356825
  H     -3.681064   -6.562236   -0.229885
  H     -4.843942   -6.512728    1.075805

 Total Charge           Charge          ....    0
 Multiplicity           Mult            ....    1
 Number of Electrons    NEL             ....   98
 Basis Dimension        Dim             ....  560

ORBITAL ENERGIES
----------------

  NO   OCC          E(Eh)            E(eV)
   0   2.0000     -88.539440     -2409.2807
   1   2.0000     -24.603816      -669.5039
   2   2.0000     -19.002553      -517.0858
   3   2.0000     -18.986794      -516.6569
   4   2.0000     -10.182672      -277.0846
   5   2.0000     -10.150226      -276.2017
   6   2.0000     -10.125713      -275.5346
   7   2.0000     -10.110233      -275.1134
   8   2.0000     -10.103182      -274.9216
   9   2.0000     -10.093367      -274.6545
  10   2.0000     -10.042398      -273.2675
  11   2.0000      -8.150835      -221.7955
  12   2.0000      -6.171482      -167.9346
  13   2.0000      -6.164134      -167.7346
  14   2.0000      -6.163579      -167.7195
  15   2.0000      -1.528205       -41.5846
  16   2.0000      -1.290120       -35.1060
  17   2.0000      -1.186817       -32.2949
  18   2.0000      -1.025283       -27.8994
  19   2.0000      -0.984775       -26.7971
  20   2.0000      -0.930931       -25.3319
  21   2.0000      -0.899270       -24.4704
  22   2.0000      -0.860489       -23.4151
  23   2.0000      -0.823938       -22.4205
  24   2.0000      -0.785074       -21.3629
  25   2.0000      -0.745323       -20.2813
  26   2.0000      -0.738413       -20.0932
  27   2.0000      -0.708465       -19.2783
  28   2.0000      -0.697018       -18.9668
  29   2.0000      -0.646524       -17.5928
  30   2.0000      -0.641097       -17.4451
  31   2.0000      -0.623967       -16.9790
  32   2.0000      -0.604924       -16.4608
  33   2.0000      -0.598073       -16.2744
  34   2.0000      -0.591467       -16.0946
  35   2.0000      -0.568812       -15.4782
  36   2.0000      -0.548426       -14.9234
  37   2.0000      -0.531541       -14.4640
  38   2.0000      -0.529002       -14.3949
  39   2.0000      -0.527525       -14.3547
  40   2.0000      -0.495829       -13.4922
  41   2.0000      -0.490414       -13.3449
  42   2.0000      -0.480482       -13.0746
  43   2.0000      -0.464729       -12.6459
  44   2.0000      -0.462899       -12.5961
  45   2.0000      -0.453280       -12.3344
  46   2.0000      -0.433357       -11.7922
  47   2.0000      -0.429195       -11.6790
  48   2.0000      -0.415554       -11.3078
  49   0.0000       0.045001         1.2245
  50   0.0000       0.055886         1.5207
  51   0.0000       0.063401         1.7252
  52   0.0000       0.068969         1.8767
  53   0.0000       0.086392         2.3508

MULLIKEN ATOMIC CHARGES
-----------------------
   0 C :   -0.537162
   1 C :   -1.921241
   2 C :   -0.903266
   3 C :   -0.933405
   4 S :    1.133317
   5 H :    0.788128
   6 H :    0.483143
   7 H :    0.580436
   8 O :   -0.564161
   9 O :   -0.656345
  10 H :    0.401427
  11 H :    0.372007
  12 F :   -0.205575
  13 C :   -0.600832
  14 H :    0.343330
  15 H :    0.376030
  16 C :   -0.608890
  17 H :    0.395324
  18 H :    0.405847
  19 C :   -0.840218
  20 H :    0.521227
  21 H :    0.445984
  22 H :    0.347914
  23 H :    0.388384
  24 H :    0.381218
  25 H :    0.407380
Sum of atomic charges:    0.0000000

LOEWDIN ATOMIC CHARGES
----------------------
   0 C :   -0.258478
   1 C :   -0.142204
   2 C :   -0.220609
   3 C :   -0.219739
   4 S :    0.627994
   5 H :    0.027480
   6 H :    0.077338
   7 H :    0.014580
   8 O :   -0.248655
   9 O :   -0.303156
  10 H :    0.112232
  11 H :    0.114914
  12 F :   -0.085436
  13 C :   -0.218477
  14 H :    0.115930
  15 H :    0.123476
  16 C :   -0.219839
  17 H :    0.125432
  18 H :    0.093124
  19 C :   -0.229441
  20 H :    0.121610
  21 H :    0.111519
  22 H :    0.100702
  23 H :    0.130279
  24 H :    0.127726
  25 H :    0.121696

  Mayer bond orders larger than 0.100000
B(  0-C ,  1-C ) :   0.2551 B(  0-C ,  2-C ) :   0.7192 B(  0-C , 10-H ) :   0.8997
B(  0-C , 11-H ) :   0.9122 B(  0-C , 16-C ) :   0.1104 B(  1-C ,  4-S ) :   0.1190
B(  1-C ,  5-H ) :   0.3837 B(  1-C ,  6-H ) :   0.7775 B(  1-C ,  7-H ) :   0.6840
B(  1-C ,  9-O ) :   0.2357 B(  1-C , 12-F ) :   0.2096 B(  2-C , 13-C ) :   0.8812
B(  2-C , 14-H ) :   0.9499 B(  2-C , 15-H ) :   0.9184 B(  3-C ,  4-S ) :   0.8577
B(  3-C ,  8-O ) :   0.1528 B(  3-C ,  9-O ) :   0.1221 B(  3-C , 19-C ) :   0.6108
B(  3-C , 20-H ) :   0.7987 B(  3-C , 21-H ) :   0.9086 B(  4-S ,  8-O ) :   1.4986
B(  4-S ,  9-O ) :   1.6221 B(  4-S , 12-F ) :   1.0881 B(  5-H ,  9-O ) :  -0.2353
B(  7-H , 12-F ) :  -0.2287 B( 13-C , 16-C ) :   0.3697 B( 13-C , 17-H ) :   0.8742
B( 13-C , 18-H ) :   1.0070 B( 16-C , 18-H ) :  -0.1088 B( 16-C , 19-C ) :   0.7637
B( 16-C , 22-H ) :   1.0241 B( 16-C , 23-H ) :   0.8649 B( 19-C , 24-H ) :   0.9187
B( 19-C , 25-H ) :   0.9235

FINAL SINGLE POINT ENERGY      -922.486424824307

DIPOLE MOMENT
-------------
                                X             Y             Z
Electronic contribution:    -16.49196      -6.88152      -3.42381
Nuclear contribution   :     17.63907       5.79106       3.97609
                        -----------------------------------------
Total Dipole Moment    :      1.14712      -1.09046       0.55228
                        -----------------------------------------
Magnitude (a.u.)       :      1.67630
Magnitude (Debye)      :      4.26082

Rotational constants in cm-1:     0.048663     0.025472     0.020259
Rotational constants in MHz :  1458.892793   763.621130   607.350055

                             ****ORCA TERMINATED NORMALLY****
TOTAL RUN TIME: 0 days 0 hours 3 minutes 54 seconds 986 msec
