                         Program Version 5.0.0 -  RELEASE  -
|  1> !PBE D3BJ RIJCOSX def2-TZVP def2/J TightSCF
|  2> *xyz -1 1
|  3> C         -0.72184       -0.99951       -3.43931
|  4> C          0.28725       -1.71177       -2.52740
|  5> H          1.13178       -2.06738       -3.15940
|  6> H         -0.20414       -2.63733       -2.17048
|  7> O          0.71050       -0.92751       -1.48177
|  8> H         -1.01315       -1.65739       -4.23129
|  9> H         -0.27123       -0.12142       -3.85259
| 10> H         -1.58442       -0.72333       -2.86958
| 11> *
| 12> %MaxCore 64000
| 13>
| 14> %pal nprocs 4
| 15> end
| 16>
| 17> %scf
| 18>   MaxIter 150
| 19> end
| 20>
| 21>
| 22>                          ****END OF INPUT****

CARTESIAN COORDINATES (ANGSTROEM)
---------------------------------
  C     -0.721840   -0.999510   -3.439310
  C      0.287250   -1.711770   -2.527400
  H      1.131780   -2.067380   -3.159400
  H     -0.204140   -2.637330   -2.170480
  O      0.710500   -0.927510   -1.481770
  H     -1.013150   -1.657390   -4.231290
  H     -0.271230   -0.121420   -3.852590
  H     -1.584420   -0.723330   -2.869580

 Total Charge           Charge          ....   -1
 Multiplicity           Mult            ....    1
 Number of Electrons    NEL             ....   26
 Basis Dimension        Dim             ....  123

ORBITAL ENERGIES
----------------

  NO   OCC          E(Eh)            E(eV)
   0   2.0000     -18.403557      -500.7863
   1   2.0000      -9.683414      -263.4991
   2   2.0000      -9.663123      -262.9469
   3   2.0000      -0.585036       -15.9196
   4   2.0000      -0.449048       -12.2192
   5   2.0000      -0.304822        -8.2946
   6   2.0000      -0.194477        -5.2920
   7   2.0000      -0.173697        -4.7265
   8   2.0000      -0.122347        -3.3292
   9   2.0000      -0.104096        -2.8326
  10   2.0000      -0.057515        -1.5651
  11   2.0000       0.083065         2.2603
  12   2.0000       0.087033         2.3683
  13   0.0000       0.199329         5.4240
  14   0.0000       0.234318         6.3761
  15   0.0000       0.257798         7.0150
  16   0.0000       0.260746         7.0953
  17   0.0000       0.293529         7.9873

MULLIKEN ATOMIC CHARGES
-----------------------
   0 C :   -0.082859
   1 C :   -0.011824
   2 H :   -0.074950
   3 H :   -0.072662
   4 O :   -0.710931
   5 H :   -0.063630
   6 H :    0.006938
   7 H :    0.009917
Sum of atomic charges:   -1.0000000

LOEWDIN ATOMIC CHARGES
----------------------
   0 C :   -0.373115
   1 C :   -0.565470
   2 H :    0.048965
   3 H :    0.050514
   4 O :   -0.393535
   5 H :    0.066205
   6 H :    0.082742
   7 H :    0.083694

  Mayer bond orders larger than 0.100000
B(  0-C ,  1-C ) :   0.8764 B(  0-C ,  4-O ) :  -0.3593 B(  0-C ,  5-H ) :   0.8820
B(  0-C ,  6-H ) :   0.9463 B(  0-C ,  7-H ) :   0.9491 B(  1-C ,  2-H ) :   0.9002
B(  1-C ,  3-H ) :   0.9020 B(  1-C ,  4-O ) :   1.6959 B(  4-O ,  5-H ) :   0.1520

Dispersion correction           -0.003761384
FINAL SINGLE POINT ENERGY      -154.289788175152

DIPOLE MOMENT
-------------
                                X             Y             Z
Electronic contribution:      1.60744       0.87382       2.66001
Nuclear contribution   :     -2.24828      -1.06600      -3.62481
                        -----------------------------------------
Total Dipole Moment    :     -0.64084      -0.19218      -0.96479
                        -----------------------------------------
Magnitude (a.u.)       :      1.17406
Magnitude (Debye)      :      2.98423

Rotational constants in cm-1:     1.278116     0.325414     0.286672
Rotational constants in MHz : 38316.964654  9755.653004  8594.216906

                             ****ORCA TERMINATED NORMALLY****
TOTAL RUN TIME: 0 days 0 hours 0 minutes 7 seconds 149 msec
