                         Program Version 5.0.0 -  RELEASE  -
|  1> !PBE D3BJ RIJCOSX def2-TZVP def2/J TightSCF
|  2> *xyz 1 1
|  3> C          3.48828        1.60092       -1.52204
|  4> C          4.34297        1.31342       -2.75683
|  5> N          2.81029        0.42878       -1.01420
|  6> H          2.71455        2.33145       -1.76030
|  7> H          4.09099        2.06315       -0.73338
|  8> C          3.29098       -0.41802       -0.12908
|  9> N          2.51754       -1.43202        0.23936
| 10> N          4.53549       -0.28441        0.39580
| 11> H          5.04363        0.57189        0.22290
| 12> H          4.72335       -0.73327        1.28180
| 13> H          1.93479        0.10230       -1.40379
| 14> H          1.67464       -1.50562       -0.31610
| 15> H          2.92850       -2.21850        0.72549
| 16> H          3.73575        0.86277       -3.51385
| 17> H          5.13754        0.64699       -2.49333
| 18> H          4.75374        2.22930       -3.12740
| 19> *
| 20> %MaxCore 64000
| 21>
| 22> %pal nprocs 4
| 23> end
| 24>
| 25> %scf
| 26>   MaxIter 150
| 27> end
| 28>
| 29>
| 30>                          ****END OF INPUT****

CARTESIAN COORDINATES (ANGSTROEM)
---------------------------------
  C      3.488280    1.600920   -1.522040
  C      4.342970    1.313420   -2.756830
  N      2.810290    0.428780   -1.014200
  H      2.714550    2.331450   -1.760300
  H      4.090990    2.063150   -0.733380
  C      3.290980   -0.418020   -0.129080
  N      2.517540   -1.432020    0.239360
  N      4.535490   -0.284410    0.395800
  H      5.043630    0.571890    0.222900
  H      4.723350   -0.733270    1.281800
  H      1.934790    0.102300   -1.403790
  H      1.674640   -1.505620   -0.316100
  H      2.928500   -2.218500    0.725490
  H      3.735750    0.862770   -3.513850
  H      5.137540    0.646990   -2.493330
  H      4.753740    2.229300   -3.127400

 Total Charge           Charge          ....    1
 Multiplicity           Mult            ....    1
 Number of Electrons    NEL             ....   48
 Basis Dimension        Dim             ....  246

ORBITAL ENERGIES
----------------

  NO   OCC          E(Eh)            E(eV)
   0   2.0000     -14.212880      -386.7521
   1   2.0000     -14.205699      -386.5567
   2   2.0000     -14.203791      -386.5048
   3   2.0000     -10.201514      -277.5973
   4   2.0000     -10.091207      -274.5957
   5   2.0000     -10.016674      -272.5676
   6   2.0000      -1.134393       -30.8684
   7   2.0000      -1.029456       -28.0129
   8   2.0000      -1.016475       -27.6597
   9   2.0000      -0.865574       -23.5535
  10   2.0000      -0.778549       -21.1854
  11   2.0000      -0.749945       -20.4070
  12   2.0000      -0.726387       -19.7660
  13   2.0000      -0.693693       -18.8763
  14   2.0000      -0.643305       -17.5052
  15   2.0000      -0.634859       -17.2754
  16   2.0000      -0.606840       -16.5129
  17   2.0000      -0.589349       -16.0370
  18   2.0000      -0.556706       -15.1487
  19   2.0000      -0.518126       -14.0989
  20   2.0000      -0.489917       -13.3313
  21   2.0000      -0.471287       -12.8244
  22   2.0000      -0.436894       -11.8885
  23   2.0000      -0.414340       -11.2748
  24   0.0000      -0.200372        -5.4524
  25   0.0000      -0.180423        -4.9096
  26   0.0000      -0.148688        -4.0460
  27   0.0000      -0.131935        -3.5901
  28   0.0000      -0.108503        -2.9525

MULLIKEN ATOMIC CHARGES
-----------------------
   0 C :   -0.199962
   1 C :   -0.305658
   2 N :   -0.169750
   3 H :    0.167637
   4 H :    0.134040
   5 C :    0.342806
   6 N :   -0.334699
   7 N :   -0.368058
   8 H :    0.266802
   9 H :    0.271349
  10 H :    0.232362
  11 H :    0.256500
  12 H :    0.280596
  13 H :    0.135746
  14 H :    0.128326
  15 H :    0.161962
Sum of atomic charges:    1.0000000

LOEWDIN ATOMIC CHARGES
----------------------
   0 C :   -0.290893
   1 C :   -0.284558
   2 N :    0.191196
   3 H :    0.154350
   4 H :    0.142128
   5 C :   -0.428575
   6 N :    0.075824
   7 N :    0.060645
   8 H :    0.189326
   9 H :    0.194837
  10 H :    0.208801
  11 H :    0.196927
  12 H :    0.199307
  13 H :    0.128530
  14 H :    0.123612
  15 H :    0.138545

  Mayer bond orders larger than 0.100000
B(  0-C ,  1-C ) :   1.0039 B(  0-C ,  2-N ) :   0.9056 B(  0-C ,  3-H ) :   0.9426
B(  0-C ,  4-H ) :   0.9523 B(  1-C , 13-H ) :   0.9607 B(  1-C , 14-H ) :   0.9566
B(  1-C , 15-H ) :   0.9575 B(  2-N ,  5-C ) :   1.4051 B(  2-N , 10-H ) :   0.8971
B(  5-C ,  6-N ) :   1.3534 B(  5-C ,  7-N ) :   1.3321 B(  6-N , 11-H ) :   0.8981
B(  6-N , 12-H ) :   0.8900 B(  7-N ,  8-H ) :   0.8923 B(  7-N ,  9-H ) :   0.8951

Dispersion correction           -0.012363355
FINAL SINGLE POINT ENERGY      -284.151945268090

DIPOLE MOMENT
-------------
                                X             Y             Z
Electronic contribution:     -1.93256      -3.00665       3.72960
Nuclear contribution   :      1.59382       2.33278      -3.02574
                        -----------------------------------------
Total Dipole Moment    :     -0.33874      -0.67388       0.70386
                        -----------------------------------------
Magnitude (a.u.)       :      1.03164
Magnitude (Debye)      :      2.62221

Rotational constants in cm-1:     0.232230     0.073139     0.063030
Rotational constants in MHz :  6962.079716  2192.649203  1889.578947

                             ****ORCA TERMINATED NORMALLY****
TOTAL RUN TIME: 0 days 0 hours 0 minutes 9 seconds 718 msec
