                         Program Version 5.0.0 -  RELEASE  -
|  1> !PBE D3BJ RIJCOSX def2-TZVP def2/J TightSCF
|  2> *xyz 0 1
|  3> C         -0.72184       -0.99951       -3.43931
|  4> C          0.28725       -1.71177       -2.52740
|  5> H          1.13178       -2.06738       -3.15940
|  6> H         -0.20414       -2.63733       -2.17048
|  7> F          0.71050       -0.92751       -1.48177
|  8> H         -1.01315       -1.65739       -4.23129
|  9> H         -0.27123       -0.12142       -3.85259
| 10> H         -1.58442       -0.72333       -2.86958
| 11> *
| 12> %MaxCore 64000
| 13>
| 14> %pal nprocs 4
| 15> end
| 16>
| 17> %scf
| 18>   MaxIter 150
| 19> end
| 20>
| 21>
| 22>                          ****END OF INPUT****

CARTESIAN COORDINATES (ANGSTROEM)
---------------------------------
  C     -0.721840   -0.999510   -3.439310
  C      0.287250   -1.711770   -2.527400
  H      1.131780   -2.067380   -3.159400
  H     -0.204140   -2.637330   -2.170480
  F      0.710500   -0.927510   -1.481770
  H     -1.013150   -1.657390   -4.231290
  H     -0.271230   -0.121420   -3.852590
  H     -1.584420   -0.723330   -2.869580

 Total Charge           Charge          ....    0
 Multiplicity           Mult            ....    1
 Number of Electrons    NEL             ....   26
 Basis Dimension        Dim             ....  123

ORBITAL ENERGIES
----------------

  NO   OCC          E(Eh)            E(eV)
   0   2.0000     -24.241861      -659.6546
   1   2.0000      -9.955188      -270.8944
   2   2.0000      -9.874297      -268.6933
   3   2.0000      -1.095045       -29.7977
   4   2.0000      -0.693506       -18.8713
   5   2.0000      -0.567924       -15.4540
   6   2.0000      -0.453529       -12.3411
   7   2.0000      -0.437832       -11.9140
   8   2.0000      -0.400980       -10.9112
   9   2.0000      -0.354831        -9.6554
  10   2.0000      -0.352731        -9.5983
  11   2.0000      -0.286558        -7.7977
  12   2.0000      -0.280617        -7.6360
  13   0.0000       0.022772         0.6197
  14   0.0000       0.059113         1.6085
  15   0.0000       0.066365         1.8059
  16   0.0000       0.077061         2.0969
  17   0.0000       0.091014         2.4766

MULLIKEN ATOMIC CHARGES
-----------------------
   0 C :   -0.324070
   1 C :    0.005185
   2 H :    0.089761
   3 H :    0.089314
   4 F :   -0.205745
   5 H :    0.108948
   6 H :    0.117980
   7 H :    0.118626
Sum of atomic charges:   -0.0000000

LOEWDIN ATOMIC CHARGES
----------------------
   0 C :   -0.316487
   1 C :   -0.384236
   2 H :    0.116718
   3 H :    0.116298
   4 F :    0.108454
   5 H :    0.123447
   6 H :    0.117755
   7 H :    0.118051

  Mayer bond orders larger than 0.100000
B(  0-C ,  1-C ) :   1.0068 B(  0-C ,  5-H ) :   0.9499 B(  0-C ,  6-H ) :   0.9652
B(  0-C ,  7-H ) :   0.9653 B(  1-C ,  2-H ) :   0.9590 B(  1-C ,  3-H ) :   0.9598
B(  1-C ,  4-F ) :   1.0407

Dispersion correction           -0.003480207
FINAL SINGLE POINT ENERGY      -178.923578254360

DIPOLE MOMENT
-------------
                                X             Y             Z
Electronic contribution:      2.72163       1.08160       4.27053
Nuclear contribution   :     -2.97459      -1.40206      -4.79987
                        -----------------------------------------
Total Dipole Moment    :     -0.25296      -0.32046      -0.52934
                        -----------------------------------------
Magnitude (a.u.)       :      0.66850
Magnitude (Debye)      :      1.69918

Rotational constants in cm-1:     1.257024     0.302702     0.267953
Rotational constants in MHz : 37684.643733  9074.792567  8033.038070

                             ****ORCA TERMINATED NORMALLY****
TOTAL RUN TIME: 0 days 0 hours 0 minutes 6 seconds 672 msec
