                         Program Version 5.0.0 -  RELEASE  -
|  1> !PBE D3BJ RIJCOSX def2-TZVP def2/J TightSCF
|  2> *xyz 0 1
|  3> C          3.48828        1.60092       -1.52204
|  4> C          4.34297        1.31342       -2.75683
|  5> C          2.81029        0.42878       -1.01420
|  6> H          2.71455        2.33145       -1.76030
|  7> H          4.09099        2.06315       -0.73338
|  8> C          3.29098       -0.41802       -0.12908
|  9> N          2.51754       -1.43202        0.23936
| 10> N          4.53549       -0.28441        0.39580
| 11> H          5.04363        0.57189        0.22290
| 12> H          4.72335       -0.73327        1.28180
| 13> H          1.93479        0.10230       -1.40379
| 14> H          1.67464       -1.50562       -0.31610
| 15> H          2.92850       -2.21850        0.72549
| 16> H          3.73575        0.86277       -3.51385
| 17> H          5.13754        0.64699       -2.49333
| 18> H          4.75374        2.22930       -3.12740
| 19> *
| 20> %MaxCore 64000
| 21>
| 22> %pal nprocs 4
| 23> end
| 24>
| 25> %scf
| 26>   MaxIter 150
| 27> end
| 28>
| 29>
| 30>                          ****END OF INPUT****

CARTESIAN COORDINATES (ANGSTROEM)
---------------------------------
  C      3.488280    1.600920   -1.522040
  C      4.342970    1.313420   -2.756830
  C      2.810290    0.428780   -1.014200
  H      2.714550    2.331450   -1.760300
  H      4.090990    2.063150   -0.733380
  C      3.290980   -0.418020   -0.129080
  N      2.517540   -1.432020    0.239360
  N      4.535490   -0.284410    0.395800
  H      5.043630    0.571890    0.222900
  H      4.723350   -0.733270    1.281800
  H      1.934790    0.102300   -1.403790
  H      1.674640   -1.505620   -0.316100
  H      2.928500   -2.218500    0.725490
  H      3.735750    0.862770   -3.513850
  H      5.137540    0.646990   -2.493330
  H      4.753740    2.229300   -3.127400

 Total Charge           Charge          ....    0
 Multiplicity           Mult            ....    1
 Number of Electrons    NEL             ....   48
 Basis Dimension        Dim             ....  246

ORBITAL ENERGIES
----------------

  NO   OCC          E(Eh)            E(eV)
   0   2.0000     -13.982913      -380.4944
   1   2.0000     -13.978524      -380.3750
   2   2.0000      -9.912951      -269.7451
   3   2.0000      -9.857172      -268.2273
   4   2.0000      -9.843400      -267.8525
   5   2.0000      -9.804063      -266.7821
   6   2.0000      -0.875798       -23.8317
   7   2.0000      -0.793883       -21.6026
   8   2.0000      -0.701031       -19.0760
   9   2.0000      -0.626724       -17.0540
  10   2.0000      -0.552762       -15.0414
  11   2.0000      -0.523608       -14.2481
  12   2.0000      -0.484812       -13.1924
  13   2.0000      -0.457116       -12.4387
  14   2.0000      -0.418235       -11.3807
  15   2.0000      -0.390185       -10.6175
  16   2.0000      -0.369326       -10.0499
  17   2.0000      -0.347943        -9.4680
  18   2.0000      -0.334550        -9.1036
  19   2.0000      -0.309005        -8.4085
  20   2.0000      -0.288912        -7.8617
  21   2.0000      -0.277423        -7.5491
  22   2.0000      -0.221037        -6.0147
  23   2.0000      -0.130858        -3.5608
  24   0.0000       0.000144         0.0039
  25   0.0000       0.029412         0.8003
  26   0.0000       0.037741         1.0270
  27   0.0000       0.053613         1.4589
  28   0.0000       0.066399         1.8068

MULLIKEN ATOMIC CHARGES
-----------------------
   0 C :   -0.209386
   1 C :   -0.287472
   2 C :   -0.259904
   3 H :    0.086870
   4 H :    0.060380
   5 C :    0.254987
   6 N :   -0.415199
   7 N :   -0.439262
   8 H :    0.223282
   9 H :    0.204728
  10 H :    0.058236
  11 H :    0.222777
  12 H :    0.207888
  13 H :    0.097000
  14 H :    0.100317
  15 H :    0.094757
Sum of atomic charges:   -0.0000000

LOEWDIN ATOMIC CHARGES
----------------------
   0 C :   -0.312824
   1 C :   -0.306851
   2 C :   -0.276816
   3 H :    0.140962
   4 H :    0.128454
   5 C :   -0.469348
   6 N :   -0.008153
   7 N :   -0.018778
   8 H :    0.168159
   9 H :    0.157116
  10 H :    0.121574
  11 H :    0.179723
  12 H :    0.159659
  13 H :    0.115069
  14 H :    0.113546
  15 H :    0.108509

  Mayer bond orders larger than 0.100000
B(  0-C ,  1-C ) :   0.9823 B(  0-C ,  2-C ) :   1.0698 B(  0-C ,  3-H ) :   0.9550
B(  0-C ,  4-H ) :   0.9534 B(  1-C , 13-H ) :   0.9740 B(  1-C , 14-H ) :   0.9718
B(  1-C , 15-H ) :   0.9623 B(  2-C ,  5-C ) :   1.6703 B(  2-C , 10-H ) :   0.9601
B(  5-C ,  6-N ) :   1.1869 B(  5-C ,  7-N ) :   1.1732 B(  6-N , 11-H ) :   0.9147
B(  6-N , 12-H ) :   0.9171 B(  7-N ,  8-H ) :   0.9182 B(  7-N ,  9-H ) :   0.9179

Dispersion correction           -0.012821481
FINAL SINGLE POINT ENERGY      -267.674459860619

DIPOLE MOMENT
-------------
                                X             Y             Z
Electronic contribution:     -1.27506      -2.98939       3.71242
Nuclear contribution   :      1.44676       2.38443      -3.07370
                        -----------------------------------------
Total Dipole Moment    :      0.17170      -0.60497       0.63872
                        -----------------------------------------
Magnitude (a.u.)       :      0.89634
Magnitude (Debye)      :      2.27832

Rotational constants in cm-1:     0.235977     0.073199     0.063283
Rotational constants in MHz :  7074.404583  2194.453291  1897.179599

                             ****ORCA TERMINATED NORMALLY****
TOTAL RUN TIME: 0 days 0 hours 0 minutes 11 seconds 659 msec
