                         Program Version 5.0.0 -  RELEASE  -
|  1> !PBE D3BJ RIJCOSX def2-TZVP def2/J TightSCF
|  2> *xyz 0 1
|  3> C          3.48828        1.60092       -1.52204
|  4> C          4.34297        1.31342       -2.75683
|  5> N          2.81029        0.42878       -1.01420
|  6> H          2.71455        2.33145       -1.76030
|  7> H          4.09099        2.06315       -0.73338
|  8> C          3.29098       -0.41802       -0.12908
|  9> C          2.51754       -1.43202        0.23936
| 10> N          4.53549       -0.28441        0.39580
| 11> H          5.04363        0.57189        0.22290
| 12> H          4.72335       -0.73327        1.28180
| 13> H          1.93479        0.10230       -1.40379
| 14> H          1.67464       -1.50562       -0.31610
| 15> H          2.92850       -2.21850        0.72549
| 16> H          3.73575        0.86277       -3.51385
| 17> H          5.13754        0.64699       -2.49333
| 18> H          4.75374        2.22930       -3.12740
| 19> *
| 20> %MaxCore 64000
| 21>
| 22> %pal nprocs 4
| 23> end
| 24>
| 25> %scf
| 26>   MaxIter 150
| 27> end
| 28>
| 29>
| 30>                          ****END OF INPUT****

CARTESIAN COORDINATES (ANGSTROEM)
---------------------------------
  C      3.488280    1.600920   -1.522040
  C      4.342970    1.313420   -2.756830
  N      2.810290    0.428780   -1.014200
  H      2.714550    2.331450   -1.760300
  H      4.090990    2.063150   -0.733380
  C      3.290980   -0.418020   -0.129080
  C      2.517540   -1.432020    0.239360
  N      4.535490   -0.284410    0.395800
  H      5.043630    0.571890    0.222900
  H      4.723350   -0.733270    1.281800
  H      1.934790    0.102300   -1.403790
  H      1.674640   -1.505620   -0.316100
  H      2.928500   -2.218500    0.725490
  H      3.735750    0.862770   -3.513850
  H      5.137540    0.646990   -2.493330
  H      4.753740    2.229300   -3.127400

 Total Charge           Charge          ....    0
 Multiplicity           Mult            ....    1
 Number of Electrons    NEL             ....   48
 Basis Dimension        Dim             ....  246

ORBITAL ENERGIES
----------------

  NO   OCC          E(Eh)            E(eV)
   0   2.0000     -13.986963      -380.6046
   1   2.0000     -13.982839      -380.4924
   2   2.0000      -9.922887      -270.0155
   3   2.0000      -9.916731      -269.8480
   4   2.0000      -9.870213      -268.5821
   5   2.0000      -9.789443      -266.3843
   6   2.0000      -0.887031       -24.1373
   7   2.0000      -0.806659       -21.9503
   8   2.0000      -0.705164       -19.1885
   9   2.0000      -0.633782       -17.2461
  10   2.0000      -0.568252       -15.4629
  11   2.0000      -0.542258       -14.7556
  12   2.0000      -0.483589       -13.1591
  13   2.0000      -0.449491       -12.2313
  14   2.0000      -0.430717       -11.7204
  15   2.0000      -0.394033       -10.7222
  16   2.0000      -0.382855       -10.4180
  17   2.0000      -0.357470        -9.7273
  18   2.0000      -0.332171        -9.0388
  19   2.0000      -0.328649        -8.9430
  20   2.0000      -0.318935        -8.6787
  21   2.0000      -0.313160        -8.5215
  22   2.0000      -0.216049        -5.8790
  23   2.0000      -0.130148        -3.5415
  24   0.0000      -0.000622        -0.0169
  25   0.0000       0.024840         0.6759
  26   0.0000       0.033570         0.9135
  27   0.0000       0.054838         1.4922
  28   0.0000       0.059360         1.6153

MULLIKEN ATOMIC CHARGES
-----------------------
   0 C :   -0.174248
   1 C :   -0.272635
   2 N :   -0.227215
   3 H :    0.111878
   4 H :    0.094942
   5 C :    0.307650
   6 C :   -0.493387
   7 N :   -0.441381
   8 H :    0.205619
   9 H :    0.232901
  10 H :    0.201990
  11 H :    0.049903
  12 H :    0.086821
  13 H :    0.102574
  14 H :    0.111913
  15 H :    0.102673
Sum of atomic charges:   -0.0000000

LOEWDIN ATOMIC CHARGES
----------------------
   0 C :   -0.324960
   1 C :   -0.310179
   2 N :    0.139743
   3 H :    0.133009
   4 H :    0.127811
   5 C :   -0.473944
   6 C :   -0.347756
   7 N :   -0.014826
   8 H :    0.154818
   9 H :    0.174473
  10 H :    0.196071
  11 H :    0.098541
  12 H :    0.097266
  13 H :    0.116709
  14 H :    0.117172
  15 H :    0.116053

  Mayer bond orders larger than 0.100000
B(  0-C ,  1-C ) :   0.9820 B(  0-C ,  2-N ) :   0.9855 B(  0-C ,  3-H ) :   0.9608
B(  0-C ,  4-H ) :   0.9588 B(  1-C , 13-H ) :   0.9663 B(  1-C , 14-H ) :   0.9654
B(  1-C , 15-H ) :   0.9570 B(  2-N ,  5-C ) :   1.2153 B(  2-N , 10-H ) :   0.9147
B(  5-C ,  6-C ) :   1.6456 B(  5-C ,  7-N ) :   1.1608 B(  6-C , 11-H ) :   0.9919
B(  6-C , 12-H ) :   0.9938 B(  7-N ,  8-H ) :   0.9203 B(  7-N ,  9-H ) :   0.9191

Dispersion correction           -0.012710156
FINAL SINGLE POINT ENERGY      -267.661966148934

DIPOLE MOMENT
-------------
                                X             Y             Z
Electronic contribution:     -0.86854      -1.06275       2.44313
Nuclear contribution   :      1.38466       1.98967      -2.80776
                        -----------------------------------------
Total Dipole Moment    :      0.51612       0.92692      -0.36463
                        -----------------------------------------
Magnitude (a.u.)       :      1.12184
Magnitude (Debye)      :      2.85148

Rotational constants in cm-1:     0.235618     0.075969     0.065309
Rotational constants in MHz :  7063.646698  2277.495424  1957.925383

                             ****ORCA TERMINATED NORMALLY****
TOTAL RUN TIME: 0 days 0 hours 0 minutes 13 seconds 425 msec
