                         Program Version 5.0.0 -  RELEASE  -
|  1> !PBE D3BJ RIJCOSX def2-TZVP def2/J TightSCF
|  2> *xyz 0 1
|  3> C          3.48828        1.60092       -1.52204
|  4> C          4.34297        1.31342       -2.75683
|  5> N          2.81029        0.42878       -1.01420
|  6> H          2.71455        2.33145       -1.76030
|  7> H          4.09099        2.06315       -0.73338
|  8> C          3.29098       -0.41802       -0.12908
|  9> N          2.51754       -1.43202        0.23936
| 10> C          4.53549       -0.28441        0.39580
| 11> H          5.04363        0.57189        0.22290
| 12> H          4.72335       -0.73327        1.28180
| 13> H          1.93479        0.10230       -1.40379
| 14> H          1.67464       -1.50562       -0.31610
| 15> H          2.92850       -2.21850        0.72549
| 16> H          3.73575        0.86277       -3.51385
| 17> H          5.13754        0.64699       -2.49333
| 18> H          4.75374        2.22930       -3.12740
| 19> *
| 20> %MaxCore 64000
| 21>
| 22> %pal nprocs 4
| 23> end
| 24>
| 25> %scf
| 26>   MaxIter 150
| 27> end
| 28>
| 29>
| 30>                          ****END OF INPUT****

CARTESIAN COORDINATES (ANGSTROEM)
---------------------------------
  C      3.488280    1.600920   -1.522040
  C      4.342970    1.313420   -2.756830
  N      2.810290    0.428780   -1.014200
  H      2.714550    2.331450   -1.760300
  H      4.090990    2.063150   -0.733380
  C      3.290980   -0.418020   -0.129080
  N      2.517540   -1.432020    0.239360
  C      4.535490   -0.284410    0.395800
  H      5.043630    0.571890    0.222900
  H      4.723350   -0.733270    1.281800
  H      1.934790    0.102300   -1.403790
  H      1.674640   -1.505620   -0.316100
  H      2.928500   -2.218500    0.725490
  H      3.735750    0.862770   -3.513850
  H      5.137540    0.646990   -2.493330
  H      4.753740    2.229300   -3.127400

 Total Charge           Charge          ....    0
 Multiplicity           Mult            ....    1
 Number of Electrons    NEL             ....   48
 Basis Dimension        Dim             ....  246

ORBITAL ENERGIES
----------------

  NO   OCC          E(Eh)            E(eV)
   0   2.0000     -13.991910      -380.7392
   1   2.0000     -13.984510      -380.5379
   2   2.0000      -9.918699      -269.9015
   3   2.0000      -9.915061      -269.8025
   4   2.0000      -9.862361      -268.3685
   5   2.0000      -9.790150      -266.4035
   6   2.0000      -0.895387       -24.3647
   7   2.0000      -0.811474       -22.0813
   8   2.0000      -0.686549       -18.6820
   9   2.0000      -0.636348       -17.3159
  10   2.0000      -0.582800       -15.8588
  11   2.0000      -0.507672       -13.8145
  12   2.0000      -0.490396       -13.3443
  13   2.0000      -0.476880       -12.9766
  14   2.0000      -0.420881       -11.4528
  15   2.0000      -0.392403       -10.6778
  16   2.0000      -0.378037       -10.2869
  17   2.0000      -0.347695        -9.4613
  18   2.0000      -0.334245        -9.0953
  19   2.0000      -0.322758        -8.7827
  20   2.0000      -0.314249        -8.5512
  21   2.0000      -0.304523        -8.2865
  22   2.0000      -0.210710        -5.7337
  23   2.0000      -0.132918        -3.6169
  24   0.0000      -0.006931        -0.1886
  25   0.0000       0.029682         0.8077
  26   0.0000       0.037751         1.0273
  27   0.0000       0.051812         1.4099
  28   0.0000       0.070880         1.9287

MULLIKEN ATOMIC CHARGES
-----------------------
   0 C :   -0.126703
   1 C :   -0.304399
   2 N :   -0.236433
   3 H :    0.104866
   4 H :    0.113198
   5 C :    0.280387
   6 N :   -0.407052
   7 C :   -0.515533
   8 H :    0.074043
   9 H :    0.083393
  10 H :    0.166714
  11 H :    0.191247
  12 H :    0.240066
  13 H :    0.090968
  14 H :    0.138908
  15 H :    0.106331
Sum of atomic charges:   -0.0000000

LOEWDIN ATOMIC CHARGES
----------------------
   0 C :   -0.307068
   1 C :   -0.308015
   2 N :    0.137104
   3 H :    0.130569
   4 H :    0.138521
   5 C :   -0.486091
   6 N :   -0.000400
   7 C :   -0.364603
   8 H :    0.094787
   9 H :    0.095519
  10 H :    0.175568
  11 H :    0.160312
  12 H :    0.178941
  13 H :    0.113249
  14 H :    0.124059
  15 H :    0.117547

  Mayer bond orders larger than 0.100000
B(  0-C ,  1-C ) :   0.9938 B(  0-C ,  2-N ) :   0.9647 B(  0-C ,  3-H ) :   0.9619
B(  0-C ,  4-H ) :   0.9465 B(  1-C , 13-H ) :   0.9667 B(  1-C , 14-H ) :   0.9686
B(  1-C , 15-H ) :   0.9609 B(  2-N ,  5-C ) :   1.2076 B(  2-N , 10-H ) :   0.9193
B(  5-C ,  6-N ) :   1.1787 B(  5-C ,  7-C ) :   1.6398 B(  6-N , 11-H ) :   0.9225
B(  6-N , 12-H ) :   0.9145 B(  7-C ,  8-H ) :   0.9977 B(  7-C ,  9-H ) :   0.9836

Dispersion correction           -0.012783879
FINAL SINGLE POINT ENERGY      -267.661834060123

DIPOLE MOMENT
-------------
                                X             Y             Z
Electronic contribution:     -2.87313      -2.33067       2.19272
Nuclear contribution   :      1.81275       2.23313      -2.77458
                        -----------------------------------------
Total Dipole Moment    :     -1.06038      -0.09754      -0.58185
                        -----------------------------------------
Magnitude (a.u.)       :      1.21345
Magnitude (Debye)      :      3.08435

Rotational constants in cm-1:     0.245202     0.073668     0.064348
Rotational constants in MHz :  7350.977980  2208.513334  1929.108541

                             ****ORCA TERMINATED NORMALLY****
TOTAL RUN TIME: 0 days 0 hours 0 minutes 13 seconds 215 msec
