                         Program Version 5.0.0 -  RELEASE  -
|  1> !PBE D3BJ RIJCOSX def2-TZVP def2/J TightSCF xyzfile
|  2>
|  3> *xyzfile 0 1 D1.xyz
|  4>
|  5> %MaxCore 64000
|  6>
|  7> %pal nprocs 18
|  8> end
|  9>
| 10> %scf
| 11>   MaxIter 150
| 12> end
| 13>
| 14>
| 15>                          ****END OF INPUT****

CARTESIAN COORDINATES (ANGSTROEM)
---------------------------------
  C      3.488276    1.600919   -1.522040
  C      4.342970    1.313419   -2.756826
  C      2.810285    0.428783   -1.014196
  H      5.132033    0.604994   -2.484466
  C      3.535896    0.749253   -3.924604
  H      4.841247    2.242136   -3.054083
  H      2.991617   -0.132199   -3.574137
  H      4.225505    0.392784   -4.695962
  C      2.564776    1.750890   -4.544523
  H      1.918749    2.171679   -3.769419
  C      1.686235    1.161657   -5.650111
  H      3.132494    2.594775   -4.951604
  C      0.839616   -0.037582   -5.220473
  H      2.323886    0.866395   -6.490796
  H      1.029518    1.951850   -6.029329
  C     -0.151019    0.254955   -4.094256
  H      1.499442   -0.857141   -4.922958
  H      0.290097   -0.410143   -6.091131
  H      0.328265    0.833022   -3.299125
  C     -0.721843   -0.999513   -3.439309
  H     -0.957367    0.884951   -4.485450
  H     -1.083403   -1.697555   -4.205656
  H     -1.581056   -0.723848   -2.820490
  C      0.287250   -1.711771   -2.527405
  H      1.131780   -2.067380   -3.159396
  H     -0.204137   -2.637326   -2.170480
  F      0.710505   -0.927506   -1.481767
  H      2.714548    2.331455   -1.760302
  H      4.090991    2.063151   -0.733382
  C      3.290978   -0.418021   -0.129083
  N      2.517536   -1.432017    0.239360
  N      4.535490   -0.284410    0.395800
  H      5.043627    0.571888    0.222899
  H      4.723346   -0.733273    1.281800
  H      1.934787    0.102305   -1.403788
  H      1.674638   -1.505616   -0.316095
  H      2.928503   -2.218502    0.725494

 Total Charge           Charge          ....    0
 Multiplicity           Mult            ....    1
 Number of Electrons    NEL             ....  112
 Basis Dimension        Dim             ....  572

ORBITAL ENERGIES
----------------

  NO   OCC          E(Eh)            E(eV)
   0   2.0000     -24.275013      -660.5567
   1   2.0000     -13.969126      -380.1192
   2   2.0000     -13.953693      -379.6993
   3   2.0000      -9.966537      -271.2033
   4   2.0000      -9.896791      -269.3054
   5   2.0000      -9.892374      -269.1852
   6   2.0000      -9.877739      -268.7869
   7   2.0000      -9.873669      -268.6762
   8   2.0000      -9.869180      -268.5540
   9   2.0000      -9.861299      -268.3396
  10   2.0000      -9.855462      -268.1808
  11   2.0000      -9.850442      -268.0442
  12   2.0000      -9.844326      -267.8777
  13   2.0000      -9.778742      -266.0931
  14   2.0000      -1.135535       -30.8995
  15   2.0000      -0.858920       -23.3724
  16   2.0000      -0.777825       -21.1657
  17   2.0000      -0.744328       -20.2542
  18   2.0000      -0.720304       -19.6005
  19   2.0000      -0.692831       -18.8529
  20   2.0000      -0.661237       -17.9932
  21   2.0000      -0.625298       -17.0152
  22   2.0000      -0.601480       -16.3671
  23   2.0000      -0.570017       -15.5110
  24   2.0000      -0.543146       -14.7798
  25   2.0000      -0.530354       -14.4317
  26   2.0000      -0.506750       -13.7894
  27   2.0000      -0.490891       -13.3578
  28   2.0000      -0.478024       -13.0077
  29   2.0000      -0.466595       -12.6967
  30   2.0000      -0.460751       -12.5377
  31   2.0000      -0.440691       -11.9918
  32   2.0000      -0.434787       -11.8312
  33   2.0000      -0.412532       -11.2256
  34   2.0000      -0.405892       -11.0449
  35   2.0000      -0.395110       -10.7515
  36   2.0000      -0.388252       -10.5649
  37   2.0000      -0.375264       -10.2115
  38   2.0000      -0.365767        -9.9530
  39   2.0000      -0.355474        -9.6729
  40   2.0000      -0.348177        -9.4744
  41   2.0000      -0.330021        -8.9803
  42   2.0000      -0.327620        -8.9150
  43   2.0000      -0.317554        -8.6411
  44   2.0000      -0.315881        -8.5956
  45   2.0000      -0.313865        -8.5407
  46   2.0000      -0.294391        -8.0108
  47   2.0000      -0.287211        -7.8154
  48   2.0000      -0.278790        -7.5863
  49   2.0000      -0.276493        -7.5238
  50   2.0000      -0.274666        -7.4740
  51   2.0000      -0.260481        -7.0881
  52   2.0000      -0.253570        -6.9000
  53   2.0000      -0.247445        -6.7333
  54   2.0000      -0.205196        -5.5837
  55   2.0000      -0.115437        -3.1412
  56   0.0000       0.007644         0.2080
  57   0.0000       0.016380         0.4457
  58   0.0000       0.025081         0.6825
  59   0.0000       0.031866         0.8671
  60   0.0000       0.039072         1.0632

MULLIKEN ATOMIC CHARGES
-----------------------
   0 C :   -0.271589
   1 C :   -0.037207
   2 C :   -0.377155
   3 H :    0.076419
   4 C :   -0.192266
   5 H :    0.056250
   6 H :    0.090778
   7 H :    0.075381
   8 C :   -0.242852
   9 H :    0.100162
  10 C :   -0.083551
  11 H :    0.084238
  12 C :   -0.250963
  13 H :    0.083390
  14 H :    0.080846
  15 C :   -0.187187
  16 H :    0.100611
  17 H :    0.091738
  18 H :    0.114325
  19 C :   -0.128490
  20 H :    0.094192
  21 H :    0.092058
  22 H :    0.102566
  23 C :   -0.057577
  24 H :    0.102715
  25 H :    0.113621
  26 F :   -0.193122
  27 H :    0.089960
  28 H :    0.066165
  29 C :    0.231329
  30 N :   -0.431305
  31 N :   -0.437714
  32 H :    0.219959
  33 H :    0.199291
  34 H :    0.196924
  35 H :    0.232225
  36 H :    0.195835
Sum of atomic charges:   -0.0000000

LOEWDIN ATOMIC CHARGES
----------------------
   0 C :   -0.293282
   1 C :   -0.266368
   2 C :   -0.283349
   3 H :    0.134690
   4 C :   -0.270737
   5 H :    0.128179
   6 H :    0.135547
   7 H :    0.133933
   8 C :   -0.272477
   9 H :    0.133818
  10 C :   -0.271267
  11 H :    0.136947
  12 C :   -0.274798
  13 H :    0.137258
  14 H :    0.136633
  15 C :   -0.271321
  16 H :    0.133332
  17 H :    0.136082
  18 H :    0.144013
  19 C :   -0.276677
  20 H :    0.138732
  21 H :    0.146093
  22 H :    0.141217
  23 C :   -0.359774
  24 H :    0.125017
  25 H :    0.125820
  26 F :    0.169130
  27 H :    0.139449
  28 H :    0.129370
  29 C :   -0.471723
  30 N :   -0.016159
  31 N :   -0.023624
  32 H :    0.165884
  33 H :    0.153851
  34 H :    0.117115
  35 H :    0.156258
  36 H :    0.153188

  Mayer bond orders larger than 0.100000
B(  0-C ,  1-C ) :   0.9772 B(  0-C ,  2-C ) :   1.0168 B(  0-C , 27-H ) :   0.9800
B(  0-C , 28-H ) :   0.9526 B(  1-C ,  3-H ) :   0.9369 B(  1-C ,  4-C ) :   1.0223
B(  1-C ,  5-H ) :   0.9374 B(  2-C , 29-C ) :   1.6419 B(  2-C , 34-H ) :   0.9385
B(  4-C ,  6-H ) :   0.9553 B(  4-C ,  7-H ) :   0.9439 B(  4-C ,  8-C ) :   1.0047
B(  8-C ,  9-H ) :   0.9721 B(  8-C , 10-C ) :   1.0085 B(  8-C , 11-H ) :   0.9421
B( 10-C , 12-C ) :   1.0044 B( 10-C , 13-H ) :   0.9431 B( 10-C , 14-H ) :   0.9472
B( 12-C , 15-C ) :   0.9983 B( 12-C , 16-H ) :   0.9695 B( 12-C , 17-H ) :   0.9409
B( 15-C , 18-H ) :   0.9627 B( 15-C , 19-C ) :   0.9970 B( 15-C , 20-H ) :   0.9448
B( 19-C , 21-H ) :   0.9328 B( 19-C , 22-H ) :   0.9446 B( 19-C , 23-C ) :   1.0327
B( 23-C , 24-H ) :   0.9617 B( 23-C , 25-H ) :   0.9456 B( 23-C , 26-F ) :   0.9406
B( 29-C , 30-N ) :   1.2292 B( 29-C , 31-N ) :   1.1673 B( 30-N , 35-H ) :   0.8811
B( 30-N , 36-H ) :   0.9204 B( 31-N , 32-H ) :   0.9174 B( 31-N , 33-H ) :   0.9183

Dispersion correction           -0.040408352
FINAL SINGLE POINT ENERGY      -641.751939514945

DIPOLE MOMENT
-------------
                                X             Y             Z
Electronic contribution:     -1.56347      -4.89766      10.82658
Nuclear contribution   :      1.15699       3.94991     -10.89335
                        -----------------------------------------
Total Dipole Moment    :     -0.40649      -0.94775      -0.06677
                        -----------------------------------------
Magnitude (a.u.)       :      1.03341
Magnitude (Debye)      :      2.62671

Rotational constants in cm-1:     0.026548     0.016177     0.010851
Rotational constants in MHz :   795.884848   484.988695   325.313537

                             ****ORCA TERMINATED NORMALLY****
TOTAL RUN TIME: 0 days 0 hours 0 minutes 27 seconds 646 msec
