                         Program Version 5.0.0 -  RELEASE  -
|  1> !PBE D3BJ RIJCOSX def2-TZVP def2/J TightSCF xyzfile
|  2>
|  3> *xyzfile 0 1 D3.xyz
|  4>
|  5> %MaxCore 64000
|  6>
|  7> %pal nprocs 18
|  8> end
|  9>
| 10> %scf
| 11>   MaxIter 150
| 12> end
| 13>
| 14>
| 15>                          ****END OF INPUT****

CARTESIAN COORDINATES (ANGSTROEM)
---------------------------------
  C      3.488276    1.600919   -1.522040
  C      4.342970    1.313419   -2.756826
  N      2.810285    0.428783   -1.014196
  H      5.132033    0.604994   -2.484466
  C      3.535896    0.749253   -3.924604
  H      4.841247    2.242136   -3.054083
  H      2.991617   -0.132199   -3.574137
  H      4.225505    0.392784   -4.695962
  C      2.564776    1.750890   -4.544523
  H      1.918749    2.171679   -3.769419
  C      1.686235    1.161657   -5.650111
  H      3.132494    2.594775   -4.951604
  C      0.839616   -0.037582   -5.220473
  H      2.323886    0.866395   -6.490796
  H      1.029518    1.951850   -6.029329
  C     -0.151019    0.254955   -4.094256
  H      1.499442   -0.857141   -4.922958
  H      0.290097   -0.410143   -6.091131
  H      0.328265    0.833022   -3.299125
  C     -0.721843   -0.999513   -3.439309
  H     -0.957367    0.884951   -4.485450
  H     -1.083403   -1.697555   -4.205656
  H     -1.581056   -0.723848   -2.820490
  C      0.287250   -1.711771   -2.527405
  H      1.131780   -2.067380   -3.159396
  H     -0.204137   -2.637326   -2.170480
  F      0.710505   -0.927506   -1.481767
  H      2.714548    2.331455   -1.760302
  H      4.090991    2.063151   -0.733382
  C      3.290978   -0.418021   -0.129083
  N      2.517536   -1.432017    0.239360
  C      4.535490   -0.284410    0.395800
  H      5.043627    0.571888    0.222899
  H      4.723346   -0.733273    1.281800
  H      1.934787    0.102305   -1.403788
  H      1.674638   -1.505616   -0.316095
  H      2.928503   -2.218502    0.725494

 Total Charge           Charge          ....    0
 Multiplicity           Mult            ....    1
 Number of Electrons    NEL             ....  112
 Basis Dimension        Dim             ....  572

ORBITAL ENERGIES
----------------

  NO   OCC          E(Eh)            E(eV)
   0   2.0000     -24.302607      -661.3076
   1   2.0000     -13.964574      -379.9954
   2   2.0000     -13.955897      -379.7593
   3   2.0000      -9.984122      -271.6818
   4   2.0000      -9.906757      -269.5766
   5   2.0000      -9.899879      -269.3894
   6   2.0000      -9.898909      -269.3630
   7   2.0000      -9.892650      -269.1927
   8   2.0000      -9.886638      -269.0291
   9   2.0000      -9.881676      -268.8941
  10   2.0000      -9.875981      -268.7391
  11   2.0000      -9.871931      -268.6289
  12   2.0000      -9.866239      -268.4740
  13   2.0000      -9.773578      -265.9526
  14   2.0000      -1.161900       -31.6169
  15   2.0000      -0.874149       -23.7868
  16   2.0000      -0.791295       -21.5322
  17   2.0000      -0.758914       -20.6511
  18   2.0000      -0.730354       -19.8740
  19   2.0000      -0.698724       -19.0132
  20   2.0000      -0.659905       -17.9569
  21   2.0000      -0.629691       -17.1348
  22   2.0000      -0.619356       -16.8535
  23   2.0000      -0.591118       -16.0851
  24   2.0000      -0.561327       -15.2745
  25   2.0000      -0.536203       -14.5908
  26   2.0000      -0.517479       -14.0813
  27   2.0000      -0.503513       -13.7013
  28   2.0000      -0.497460       -13.5366
  29   2.0000      -0.473911       -12.8958
  30   2.0000      -0.466029       -12.6813
  31   2.0000      -0.456343       -12.4177
  32   2.0000      -0.442685       -12.0461
  33   2.0000      -0.426360       -11.6018
  34   2.0000      -0.413878       -11.2622
  35   2.0000      -0.406679       -11.0663
  36   2.0000      -0.393970       -10.7205
  37   2.0000      -0.389157       -10.5895
  38   2.0000      -0.381336       -10.3767
  39   2.0000      -0.365615        -9.9489
  40   2.0000      -0.354283        -9.6405
  41   2.0000      -0.340376        -9.2621
  42   2.0000      -0.335444        -9.1279
  43   2.0000      -0.327852        -8.9213
  44   2.0000      -0.324926        -8.8417
  45   2.0000      -0.316792        -8.6203
  46   2.0000      -0.309001        -8.4084
  47   2.0000      -0.304023        -8.2729
  48   2.0000      -0.297303        -8.0900
  49   2.0000      -0.294461        -8.0127
  50   2.0000      -0.289714        -7.8835
  51   2.0000      -0.277586        -7.5535
  52   2.0000      -0.275552        -7.4982
  53   2.0000      -0.269122        -7.3232
  54   2.0000      -0.190281        -5.1778
  55   2.0000      -0.116372        -3.1666
  56   0.0000      -0.003073        -0.0836
  57   0.0000       0.010512         0.2860
  58   0.0000       0.020355         0.5539
  59   0.0000       0.022842         0.6216
  60   0.0000       0.031659         0.8615

MULLIKEN ATOMIC CHARGES
-----------------------
   0 C :   -0.197705
   1 C :   -0.050251
   2 N :   -0.240895
   3 H :    0.113183
   4 C :   -0.247119
   5 H :    0.072295
   6 H :    0.088386
   7 H :    0.089614
   8 C :   -0.237501
   9 H :    0.096563
  10 C :   -0.087372
  11 H :    0.092077
  12 C :   -0.255188
  13 H :    0.089820
  14 H :    0.085949
  15 C :   -0.197668
  16 H :    0.103645
  17 H :    0.098945
  18 H :    0.104060
  19 C :   -0.132844
  20 H :    0.103310
  21 H :    0.099689
  22 H :    0.109481
  23 C :   -0.054402
  24 H :    0.113060
  25 H :    0.125434
  26 F :   -0.214448
  27 H :    0.113573
  28 H :    0.117996
  29 C :    0.272002
  30 N :   -0.436739
  31 C :   -0.541597
  32 H :    0.071224
  33 H :    0.077926
  34 H :    0.209792
  35 H :    0.219730
  36 H :    0.225975
Sum of atomic charges:    0.0000000

LOEWDIN ATOMIC CHARGES
----------------------
   0 C :   -0.288387
   1 C :   -0.269255
   2 N :    0.135978
   3 H :    0.145342
   4 C :   -0.274655
   5 H :    0.136685
   6 H :    0.131769
   7 H :    0.138208
   8 C :   -0.274212
   9 H :    0.131637
  10 C :   -0.269799
  11 H :    0.139132
  12 C :   -0.274391
  13 H :    0.139257
  14 H :    0.138186
  15 C :   -0.272067
  16 H :    0.133496
  17 H :    0.138263
  18 H :    0.139256
  19 C :   -0.275461
  20 H :    0.141082
  21 H :    0.148897
  22 H :    0.142961
  23 C :   -0.356374
  24 H :    0.127043
  25 H :    0.130500
  26 F :    0.160595
  27 H :    0.129290
  28 H :    0.139377
  29 C :   -0.483223
  30 N :   -0.009984
  31 C :   -0.378120
  32 H :    0.092566
  33 H :    0.092953
  34 H :    0.158978
  35 H :    0.143143
  36 H :    0.171339

  Mayer bond orders larger than 0.100000
B(  0-C ,  1-C ) :   0.9781 B(  0-C ,  2-N ) :   0.9685 B(  0-C , 27-H ) :   0.9739
B(  0-C , 28-H ) :   0.9443 B(  1-C ,  3-H ) :   0.9352 B(  1-C ,  4-C ) :   1.0013
B(  1-C ,  5-H ) :   0.9437 B(  2-N , 29-C ) :   1.2239 B(  2-N , 34-H ) :   0.8763
B(  4-C ,  6-H ) :   0.9635 B(  4-C ,  7-H ) :   0.9440 B(  4-C ,  8-C ) :   0.9962
B(  8-C ,  9-H ) :   0.9714 B(  8-C , 10-C ) :   1.0086 B(  8-C , 11-H ) :   0.9426
B( 10-C , 12-C ) :   1.0000 B( 10-C , 13-H ) :   0.9442 B( 10-C , 14-H ) :   0.9477
B( 12-C , 15-C ) :   0.9921 B( 12-C , 16-H ) :   0.9721 B( 12-C , 17-H ) :   0.9406
B( 15-C , 18-H ) :   0.9686 B( 15-C , 19-C ) :   0.9934 B( 15-C , 20-H ) :   0.9449
B( 19-C , 21-H ) :   0.9319 B( 19-C , 22-H ) :   0.9459 B( 19-C , 23-C ) :   1.0295
B( 23-C , 24-H ) :   0.9617 B( 23-C , 25-H ) :   0.9492 B( 23-C , 26-F ) :   0.9064
B( 29-C , 30-N ) :   1.1843 B( 29-C , 31-C ) :   1.6054 B( 30-N , 35-H ) :   0.8887
B( 30-N , 36-H ) :   0.9197 B( 31-C , 32-H ) :   0.9946 B( 31-C , 33-H ) :   0.9806

Dispersion correction           -0.040171719
FINAL SINGLE POINT ENERGY      -641.751194296834

DIPOLE MOMENT
-------------
                                X             Y             Z
Electronic contribution:     -3.24850      -4.32284       9.13792
Nuclear contribution   :      1.49917       3.80845     -10.61369
                        -----------------------------------------
Total Dipole Moment    :     -1.74933      -0.51439      -1.47577
                        -----------------------------------------
Magnitude (a.u.)       :      2.34577
Magnitude (Debye)      :      5.96247

Rotational constants in cm-1:     0.026547     0.016542     0.011018
Rotational constants in MHz :   795.873737   495.912559   330.323979

                             ****ORCA TERMINATED NORMALLY****
TOTAL RUN TIME: 0 days 0 hours 0 minutes 26 seconds 623 msec
