                         Program Version 5.0.0 -  RELEASE  -
|  1> !B3LYP D3BJ RIJCOSX def2-SVPD def2/J TightSCF
|  2> *xyz -1 1
|  3> C          4.93020       -7.37532       -2.64962
|  4> C          3.84189       -6.95161       -3.63283
|  5> H          3.45814       -5.95442       -3.40712
|  6> H          2.98848       -7.64361       -3.56708
|  7> S          4.31812       -6.91593       -5.36869
|  8> O          5.40615       -5.89948       -5.51297
|  9> O          3.11191       -6.44508       -6.04379
| 10> O          4.76340       -8.23942       -5.69863
| 11> H          5.27901       -8.35440       -2.90385
| 12> H          4.53000       -7.38577       -1.65734
| 13> H          5.74437       -6.68276       -2.69856
| 14> *
| 15>
| 16> %MaxCore 64000
| 17>
| 18> %pal nprocs 4
| 19> end
| 20>
| 21> %scf
| 22>   MaxIter 150
| 23> end
| 24>
| 25>
| 26>                          ****END OF INPUT****

CARTESIAN COORDINATES (ANGSTROEM)
---------------------------------
  C      4.930200   -7.375320   -2.649620
  C      3.841890   -6.951610   -3.632830
  H      3.458140   -5.954420   -3.407120
  H      2.988480   -7.643610   -3.567080
  S      4.318120   -6.915930   -5.368690
  O      5.406150   -5.899480   -5.512970
  O      3.111910   -6.445080   -6.043790
  O      4.763400   -8.239420   -5.698630
  H      5.279010   -8.354400   -2.903850
  H      4.530000   -7.385770   -1.657340
  H      5.744370   -6.682760   -2.698560

 Total Charge           Charge          ....   -1
 Multiplicity           Mult            ....    1
 Number of Electrons    NEL             ....   58
 Basis Dimension        Dim             ....  176

ORBITAL ENERGIES
----------------

  NO   OCC          E(Eh)            E(eV)
   0   2.0000     -88.881425     -2418.5865
   1   2.0000     -18.924425      -514.9598
   2   2.0000     -18.915187      -514.7084
   3   2.0000     -18.908026      -514.5135
   4   2.0000     -10.050841      -273.4973
   5   2.0000     -10.044624      -273.3281
   6   2.0000      -7.935088      -215.9247
   7   2.0000      -5.904060      -160.6577
   8   2.0000      -5.903871      -160.6525
   9   2.0000      -5.903366      -160.6387
  10   2.0000      -0.928525       -25.2664
  11   2.0000      -0.792064       -21.5532
  12   2.0000      -0.761665       -20.7260
  13   2.0000      -0.630750       -17.1636
  14   2.0000      -0.506661       -13.7870
  15   2.0000      -0.383992       -10.4489
  16   2.0000      -0.321469        -8.7476
  17   2.0000      -0.316797        -8.6205
  18   2.0000      -0.279740        -7.6121
  19   2.0000      -0.264965        -7.2101
  20   2.0000      -0.258675        -7.0389
  21   2.0000      -0.235154        -6.3989
  22   2.0000      -0.217898        -5.9293
  23   2.0000      -0.151563        -4.1242
  24   2.0000      -0.150362        -4.0916
  25   2.0000      -0.117871        -3.2074
  26   2.0000      -0.109078        -2.9682
  27   2.0000      -0.100391        -2.7318
  28   2.0000      -0.064348        -1.7510
  29   0.0000       0.139162         3.7868
  30   0.0000       0.168312         4.5800
  31   0.0000       0.177924         4.8416
  32   0.0000       0.183766         5.0005
  33   0.0000       0.205696         5.5973

MULLIKEN ATOMIC CHARGES
-----------------------
   0 C :    0.988869
   1 C :   -0.215098
   2 H :   -0.149757
   3 H :   -0.092199
   4 S :    1.351230
   5 O :   -0.842664
   6 O :   -0.808775
   7 O :   -0.789331
   8 H :   -0.129842
   9 H :   -0.178307
  10 H :   -0.134126
Sum of atomic charges:   -1.0000000

LOEWDIN ATOMIC CHARGES
----------------------
   0 C :    0.110364
   1 C :   -0.133024
   2 H :    0.000348
   3 H :    0.005117
   4 S :    0.860567
   5 O :   -0.599738
   6 O :   -0.588949
   7 O :   -0.572205
   8 H :   -0.023290
   9 H :   -0.037081
  10 H :   -0.022108

  Mayer bond orders larger than 0.100000
B(  0-C ,  1-C ) :   1.2632 B(  0-C ,  3-H ) :   0.1002 B(  0-C ,  8-H ) :   0.7671
B(  0-C ,  9-H ) :   0.6719 B(  0-C , 10-H ) :   0.7764 B(  1-C ,  2-H ) :   0.9714
B(  1-C ,  3-H ) :   0.9535 B(  1-C ,  4-S ) :   0.9133 B(  1-C ,  8-H ) :   0.2237
B(  1-C ,  9-H ) :   0.2582 B(  1-C , 10-H ) :   0.2170 B(  4-S ,  5-O ) :   1.2441
B(  4-S ,  6-O ) :   1.3096 B(  4-S ,  7-O ) :   1.2929

Dispersion correction           -0.016598040
FINAL SINGLE POINT ENERGY      -702.589250427363

DIPOLE MOMENT
-------------
                                X             Y             Z
Electronic contribution:     -0.37301       0.79725      -7.73867
Nuclear contribution   :      0.07504      -1.14369       9.75001
                        -----------------------------------------
Total Dipole Moment    :     -0.29796      -0.34644       2.01134
                        -----------------------------------------
Magnitude (a.u.)       :      2.06259
Magnitude (Debye)      :      5.24269

Rotational constants in cm-1:     0.160553     0.082191     0.080550
Rotational constants in MHz :  4813.250478  2464.013016  2414.833054

                             ****ORCA TERMINATED NORMALLY****
TOTAL RUN TIME: 0 days 0 hours 0 minutes 22 seconds 489 msec
