                         Program Version 5.0.0 -  RELEASE  -
|  1> !B3LYP D3BJ RIJCOSX def2-SVPD def2/J TightSCF
|  2> *xyz 1 1
|  3> C          5.55821       -1.99291       -6.21505
|  4> C          4.18188       -2.58967       -6.29891
|  5> N          3.14587       -1.76843       -6.48675
|  6> N          4.01910       -3.86431       -6.22743
|  7> H          4.76849       -4.59115       -5.99077
|  8> H          3.12241       -4.33339       -6.31462
|  9> H          3.28164       -0.77779       -6.56655
| 10> H          2.21255       -2.13419       -6.56225
| 11> C          6.41926       -2.54294       -5.07763
| 12> H          6.03683       -2.19819       -7.17685
| 13> H          5.46761       -0.90737       -6.12797
| 14> H          6.50056       -3.60553       -5.17358
| 15> H          5.96544       -2.30329       -4.13874
| 16> H          7.39438       -2.10494       -5.12457
| 17> *
| 18>
| 19> %MaxCore 64000
| 20>
| 21> %pal nprocs 4
| 22> end
| 23>
| 24> %scf
| 25>   MaxIter 150
| 26> end
| 27>
| 28>
| 29>                          ****END OF INPUT****

CARTESIAN COORDINATES (ANGSTROEM)
---------------------------------
  C      5.558210   -1.992910   -6.215050
  C      4.181880   -2.589670   -6.298910
  N      3.145870   -1.768430   -6.486750
  N      4.019100   -3.864310   -6.227430
  H      4.768490   -4.591150   -5.990770
  H      3.122410   -4.333390   -6.314620
  H      3.281640   -0.777790   -6.566550
  H      2.212550   -2.134190   -6.562250
  C      6.419260   -2.542940   -5.077630
  H      6.036830   -2.198190   -7.176850
  H      5.467610   -0.907370   -6.127970
  H      6.500560   -3.605530   -5.173580
  H      5.965440   -2.303290   -4.138740
  H      7.394380   -2.104940   -5.124570

 Total Charge           Charge          ....    1
 Multiplicity           Mult            ....    1
 Number of Electrons    NEL             ....   40
 Basis Dimension        Dim             ....  172

ORBITAL ENERGIES
----------------

  NO   OCC          E(Eh)            E(eV)
   0   2.0000     -14.582951      -396.8223
   1   2.0000     -14.571977      -396.5236
   2   2.0000     -10.507082      -285.9122
   3   2.0000     -10.381922      -282.5065
   4   2.0000     -10.339636      -281.3558
   5   2.0000      -1.195804       -32.5395
   6   2.0000      -1.098566       -29.8935
   7   2.0000      -0.962468       -26.1901
   8   2.0000      -0.863174       -23.4881
   9   2.0000      -0.813970       -22.1493
  10   2.0000      -0.776798       -21.1378
  11   2.0000      -0.745537       -20.2871
  12   2.0000      -0.700074       -19.0500
  13   2.0000      -0.653737       -17.7891
  14   2.0000      -0.624737       -17.0000
  15   2.0000      -0.603509       -16.4223
  16   2.0000      -0.550961       -14.9924
  17   2.0000      -0.540929       -14.7194
  18   2.0000      -0.525552       -14.3010
  19   2.0000      -0.494274       -13.4499
  20   0.0000      -0.211341        -5.7509
  21   0.0000      -0.161780        -4.4023
  22   0.0000      -0.127270        -3.4632
  23   0.0000      -0.116114        -3.1596
  24   0.0000      -0.095013        -2.5854

MULLIKEN ATOMIC CHARGES
-----------------------
   0 C :   -0.205792
   1 C :    0.749013
   2 N :    0.164250
   3 N :    0.208368
   4 H :    0.018177
   5 H :   -0.202088
   6 H :   -0.032774
   7 H :   -0.183662
   8 C :    0.977610
   9 H :   -0.057930
  10 H :   -0.030418
  11 H :   -0.215334
  12 H :   -0.115117
  13 H :   -0.074303
Sum of atomic charges:    1.0000000

LOEWDIN ATOMIC CHARGES
----------------------
   0 C :    0.017981
   1 C :   -0.045380
   2 N :    0.291738
   3 N :    0.267583
   4 H :    0.095467
   5 H :    0.048996
   6 H :    0.038526
   7 H :    0.037832
   8 C :    0.172483
   9 H :    0.054247
  10 H :    0.036387
  11 H :   -0.024600
  12 H :    0.001329
  13 H :    0.007411

  Mayer bond orders larger than 0.100000
B(  0-C ,  1-C ) :   1.0757 B(  0-C ,  8-C ) :   1.3022 B(  0-C ,  9-H ) :   0.8624
B(  0-C , 10-H ) :   0.8708 B(  0-C , 11-H ) :   0.2135 B(  0-C , 12-H ) :   0.2354
B(  0-C , 13-H ) :   0.1987 B(  1-C ,  2-N ) :   1.0221 B(  1-C ,  3-N ) :   1.1363
B(  1-C ,  4-H ) :  -0.1036 B(  1-C ,  5-H ) :  -0.2440 B(  1-C ,  7-H ) :  -0.2284
B(  1-C ,  9-H ) :   0.1278 B(  1-C , 10-H ) :   0.1441 B(  2-N ,  3-N ) :   0.1501
B(  2-N ,  6-H ) :   1.1308 B(  2-N ,  7-H ) :   1.3380 B(  3-N ,  4-H ) :   1.1470
B(  3-N ,  5-H ) :   1.3059 B(  4-H ,  5-H ) :  -0.1850 B(  6-H ,  7-H ) :  -0.1888
B(  8-C , 10-H ) :   0.1177 B(  8-C , 11-H ) :   0.7723 B(  8-C , 12-H ) :   0.6989
B(  8-C , 13-H ) :   0.7725

Dispersion correction           -0.016577058
FINAL SINGLE POINT ENERGY      -228.748596007109

DIPOLE MOMENT
-------------
                                X             Y             Z
Electronic contribution:     -3.77953      -0.47640      -1.56850
Nuclear contribution   :      2.76041       0.12669       1.26265
                        -----------------------------------------
Total Dipole Moment    :     -1.01912      -0.34971      -0.30585
                        -----------------------------------------
Magnitude (a.u.)       :      1.12002
Magnitude (Debye)      :      2.84686

Rotational constants in cm-1:     0.280918     0.124524     0.094121
Rotational constants in MHz :  8421.697738  3733.133254  2821.684112

                             ****ORCA TERMINATED NORMALLY****
TOTAL RUN TIME: 0 days 0 hours 0 minutes 19 seconds 658 msec
