                         Program Version 5.0.0 -  RELEASE  -
|  1> !B3LYP D3BJ RIJCOSX def2-SVPD def2/J TightSCF
|  2> *xyz 0 1
|  3> C          4.93020       -7.37532       -2.64962
|  4> C          3.84189       -6.95161       -3.63283
|  5> H          3.45814       -5.95442       -3.40712
|  6> H          2.98848       -7.64361       -3.56708
|  7> S          4.31812       -6.91593       -5.36869
|  8> F          5.40615       -5.89948       -5.51297
|  9> O          3.11191       -6.44508       -6.04379
| 10> O          4.76340       -8.23942       -5.69863
| 11> H          5.27901       -8.35440       -2.90385
| 12> H          4.53000       -7.38577       -1.65734
| 13> H          5.74437       -6.68276       -2.69856
| 14> *
| 15>
| 16> %MaxCore 64000
| 17>
| 18> %pal nprocs 4
| 19> end
| 20>
| 21> %scf
| 22>   MaxIter 150
| 23> end
| 24>
| 25>
| 26>                          ****END OF INPUT****

CARTESIAN COORDINATES (ANGSTROEM)
---------------------------------
  C      4.930200   -7.375320   -2.649620
  C      3.841890   -6.951610   -3.632830
  H      3.458140   -5.954420   -3.407120
  H      2.988480   -7.643610   -3.567080
  S      4.318120   -6.915930   -5.368690
  F      5.406150   -5.899480   -5.512970
  O      3.111910   -6.445080   -6.043790
  O      4.763400   -8.239420   -5.698630
  H      5.279010   -8.354400   -2.903850
  H      4.530000   -7.385770   -1.657340
  H      5.744370   -6.682760   -2.698560

 Total Charge           Charge          ....    0
 Multiplicity           Mult            ....    1
 Number of Electrons    NEL             ....   58
 Basis Dimension        Dim             ....  176

ORBITAL ENERGIES
----------------

  NO   OCC          E(Eh)            E(eV)
   0   2.0000     -89.137663     -2425.5591
   1   2.0000     -24.794070      -674.6809
   2   2.0000     -19.158475      -521.3286
   3   2.0000     -19.148536      -521.0581
   4   2.0000     -10.251816      -278.9661
   5   2.0000     -10.209635      -277.8183
   6   2.0000      -8.192184      -222.9206
   7   2.0000      -6.164941      -167.7566
   8   2.0000      -6.159004      -167.5950
   9   2.0000      -6.157654      -167.5583
  10   2.0000      -1.336035       -36.3554
  11   2.0000      -1.117451       -30.4074
  12   2.0000      -1.020831       -27.7782
  13   2.0000      -0.822693       -22.3866
  14   2.0000      -0.721776       -19.6405
  15   2.0000      -0.673988       -18.3402
  16   2.0000      -0.581435       -15.8216
  17   2.0000      -0.562037       -15.2938
  18   2.0000      -0.549043       -14.9402
  19   2.0000      -0.497920       -13.5491
  20   2.0000      -0.483997       -13.1702
  21   2.0000      -0.460902       -12.5418
  22   2.0000      -0.440605       -11.9895
  23   2.0000      -0.413686       -11.2570
  24   2.0000      -0.407814       -11.0972
  25   2.0000      -0.384240       -10.4557
  26   2.0000      -0.344761        -9.3814
  27   2.0000      -0.333297        -9.0695
  28   2.0000      -0.321782        -8.7561
  29   0.0000      -0.013701        -0.3728
  30   0.0000       0.024650         0.6708
  31   0.0000       0.031887         0.8677
  32   0.0000       0.034893         0.9495
  33   0.0000       0.042699         1.1619

MULLIKEN ATOMIC CHARGES
-----------------------
   0 C :    1.008700
   1 C :   -0.241138
   2 H :   -0.101684
   3 H :   -0.036556
   4 S :    1.503739
   5 F :   -0.427352
   6 O :   -0.670460
   7 O :   -0.658939
   8 H :   -0.102478
   9 H :   -0.140555
  10 H :   -0.133277
Sum of atomic charges:   -0.0000000

LOEWDIN ATOMIC CHARGES
----------------------
   0 C :    0.140304
   1 C :   -0.085678
   2 H :    0.019912
   3 H :    0.038712
   4 S :    1.123509
   5 F :   -0.276905
   6 O :   -0.474291
   7 O :   -0.458469
   8 H :   -0.008000
   9 H :   -0.007707
  10 H :   -0.011386

  Mayer bond orders larger than 0.100000
B(  0-C ,  1-C ) :   1.2917 B(  0-C ,  8-H ) :   0.7739 B(  0-C ,  9-H ) :   0.6774
B(  0-C , 10-H ) :   0.7691 B(  1-C ,  2-H ) :   0.9714 B(  1-C ,  3-H ) :   0.9499
B(  1-C ,  4-S ) :   0.9786 B(  1-C ,  8-H ) :   0.2183 B(  1-C ,  9-H ) :   0.2464
B(  1-C , 10-H ) :   0.2087 B(  4-S ,  5-F ) :   0.6024 B(  4-S ,  6-O ) :   1.5257
B(  4-S ,  7-O ) :   1.5147

Dispersion correction           -0.015794977
FINAL SINGLE POINT ENERGY      -727.092010978230

DIPOLE MOMENT
-------------
                                X             Y             Z
Electronic contribution:      1.29302       2.61974      -8.70056
Nuclear contribution   :     -0.98922      -2.24849      10.35711
                        -----------------------------------------
Total Dipole Moment    :      0.30380       0.37125       1.65655
                        -----------------------------------------
Magnitude (a.u.)       :      1.72461
Magnitude (Debye)      :      4.38361

Rotational constants in cm-1:     0.151436     0.080885     0.078670
Rotational constants in MHz :  4539.936009  2424.868817  2358.476812

                             ****ORCA TERMINATED NORMALLY****
TOTAL RUN TIME: 0 days 0 hours 0 minutes 22 seconds 942 msec
