                         Program Version 5.0.0 -  RELEASE  -
|  1> !B3LYP D3BJ RIJCOSX def2-SVPD def2/J TightSCF
|  2> *xyz 0 1
|  3> C          5.55821       -1.99291       -6.21505
|  4> C          4.18188       -2.58967       -6.29891
|  5> C          3.14587       -1.76843       -6.48675
|  6> N          4.01910       -3.86431       -6.22743
|  7> H          4.76849       -4.59115       -5.99077
|  8> H          3.12241       -4.33339       -6.31462
|  9> H          3.28164       -0.77779       -6.56655
| 10> H          2.21255       -2.13419       -6.56225
| 11> C          6.41926       -2.54294       -5.07763
| 12> H          6.03683       -2.19819       -7.17685
| 13> H          5.46761       -0.90737       -6.12797
| 14> H          6.50056       -3.60553       -5.17358
| 15> H          5.96544       -2.30329       -4.13874
| 16> H          7.39438       -2.10494       -5.12457
| 17> *
| 18>
| 19> %MaxCore 64000
| 20>
| 21> %pal nprocs 4
| 22> end
| 23>
| 24> %scf
| 25>   MaxIter 150
| 26> end
| 27>
| 28>
| 29>                          ****END OF INPUT****

CARTESIAN COORDINATES (ANGSTROEM)
---------------------------------
  C      5.558210   -1.992910   -6.215050
  C      4.181880   -2.589670   -6.298910
  C      3.145870   -1.768430   -6.486750
  N      4.019100   -3.864310   -6.227430
  H      4.768490   -4.591150   -5.990770
  H      3.122410   -4.333390   -6.314620
  H      3.281640   -0.777790   -6.566550
  H      2.212550   -2.134190   -6.562250
  C      6.419260   -2.542940   -5.077630
  H      6.036830   -2.198190   -7.176850
  H      5.467610   -0.907370   -6.127970
  H      6.500560   -3.605530   -5.173580
  H      5.965440   -2.303290   -4.138740
  H      7.394380   -2.104940   -5.124570

 Total Charge           Charge          ....    0
 Multiplicity           Mult            ....    1
 Number of Electrons    NEL             ....   40
 Basis Dimension        Dim             ....  172

ORBITAL ENERGIES
----------------

  NO   OCC          E(Eh)            E(eV)
   0   2.0000     -14.339240      -390.1906
   1   2.0000     -10.203933      -277.6631
   2   2.0000     -10.181692      -277.0579
   3   2.0000     -10.172607      -276.8107
   4   2.0000     -10.112363      -275.1714
   5   2.0000      -0.925805       -25.1924
   6   2.0000      -0.770443       -20.9648
   7   2.0000      -0.710934       -19.3455
   8   2.0000      -0.625511       -17.0210
   9   2.0000      -0.581642       -15.8273
  10   2.0000      -0.516762       -14.0618
  11   2.0000      -0.471940       -12.8421
  12   2.0000      -0.443321       -12.0634
  13   2.0000      -0.422413       -11.4944
  14   2.0000      -0.393413       -10.7053
  15   2.0000      -0.382098       -10.3974
  16   2.0000      -0.359166        -9.7734
  17   2.0000      -0.335747        -9.1361
  18   2.0000      -0.329747        -8.9729
  19   2.0000      -0.185476        -5.0470
  20   0.0000       0.010762         0.2928
  21   0.0000       0.038661         1.0520
  22   0.0000       0.048456         1.3186
  23   0.0000       0.054377         1.4797
  24   0.0000       0.072522         1.9734

MULLIKEN ATOMIC CHARGES
-----------------------
   0 C :    0.043455
   1 C :   -0.129720
   2 C :    0.712357
   3 N :    0.322348
   4 H :   -0.146906
   5 H :   -0.286852
   6 H :   -0.289266
   7 H :   -0.571095
   8 C :    0.968011
   9 H :   -0.145281
  10 H :    0.023195
  11 H :   -0.247436
  12 H :   -0.131699
  13 H :   -0.121110
Sum of atomic charges:   -0.0000000

LOEWDIN ATOMIC CHARGES
----------------------
   0 C :   -0.024161
   1 C :   -0.267835
   2 C :    0.186091
   3 N :    0.153139
   4 H :    0.037710
   5 H :    0.008098
   6 H :   -0.098503
   7 H :   -0.097662
   8 C :    0.133470
   9 H :    0.024023
  10 H :    0.021341
  11 H :   -0.041440
  12 H :   -0.013949
  13 H :   -0.020324

  Mayer bond orders larger than 0.100000
B(  0-C ,  1-C ) :   1.1161 B(  0-C ,  2-C ) :   0.1260 B(  0-C ,  6-H ) :  -0.1095
B(  0-C ,  8-C ) :   1.2479 B(  0-C ,  9-H ) :   0.7721 B(  0-C , 10-H ) :   0.8565
B(  0-C , 11-H ) :   0.2293 B(  0-C , 12-H ) :   0.2261 B(  0-C , 13-H ) :   0.2285
B(  1-C ,  2-C ) :   1.5520 B(  1-C ,  3-N ) :   1.2846 B(  1-C ,  5-H ) :  -0.1138
B(  1-C ,  7-H ) :   0.2454 B(  1-C ,  9-H ) :   0.2467 B(  1-C , 10-H ) :   0.1016
B(  2-C ,  3-N ) :   0.2632 B(  2-C ,  6-H ) :   1.0141 B(  2-C ,  7-H ) :   0.5191
B(  3-N ,  4-H ) :   1.2009 B(  3-N ,  5-H ) :   1.2436 B(  4-H ,  5-H ) :  -0.1636
B(  8-C , 10-H ) :   0.1236 B(  8-C , 11-H ) :   0.7591 B(  8-C , 12-H ) :   0.7120
B(  8-C , 13-H ) :   0.7361

Dispersion correction           -0.017277841
FINAL SINGLE POINT ENERGY      -212.287848603305

DIPOLE MOMENT
-------------
                                X             Y             Z
Electronic contribution:     -2.04539      -1.06067      -1.02934
Nuclear contribution   :      2.41345       0.31141       1.16343
                        -----------------------------------------
Total Dipole Moment    :      0.36807      -0.74926       0.13410
                        -----------------------------------------
Magnitude (a.u.)       :      0.84548
Magnitude (Debye)      :      2.14905

Rotational constants in cm-1:     0.287957     0.129204     0.097498
Rotational constants in MHz :  8632.737925  3873.424745  2922.919500

                             ****ORCA TERMINATED NORMALLY****
TOTAL RUN TIME: 0 days 0 hours 0 minutes 22 seconds 623 msec
