                         Program Version 5.0.0 -  RELEASE  -
|  1> !B3LYP D3BJ RIJCOSX def2-SVPD def2/J TightSCF
|  2> *xyz 0 1
|  3> C          4.93020       -7.37532       -2.64962
|  4> C          3.84189       -6.95161       -3.63283
|  5> H          3.45814       -5.95442       -3.40712
|  6> H          2.98848       -7.64361       -3.56708
|  7> S          4.31812       -6.91593       -5.36869
|  8> O          5.40615       -5.89948       -5.51297
|  9> F          3.11191       -6.44508       -6.04379
| 10> O          4.76340       -8.23942       -5.69863
| 11> H          5.27901       -8.35440       -2.90385
| 12> H          4.53000       -7.38577       -1.65734
| 13> H          5.74437       -6.68276       -2.69856
| 14> *
| 15>
| 16> %MaxCore 64000
| 17>
| 18> %pal nprocs 4
| 19> end
| 20>
| 21> %scf
| 22>   MaxIter 150
| 23> end
| 24>
| 25>
| 26>                          ****END OF INPUT****

CARTESIAN COORDINATES (ANGSTROEM)
---------------------------------
  C      4.930200   -7.375320   -2.649620
  C      3.841890   -6.951610   -3.632830
  H      3.458140   -5.954420   -3.407120
  H      2.988480   -7.643610   -3.567080
  S      4.318120   -6.915930   -5.368690
  O      5.406150   -5.899480   -5.512970
  F      3.111910   -6.445080   -6.043790
  O      4.763400   -8.239420   -5.698630
  H      5.279010   -8.354400   -2.903850
  H      4.530000   -7.385770   -1.657340
  H      5.744370   -6.682760   -2.698560

 Total Charge           Charge          ....    0
 Multiplicity           Mult            ....    1
 Number of Electrons    NEL             ....   58
 Basis Dimension        Dim             ....  176

ORBITAL ENERGIES
----------------

  NO   OCC          E(Eh)            E(eV)
   0   2.0000     -89.139394     -2425.6062
   1   2.0000     -24.808536      -675.0746
   2   2.0000     -19.157918      -521.3135
   3   2.0000     -19.140931      -520.8512
   4   2.0000     -10.252848      -278.9942
   5   2.0000     -10.208105      -277.7767
   6   2.0000      -8.193945      -222.9686
   7   2.0000      -6.166842      -167.8083
   8   2.0000      -6.160665      -167.6402
   9   2.0000      -6.159233      -167.6012
  10   2.0000      -1.363498       -37.1027
  11   2.0000      -1.111138       -30.2356
  12   2.0000      -1.001801       -27.2604
  13   2.0000      -0.822800       -22.3895
  14   2.0000      -0.735993       -20.0274
  15   2.0000      -0.674451       -18.3527
  16   2.0000      -0.584510       -15.9053
  17   2.0000      -0.581443       -15.8219
  18   2.0000      -0.558627       -15.2010
  19   2.0000      -0.499107       -13.5814
  20   2.0000      -0.487378       -13.2622
  21   2.0000      -0.448513       -12.2047
  22   2.0000      -0.437013       -11.8917
  23   2.0000      -0.416135       -11.3236
  24   2.0000      -0.394662       -10.7393
  25   2.0000      -0.389151       -10.5893
  26   2.0000      -0.341088        -9.2815
  27   2.0000      -0.325882        -8.8677
  28   2.0000      -0.308609        -8.3977
  29   0.0000      -0.005888        -0.1602
  30   0.0000       0.013659         0.3717
  31   0.0000       0.033848         0.9211
  32   0.0000       0.038351         1.0436
  33   0.0000       0.050442         1.3726

MULLIKEN ATOMIC CHARGES
-----------------------
   0 C :    0.977922
   1 C :   -0.261129
   2 H :   -0.091146
   3 H :   -0.031551
   4 S :    1.525914
   5 O :   -0.698838
   6 F :   -0.417288
   7 O :   -0.648206
   8 H :   -0.106375
   9 H :   -0.138412
  10 H :   -0.110892
Sum of atomic charges:   -0.0000000

LOEWDIN ATOMIC CHARGES
----------------------
   0 C :    0.155368
   1 C :   -0.097604
   2 H :    0.018809
   3 H :    0.024407
   4 S :    1.126165
   5 O :   -0.484951
   6 F :   -0.267756
   7 O :   -0.460355
   8 H :   -0.005045
   9 H :   -0.005276
  10 H :   -0.003764

  Mayer bond orders larger than 0.100000
B(  0-C ,  1-C ) :   1.3377 B(  0-C ,  8-H ) :   0.7664 B(  0-C ,  9-H ) :   0.6863
B(  0-C , 10-H ) :   0.7775 B(  1-C ,  2-H ) :   0.9579 B(  1-C ,  3-H ) :   0.9354
B(  1-C ,  4-S ) :   0.9526 B(  1-C ,  8-H ) :   0.2161 B(  1-C ,  9-H ) :   0.2465
B(  1-C , 10-H ) :   0.2115 B(  4-S ,  5-O ) :   1.4560 B(  4-S ,  6-F ) :   0.6621
B(  4-S ,  7-O ) :   1.5107

Dispersion correction           -0.015854765
FINAL SINGLE POINT ENERGY      -727.080563907290

DIPOLE MOMENT
-------------
                                X             Y             Z
Electronic contribution:     -2.58972       1.69009      -9.60952
Nuclear contribution   :      1.40145      -1.67996      10.91024
                        -----------------------------------------
Total Dipole Moment    :     -1.18827       0.01013       1.30072
                        -----------------------------------------
Magnitude (a.u.)       :      1.76180
Magnitude (Debye)      :      4.47814

Rotational constants in cm-1:     0.155875     0.079864     0.077188
Rotational constants in MHz :  4673.017506  2394.277415  2314.027118

                             ****ORCA TERMINATED NORMALLY****
TOTAL RUN TIME: 0 days 0 hours 0 minutes 21 seconds 877 msec
