                         Program Version 5.0.0 -  RELEASE  -
|  1> !B3LYP D3BJ RIJCOSX def2-SVPD def2/J TightSCF
|  2> *xyz 0 1
|  3> C          5.55821       -1.99291       -6.21505
|  4> C          4.18188       -2.58967       -6.29891
|  5> N          3.14587       -1.76843       -6.48675
|  6> C          4.01910       -3.86431       -6.22743
|  7> H          4.76849       -4.59115       -5.99077
|  8> H          3.12241       -4.33339       -6.31462
|  9> H          3.28164       -0.77779       -6.56655
| 10> H          2.21255       -2.13419       -6.56225
| 11> C          6.41926       -2.54294       -5.07763
| 12> H          6.03683       -2.19819       -7.17685
| 13> H          5.46761       -0.90737       -6.12797
| 14> H          6.50056       -3.60553       -5.17358
| 15> H          5.96544       -2.30329       -4.13874
| 16> H          7.39438       -2.10494       -5.12457
| 17> *
| 18>
| 19> %MaxCore 64000
| 20>
| 21> %pal nprocs 4
| 22> end
| 23>
| 24> %scf
| 25>   MaxIter 150
| 26> end
| 27>
| 28>
| 29>                          ****END OF INPUT****

CARTESIAN COORDINATES (ANGSTROEM)
---------------------------------
  C      5.558210   -1.992910   -6.215050
  C      4.181880   -2.589670   -6.298910
  N      3.145870   -1.768430   -6.486750
  C      4.019100   -3.864310   -6.227430
  H      4.768490   -4.591150   -5.990770
  H      3.122410   -4.333390   -6.314620
  H      3.281640   -0.777790   -6.566550
  H      2.212550   -2.134190   -6.562250
  C      6.419260   -2.542940   -5.077630
  H      6.036830   -2.198190   -7.176850
  H      5.467610   -0.907370   -6.127970
  H      6.500560   -3.605530   -5.173580
  H      5.965440   -2.303290   -4.138740
  H      7.394380   -2.104940   -5.124570

 Total Charge           Charge          ....    0
 Multiplicity           Mult            ....    1
 Number of Electrons    NEL             ....   40
 Basis Dimension        Dim             ....  172

ORBITAL ENERGIES
----------------

  NO   OCC          E(Eh)            E(eV)
   0   2.0000     -14.328625      -389.9017
   1   2.0000     -10.201596      -277.5995
   2   2.0000     -10.182858      -277.0897
   3   2.0000     -10.166588      -276.6469
   4   2.0000     -10.119413      -275.3632
   5   2.0000      -0.915503       -24.9121
   6   2.0000      -0.774009       -21.0619
   7   2.0000      -0.707205       -19.2440
   8   2.0000      -0.635670       -17.2975
   9   2.0000      -0.556183       -15.1345
  10   2.0000      -0.522697       -14.2233
  11   2.0000      -0.485887       -13.2216
  12   2.0000      -0.447105       -12.1664
  13   2.0000      -0.419818       -11.4238
  14   2.0000      -0.384734       -10.4692
  15   2.0000      -0.372728       -10.1424
  16   2.0000      -0.351849        -9.5743
  17   2.0000      -0.337682        -9.1888
  18   2.0000      -0.326174        -8.8756
  19   2.0000      -0.193396        -5.2626
  20   0.0000       0.018860         0.5132
  21   0.0000       0.037156         1.0111
  22   0.0000       0.051064         1.3895
  23   0.0000       0.054797         1.4911
  24   0.0000       0.075889         2.0651

MULLIKEN ATOMIC CHARGES
-----------------------
   0 C :    0.095747
   1 C :    0.265358
   2 N :    0.305315
   3 C :    0.270217
   4 H :   -0.091077
   5 H :   -0.615311
   6 H :   -0.209705
   7 H :   -0.240027
   8 C :    0.997729
   9 H :   -0.152009
  10 H :   -0.152690
  11 H :   -0.219655
  12 H :   -0.135851
  13 H :   -0.118041
Sum of atomic charges:    0.0000000

LOEWDIN ATOMIC CHARGES
----------------------
   0 C :   -0.027586
   1 C :   -0.255964
   2 N :    0.180461
   3 C :    0.159651
   4 H :   -0.050825
   5 H :   -0.089528
   6 H :   -0.017459
   7 H :   -0.001943
   8 C :    0.138768
   9 H :    0.026251
  10 H :    0.008356
  11 H :   -0.033898
  12 H :   -0.014328
  13 H :   -0.021955

  Mayer bond orders larger than 0.100000
B(  0-C ,  1-C ) :   1.0053 B(  0-C ,  2-N ) :   0.1223 B(  0-C ,  8-C ) :   1.2848
B(  0-C ,  9-H ) :   0.8357 B(  0-C , 10-H ) :   0.7613 B(  0-C , 11-H ) :   0.2103
B(  0-C , 12-H ) :   0.2412 B(  0-C , 13-H ) :   0.2048 B(  1-C ,  2-N ) :   1.0674
B(  1-C ,  3-C ) :   1.4312 B(  1-C ,  7-H ) :  -0.1373 B(  1-C ,  9-H ) :   0.1614
B(  1-C , 10-H ) :   0.1732 B(  2-N ,  3-C ) :   0.3190 B(  2-N ,  6-H ) :   1.1236
B(  2-N ,  7-H ) :   1.2864 B(  3-C ,  4-H ) :   0.8930 B(  3-C ,  5-H ) :   0.7489
B(  6-H ,  7-H ) :  -0.1646 B(  8-C ,  9-H ) :   0.1040 B(  8-C , 11-H ) :   0.7720
B(  8-C , 12-H ) :   0.7193 B(  8-C , 13-H ) :   0.7415

Dispersion correction           -0.017353458
FINAL SINGLE POINT ENERGY      -212.297385371088

DIPOLE MOMENT
-------------
                                X             Y             Z
Electronic contribution:     -2.81025       0.79812      -1.28769
Nuclear contribution   :      2.61570      -0.17401       1.22349
                        -----------------------------------------
Total Dipole Moment    :     -0.19455       0.62411      -0.06420
                        -----------------------------------------
Magnitude (a.u.)       :      0.65687
Magnitude (Debye)      :      1.66963

Rotational constants in cm-1:     0.298189     0.125314     0.096441
Rotational constants in MHz :  8939.495008  3756.825352  2891.223400

                             ****ORCA TERMINATED NORMALLY****
TOTAL RUN TIME: 0 days 0 hours 0 minutes 25 seconds 106 msec
