                         Program Version 5.0.0 -  RELEASE  -
|  1> !B3LYP D3BJ RIJCOSX def2-SVPD def2/J TightSCF
|  2> *xyz 0 1
|  3> C          4.93020       -7.37532       -2.64962
|  4> C          3.84189       -6.95161       -3.63283
|  5> H          3.45814       -5.95442       -3.40712
|  6> H          2.98848       -7.64361       -3.56708
|  7> S          4.31812       -6.91593       -5.36869
|  8> O          5.40615       -5.89948       -5.51297
|  9> O          3.11191       -6.44508       -6.04379
| 10> F          4.76340       -8.23942       -5.69863
| 11> H          5.27901       -8.35440       -2.90385
| 12> H          4.53000       -7.38577       -1.65734
| 13> H          5.74437       -6.68276       -2.69856
| 14> *
| 15>
| 16> %MaxCore 64000
| 17>
| 18> %pal nprocs 4
| 19> end
| 20>
| 21> %scf
| 22>   MaxIter 150
| 23> end
| 24>
| 25>
| 26>                          ****END OF INPUT****

CARTESIAN COORDINATES (ANGSTROEM)
---------------------------------
  C      4.930200   -7.375320   -2.649620
  C      3.841890   -6.951610   -3.632830
  H      3.458140   -5.954420   -3.407120
  H      2.988480   -7.643610   -3.567080
  S      4.318120   -6.915930   -5.368690
  O      5.406150   -5.899480   -5.512970
  O      3.111910   -6.445080   -6.043790
  F      4.763400   -8.239420   -5.698630
  H      5.279010   -8.354400   -2.903850
  H      4.530000   -7.385770   -1.657340
  H      5.744370   -6.682760   -2.698560

 Total Charge           Charge          ....    0
 Multiplicity           Mult            ....    1
 Number of Electrons    NEL             ....   58
 Basis Dimension        Dim             ....  176

ORBITAL ENERGIES
----------------

  NO   OCC          E(Eh)            E(eV)
   0   2.0000     -89.140742     -2425.6429
   1   2.0000     -24.821896      -675.4381
   2   2.0000     -19.148935      -521.0690
   3   2.0000     -19.141879      -520.8770
   4   2.0000     -10.253140      -279.0021
   5   2.0000     -10.210753      -277.8487
   6   2.0000      -8.195314      -223.0058
   7   2.0000      -6.168469      -167.8526
   8   2.0000      -6.161792      -167.6709
   9   2.0000      -6.160457      -167.6345
  10   2.0000      -1.386070       -37.7169
  11   2.0000      -1.099722       -29.9250
  12   2.0000      -0.994196       -27.0534
  13   2.0000      -0.825493       -22.4628
  14   2.0000      -0.740703       -20.1555
  15   2.0000      -0.683839       -18.6082
  16   2.0000      -0.605508       -16.4767
  17   2.0000      -0.596054       -16.2195
  18   2.0000      -0.553026       -15.0486
  19   2.0000      -0.498177       -13.5561
  20   2.0000      -0.483248       -13.1498
  21   2.0000      -0.456101       -12.4111
  22   2.0000      -0.436891       -11.8884
  23   2.0000      -0.414189       -11.2707
  24   2.0000      -0.402668       -10.9571
  25   2.0000      -0.378210       -10.2916
  26   2.0000      -0.332234        -9.0406
  27   2.0000      -0.325304        -8.8520
  28   2.0000      -0.303006        -8.2452
  29   0.0000      -0.013059        -0.3553
  30   0.0000       0.022242         0.6052
  31   0.0000       0.032720         0.8904
  32   0.0000       0.034742         0.9454
  33   0.0000       0.046424         1.2633

MULLIKEN ATOMIC CHARGES
-----------------------
   0 C :    1.006207
   1 C :   -0.239691
   2 H :   -0.096094
   3 H :   -0.040931
   4 S :    1.492506
   5 O :   -0.692484
   6 O :   -0.653393
   7 F :   -0.401581
   8 H :   -0.127465
   9 H :   -0.139888
  10 H :   -0.107186
Sum of atomic charges:    0.0000000

LOEWDIN ATOMIC CHARGES
----------------------
   0 C :    0.140100
   1 C :   -0.086347
   2 H :    0.033104
   3 H :    0.025492
   4 S :    1.125704
   5 O :   -0.482754
   6 O :   -0.473896
   7 F :   -0.254615
   8 H :   -0.012780
   9 H :   -0.007471
  10 H :   -0.006538

  Mayer bond orders larger than 0.100000
B(  0-C ,  1-C ) :   1.2899 B(  0-C ,  8-H ) :   0.7592 B(  0-C ,  9-H ) :   0.6781
B(  0-C , 10-H ) :   0.7848 B(  1-C ,  2-H ) :   0.9740 B(  1-C ,  3-H ) :   0.9494
B(  1-C ,  4-S ) :   0.9759 B(  1-C ,  8-H ) :   0.2131 B(  1-C ,  9-H ) :   0.2468
B(  1-C , 10-H ) :   0.2128 B(  4-S ,  5-O ) :   1.4692 B(  4-S ,  6-O ) :   1.5315
B(  4-S ,  7-F ) :   0.6712

Dispersion correction           -0.015779339
FINAL SINGLE POINT ENERGY      -727.068779399040

DIPOLE MOMENT
-------------
                                X             Y             Z
Electronic contribution:      0.19491      -1.31900      -9.01629
Nuclear contribution   :     -0.31946       0.18980      10.55057
                        -----------------------------------------
Total Dipole Moment    :     -0.12455      -1.12921       1.53428
                        -----------------------------------------
Magnitude (a.u.)       :      1.90910
Magnitude (Debye)      :      4.85254

Rotational constants in cm-1:     0.151421     0.081183     0.078684
Rotational constants in MHz :  4539.489207  2433.790160  2358.892966

                             ****ORCA TERMINATED NORMALLY****
TOTAL RUN TIME: 0 days 0 hours 0 minutes 21 seconds 709 msec
