                         Program Version 5.0.0 -  RELEASE  -
|  1> !B3LYP D3BJ RIJCOSX def2-SVPD def2/J TightSCF xyzfile
|  2>
|  3> *xyzfile 0 1 D1.xyz
|  4>
|  5> %MaxCore 64000
|  6>
|  7> %pal nprocs 4
|  8> end
|  9>
| 10> %scf
| 11>   MaxIter 150
| 12> end
| 13>
| 14>
| 15>                          ****END OF INPUT****

CARTESIAN COORDINATES (ANGSTROEM)
---------------------------------
  C      5.558206   -1.992914   -6.215054
  C      4.930199   -7.375319   -2.649623
  C      3.841892   -6.951611   -3.632829
  H      3.458144   -5.954425   -3.407121
  H      2.988484   -7.643606   -3.567078
  S      4.318115   -6.915930   -5.368692
  C      4.181880   -2.589671   -6.298911
  C      3.145873   -1.768431   -6.486753
  N      4.019102   -3.864307   -6.227427
  H      4.768490   -4.591153   -5.990773
  H      3.122405   -4.333392   -6.314620
  H      3.281635   -0.777786   -6.566549
  H      2.212549   -2.134193   -6.562246
  F      5.406154   -5.899480   -5.512972
  O      3.111910   -6.445079   -6.043792
  C      6.419260   -2.542944   -5.077630
  C      5.872267   -5.002756   -2.427819
  C      6.173994   -6.485522   -2.606315
  H      6.734852   -6.613767   -3.534015
  H      6.821463   -6.831018   -1.793617
  H      4.469612   -7.406168   -1.655876
  H      5.230134   -8.398678   -2.885906
  C      5.896512   -2.169314   -3.694552
  H      7.428880   -2.143665   -5.208078
  H      6.505894   -3.627541   -5.175502
  C      6.807804   -2.623428   -2.551019
  H      4.894708   -2.589732   -3.557501
  H      5.778823   -1.081255   -3.635790
  C      7.111544   -4.122463   -2.520363
  H      7.751615   -2.071393   -2.614406
  H      6.345837   -2.326401   -1.604086
  H      5.362882   -4.828697   -1.471335
  H      5.174429   -4.702577   -3.211298
  H      7.778329   -4.329347   -1.677651
  H      7.673189   -4.402845   -3.417586
  O      4.763396   -8.239424   -5.698629
  H      6.036826   -2.198189   -7.176852
  H      5.467610   -0.907371   -6.127968

 Total Charge           Charge          ....    0
 Multiplicity           Mult            ....    1
 Number of Electrons    NEL             ....  136
 Basis Dimension        Dim             ....  512

ORBITAL ENERGIES
----------------

  NO   OCC          E(Eh)            E(eV)
   0   2.0000     -89.156735     -2426.0781
   1   2.0000     -24.824037      -675.4964
   2   2.0000     -19.174869      -521.7747
   3   2.0000     -19.166975      -521.5599
   4   2.0000     -14.313217      -389.4824
   5   2.0000     -10.258314      -279.1429
   6   2.0000     -10.220859      -278.1237
   7   2.0000     -10.203713      -277.6571
   8   2.0000     -10.194582      -277.4087
   9   2.0000     -10.191666      -277.3293
  10   2.0000     -10.187110      -277.2053
  11   2.0000     -10.181604      -277.0555
  12   2.0000     -10.180246      -277.0186
  13   2.0000     -10.176362      -276.9129
  14   2.0000     -10.174403      -276.8596
  15   2.0000     -10.102001      -274.8894
  16   2.0000      -8.210213      -223.4112
  17   2.0000      -6.183426      -168.2596
  18   2.0000      -6.176953      -168.0834
  19   2.0000      -6.175361      -168.0401
  20   2.0000      -1.370315       -37.2882
  21   2.0000      -1.136055       -30.9136
  22   2.0000      -1.039415       -28.2839
  23   2.0000      -0.911246       -24.7963
  24   2.0000      -0.848670       -23.0935
  25   2.0000      -0.814216       -22.1560
  26   2.0000      -0.787278       -21.4229
  27   2.0000      -0.756745       -20.5921
  28   2.0000      -0.740483       -20.1496
  29   2.0000      -0.709858       -19.3162
  30   2.0000      -0.694124       -18.8881
  31   2.0000      -0.656470       -17.8635
  32   2.0000      -0.624139       -16.9837
  33   2.0000      -0.618025       -16.8173
  34   2.0000      -0.606196       -16.4954
  35   2.0000      -0.588155       -16.0045
  36   2.0000      -0.571797       -15.5594
  37   2.0000      -0.559237       -15.2176
  38   2.0000      -0.556268       -15.1368
  39   2.0000      -0.510911       -13.9026
  40   2.0000      -0.506766       -13.7898
  41   2.0000      -0.492763       -13.4087
  42   2.0000      -0.488924       -13.3043
  43   2.0000      -0.478417       -13.0184
  44   2.0000      -0.466649       -12.6982
  45   2.0000      -0.463785       -12.6202
  46   2.0000      -0.453108       -12.3297
  47   2.0000      -0.436631       -11.8813
  48   2.0000      -0.433622       -11.7994
  49   2.0000      -0.423701       -11.5295
  50   2.0000      -0.411935       -11.2093
  51   2.0000      -0.410508       -11.1705
  52   2.0000      -0.396879       -10.7996
  53   2.0000      -0.381066       -10.3693
  54   2.0000      -0.376399       -10.2423
  55   2.0000      -0.371661       -10.1134
  56   2.0000      -0.370186       -10.0733
  57   2.0000      -0.358956        -9.7677
  58   2.0000      -0.357313        -9.7230
  59   2.0000      -0.346939        -9.4407
  60   2.0000      -0.343293        -9.3415
  61   2.0000      -0.339219        -9.2306
  62   2.0000      -0.337218        -9.1762
  63   2.0000      -0.331562        -9.0223
  64   2.0000      -0.321919        -8.7599
  65   2.0000      -0.314918        -8.5694
  66   2.0000      -0.310040        -8.4366
  67   2.0000      -0.174486        -4.7480
  68   0.0000      -0.019874        -0.5408
  69   0.0000       0.008915         0.2426
  70   0.0000       0.014058         0.3825
  71   0.0000       0.018294         0.4978
  72   0.0000       0.024714         0.6725

MULLIKEN ATOMIC CHARGES
-----------------------
   0 C :    0.969127
   1 C :    0.674718
   2 C :    0.166412
   3 H :    0.174653
   4 H :   -0.338597
   5 S :    1.508692
   6 C :   -0.407925
   7 C :    0.578060
   8 N :    1.090756
   9 H :   -0.369052
  10 H :   -0.332916
  11 H :   -0.389442
  12 H :   -0.465562
  13 F :   -0.682630
  14 O :   -0.718820
  15 C :    0.547591
  16 C :    0.192965
  17 C :    0.364136
  18 H :   -0.032870
  19 H :   -0.406433
  20 H :    0.006754
  21 H :   -0.099722
  22 C :    0.078207
  23 H :   -0.238805
  24 H :   -0.696255
  25 C :    0.785699
  26 H :    0.053043
  27 H :   -0.417218
  28 C :    0.286980
  29 H :   -0.052434
  30 H :   -0.147765
  31 H :   -0.055746
  32 H :   -0.458692
  33 H :   -0.427786
  34 H :    0.021611
  35 O :   -0.719172
  36 H :   -0.234747
  37 H :    0.193183
Sum of atomic charges:   -0.0000000

LOEWDIN ATOMIC CHARGES
----------------------
   0 C :    0.022155
   1 C :   -0.021992
   2 C :   -0.029647
   3 H :    0.016848
   4 H :    0.042544
   5 S :    1.146053
   6 C :   -0.254379
   7 C :    0.187297
   8 N :    0.191724
   9 H :   -0.068798
  10 H :   -0.021411
  11 H :   -0.101981
  12 H :   -0.096158
  13 F :   -0.276310
  14 O :   -0.449316
  15 C :   -0.023602
  16 C :   -0.029061
  17 C :   -0.023196
  18 H :    0.012893
  19 H :    0.030880
  20 H :    0.035015
  21 H :    0.028448
  22 C :   -0.023922
  23 H :    0.025902
  24 H :   -0.015764
  25 C :   -0.024484
  26 H :    0.012051
  27 H :    0.025256
  28 C :   -0.027242
  29 H :    0.019914
  30 H :    0.019159
  31 H :    0.038814
  32 H :   -0.020157
  33 H :    0.022495
  34 H :    0.014182
  35 O :   -0.433196
  36 H :    0.025744
  37 H :    0.023243

  Mayer bond orders larger than 0.100000
B(  0-C ,  6-C ) :   0.9303 B(  0-C ,  8-N ) :   0.1862 B(  0-C , 15-C ) :   1.1104
B(  0-C , 23-H ) :   0.1159 B(  0-C , 24-H ) :   0.1779 B(  0-C , 36-H ) :   0.3945
B(  0-C , 37-H ) :   0.6414 B(  1-C ,  2-C ) :   1.2249 B(  1-C ,  4-H ) :   0.1848
B(  1-C , 17-C ) :   1.2082 B(  1-C , 20-H ) :   0.6357 B(  1-C , 21-H ) :   0.6096
B(  2-C ,  3-H ) :   0.8360 B(  2-C ,  4-H ) :   0.7233 B(  2-C ,  5-S ) :   0.9940
B(  2-C , 20-H ) :   0.2112 B(  2-C , 21-H ) :   0.1363 B(  2-C , 35-O ) :   0.1058
B(  4-H ,  5-S ) :   0.1519 B(  5-S , 13-F ) :   0.5417 B(  5-S , 14-O ) :   1.4874
B(  5-S , 35-O ) :   1.4874 B(  6-C ,  7-C ) :   1.5440 B(  6-C ,  8-N ) :   1.3342
B(  6-C , 10-H ) :  -0.2178 B(  6-C , 11-H ) :   0.1490 B(  6-C , 12-H ) :   0.3469
B(  6-C , 15-C ) :   0.1352 B(  6-C , 24-H ) :  -0.1197 B(  6-C , 36-H ) :   0.3309
B(  6-C , 37-H ) :   0.1506 B(  7-C ,  8-N ) :   0.1737 B(  7-C , 10-H ) :  -0.1171
B(  7-C , 11-H ) :   0.8282 B(  7-C , 12-H ) :   0.5190 B(  8-N ,  9-H ) :   0.6037
B(  8-N , 10-H ) :   0.9215 B(  8-N , 13-F ) :  -0.1644 B(  9-H , 10-H ) :  -0.1735
B(  9-H , 13-F ) :   0.1740 B( 10-H , 14-O ) :   0.1628 B( 13-F , 14-O ) :   0.1198
B( 13-F , 24-H ) :   0.1543 B( 13-F , 35-O ) :   0.1061 B( 15-C , 22-C ) :   1.1718
B( 15-C , 23-H ) :   0.6801 B( 15-C , 24-H ) :   0.4974 B( 15-C , 26-H ) :   0.1440
B( 15-C , 27-H ) :   0.1894 B( 15-C , 36-H ) :   0.2981 B( 15-C , 37-H ) :   0.1641
B( 16-C , 17-C ) :   1.1899 B( 16-C , 18-H ) :   0.1535 B( 16-C , 19-H ) :   0.1947
B( 16-C , 28-C ) :   1.1969 B( 16-C , 31-H ) :   0.7217 B( 16-C , 32-H ) :   0.9327
B( 16-C , 33-H ) :   0.2139 B( 16-C , 34-H ) :   0.1567 B( 17-C , 18-H ) :   0.8193
B( 17-C , 19-H ) :   0.7758 B( 17-C , 20-H ) :   0.1113 B( 17-C , 21-H ) :   0.2805
B( 17-C , 28-C ) :   0.1478 B( 17-C , 31-H ) :   0.1150 B( 18-H , 19-H ) :  -0.1085
B( 20-H , 21-H ) :  -0.1189 B( 22-C , 23-H ) :   0.1618 B( 22-C , 24-H ) :   0.2394
B( 22-C , 25-C ) :   1.0614 B( 22-C , 26-H ) :   0.8304 B( 22-C , 27-H ) :   0.9419
B( 22-C , 28-C ) :   0.1487 B( 22-C , 29-H ) :   0.1532 B( 22-C , 30-H ) :   0.2690
B( 25-C , 28-C ) :   1.1116 B( 25-C , 29-H ) :   0.6275 B( 25-C , 30-H ) :   0.6352
B( 26-H , 32-H ) :   0.1551 B( 28-C , 29-H ) :   0.2560 B( 28-C , 30-H ) :   0.1388
B( 28-C , 31-H ) :   0.1191 B( 28-C , 33-H ) :   0.8753 B( 28-C , 34-H ) :   0.7875
B( 29-H , 30-H ) :  -0.1395 B( 36-H , 37-H ) :  -0.1028

Dispersion correction           -0.074995879
FINAL SINGLE POINT ENERGY     -1134.498950061556

DIPOLE MOMENT
-------------
                                X             Y             Z
Electronic contribution:     -7.01801     -18.77602     -13.16860
Nuclear contribution   :      7.78491      18.17172      15.09294
                        -----------------------------------------
Total Dipole Moment    :      0.76690      -0.60430       1.92434
                        -----------------------------------------
Magnitude (a.u.)       :      2.15787
Magnitude (Debye)      :      5.48487

Rotational constants in cm-1:     0.018190     0.012573     0.008405
Rotational constants in MHz :   545.327178   376.916509   251.974803

                             ****ORCA TERMINATED NORMALLY****
TOTAL RUN TIME: 0 days 0 hours 3 minutes 57 seconds 535 msec
