                         Program Version 5.0.0 -  RELEASE  -
|  1> !B3LYP D3BJ RIJCOSX def2-SVPD def2/J TightSCF xyzfile
|  2>
|  3> *xyzfile 0 1 D3.xyz
|  4>
|  5> %MaxCore 64000
|  6>
|  7> %pal nprocs 4
|  8> end
|  9>
| 10> %scf
| 11>   MaxIter 150
| 12> end
| 13>
| 14>
| 15>                          ****END OF INPUT****

CARTESIAN COORDINATES (ANGSTROEM)
---------------------------------
  C      5.558206   -1.992914   -6.215054
  C      4.930199   -7.375319   -2.649623
  C      3.841892   -6.951611   -3.632829
  H      3.458144   -5.954425   -3.407121
  H      2.988484   -7.643606   -3.567078
  S      4.318115   -6.915930   -5.368692
  C      4.181880   -2.589671   -6.298911
  C      3.145873   -1.768431   -6.486753
  N      4.019102   -3.864307   -6.227427
  H      4.768490   -4.591153   -5.990773
  H      3.122405   -4.333392   -6.314620
  H      3.281635   -0.777786   -6.566549
  H      2.212549   -2.134193   -6.562246
  O      5.406154   -5.899480   -5.512972
  F      3.111910   -6.445079   -6.043792
  C      6.419260   -2.542944   -5.077630
  C      5.872267   -5.002756   -2.427819
  C      6.173994   -6.485522   -2.606315
  H      6.734852   -6.613767   -3.534015
  H      6.821463   -6.831018   -1.793617
  H      4.469612   -7.406168   -1.655876
  H      5.230134   -8.398678   -2.885906
  C      5.896512   -2.169314   -3.694552
  H      7.428880   -2.143665   -5.208078
  H      6.505894   -3.627541   -5.175502
  C      6.807804   -2.623428   -2.551019
  H      4.894708   -2.589732   -3.557501
  H      5.778823   -1.081255   -3.635790
  C      7.111544   -4.122463   -2.520363
  H      7.751615   -2.071393   -2.614406
  H      6.345837   -2.326401   -1.604086
  H      5.362882   -4.828697   -1.471335
  H      5.174429   -4.702577   -3.211298
  H      7.778329   -4.329347   -1.677651
  H      7.673189   -4.402845   -3.417586
  O      4.763396   -8.239424   -5.698629
  H      6.036826   -2.198189   -7.176852
  H      5.467610   -0.907371   -6.127968

 Total Charge           Charge          ....    0
 Multiplicity           Mult            ....    1
 Number of Electrons    NEL             ....  136
 Basis Dimension        Dim             ....  512

ORBITAL ENERGIES
----------------

  NO   OCC          E(Eh)            E(eV)
   0   2.0000     -89.166282     -2426.3379
   1   2.0000     -24.832530      -675.7275
   2   2.0000     -19.180353      -521.9239
   3   2.0000     -19.172115      -521.6998
   4   2.0000     -14.301513      -389.1640
   5   2.0000     -10.263335      -279.2796
   6   2.0000     -10.222739      -278.1749
   7   2.0000     -10.191901      -277.3357
   8   2.0000     -10.185558      -277.1631
   9   2.0000     -10.182369      -277.0763
  10   2.0000     -10.176040      -276.9041
  11   2.0000     -10.172366      -276.8042
  12   2.0000     -10.166835      -276.6537
  13   2.0000     -10.166633      -276.6481
  14   2.0000     -10.165889      -276.6279
  15   2.0000     -10.096318      -274.7348
  16   2.0000      -8.219529      -223.6648
  17   2.0000      -6.192508      -168.5067
  18   2.0000      -6.186583      -168.3455
  19   2.0000      -6.184612      -168.2918
  20   2.0000      -1.388147       -37.7734
  21   2.0000      -1.137158       -30.9436
  22   2.0000      -1.037478       -28.2312
  23   2.0000      -0.903026       -24.5726
  24   2.0000      -0.847497       -23.0616
  25   2.0000      -0.806636       -21.9497
  26   2.0000      -0.783158       -21.3108
  27   2.0000      -0.755756       -20.5652
  28   2.0000      -0.734388       -19.9837
  29   2.0000      -0.705897       -19.2084
  30   2.0000      -0.685091       -18.6423
  31   2.0000      -0.650845       -17.7104
  32   2.0000      -0.620533       -16.8856
  33   2.0000      -0.612901       -16.6779
  34   2.0000      -0.597888       -16.2694
  35   2.0000      -0.593270       -16.1437
  36   2.0000      -0.576743       -15.6940
  37   2.0000      -0.559024       -15.2118
  38   2.0000      -0.548086       -14.9142
  39   2.0000      -0.522531       -14.2188
  40   2.0000      -0.507848       -13.8193
  41   2.0000      -0.497293       -13.5320
  42   2.0000      -0.484052       -13.1717
  43   2.0000      -0.468630       -12.7521
  44   2.0000      -0.461112       -12.5475
  45   2.0000      -0.456668       -12.4266
  46   2.0000      -0.446749       -12.1566
  47   2.0000      -0.433133       -11.7862
  48   2.0000      -0.423669       -11.5286
  49   2.0000      -0.418557       -11.3895
  50   2.0000      -0.413888       -11.2625
  51   2.0000      -0.404337       -11.0026
  52   2.0000      -0.392777       -10.6880
  53   2.0000      -0.384986       -10.4760
  54   2.0000      -0.374061       -10.1787
  55   2.0000      -0.364897        -9.9294
  56   2.0000      -0.361646        -9.8409
  57   2.0000      -0.359296        -9.7769
  58   2.0000      -0.351828        -9.5737
  59   2.0000      -0.340108        -9.2548
  60   2.0000      -0.334455        -9.1010
  61   2.0000      -0.331109        -9.0099
  62   2.0000      -0.327107        -8.9010
  63   2.0000      -0.318496        -8.6667
  64   2.0000      -0.311356        -8.4724
  65   2.0000      -0.304570        -8.2878
  66   2.0000      -0.300575        -8.1791
  67   2.0000      -0.168404        -4.5825
  68   0.0000      -0.017664        -0.4807
  69   0.0000      -0.001000        -0.0272
  70   0.0000       0.016473         0.4482
  71   0.0000       0.025292         0.6882
  72   0.0000       0.033068         0.8998

MULLIKEN ATOMIC CHARGES
-----------------------
   0 C :    0.959726
   1 C :    0.631176
   2 C :    0.091463
   3 H :    0.180243
   4 H :   -0.285064
   5 S :    1.596517
   6 C :   -0.452673
   7 C :    0.598311
   8 N :    1.043372
   9 H :   -0.347903
  10 H :   -0.344673
  11 H :   -0.382653
  12 H :   -0.491052
  13 O :   -0.958222
  14 F :   -0.479155
  15 C :    0.582082
  16 C :    0.140184
  17 C :    0.415912
  18 H :    0.005263
  19 H :   -0.427187
  20 H :   -0.001235
  21 H :   -0.090258
  22 C :    0.082852
  23 H :   -0.222582
  24 H :   -0.716316
  25 C :    0.788932
  26 H :    0.065779
  27 H :   -0.424484
  28 C :    0.269098
  29 H :   -0.051836
  30 H :   -0.153278
  31 H :   -0.058943
  32 H :   -0.389457
  33 H :   -0.432019
  34 H :    0.037470
  35 O :   -0.723008
  36 H :   -0.241943
  37 H :    0.185562
Sum of atomic charges:    0.0000000

LOEWDIN ATOMIC CHARGES
----------------------
   0 C :    0.023618
   1 C :   -0.008510
   2 C :   -0.038926
   3 H :    0.015964
   4 H :    0.029735
   5 S :    1.180803
   6 C :   -0.255452
   7 C :    0.179992
   8 N :    0.182109
   9 H :   -0.112469
  10 H :   -0.019036
  11 H :   -0.104714
  12 H :   -0.101875
  13 O :   -0.443851
  14 F :   -0.253223
  15 C :   -0.018239
  16 C :   -0.027917
  17 C :   -0.019107
  18 H :    0.014051
  19 H :    0.029095
  20 H :    0.037632
  21 H :    0.030103
  22 C :   -0.024853
  23 H :    0.024814
  24 H :   -0.012015
  25 C :   -0.025731
  26 H :    0.011218
  27 H :    0.023013
  28 C :   -0.024907
  29 H :    0.018838
  30 H :    0.017338
  31 H :    0.035112
  32 H :   -0.018628
  33 H :    0.020748
  34 H :    0.017638
  35 O :   -0.430101
  36 H :    0.026065
  37 H :    0.021666

  Mayer bond orders larger than 0.100000
B(  0-C ,  6-C ) :   0.9301 B(  0-C ,  8-N ) :   0.1804 B(  0-C , 15-C ) :   1.1160
B(  0-C , 23-H ) :   0.1255 B(  0-C , 24-H ) :   0.1853 B(  0-C , 36-H ) :   0.3944
B(  0-C , 37-H ) :   0.6365 B(  1-C ,  2-C ) :   1.2701 B(  1-C ,  3-H ) :   0.1101
B(  1-C ,  4-H ) :   0.1965 B(  1-C , 17-C ) :   1.1955 B(  1-C , 20-H ) :   0.6430
B(  1-C , 21-H ) :   0.6058 B(  2-C ,  3-H ) :   0.7890 B(  2-C ,  4-H ) :   0.7729
B(  2-C ,  5-S ) :   0.9792 B(  2-C , 20-H ) :   0.2271 B(  2-C , 21-H ) :   0.1284
B(  2-C , 35-O ) :   0.1181 B(  4-H ,  5-S ) :   0.1025 B(  5-S , 13-O ) :   1.2323
B(  5-S , 14-F ) :   0.6148 B(  5-S , 35-O ) :   1.4880 B(  6-C ,  7-C ) :   1.5557
B(  6-C ,  8-N ) :   1.3813 B(  6-C , 10-H ) :  -0.1765 B(  6-C , 11-H ) :   0.1496
B(  6-C , 12-H ) :   0.3388 B(  6-C , 15-C ) :   0.1430 B(  6-C , 24-H ) :  -0.1206
B(  6-C , 36-H ) :   0.3360 B(  6-C , 37-H ) :   0.1489 B(  7-C ,  8-N ) :   0.1671
B(  7-C , 10-H ) :  -0.1115 B(  7-C , 11-H ) :   0.8040 B(  7-C , 12-H ) :   0.5211
B(  8-N ,  9-H ) :   0.6033 B(  8-N , 10-H ) :   0.8970 B(  8-N , 13-O ) :  -0.1456
B(  9-H , 10-H ) :  -0.1848 B(  9-H , 13-O ) :   0.1899 B( 10-H , 14-F ) :   0.1214
B( 13-O , 24-H ) :   0.2168 B( 13-O , 35-O ) :   0.1609 B( 15-C , 22-C ) :   1.1690
B( 15-C , 23-H ) :   0.6580 B( 15-C , 24-H ) :   0.4194 B( 15-C , 26-H ) :   0.1519
B( 15-C , 27-H ) :   0.2041 B( 15-C , 36-H ) :   0.2965 B( 15-C , 37-H ) :   0.1808
B( 16-C , 17-C ) :   1.1852 B( 16-C , 18-H ) :   0.1525 B( 16-C , 19-H ) :   0.1849
B( 16-C , 28-C ) :   1.2112 B( 16-C , 31-H ) :   0.7283 B( 16-C , 32-H ) :   0.9376
B( 16-C , 33-H ) :   0.2170 B( 16-C , 34-H ) :   0.1628 B( 17-C , 18-H ) :   0.8090
B( 17-C , 19-H ) :   0.7570 B( 17-C , 20-H ) :   0.1152 B( 17-C , 21-H ) :   0.2824
B( 17-C , 28-C ) :   0.1603 B( 17-C , 31-H ) :   0.1085 B( 20-H , 21-H ) :  -0.1242
B( 22-C , 23-H ) :   0.1650 B( 22-C , 24-H ) :   0.2486 B( 22-C , 25-C ) :   1.0576
B( 22-C , 26-H ) :   0.8193 B( 22-C , 27-H ) :   0.9455 B( 22-C , 28-C ) :   0.1469
B( 22-C , 29-H ) :   0.1554 B( 22-C , 30-H ) :   0.2699 B( 24-H , 34-H ) :   0.1049
B( 25-C , 28-C ) :   1.1096 B( 25-C , 29-H ) :   0.6260 B( 25-C , 30-H ) :   0.6292
B( 26-H , 32-H ) :   0.1505 B( 28-C , 29-H ) :   0.2540 B( 28-C , 30-H ) :   0.1418
B( 28-C , 31-H ) :   0.1214 B( 28-C , 33-H ) :   0.8768 B( 28-C , 34-H ) :   0.7807
B( 29-H , 30-H ) :  -0.1405 B( 36-H , 37-H ) :  -0.1033

Dispersion correction           -0.075534218
FINAL SINGLE POINT ENERGY     -1134.497070994640

DIPOLE MOMENT
-------------
                                X             Y             Z
Electronic contribution:    -10.97160     -20.03097     -14.17903
Nuclear contribution   :     10.48431      18.81367      15.71750
                        -----------------------------------------
Total Dipole Moment    :     -0.48729      -1.21730       1.53847
                        -----------------------------------------
Magnitude (a.u.)       :      2.02143
Magnitude (Debye)      :      5.13806

Rotational constants in cm-1:     0.017977     0.012528     0.008321
Rotational constants in MHz :   538.924099   375.570730   249.458530

                             ****ORCA TERMINATED NORMALLY****
TOTAL RUN TIME: 0 days 0 hours 4 minutes 24 seconds 220 msec
