                         Program Version 5.0.0 -  RELEASE  -
|  1> !B3LYP D3BJ RIJCOSX def2-SVPD def2/J TightSCF xyzfile
|  2>
|  3> *xyzfile 0 1 D5.xyz
|  4>
|  5> %MaxCore 64000
|  6>
|  7> %pal nprocs 4
|  8> end
|  9>
| 10> %scf
| 11>   MaxIter 150
| 12> end
| 13>
| 14>
| 15>                          ****END OF INPUT****

CARTESIAN COORDINATES (ANGSTROEM)
---------------------------------
  C      5.558206   -1.992914   -6.215054
  C      4.930199   -7.375319   -2.649623
  C      3.841892   -6.951611   -3.632829
  H      3.458144   -5.954425   -3.407121
  H      2.988484   -7.643606   -3.567078
  S      4.318115   -6.915930   -5.368692
  C      4.181880   -2.589671   -6.298911
  C      3.145873   -1.768431   -6.486753
  N      4.019102   -3.864307   -6.227427
  H      4.768490   -4.591153   -5.990773
  H      3.122405   -4.333392   -6.314620
  H      3.281635   -0.777786   -6.566549
  H      2.212549   -2.134193   -6.562246
  O      5.406154   -5.899480   -5.512972
  O      3.111910   -6.445079   -6.043792
  C      6.419260   -2.542944   -5.077630
  C      5.872267   -5.002756   -2.427819
  C      6.173994   -6.485522   -2.606315
  H      6.734852   -6.613767   -3.534015
  H      6.821463   -6.831018   -1.793617
  H      4.469612   -7.406168   -1.655876
  H      5.230134   -8.398678   -2.885906
  C      5.896512   -2.169314   -3.694552
  H      7.428880   -2.143665   -5.208078
  H      6.505894   -3.627541   -5.175502
  C      6.807804   -2.623428   -2.551019
  H      4.894708   -2.589732   -3.557501
  H      5.778823   -1.081255   -3.635790
  C      7.111544   -4.122463   -2.520363
  H      7.751615   -2.071393   -2.614406
  H      6.345837   -2.326401   -1.604086
  H      5.362882   -4.828697   -1.471335
  H      5.174429   -4.702577   -3.211298
  H      7.778329   -4.329347   -1.677651
  H      7.673189   -4.402845   -3.417586
  F      4.763396   -8.239424   -5.698629
  H      6.036826   -2.198189   -7.176852
  H      5.467610   -0.907371   -6.127968

 Total Charge           Charge          ....    0
 Multiplicity           Mult            ....    1
 Number of Electrons    NEL             ....  136
 Basis Dimension        Dim             ....  512

ORBITAL ENERGIES
----------------

  NO   OCC          E(Eh)            E(eV)
   0   2.0000     -89.170107     -2426.4420
   1   2.0000     -24.844629      -676.0567
   2   2.0000     -19.174572      -521.7666
   3   2.0000     -19.174075      -521.7531
   4   2.0000     -14.284161      -388.6918
   5   2.0000     -10.264986      -279.3245
   6   2.0000     -10.225494      -278.2498
   7   2.0000     -10.195840      -277.4429
   8   2.0000     -10.183459      -277.1060
   9   2.0000     -10.176169      -276.9076
  10   2.0000     -10.173505      -276.8352
  11   2.0000     -10.170753      -276.7603
  12   2.0000     -10.163032      -276.5502
  13   2.0000     -10.162350      -276.5316
  14   2.0000     -10.158262      -276.4204
  15   2.0000     -10.084281      -274.4072
  16   2.0000      -8.223198      -223.7646
  17   2.0000      -6.196315      -168.6103
  18   2.0000      -6.190207      -168.4441
  19   2.0000      -6.188156      -168.3883
  20   2.0000      -1.407823       -38.3088
  21   2.0000      -1.131862       -30.7995
  22   2.0000      -1.029467       -28.0132
  23   2.0000      -0.887616       -24.1533
  24   2.0000      -0.851468       -23.1696
  25   2.0000      -0.806059       -21.9340
  26   2.0000      -0.781773       -21.2731
  27   2.0000      -0.755096       -20.5472
  28   2.0000      -0.735799       -20.0221
  29   2.0000      -0.704228       -19.1630
  30   2.0000      -0.680735       -18.5237
  31   2.0000      -0.648781       -17.6542
  32   2.0000      -0.628542       -17.1035
  33   2.0000      -0.621641       -16.9157
  34   2.0000      -0.604008       -16.4359
  35   2.0000      -0.589433       -16.0393
  36   2.0000      -0.572526       -15.5792
  37   2.0000      -0.553225       -15.0540
  38   2.0000      -0.542724       -14.7683
  39   2.0000      -0.513583       -13.9753
  40   2.0000      -0.510338       -13.8870
  41   2.0000      -0.504196       -13.7199
  42   2.0000      -0.484575       -13.1860
  43   2.0000      -0.466108       -12.6834
  44   2.0000      -0.461590       -12.5605
  45   2.0000      -0.452426       -12.3111
  46   2.0000      -0.440386       -11.9835
  47   2.0000      -0.433100       -11.7852
  48   2.0000      -0.422302       -11.4914
  49   2.0000      -0.419462       -11.4141
  50   2.0000      -0.404993       -11.0204
  51   2.0000      -0.400269       -10.8919
  52   2.0000      -0.392953       -10.6928
  53   2.0000      -0.377945       -10.2844
  54   2.0000      -0.369598       -10.0573
  55   2.0000      -0.360817        -9.8183
  56   2.0000      -0.358800        -9.7634
  57   2.0000      -0.351102        -9.5540
  58   2.0000      -0.349391        -9.5074
  59   2.0000      -0.341192        -9.2843
  60   2.0000      -0.331255        -9.0139
  61   2.0000      -0.327881        -8.9221
  62   2.0000      -0.322699        -8.7811
  63   2.0000      -0.315590        -8.5876
  64   2.0000      -0.308466        -8.3938
  65   2.0000      -0.298224        -8.1151
  66   2.0000      -0.292914        -7.9706
  67   2.0000      -0.155106        -4.2206
  68   0.0000      -0.024693        -0.6719
  69   0.0000       0.005411         0.1472
  70   0.0000       0.014755         0.4015
  71   0.0000       0.019772         0.5380
  72   0.0000       0.024132         0.6567

MULLIKEN ATOMIC CHARGES
-----------------------
   0 C :    0.962825
   1 C :    0.664582
   2 C :    0.119928
   3 H :    0.165189
   4 H :   -0.300408
   5 S :    1.656324
   6 C :   -0.440952
   7 C :    0.601459
   8 N :    1.072112
   9 H :   -0.358676
  10 H :   -0.348770
  11 H :   -0.398795
  12 H :   -0.482972
  13 O :   -0.987472
  14 O :   -0.730685
  15 C :    0.580596
  16 C :    0.145318
  17 C :    0.437583
  18 H :    0.009065
  19 H :   -0.425855
  20 H :   -0.015312
  21 H :   -0.110859
  22 C :    0.081751
  23 H :   -0.219851
  24 H :   -0.717004
  25 C :    0.787315
  26 H :    0.064872
  27 H :   -0.419836
  28 C :    0.262922
  29 H :   -0.053777
  30 H :   -0.153380
  31 H :   -0.049967
  32 H :   -0.410548
  33 H :   -0.428054
  34 H :    0.039896
  35 F :   -0.536879
  36 H :   -0.244541
  37 H :    0.182857
Sum of atomic charges:   -0.0000000

LOEWDIN ATOMIC CHARGES
----------------------
   0 C :    0.021566
   1 C :   -0.024246
   2 C :   -0.027832
   3 H :    0.030458
   4 H :    0.030807
   5 S :    1.195561
   6 C :   -0.256511
   7 C :    0.176733
   8 N :    0.193596
   9 H :   -0.107243
  10 H :   -0.024095
  11 H :   -0.108520
  12 H :   -0.102168
  13 O :   -0.449584
  14 O :   -0.446854
  15 C :   -0.019674
  16 C :   -0.025899
  17 C :   -0.024111
  18 H :    0.008540
  19 H :    0.028294
  20 H :    0.035182
  21 H :    0.022885
  22 C :   -0.024272
  23 H :    0.023544
  24 H :   -0.013166
  25 C :   -0.026015
  26 H :    0.012019
  27 H :    0.023211
  28 C :   -0.025387
  29 H :    0.018620
  30 H :    0.017151
  31 H :    0.035942
  32 H :   -0.016583
  33 H :    0.020166
  34 H :    0.017123
  35 F :   -0.234286
  36 H :    0.024644
  37 H :    0.020405

  Mayer bond orders larger than 0.100000
B(  0-C ,  6-C ) :   0.9277 B(  0-C ,  8-N ) :   0.1858 B(  0-C , 15-C ) :   1.1140
B(  0-C , 23-H ) :   0.1242 B(  0-C , 24-H ) :   0.1857 B(  0-C , 36-H ) :   0.3918
B(  0-C , 37-H ) :   0.6360 B(  1-C ,  2-C ) :   1.2202 B(  1-C ,  3-H ) :   0.1026
B(  1-C ,  4-H ) :   0.1822 B(  1-C , 17-C ) :   1.2005 B(  1-C , 20-H ) :   0.6494
B(  1-C , 21-H ) :   0.5911 B(  2-C ,  3-H ) :   0.8213 B(  2-C ,  4-H ) :   0.7699
B(  2-C ,  5-S ) :   0.9868 B(  2-C , 20-H ) :   0.2081 B(  2-C , 21-H ) :   0.1197
B(  2-C , 35-F ) :   0.1209 B(  4-H ,  5-S ) :   0.1276 B(  5-S , 13-O ) :   1.1920
B(  5-S , 14-O ) :   1.4544 B(  5-S , 35-F ) :   0.5332 B(  6-C ,  7-C ) :   1.5555
B(  6-C ,  8-N ) :   1.3542 B(  6-C , 10-H ) :  -0.2006 B(  6-C , 11-H ) :   0.1630
B(  6-C , 12-H ) :   0.3532 B(  6-C , 15-C ) :   0.1440 B(  6-C , 24-H ) :  -0.1201
B(  6-C , 36-H ) :   0.3368 B(  6-C , 37-H ) :   0.1550 B(  7-C ,  8-N ) :   0.1652
B(  7-C , 10-H ) :  -0.1151 B(  7-C , 11-H ) :   0.8031 B(  7-C , 12-H ) :   0.5181
B(  8-N ,  9-H ) :   0.6086 B(  8-N , 10-H ) :   0.9058 B(  8-N , 13-O ) :  -0.1642
B(  9-H , 10-H ) :  -0.1995 B(  9-H , 13-O ) :   0.1865 B( 10-H , 14-O ) :   0.1705
B( 13-O , 14-O ) :   0.1577 B( 13-O , 24-H ) :   0.1997 B( 13-O , 35-F ) :   0.1284
B( 15-C , 22-C ) :   1.1689 B( 15-C , 23-H ) :   0.6599 B( 15-C , 24-H ) :   0.4185
B( 15-C , 26-H ) :   0.1504 B( 15-C , 27-H ) :   0.2059 B( 15-C , 36-H ) :   0.2972
B( 15-C , 37-H ) :   0.1822 B( 16-C , 17-C ) :   1.1914 B( 16-C , 18-H ) :   0.1534
B( 16-C , 19-H ) :   0.1735 B( 16-C , 28-C ) :   1.2144 B( 16-C , 31-H ) :   0.7187
B( 16-C , 32-H ) :   0.9336 B( 16-C , 33-H ) :   0.2172 B( 16-C , 34-H ) :   0.1623
B( 17-C , 18-H ) :   0.8041 B( 17-C , 19-H ) :   0.7516 B( 17-C , 20-H ) :   0.1173
B( 17-C , 21-H ) :   0.2842 B( 17-C , 28-C ) :   0.1590 B( 17-C , 31-H ) :   0.1116
B( 20-H , 21-H ) :  -0.1284 B( 22-C , 23-H ) :   0.1644 B( 22-C , 24-H ) :   0.2506
B( 22-C , 25-C ) :   1.0569 B( 22-C , 26-H ) :   0.8215 B( 22-C , 27-H ) :   0.9440
B( 22-C , 28-C ) :   0.1465 B( 22-C , 29-H ) :   0.1553 B( 22-C , 30-H ) :   0.2691
B( 24-H , 34-H ) :   0.1044 B( 25-C , 28-C ) :   1.1112 B( 25-C , 29-H ) :   0.6258
B( 25-C , 30-H ) :   0.6307 B( 26-H , 32-H ) :   0.1533 B( 28-C , 29-H ) :   0.2537
B( 28-C , 30-H ) :   0.1409 B( 28-C , 31-H ) :   0.1197 B( 28-C , 33-H ) :   0.8779
B( 28-C , 34-H ) :   0.7801 B( 29-H , 30-H ) :  -0.1397 B( 31-H , 32-H ) :   0.1038
B( 36-H , 37-H ) :  -0.1035

Dispersion correction           -0.075678570
FINAL SINGLE POINT ENERGY     -1134.488117908154

DIPOLE MOMENT
-------------
                                X             Y             Z
Electronic contribution:     -8.09703     -23.36397     -13.56832
Nuclear contribution   :      8.54118      20.92489      15.31138
                        -----------------------------------------
Total Dipole Moment    :      0.44415      -2.43908       1.74306
                        -----------------------------------------
Magnitude (a.u.)       :      3.03062
Magnitude (Debye)      :      7.70321

Rotational constants in cm-1:     0.018156     0.012306     0.008278
Rotational constants in MHz :   544.309022   368.914527   248.178402

                             ****ORCA TERMINATED NORMALLY****
TOTAL RUN TIME: 0 days 0 hours 4 minutes 28 seconds 789 msec
