                         Program Version 5.0.0 -  RELEASE  -
|  1> !TPSS D3BJ RIJCOSX def2-TZVPD def2/J TightSCF
|  2> *xyz -1 1
|  3> C          3.80351        1.37472       -3.26081
|  4> C          3.93993        0.32036       -4.36773
|  5> H          4.10504       -0.65508       -3.90773
|  6> H          3.02280        0.28052       -4.95712
|  7> C          5.10585        0.66802       -5.30546
|  8> O          4.80913        1.15019       -6.41436
|  9> O          6.26737        0.56500       -4.81948
| 10> H          3.64113        2.33595       -3.70189
| 11> H          4.69995        1.39701       -2.67703
| 12> H          2.97435        1.12625       -2.63180
| 13> *
| 14>
| 15> %MaxCore 64000
| 16>
| 17> %pal nprocs 4
| 18> end
| 19>
| 20> %scf
| 21>   MaxIter 150
| 22> end
| 23>
| 24>
| 25>                          ****END OF INPUT****

CARTESIAN COORDINATES (ANGSTROEM)
---------------------------------
  C      3.803510    1.374720   -3.260810
  C      3.939930    0.320360   -4.367730
  H      4.105040   -0.655080   -3.907730
  H      3.022800    0.280520   -4.957120
  C      5.105850    0.668020   -5.305460
  O      4.809130    1.150190   -6.414360
  O      6.267370    0.565000   -4.819480
  H      3.641130    2.335950   -3.701890
  H      4.699950    1.397010   -2.677030
  H      2.974350    1.126250   -2.631800

 Total Charge           Charge          ....   -1
 Multiplicity           Mult            ....    1
 Number of Electrons    NEL             ....   40
 Basis Dimension        Dim             ....  236

ORBITAL ENERGIES
----------------

  NO   OCC          E(Eh)            E(eV)
   0   2.0000     -18.621264      -506.7104
   1   2.0000     -18.618168      -506.6261
   2   2.0000      -9.856766      -268.2162
   3   2.0000      -9.821274      -267.2504
   4   2.0000      -9.807761      -266.8828
   5   2.0000      -0.750495       -20.4220
   6   2.0000      -0.662916       -18.0389
   7   2.0000      -0.547155       -14.8888
   8   2.0000      -0.420562       -11.4441
   9   2.0000      -0.273952        -7.4546
  10   2.0000      -0.248855        -6.7717
  11   2.0000      -0.215315        -5.8590
  12   2.0000      -0.185012        -5.0344
  13   2.0000      -0.170891        -4.6502
  14   2.0000      -0.164405        -4.4737
  15   2.0000      -0.134166        -3.6509
  16   2.0000      -0.122465        -3.3324
  17   2.0000      -0.012642        -0.3440
  18   2.0000       0.002434         0.0662
  19   2.0000       0.014774         0.4020
  20   0.0000       0.126461         3.4412
  21   0.0000       0.151676         4.1273
  22   0.0000       0.163101         4.4382
  23   0.0000       0.173060         4.7092
  24   0.0000       0.198534         5.4024

MULLIKEN ATOMIC CHARGES
-----------------------
   0 C :   -0.970737
   1 C :   -0.080250
   2 H :    0.167024
   3 H :    0.164946
   4 C :    0.612314
   5 O :   -0.793423
   6 O :   -0.827025
   7 H :    0.263769
   8 H :    0.258506
   9 H :    0.204876
Sum of atomic charges:   -1.0000000

LOEWDIN ATOMIC CHARGES
----------------------
   0 C :   -0.125349
   1 C :   -0.208081
   2 H :    0.083296
   3 H :    0.080074
   4 C :   -0.778690
   5 O :   -0.091126
   6 O :   -0.108427
   7 H :    0.057971
   8 H :    0.053137
   9 H :    0.037195

  Mayer bond orders larger than 0.100000
B(  0-C ,  1-C ) :   0.7763 B(  0-C ,  4-C ) :   0.1983 B(  0-C ,  6-O ) :   0.1075
B(  0-C ,  7-H ) :   0.9515 B(  0-C ,  8-H ) :   0.9728 B(  0-C ,  9-H ) :   0.9490
B(  1-C ,  2-H ) :   0.9359 B(  1-C ,  3-H ) :   0.9797 B(  1-C ,  4-C ) :   0.9630
B(  4-C ,  5-O ) :   1.2307 B(  4-C ,  6-O ) :   1.1982

Dispersion correction           -0.008096576
FINAL SINGLE POINT ENERGY      -267.989867439109

DIPOLE MOMENT
-------------
                                X             Y             Z
Electronic contribution:      3.78909      -0.47232      -4.55155
Nuclear contribution   :     -5.15232       0.33441       5.87398
                        -----------------------------------------
Total Dipole Moment    :     -1.36323      -0.13791       1.32243
                        -----------------------------------------
Magnitude (a.u.)       :      1.90427
Magnitude (Debye)      :      4.84027

Rotational constants in cm-1:     0.295355     0.137164     0.110193
Rotational constants in MHz :  8854.523706  4112.077980  3303.490503

                             ****ORCA TERMINATED NORMALLY****
TOTAL RUN TIME: 0 days 0 hours 0 minutes 18 seconds 797 msec
