                         Program Version 5.0.0 -  RELEASE  -
|  1> !TPSS D3BJ RIJCOSX def2-TZVPD def2/J TightSCF
|  2> *xyz 1 1
|  3> C          3.90595        2.81985       -3.75292
|  4> N          5.29562        3.13151       -4.10533
|  5> C          3.80351        1.37472       -3.26081
|  6> C          5.70862        3.46889       -5.32419
|  7> N          6.90470        3.03895       -5.71708
|  8> N          4.98188        4.29357       -6.09746
|  9> H          5.00055        4.10131       -7.08776
| 10> H          4.08469        4.59690       -5.73965
| 11> H          5.96336        2.52611       -3.64239
| 12> H          7.04716        2.06686       -5.47360
| 13> H          7.19815        3.30799       -6.64523
| 14> H          3.28202        2.94919       -4.64026
| 15> H          3.56525        3.51457       -2.98252
| 16> H          4.14157        0.71142       -4.02935
| 17> H          2.78528        1.15146       -3.01944
| 18> H          4.41205        1.25066       -2.38949
| 19> *
| 20>
| 21> %MaxCore 64000
| 22>
| 23> %pal nprocs 4
| 24> end
| 25>
| 26> %scf
| 27>   MaxIter 150
| 28> end
| 29>
| 30>
| 31>                          ****END OF INPUT****

CARTESIAN COORDINATES (ANGSTROEM)
---------------------------------
  C      3.905950    2.819850   -3.752920
  N      5.295620    3.131510   -4.105330
  C      3.803510    1.374720   -3.260810
  C      5.708620    3.468890   -5.324190
  N      6.904700    3.038950   -5.717080
  N      4.981880    4.293570   -6.097460
  H      5.000550    4.101310   -7.087760
  H      4.084690    4.596900   -5.739650
  H      5.963360    2.526110   -3.642390
  H      7.047160    2.066860   -5.473600
  H      7.198150    3.307990   -6.645230
  H      3.282020    2.949190   -4.640260
  H      3.565250    3.514570   -2.982520
  H      4.141570    0.711420   -4.029350
  H      2.785280    1.151460   -3.019440
  H      4.412050    1.250660   -2.389490

 Total Charge           Charge          ....    1
 Multiplicity           Mult            ....    1
 Number of Electrons    NEL             ....   48
 Basis Dimension        Dim             ....  312

ORBITAL ENERGIES
----------------

  NO   OCC          E(Eh)            E(eV)
   0   2.0000     -14.327753      -389.8780
   1   2.0000     -14.326514      -389.8443
   2   2.0000     -14.326440      -389.8423
   3   2.0000     -10.308994      -280.5220
   4   2.0000     -10.196388      -277.4578
   5   2.0000     -10.130706      -275.6705
   6   2.0000      -1.153012       -31.3751
   7   2.0000      -1.046983       -28.4898
   8   2.0000      -1.040078       -28.3020
   9   2.0000      -0.879449       -23.9310
  10   2.0000      -0.785347       -21.3704
  11   2.0000      -0.760071       -20.6826
  12   2.0000      -0.728455       -19.8223
  13   2.0000      -0.699359       -19.0305
  14   2.0000      -0.656488       -17.8639
  15   2.0000      -0.643798       -17.5186
  16   2.0000      -0.607676       -16.5357
  17   2.0000      -0.587343       -15.9824
  18   2.0000      -0.554164       -15.0796
  19   2.0000      -0.521739       -14.1972
  20   2.0000      -0.500954       -13.6316
  21   2.0000      -0.487283       -13.2597
  22   2.0000      -0.451228       -12.2785
  23   2.0000      -0.424586       -11.5536
  24   0.0000      -0.219575        -5.9749
  25   0.0000      -0.175866        -4.7856
  26   0.0000      -0.142581        -3.8798
  27   0.0000      -0.130325        -3.5463
  28   0.0000      -0.114850        -3.1252

MULLIKEN ATOMIC CHARGES
-----------------------
   0 C :   -0.158687
   1 N :   -0.158165
   2 C :   -1.066236
   3 C :    0.659773
   4 N :   -0.375628
   5 N :   -0.389633
   6 H :    0.210853
   7 H :    0.253533
   8 H :    0.236120
   9 H :    0.232643
  10 H :    0.228065
  11 H :    0.257072
  12 H :    0.198593
  13 H :    0.317372
  14 H :    0.224676
  15 H :    0.329651
Sum of atomic charges:    1.0000000

LOEWDIN ATOMIC CHARGES
----------------------
   0 C :   -0.194350
   1 N :    0.093721
   2 C :   -0.050405
   3 C :   -0.452181
   4 N :    0.212616
   5 N :    0.222780
   6 H :    0.136191
   7 H :    0.127775
   8 H :    0.154259
   9 H :    0.138420
  10 H :    0.135352
  11 H :    0.114364
  12 H :    0.126035
  13 H :    0.074956
  14 H :    0.082918
  15 H :    0.077551

  Mayer bond orders larger than 0.100000
B(  0-C ,  1-N ) :   0.9123 B(  0-C ,  2-C ) :   0.8901 B(  0-C , 11-H ) :   0.8284
B(  0-C , 12-H ) :   0.9509 B(  1-N ,  3-C ) :   1.2724 B(  1-N ,  8-H ) :   0.8868
B(  2-C , 11-H ) :   0.1198 B(  2-C , 13-H ) :   0.9306 B(  2-C , 14-H ) :   0.9897
B(  2-C , 15-H ) :   0.9282 B(  3-C ,  4-N ) :   1.1345 B(  3-C ,  5-N ) :   1.1145
B(  4-N ,  9-H ) :   0.9461 B(  4-N , 10-H ) :   0.9261 B(  5-N ,  6-H ) :   0.9608
B(  5-N ,  7-H ) :   0.9069

Dispersion correction           -0.015036237
FINAL SINGLE POINT ENERGY      -284.551681035722

DIPOLE MOMENT
-------------
                                X             Y             Z
Electronic contribution:      3.50879       3.41426      -2.62276
Nuclear contribution   :     -3.31456      -3.64300       1.57303
                        -----------------------------------------
Total Dipole Moment    :      0.19423      -0.22874      -1.04973
                        -----------------------------------------
Magnitude (a.u.)       :      1.09177
Magnitude (Debye)      :      2.77507

Rotational constants in cm-1:     0.229487     0.071000     0.059428
Rotational constants in MHz :  6879.840828  2128.520047  1781.605314

                             ****ORCA TERMINATED NORMALLY****
TOTAL RUN TIME: 0 days 0 hours 0 minutes 24 seconds 202 msec
