                         Program Version 5.0.0 -  RELEASE  -
|  1> !TPSS D3BJ RIJCOSX def2-TZVPD def2/J TightSCF xyzfile
|  2>
|  3> *xyzfile 0 1 B.xyz
|  4>
|  5> %MaxCore 64000
|  6>
|  7> %pal nprocs 4
|  8> end
|  9>
| 10> %scf
| 11>   MaxIter 150
| 12> end
| 13>
| 14>
| 15>                          ****END OF INPUT****

CARTESIAN COORDINATES (ANGSTROEM)
---------------------------------
  C      3.905947    2.819855   -3.752920
  N      5.295615    3.131515   -4.105334
  C      3.803511    1.374716   -3.260807
  C      3.939934    0.320362   -4.367729
  H      4.105043   -0.655085   -3.907733
  H      3.022801    0.280517   -4.957117
  C      5.105846    0.668022   -5.305463
  C      5.708619    3.468885   -5.324190
  N      6.904696    3.038954   -5.717084
  N      4.981884    4.293570   -6.097457
  H      5.000546    4.101311   -7.087761
  H      4.084693    4.596899   -5.739652
  H      5.963358    2.526112   -3.642391
  H      7.047164    2.066861   -5.473604
  H      7.198145    3.307994   -6.645225
  H      3.282025    2.949187   -4.640259
  H      3.565254    3.514574   -2.982523
  H      4.574833    1.215157   -2.500443
  H      2.843514    1.260845   -2.751465
  O      4.809132    1.150187   -6.414361
  O      6.267366    0.564999   -4.819481

 Total Charge           Charge          ....    0
 Multiplicity           Mult            ....    1
 Number of Electrons    NEL             ....   78
 Basis Dimension        Dim             ....  475

ORBITAL ENERGIES
----------------

  NO   OCC          E(Eh)            E(eV)
   0   2.0000     -18.802973      -511.6549
   1   2.0000     -18.798608      -511.5361
   2   2.0000     -14.164593      -385.4382
   3   2.0000     -14.156011      -385.2046
   4   2.0000     -14.134881      -384.6297
   5   2.0000     -10.137809      -275.8638
   6   2.0000     -10.046731      -273.3854
   7   2.0000     -10.034086      -273.0414
   8   2.0000      -9.997294      -272.0402
   9   2.0000      -9.964243      -271.1408
  10   2.0000      -0.981768       -26.7153
  11   2.0000      -0.934018       -25.4159
  12   2.0000      -0.881086       -23.9756
  13   2.0000      -0.863434       -23.4952
  14   2.0000      -0.846540       -23.0355
  15   2.0000      -0.738844       -20.1050
  16   2.0000      -0.660150       -17.9636
  17   2.0000      -0.607853       -16.5405
  18   2.0000      -0.574763       -15.6401
  19   2.0000      -0.558385       -15.1944
  20   2.0000      -0.528135       -14.3713
  21   2.0000      -0.489503       -13.3201
  22   2.0000      -0.470940       -12.8149
  23   2.0000      -0.453461       -12.3393
  24   2.0000      -0.437218       -11.8973
  25   2.0000      -0.429124       -11.6771
  26   2.0000      -0.387843       -10.5537
  27   2.0000      -0.380654       -10.3581
  28   2.0000      -0.368574       -10.0294
  29   2.0000      -0.347081        -9.4446
  30   2.0000      -0.339257        -9.2317
  31   2.0000      -0.332855        -9.0574
  32   2.0000      -0.302304        -8.2261
  33   2.0000      -0.298047        -8.1103
  34   2.0000      -0.277869        -7.5612
  35   2.0000      -0.256104        -6.9690
  36   2.0000      -0.198106        -5.3907
  37   2.0000      -0.177487        -4.8297
  38   2.0000      -0.165704        -4.5090
  39   0.0000      -0.047943        -1.3046
  40   0.0000      -0.027692        -0.7535
  41   0.0000      -0.004271        -0.1162
  42   0.0000       0.005393         0.1467
  43   0.0000       0.021564         0.5868

MULLIKEN ATOMIC CHARGES
-----------------------
   0 C :   -0.175679
   1 N :   -0.218545
   2 C :   -0.522900
   3 C :   -0.183821
   4 H :    0.120116
   5 H :    0.181769
   6 C :    0.946081
   7 C :    0.707609
   8 N :   -0.407380
   9 N :   -0.503805
  10 H :    0.181804
  11 H :    0.237312
  12 H :    0.309997
  13 H :    0.291789
  14 H :    0.190442
  15 H :    0.265385
  16 H :    0.014141
  17 H :    0.241159
  18 H :    0.030692
  19 O :   -0.801770
  20 O :   -0.904396
Sum of atomic charges:   -0.0000000

LOEWDIN ATOMIC CHARGES
----------------------
   0 C :   -0.158459
   1 N :    0.092970
   2 C :   -0.174037
   3 C :   -0.114827
   4 H :    0.107982
   5 H :    0.105120
   6 C :   -0.715445
   7 C :   -0.485443
   8 N :    0.202449
   9 N :    0.198286
  10 H :    0.123663
  11 H :    0.112452
  12 H :    0.142703
  13 H :    0.074323
  14 H :    0.123948
  15 H :    0.118052
  16 H :    0.112306
  17 H :    0.112405
  18 H :    0.106637
  19 O :   -0.022489
  20 O :   -0.062597

  Mayer bond orders larger than 0.100000
B(  0-C ,  1-N ) :   0.9120 B(  0-C ,  2-C ) :   1.0662 B(  0-C , 15-H ) :   0.7895
B(  0-C , 16-H ) :   1.0336 B(  1-N ,  7-C ) :   1.2308 B(  1-N , 12-H ) :   0.7764
B(  2-C ,  3-C ) :   0.9551 B(  2-C ,  6-C ) :   0.1113 B(  2-C , 15-H ) :   0.1014
B(  2-C , 17-H ) :   0.8792 B(  2-C , 18-H ) :   0.9957 B(  3-C ,  4-H ) :   0.9207
B(  3-C ,  5-H ) :   0.9318 B(  3-C ,  6-C ) :   1.0054 B(  6-C , 19-O ) :   1.0652
B(  6-C , 20-O ) :   0.9210 B(  7-C ,  8-N ) :   1.0520 B(  7-C ,  9-N ) :   0.8516
B(  7-C , 20-O ) :   0.1155 B(  8-N , 13-H ) :   0.7976 B(  8-N , 14-H ) :   0.9138
B(  9-N , 10-H ) :   0.9775 B(  9-N , 11-H ) :   0.8995 B( 13-H , 20-O ) :   0.1531
B( 19-O , 20-O ) :   0.1200

Dispersion correction           -0.028578635
FINAL SINGLE POINT ENERGY      -512.179958012378

DIPOLE MOMENT
-------------
                                X             Y             Z
Electronic contribution:      4.20998       0.35306      -3.45009
Nuclear contribution   :     -4.94498       2.03334       3.78956
                        -----------------------------------------
Total Dipole Moment    :     -0.73500       2.38640       0.33947
                        -----------------------------------------
Magnitude (a.u.)       :      2.52000
Magnitude (Debye)      :      6.40532

Rotational constants in cm-1:     0.062533     0.042832     0.033687
Rotational constants in MHz :  1874.701390  1284.063603  1009.911042

                             ****ORCA TERMINATED NORMALLY****
TOTAL RUN TIME: 0 days 0 hours 1 minutes 17 seconds 251 msec
