                         Program Version 5.0.0 -  RELEASE  -
|  1> !TPSS D3BJ RIJCOSX def2-TZVPD def2/J TightSCF
|  2> *xyz 0 1
|  3> C          3.80351        1.37472       -3.26081
|  4> C          3.93993        0.32036       -4.36773
|  5> H          4.10504       -0.65508       -3.90773
|  6> H          3.02280        0.28052       -4.95712
|  7> C          5.10585        0.66802       -5.30546
|  8> F          4.80913        1.15019       -6.41436
|  9> O          6.26737        0.56500       -4.81948
| 10> H          3.64113        2.33595       -3.70189
| 11> H          4.69995        1.39701       -2.67703
| 12> H          2.97435        1.12625       -2.63180
| 13> *
| 14>
| 15> %MaxCore 64000
| 16>
| 17> %pal nprocs 4
| 18> end
| 19>
| 20> %scf
| 21>   MaxIter 150
| 22> end
| 23>
| 24>
| 25>                          ****END OF INPUT****

CARTESIAN COORDINATES (ANGSTROEM)
---------------------------------
  C      3.803510    1.374720   -3.260810
  C      3.939930    0.320360   -4.367730
  H      4.105040   -0.655080   -3.907730
  H      3.022800    0.280520   -4.957120
  C      5.105850    0.668020   -5.305460
  F      4.809130    1.150190   -6.414360
  O      6.267370    0.565000   -4.819480
  H      3.641130    2.335950   -3.701890
  H      4.699950    1.397010   -2.677030
  H      2.974350    1.126250   -2.631800

 Total Charge           Charge          ....    0
 Multiplicity           Mult            ....    1
 Number of Electrons    NEL             ....   40
 Basis Dimension        Dim             ....  236

ORBITAL ENERGIES
----------------

  NO   OCC          E(Eh)            E(eV)
   0   2.0000     -24.482681      -666.2076
   1   2.0000     -18.886573      -513.9298
   2   2.0000     -10.152229      -276.2562
   3   2.0000     -10.015989      -272.5489
   4   2.0000      -9.992513      -271.9101
   5   2.0000      -1.247057       -33.9341
   6   2.0000      -0.958969       -26.0949
   7   2.0000      -0.743365       -20.2280
   8   2.0000      -0.635247       -17.2860
   9   2.0000      -0.588122       -16.0036
  10   2.0000      -0.498099       -13.5540
  11   2.0000      -0.483573       -13.1587
  12   2.0000      -0.458049       -12.4642
  13   2.0000      -0.423043       -11.5116
  14   2.0000      -0.391522       -10.6539
  15   2.0000      -0.358582        -9.7575
  16   2.0000      -0.340127        -9.2553
  17   2.0000      -0.334623        -9.1055
  18   2.0000      -0.307483        -8.3670
  19   2.0000      -0.245448        -6.6790
  20   0.0000      -0.063398        -1.7251
  21   0.0000      -0.007777        -0.2116
  22   0.0000       0.020377         0.5545
  23   0.0000       0.030204         0.8219
  24   0.0000       0.038944         1.0597

MULLIKEN ATOMIC CHARGES
-----------------------
   0 C :   -0.941010
   1 C :    0.005487
   2 H :    0.156060
   3 H :    0.176638
   4 C :    0.570056
   5 F :   -0.193272
   6 O :   -0.537537
   7 H :    0.288124
   8 H :    0.275785
   9 H :    0.199669
Sum of atomic charges:    0.0000000

LOEWDIN ATOMIC CHARGES
----------------------
   0 C :   -0.080404
   1 C :   -0.149699
   2 H :    0.114157
   3 H :    0.102115
   4 C :   -0.502707
   5 F :    0.228397
   6 O :    0.079589
   7 H :    0.071074
   8 H :    0.071321
   9 H :    0.066156

  Mayer bond orders larger than 0.100000
B(  0-C ,  1-C ) :   0.8483 B(  0-C ,  4-C ) :   0.1957 B(  0-C ,  7-H ) :   0.9116
B(  0-C ,  8-H ) :   0.9649 B(  0-C ,  9-H ) :   0.9714 B(  1-C ,  2-H ) :   0.9307
B(  1-C ,  3-H ) :   0.9454 B(  1-C ,  4-C ) :   0.9353 B(  4-C ,  5-F ) :   0.9909
B(  4-C ,  6-O ) :   1.6082

Dispersion correction           -0.007667177
FINAL SINGLE POINT ENERGY      -292.555234438226

DIPOLE MOMENT
-------------
                                X             Y             Z
Electronic contribution:      4.03159      -0.00131      -7.43985
Nuclear contribution   :     -5.17129      -0.01923       7.59895
                        -----------------------------------------
Total Dipole Moment    :     -1.13970      -0.02054       0.15910
                        -----------------------------------------
Magnitude (a.u.)       :      1.15094
Magnitude (Debye)      :      2.92545

Rotational constants in cm-1:     0.282073     0.131822     0.105134
Rotational constants in MHz :  8456.328792  3951.925810  3151.840112

                             ****ORCA TERMINATED NORMALLY****
TOTAL RUN TIME: 0 days 0 hours 0 minutes 12 seconds 800 msec
