                         Program Version 5.0.0 -  RELEASE  -
|  1> !TPSS D3BJ RIJCOSX def2-TZVPD def2/J TightSCF
|  2> *xyz 0 1
|  3> C          3.90595        2.81985       -3.75292
|  4> C          5.29562        3.13151       -4.10533
|  5> C          3.80351        1.37472       -3.26081
|  6> C          5.70862        3.46889       -5.32419
|  7> N          6.90470        3.03895       -5.71708
|  8> N          4.98188        4.29357       -6.09746
|  9> H          5.00055        4.10131       -7.08776
| 10> H          4.08469        4.59690       -5.73965
| 11> H          5.96336        2.52611       -3.64239
| 12> H          7.04716        2.06686       -5.47360
| 13> H          7.19815        3.30799       -6.64523
| 14> H          3.28202        2.94919       -4.64026
| 15> H          3.56525        3.51457       -2.98252
| 16> H          4.14157        0.71142       -4.02935
| 17> H          2.78528        1.15146       -3.01944
| 18> H          4.41205        1.25066       -2.38949
| 19> *
| 20>
| 21> %MaxCore 64000
| 22>
| 23> %pal nprocs 4
| 24> end
| 25>
| 26> %scf
| 27>   MaxIter 150
| 28> end
| 29>
| 30>
| 31>                          ****END OF INPUT****

CARTESIAN COORDINATES (ANGSTROEM)
---------------------------------
  C      3.905950    2.819850   -3.752920
  C      5.295620    3.131510   -4.105330
  C      3.803510    1.374720   -3.260810
  C      5.708620    3.468890   -5.324190
  N      6.904700    3.038950   -5.717080
  N      4.981880    4.293570   -6.097460
  H      5.000550    4.101310   -7.087760
  H      4.084690    4.596900   -5.739650
  H      5.963360    2.526110   -3.642390
  H      7.047160    2.066860   -5.473600
  H      7.198150    3.307990   -6.645230
  H      3.282020    2.949190   -4.640260
  H      3.565250    3.514570   -2.982520
  H      4.141570    0.711420   -4.029350
  H      2.785280    1.151460   -3.019440
  H      4.412050    1.250660   -2.389490

 Total Charge           Charge          ....    0
 Multiplicity           Mult            ....    1
 Number of Electrons    NEL             ....   48
 Basis Dimension        Dim             ....  312

ORBITAL ENERGIES
----------------

  NO   OCC          E(Eh)            E(eV)
   0   2.0000     -14.106542      -383.8585
   1   2.0000     -14.103918      -383.7871
   2   2.0000     -10.020602      -272.6744
   3   2.0000      -9.963665      -271.1251
   4   2.0000      -9.956687      -270.9352
   5   2.0000      -9.911075      -269.6941
   6   2.0000      -0.901459       -24.5299
   7   2.0000      -0.818903       -22.2835
   8   2.0000      -0.720020       -19.5927
   9   2.0000      -0.642402       -17.4807
  10   2.0000      -0.565213       -15.3802
  11   2.0000      -0.529377       -14.4051
  12   2.0000      -0.490033       -13.3345
  13   2.0000      -0.467144       -12.7116
  14   2.0000      -0.434565       -11.8251
  15   2.0000      -0.404927       -11.0186
  16   2.0000      -0.380543       -10.3551
  17   2.0000      -0.349498        -9.5103
  18   2.0000      -0.330213        -8.9856
  19   2.0000      -0.313229        -8.5234
  20   2.0000      -0.291948        -7.9443
  21   2.0000      -0.287391        -7.8203
  22   2.0000      -0.235725        -6.4144
  23   2.0000      -0.142461        -3.8766
  24   0.0000      -0.015299        -0.4163
  25   0.0000       0.012676         0.3449
  26   0.0000       0.017380         0.4729
  27   0.0000       0.024871         0.6768
  28   0.0000       0.041199         1.1211

MULLIKEN ATOMIC CHARGES
-----------------------
   0 C :    0.214293
   1 C :   -0.776953
   2 C :   -1.188603
   3 C :    0.405105
   4 N :   -0.486637
   5 N :   -0.515838
   6 H :    0.154843
   7 H :    0.210417
   8 H :    0.418623
   9 H :    0.192242
  10 H :    0.201006
  11 H :    0.220648
  12 H :    0.106308
  13 H :    0.328313
  14 H :    0.213464
  15 H :    0.302769
Sum of atomic charges:    0.0000000

LOEWDIN ATOMIC CHARGES
----------------------
   0 C :   -0.277764
   1 C :   -0.134536
   2 C :   -0.103109
   3 C :   -0.557416
   4 N :    0.117435
   5 N :    0.128375
   6 H :    0.092781
   7 H :    0.099678
   8 H :    0.061858
   9 H :    0.107817
  10 H :    0.094102
  11 H :    0.091546
  12 H :    0.095414
  13 H :    0.064400
  14 H :    0.056067
  15 H :    0.063352

  Mayer bond orders larger than 0.100000
B(  0-C ,  1-C ) :   0.7238 B(  0-C ,  2-C ) :   0.6233 B(  0-C , 11-H ) :   0.8795
B(  0-C , 12-H ) :   0.9397 B(  1-C ,  2-C ) :   0.3899 B(  1-C ,  3-C ) :   1.8387
B(  1-C ,  5-N ) :   0.1452 B(  1-C ,  8-H ) :   0.8050 B(  2-C , 13-H ) :   0.9308
B(  2-C , 14-H ) :   0.9980 B(  2-C , 15-H ) :   0.9460 B(  3-C ,  4-N ) :   0.9357
B(  3-C ,  5-N ) :   0.8171 B(  4-N ,  9-H ) :   0.9832 B(  4-N , 10-H ) :   0.9401
B(  5-N ,  6-H ) :   1.0263 B(  5-N ,  7-H ) :   0.9107

Dispersion correction           -0.015654278
FINAL SINGLE POINT ENERGY      -268.063689474992

DIPOLE MOMENT
-------------
                                X             Y             Z
Electronic contribution:      3.19543       3.27491      -2.80366
Nuclear contribution   :     -3.27358      -3.61654       1.70633
                        -----------------------------------------
Total Dipole Moment    :     -0.07814      -0.34163      -1.09733
                        -----------------------------------------
Magnitude (a.u.)       :      1.15193
Magnitude (Debye)      :      2.92798

Rotational constants in cm-1:     0.231961     0.071249     0.059473
Rotational constants in MHz :  6954.024434  2135.976855  1782.962814

                             ****ORCA TERMINATED NORMALLY****
TOTAL RUN TIME: 0 days 0 hours 0 minutes 25 seconds 883 msec
