                         Program Version 5.0.0 -  RELEASE  -
|  1> !TPSS D3BJ RIJCOSX def2-TZVPD def2/J TightSCF
|  2> *xyz 0 1
|  3> C          3.80351        1.37472       -3.26081
|  4> C          3.93993        0.32036       -4.36773
|  5> H          4.10504       -0.65508       -3.90773
|  6> H          3.02280        0.28052       -4.95712
|  7> C          5.10585        0.66802       -5.30546
|  8> O          4.80913        1.15019       -6.41436
|  9> F          6.26737        0.56500       -4.81948
| 10> H          3.64113        2.33595       -3.70189
| 11> H          4.69995        1.39701       -2.67703
| 12> H          2.97435        1.12625       -2.63180
| 13> *
| 14>
| 15> %MaxCore 64000
| 16>
| 17> %pal nprocs 4
| 18> end
| 19>
| 20> %scf
| 21>   MaxIter 150
| 22> end
| 23>
| 24>
| 25>                          ****END OF INPUT****

CARTESIAN COORDINATES (ANGSTROEM)
---------------------------------
  C      3.803510    1.374720   -3.260810
  C      3.939930    0.320360   -4.367730
  H      4.105040   -0.655080   -3.907730
  H      3.022800    0.280520   -4.957120
  C      5.105850    0.668020   -5.305460
  O      4.809130    1.150190   -6.414360
  F      6.267370    0.565000   -4.819480
  H      3.641130    2.335950   -3.701890
  H      4.699950    1.397010   -2.677030
  H      2.974350    1.126250   -2.631800

 Total Charge           Charge          ....    0
 Multiplicity           Mult            ....    1
 Number of Electrons    NEL             ....   40
 Basis Dimension        Dim             ....  236

ORBITAL ENERGIES
----------------

  NO   OCC          E(Eh)            E(eV)
   0   2.0000     -24.475924      -666.0238
   1   2.0000     -18.889059      -513.9974
   2   2.0000     -10.150373      -276.2057
   3   2.0000     -10.015612      -272.5387
   4   2.0000      -9.995070      -271.9797
   5   2.0000      -1.233824       -33.5741
   6   2.0000      -0.969494       -26.3813
   7   2.0000      -0.745199       -20.2779
   8   2.0000      -0.630792       -17.1647
   9   2.0000      -0.585949       -15.9445
  10   2.0000      -0.493362       -13.4251
  11   2.0000      -0.478985       -13.0338
  12   2.0000      -0.454711       -12.3733
  13   2.0000      -0.422359       -11.4930
  14   2.0000      -0.392706       -10.6861
  15   2.0000      -0.360675        -9.8145
  16   2.0000      -0.344022        -9.3613
  17   2.0000      -0.336617        -9.1598
  18   2.0000      -0.315824        -8.5940
  19   2.0000      -0.246476        -6.7069
  20   0.0000      -0.059795        -1.6271
  21   0.0000      -0.008587        -0.2337
  22   0.0000       0.020350         0.5538
  23   0.0000       0.030142         0.8202
  24   0.0000       0.039351         1.0708

MULLIKEN ATOMIC CHARGES
-----------------------
   0 C :   -0.949638
   1 C :    0.021190
   2 H :    0.186143
   3 H :    0.153480
   4 C :    0.556568
   5 O :   -0.512706
   6 F :   -0.217595
   7 H :    0.286012
   8 H :    0.278883
   9 H :    0.197663
Sum of atomic charges:    0.0000000

LOEWDIN ATOMIC CHARGES
----------------------
   0 C :   -0.081953
   1 C :   -0.147426
   2 H :    0.108020
   3 H :    0.111935
   4 C :   -0.503088
   5 O :    0.096774
   6 F :    0.208451
   7 H :    0.073581
   8 H :    0.067240
   9 H :    0.066466

  Mayer bond orders larger than 0.100000
B(  0-C ,  1-C ) :   0.8099 B(  0-C ,  4-C ) :   0.1990 B(  0-C ,  7-H ) :   0.9468
B(  0-C ,  8-H ) :   0.9344 B(  0-C ,  9-H ) :   0.9754 B(  1-C ,  2-H ) :   0.9186
B(  1-C ,  3-H ) :   0.9662 B(  1-C ,  4-C ) :   0.9349 B(  4-C ,  5-O ) :   1.6294
B(  4-C ,  6-F ) :   0.9537

Dispersion correction           -0.007641660
FINAL SINGLE POINT ENERGY      -292.560416042084

DIPOLE MOMENT
-------------
                                X             Y             Z
Electronic contribution:      6.42400      -0.97041      -4.79535
Nuclear contribution   :     -6.76123       0.61881       5.86003
                        -----------------------------------------
Total Dipole Moment    :     -0.33723      -0.35160       1.06468
                        -----------------------------------------
Magnitude (a.u.)       :      1.17085
Magnitude (Debye)      :      2.97607

Rotational constants in cm-1:     0.275298     0.134631     0.105723
Rotational constants in MHz :  8253.224169  4036.137572  3169.487264

                             ****ORCA TERMINATED NORMALLY****
TOTAL RUN TIME: 0 days 0 hours 0 minutes 13 seconds 924 msec
