                         Program Version 5.0.0 -  RELEASE  -
|  1> !TPSS D3BJ RIJCOSX def2-TZVPD def2/J TightSCF
|  2> *xyz 0 1
|  3> C          3.90595        2.81985       -3.75292
|  4> N          5.29562        3.13151       -4.10533
|  5> C          3.80351        1.37472       -3.26081
|  6> C          5.70862        3.46889       -5.32419
|  7> C          6.90470        3.03895       -5.71708
|  8> N          4.98188        4.29357       -6.09746
|  9> H          5.00055        4.10131       -7.08776
| 10> H          4.08469        4.59690       -5.73965
| 11> H          5.96336        2.52611       -3.64239
| 12> H          7.04716        2.06686       -5.47360
| 13> H          7.19815        3.30799       -6.64523
| 14> H          3.28202        2.94919       -4.64026
| 15> H          3.56525        3.51457       -2.98252
| 16> H          4.14157        0.71142       -4.02935
| 17> H          2.78528        1.15146       -3.01944
| 18> H          4.41205        1.25066       -2.38949
| 19> *
| 20>
| 21> %MaxCore 64000
| 22>
| 23> %pal nprocs 4
| 24> end
| 25>
| 26> %scf
| 27>   MaxIter 150
| 28> end
| 29>
| 30>
| 31>                          ****END OF INPUT****

CARTESIAN COORDINATES (ANGSTROEM)
---------------------------------
  C      3.905950    2.819850   -3.752920
  N      5.295620    3.131510   -4.105330
  C      3.803510    1.374720   -3.260810
  C      5.708620    3.468890   -5.324190
  C      6.904700    3.038950   -5.717080
  N      4.981880    4.293570   -6.097460
  H      5.000550    4.101310   -7.087760
  H      4.084690    4.596900   -5.739650
  H      5.963360    2.526110   -3.642390
  H      7.047160    2.066860   -5.473600
  H      7.198150    3.307990   -6.645230
  H      3.282020    2.949190   -4.640260
  H      3.565250    3.514570   -2.982520
  H      4.141570    0.711420   -4.029350
  H      2.785280    1.151460   -3.019440
  H      4.412050    1.250660   -2.389490

 Total Charge           Charge          ....    0
 Multiplicity           Mult            ....    1
 Number of Electrons    NEL             ....   48
 Basis Dimension        Dim             ....  312

ORBITAL ENERGIES
----------------

  NO   OCC          E(Eh)            E(eV)
   0   2.0000     -14.106020      -383.8443
   1   2.0000     -14.103606      -383.7786
   2   2.0000     -10.025592      -272.8102
   3   2.0000     -10.024293      -272.7749
   4   2.0000      -9.985462      -271.7182
   5   2.0000      -9.897731      -269.3309
   6   2.0000      -0.905249       -24.6331
   7   2.0000      -0.828771       -22.5520
   8   2.0000      -0.718548       -19.5527
   9   2.0000      -0.653093       -17.7716
  10   2.0000      -0.582944       -15.8627
  11   2.0000      -0.548676       -14.9302
  12   2.0000      -0.488302       -13.2874
  13   2.0000      -0.452265       -12.3068
  14   2.0000      -0.441828       -12.0228
  15   2.0000      -0.412376       -11.2213
  16   2.0000      -0.383598       -10.4382
  17   2.0000      -0.361677        -9.8417
  18   2.0000      -0.343056        -9.3350
  19   2.0000      -0.337075        -9.1723
  20   2.0000      -0.334338        -9.0978
  21   2.0000      -0.300077        -8.1655
  22   2.0000      -0.223874        -6.0919
  23   2.0000      -0.145187        -3.9507
  24   0.0000      -0.012644        -0.3441
  25   0.0000       0.007651         0.2082
  26   0.0000       0.017946         0.4883
  27   0.0000       0.020968         0.5706
  28   0.0000       0.039112         1.0643

MULLIKEN ATOMIC CHARGES
-----------------------
   0 C :   -0.132155
   1 N :   -0.295200
   2 C :   -1.047608
   3 C :    0.748312
   4 C :   -1.121775
   5 N :   -0.491999
   6 H :    0.182897
   7 H :    0.213889
   8 H :    0.206847
   9 H :    0.287475
  10 H :    0.247312
  11 H :    0.250683
  12 H :    0.128443
  13 H :    0.302365
  14 H :    0.228920
  15 H :    0.291593
Sum of atomic charges:   -0.0000000

LOEWDIN ATOMIC CHARGES
----------------------
   0 C :   -0.232037
   1 N :    0.021991
   2 C :   -0.080148
   3 C :   -0.573445
   4 C :   -0.004078
   5 N :    0.129987
   6 H :    0.106654
   7 H :    0.090297
   8 H :    0.128248
   9 H :    0.008597
  10 H :    0.003161
  11 H :    0.101745
  12 H :    0.103633
  13 H :    0.068787
  14 H :    0.062177
  15 H :    0.064429

  Mayer bond orders larger than 0.100000
B(  0-C ,  1-N ) :   0.8426 B(  0-C ,  2-C ) :   0.8224 B(  0-C , 11-H ) :   0.8581
B(  0-C , 12-H ) :   0.9906 B(  1-N ,  3-C ) :   1.1078 B(  1-N ,  4-C ) :   0.1565
B(  1-N ,  8-H ) :   0.9022 B(  2-C , 13-H ) :   0.9637 B(  2-C , 14-H ) :   0.9824
B(  2-C , 15-H ) :   0.9445 B(  3-C ,  4-C ) :   1.2538 B(  3-C ,  5-N ) :   0.8950
B(  4-C ,  5-N ) :   0.1021 B(  4-C ,  9-H ) :   0.9618 B(  4-C , 10-H ) :   1.1111
B(  5-N ,  6-H ) :   0.9868 B(  5-N ,  7-H ) :   0.9151

Dispersion correction           -0.015520045
FINAL SINGLE POINT ENERGY      -268.054606633260

DIPOLE MOMENT
-------------
                                X             Y             Z
Electronic contribution:      1.54438       3.25427      -1.26343
Nuclear contribution   :     -2.93222      -3.63618       1.36440
                        -----------------------------------------
Total Dipole Moment    :     -1.38783      -0.38191       0.10098
                        -----------------------------------------
Magnitude (a.u.)       :      1.44296
Magnitude (Debye)      :      3.66772

Rotational constants in cm-1:     0.237993     0.072843     0.061284
Rotational constants in MHz :  7134.860770  2183.763760  1837.240960

                             ****ORCA TERMINATED NORMALLY****
TOTAL RUN TIME: 0 days 0 hours 0 minutes 26 seconds 677 msec
