                         Program Version 5.0.0 -  RELEASE  -
|  1> !TPSS D3BJ RIJCOSX def2-TZVPD def2/J TightSCF
|  2> *xyz 0 1
|  3> C          3.90595        2.81985       -3.75292
|  4> N          5.29562        3.13151       -4.10533
|  5> C          3.80351        1.37472       -3.26081
|  6> C          5.70862        3.46889       -5.32419
|  7> N          6.90470        3.03895       -5.71708
|  8> C          4.98188        4.29357       -6.09746
|  9> H          5.00055        4.10131       -7.08776
| 10> H          4.08469        4.59690       -5.73965
| 11> H          5.96336        2.52611       -3.64239
| 12> H          7.04716        2.06686       -5.47360
| 13> H          7.19815        3.30799       -6.64523
| 14> H          3.28202        2.94919       -4.64026
| 15> H          3.56525        3.51457       -2.98252
| 16> H          4.14157        0.71142       -4.02935
| 17> H          2.78528        1.15146       -3.01944
| 18> H          4.41205        1.25066       -2.38949
| 19> *
| 20>
| 21> %MaxCore 64000
| 22>
| 23> %pal nprocs 4
| 24> end
| 25>
| 26> %scf
| 27>   MaxIter 150
| 28> end
| 29>
| 30>
| 31>                          ****END OF INPUT****

CARTESIAN COORDINATES (ANGSTROEM)
---------------------------------
  C      3.905950    2.819850   -3.752920
  N      5.295620    3.131510   -4.105330
  C      3.803510    1.374720   -3.260810
  C      5.708620    3.468890   -5.324190
  N      6.904700    3.038950   -5.717080
  C      4.981880    4.293570   -6.097460
  H      5.000550    4.101310   -7.087760
  H      4.084690    4.596900   -5.739650
  H      5.963360    2.526110   -3.642390
  H      7.047160    2.066860   -5.473600
  H      7.198150    3.307990   -6.645230
  H      3.282020    2.949190   -4.640260
  H      3.565250    3.514570   -2.982520
  H      4.141570    0.711420   -4.029350
  H      2.785280    1.151460   -3.019440
  H      4.412050    1.250660   -2.389490

 Total Charge           Charge          ....    0
 Multiplicity           Mult            ....    1
 Number of Electrons    NEL             ....   48
 Basis Dimension        Dim             ....  312

ORBITAL ENERGIES
----------------

  NO   OCC          E(Eh)            E(eV)
   0   2.0000     -14.105930      -383.8419
   1   2.0000     -14.104937      -383.8148
   2   2.0000     -10.023409      -272.7508
   3   2.0000     -10.020699      -272.6771
   4   2.0000      -9.983487      -271.6645
   5   2.0000      -9.903116      -269.4775
   6   2.0000      -0.910108       -24.7653
   7   2.0000      -0.830326       -22.5943
   8   2.0000      -0.708782       -19.2869
   9   2.0000      -0.654004       -17.7964
  10   2.0000      -0.595558       -16.2060
  11   2.0000      -0.521432       -14.1889
  12   2.0000      -0.490432       -13.3453
  13   2.0000      -0.474046       -12.8995
  14   2.0000      -0.429780       -11.6949
  15   2.0000      -0.417018       -11.3476
  16   2.0000      -0.366076        -9.9614
  17   2.0000      -0.363601        -9.8941
  18   2.0000      -0.352491        -9.5918
  19   2.0000      -0.337578        -9.1860
  20   2.0000      -0.327022        -8.8987
  21   2.0000      -0.301830        -8.2132
  22   2.0000      -0.221756        -6.0343
  23   2.0000      -0.148922        -4.0524
  24   0.0000      -0.012925        -0.3517
  25   0.0000       0.009676         0.2633
  26   0.0000       0.021030         0.5723
  27   0.0000       0.021835         0.5941
  28   0.0000       0.037028         1.0076

MULLIKEN ATOMIC CHARGES
-----------------------
   0 C :   -0.084517
   1 N :   -0.284710
   2 C :   -1.075168
   3 C :    0.714590
   4 N :   -0.504403
   5 C :   -1.206025
   6 H :    0.248518
   7 H :    0.350411
   8 H :    0.240175
   9 H :    0.178377
  10 H :    0.200452
  11 H :    0.250153
  12 H :    0.155375
  13 H :    0.303066
  14 H :    0.229783
  15 H :    0.283924
Sum of atomic charges:   -0.0000000

LOEWDIN ATOMIC CHARGES
----------------------
   0 C :   -0.224660
   1 N :    0.022657
   2 C :   -0.082513
   3 C :   -0.580729
   4 N :    0.118186
   5 C :    0.011070
   6 H :    0.005666
   7 H :    0.001254
   8 H :    0.123516
   9 H :    0.096805
  10 H :    0.104502
  11 H :    0.106248
  12 H :    0.108119
  13 H :    0.065450
  14 H :    0.062842
  15 H :    0.061587

  Mayer bond orders larger than 0.100000
B(  0-C ,  1-N ) :   0.8406 B(  0-C ,  2-C ) :   0.7591 B(  0-C , 11-H ) :   0.8692
B(  0-C , 12-H ) :   0.9658 B(  1-N ,  3-C ) :   1.0271 B(  1-N ,  8-H ) :   0.8897
B(  2-C , 13-H ) :   0.9697 B(  2-C , 14-H ) :   0.9852 B(  2-C , 15-H ) :   0.9543
B(  3-C ,  4-N ) :   0.9098 B(  3-C ,  5-C ) :   1.3192 B(  4-N ,  5-C ) :   0.1124
B(  4-N ,  9-H ) :   0.9850 B(  4-N , 10-H ) :   0.9465 B(  5-C ,  6-H ) :   1.0715
B(  5-C ,  7-H ) :   0.8814

Dispersion correction           -0.015559525
FINAL SINGLE POINT ENERGY      -268.059043748414

DIPOLE MOMENT
-------------
                                X             Y             Z
Electronic contribution:      3.38134       2.09958      -0.97215
Nuclear contribution   :     -3.34013      -3.37002       1.28371
                        -----------------------------------------
Total Dipole Moment    :      0.04121      -1.27044       0.31156
                        -----------------------------------------
Magnitude (a.u.)       :      1.30873
Magnitude (Debye)      :      3.32653

Rotational constants in cm-1:     0.239537     0.072280     0.060961
Rotational constants in MHz :  7181.153552  2166.902802  1827.551447

                             ****ORCA TERMINATED NORMALLY****
TOTAL RUN TIME: 0 days 0 hours 0 minutes 27 seconds 54 msec
