                         Program Version 5.0.0 -  RELEASE  -
|  1> !TPSS D3BJ RIJCOSX def2-TZVPD def2/J TightSCF xyzfile
|  2>
|  3> *xyzfile 0 1 D1.xyz
|  4>
|  5> %MaxCore 64000
|  6>
|  7> %pal nprocs 4
|  8> end
|  9>
| 10> %scf
| 11>   MaxIter 150
| 12> end
| 13>
| 14>
| 15>                          ****END OF INPUT****

CARTESIAN COORDINATES (ANGSTROEM)
---------------------------------
  C      3.905947    2.819855   -3.752920
  C      5.295615    3.131515   -4.105334
  C      3.803511    1.374716   -3.260807
  C      3.939934    0.320362   -4.367729
  H      4.105043   -0.655085   -3.907733
  H      3.022801    0.280517   -4.957117
  C      5.105846    0.668022   -5.305463
  C      5.708619    3.468885   -5.324190
  N      6.904696    3.038954   -5.717084
  N      4.981884    4.293570   -6.097457
  H      5.000546    4.101311   -7.087761
  H      4.084693    4.596899   -5.739652
  H      5.963358    2.526112   -3.642391
  H      7.047164    2.066861   -5.473604
  H      7.198145    3.307994   -6.645225
  H      3.282025    2.949187   -4.640259
  H      3.565254    3.514574   -2.982523
  H      4.574833    1.215157   -2.500443
  H      2.843514    1.260845   -2.751465
  F      4.809132    1.150187   -6.414361
  O      6.267366    0.564999   -4.819481

 Total Charge           Charge          ....    0
 Multiplicity           Mult            ....    1
 Number of Electrons    NEL             ....   78
 Basis Dimension        Dim             ....  475

ORBITAL ENERGIES
----------------

  NO   OCC          E(Eh)            E(eV)
   0   2.0000     -24.483752      -666.2368
   1   2.0000     -18.886963      -513.9404
   2   2.0000     -14.106863      -383.8673
   3   2.0000     -14.086302      -383.3078
   4   2.0000     -10.155593      -276.3477
   5   2.0000     -10.021043      -272.6864
   6   2.0000     -10.012013      -272.4407
   7   2.0000      -9.992355      -271.9058
   8   2.0000      -9.975935      -271.4590
   9   2.0000      -9.914139      -269.7774
  10   2.0000      -1.249517       -34.0011
  11   2.0000      -0.966943       -26.3119
  12   2.0000      -0.897010       -24.4089
  13   2.0000      -0.813043       -22.1240
  14   2.0000      -0.758486       -20.6395
  15   2.0000      -0.695671       -18.9302
  16   2.0000      -0.639607       -17.4046
  17   2.0000      -0.603912       -16.4333
  18   2.0000      -0.558858       -15.2073
  19   2.0000      -0.531280       -14.4569
  20   2.0000      -0.502358       -13.6699
  21   2.0000      -0.492008       -13.3882
  22   2.0000      -0.480598       -13.0777
  23   2.0000      -0.473488       -12.8843
  24   2.0000      -0.455178       -12.3860
  25   2.0000      -0.424367       -11.5476
  26   2.0000      -0.418174       -11.3791
  27   2.0000      -0.397311       -10.8114
  28   2.0000      -0.390244       -10.6191
  29   2.0000      -0.350207        -9.5296
  30   2.0000      -0.345917        -9.4129
  31   2.0000      -0.331463        -9.0196
  32   2.0000      -0.321940        -8.7604
  33   2.0000      -0.310030        -8.4363
  34   2.0000      -0.299120        -8.1395
  35   2.0000      -0.286125        -7.7859
  36   2.0000      -0.254358        -6.9214
  37   2.0000      -0.227139        -6.1808
  38   2.0000      -0.145477        -3.9586
  39   0.0000      -0.065301        -1.7769
  40   0.0000      -0.013854        -0.3770
  41   0.0000       0.005918         0.1610
  42   0.0000       0.013257         0.3607
  43   0.0000       0.019401         0.5279

MULLIKEN ATOMIC CHARGES
-----------------------
   0 C :    0.177856
   1 C :   -0.717896
   2 C :   -0.476836
   3 C :   -0.261094
   4 H :    0.125584
   5 H :    0.204960
   6 C :    0.951380
   7 C :    0.158288
   8 N :   -0.482214
   9 N :   -0.557376
  10 H :    0.144098
  11 H :    0.225193
  12 H :    0.493625
  13 H :    0.310937
  14 H :    0.167913
  15 H :    0.295230
  16 H :   -0.106723
  17 H :    0.252880
  18 H :    0.052940
  19 F :   -0.288563
  20 O :   -0.670182
Sum of atomic charges:   -0.0000000

LOEWDIN ATOMIC CHARGES
----------------------
   0 C :   -0.215691
   1 C :   -0.123430
   2 C :   -0.181583
   3 C :   -0.082257
   4 H :    0.118666
   5 H :    0.109837
   6 C :   -0.486491
   7 C :   -0.565737
   8 N :    0.140761
   9 N :    0.140123
  10 H :    0.095380
  11 H :    0.100434
  12 H :    0.071522
  13 H :    0.065108
  14 H :    0.102315
  15 H :    0.102654
  16 H :    0.101552
  17 H :    0.117206
  18 H :    0.106010
  19 F :    0.232583
  20 O :    0.051034

  Mayer bond orders larger than 0.100000
B(  0-C ,  1-C ) :   0.6230 B(  0-C ,  2-C ) :   0.8607 B(  0-C , 15-H ) :   0.8185
B(  0-C , 16-H ) :   1.0497 B(  1-C ,  2-C ) :   0.3635 B(  1-C ,  6-C ) :   0.1237
B(  1-C ,  7-C ) :   1.6547 B(  1-C ,  9-N ) :   0.1042 B(  1-C , 12-H ) :   0.8381
B(  2-C ,  3-C ) :   0.9981 B(  2-C , 17-H ) :   0.8706 B(  2-C , 18-H ) :   0.9848
B(  3-C ,  4-H ) :   0.9020 B(  3-C ,  5-H ) :   0.9180 B(  3-C ,  6-C ) :   0.9977
B(  6-C , 19-F ) :   0.8038 B(  6-C , 20-O ) :   1.3154 B(  7-C ,  8-N ) :   0.8342
B(  7-C ,  9-N ) :   0.6800 B(  7-C , 20-O ) :   0.1222 B(  8-N , 13-H ) :   0.7921
B(  8-N , 14-H ) :   0.9359 B(  9-N , 10-H ) :   1.0129 B(  9-N , 11-H ) :   0.9135
B( 19-F , 20-O ) :   0.1066

Dispersion correction           -0.028462458
FINAL SINGLE POINT ENERGY      -520.081550032286

DIPOLE MOMENT
-------------
                                X             Y             Z
Electronic contribution:      3.47965      -3.54164      -6.43794
Nuclear contribution   :     -4.60158       3.22721       5.56005
                        -----------------------------------------
Total Dipole Moment    :     -1.12194      -0.31443      -0.87789
                        -----------------------------------------
Magnitude (a.u.)       :      1.45887
Magnitude (Debye)      :      3.70815

Rotational constants in cm-1:     0.061224     0.042534     0.033552
Rotational constants in MHz :  1835.464095  1275.135177  1005.856966

                             ****ORCA TERMINATED NORMALLY****
TOTAL RUN TIME: 0 days 0 hours 1 minutes 14 seconds 48 msec
