                         Program Version 5.0.0 -  RELEASE  -
|  1> !TPSS D3BJ RIJCOSX def2-TZVPD def2/J TightSCF xyzfile
|  2>
|  3> *xyzfile 0 1 D2.xyz
|  4>
|  5> %MaxCore 64000
|  6>
|  7> %pal nprocs 4
|  8> end
|  9>
| 10> %scf
| 11>   MaxIter 150
| 12> end
| 13>
| 14>
| 15>                          ****END OF INPUT****

CARTESIAN COORDINATES (ANGSTROEM)
---------------------------------
  C      3.905947    2.819855   -3.752920
  N      5.295615    3.131515   -4.105334
  C      3.803511    1.374716   -3.260807
  C      3.939934    0.320362   -4.367729
  H      4.105043   -0.655085   -3.907733
  H      3.022801    0.280517   -4.957117
  C      5.105846    0.668022   -5.305463
  C      5.708619    3.468885   -5.324190
  C      6.904696    3.038954   -5.717084
  N      4.981884    4.293570   -6.097457
  H      5.000546    4.101311   -7.087761
  H      4.084693    4.596899   -5.739652
  H      5.963358    2.526112   -3.642391
  H      7.047164    2.066861   -5.473604
  H      7.198145    3.307994   -6.645225
  H      3.282025    2.949187   -4.640259
  H      3.565254    3.514574   -2.982523
  H      4.574833    1.215157   -2.500443
  H      2.843514    1.260845   -2.751465
  F      4.809132    1.150187   -6.414361
  O      6.267366    0.564999   -4.819481

 Total Charge           Charge          ....    0
 Multiplicity           Mult            ....    1
 Number of Electrons    NEL             ....   78
 Basis Dimension        Dim             ....  475

ORBITAL ENERGIES
----------------

  NO   OCC          E(Eh)            E(eV)
   0   2.0000     -24.485593      -666.2869
   1   2.0000     -18.888747      -513.9889
   2   2.0000     -14.104346      -383.7988
   3   2.0000     -14.102148      -383.7390
   4   2.0000     -10.158852      -276.4364
   5   2.0000     -10.033709      -273.0311
   6   2.0000     -10.024280      -272.7745
   7   2.0000     -10.016140      -272.5530
   8   2.0000     -10.016115      -272.5524
   9   2.0000      -9.882277      -268.9104
  10   2.0000      -1.250861       -34.0377
  11   2.0000      -0.968476       -26.3536
  12   2.0000      -0.905048       -24.6276
  13   2.0000      -0.829656       -22.5761
  14   2.0000      -0.761625       -20.7249
  15   2.0000      -0.688800       -18.7432
  16   2.0000      -0.645552       -17.5664
  17   2.0000      -0.609209       -16.5774
  18   2.0000      -0.572707       -15.5841
  19   2.0000      -0.547154       -14.8888
  20   2.0000      -0.506702       -13.7881
  21   2.0000      -0.496160       -13.5012
  22   2.0000      -0.483701       -13.1622
  23   2.0000      -0.464253       -12.6330
  24   2.0000      -0.453470       -12.3395
  25   2.0000      -0.439112       -11.9488
  26   2.0000      -0.427099       -11.6220
  27   2.0000      -0.400938       -10.9101
  28   2.0000      -0.378564       -10.3013
  29   2.0000      -0.365435        -9.9440
  30   2.0000      -0.351715        -9.5707
  31   2.0000      -0.349734        -9.5168
  32   2.0000      -0.332849        -9.0573
  33   2.0000      -0.328199        -8.9307
  34   2.0000      -0.306060        -8.3283
  35   2.0000      -0.298135        -8.1127
  36   2.0000      -0.240864        -6.5542
  37   2.0000      -0.222280        -6.0486
  38   2.0000      -0.138013        -3.7555
  39   0.0000      -0.071324        -1.9408
  40   0.0000      -0.017581        -0.4784
  41   0.0000       0.001124         0.0306
  42   0.0000       0.008401         0.2286
  43   0.0000       0.015536         0.4228

MULLIKEN ATOMIC CHARGES
-----------------------
   0 C :   -0.296862
   1 N :   -0.307146
   2 C :   -0.404790
   3 C :   -0.206232
   4 H :    0.119019
   5 H :    0.209454
   6 C :    0.866732
   7 C :    0.537134
   8 C :   -1.221956
   9 N :   -0.588977
  10 H :    0.171924
  11 H :    0.212974
  12 H :    0.303293
  13 H :    0.665382
  14 H :    0.237818
  15 H :    0.282278
  16 H :    0.014903
  17 H :    0.232295
  18 H :    0.051538
  19 F :   -0.270572
  20 O :   -0.608208
Sum of atomic charges:   -0.0000000

LOEWDIN ATOMIC CHARGES
----------------------
   0 C :   -0.176979
   1 N :    0.042090
   2 C :   -0.168436
   3 C :   -0.083180
   4 H :    0.119838
   5 H :    0.110622
   6 C :   -0.485754
   7 C :   -0.585880
   8 C :    0.006789
   9 N :    0.136215
  10 H :    0.106275
  11 H :    0.089666
  12 H :    0.131936
  13 H :   -0.010887
  14 H :    0.017819
  15 H :    0.111673
  16 H :    0.109521
  17 H :    0.117069
  18 H :    0.109284
  19 F :    0.241867
  20 O :    0.060453

  Mayer bond orders larger than 0.100000
B(  0-C ,  1-N ) :   0.8314 B(  0-C ,  2-C ) :   1.0191 B(  0-C ,  7-C ) :  -0.1096
B(  0-C ,  9-N ) :   0.1217 B(  0-C , 15-H ) :   0.8594 B(  0-C , 16-H ) :   1.0576
B(  1-N ,  7-C ) :   0.9476 B(  1-N , 12-H ) :   0.7905 B(  2-C ,  3-C ) :   0.9733
B(  2-C , 17-H ) :   0.8883 B(  2-C , 18-H ) :   1.0063 B(  3-C ,  4-H ) :   0.9158
B(  3-C ,  5-H ) :   0.9205 B(  3-C ,  6-C ) :   1.0123 B(  6-C , 19-F ) :   0.8343
B(  6-C , 20-O ) :   1.4457 B(  7-C ,  8-C ) :   1.5585 B(  7-C ,  9-N ) :   0.6631
B(  8-C , 13-H ) :   0.5380 B(  8-C , 14-H ) :   1.2285 B(  9-N , 10-H ) :   0.9872
B(  9-N , 11-H ) :   0.9243 B( 19-F , 20-O ) :   0.1065

Dispersion correction           -0.028313333
FINAL SINGLE POINT ENERGY      -520.054074828367

DIPOLE MOMENT
-------------
                                X             Y             Z
Electronic contribution:      2.15052      -3.72928      -5.18640
Nuclear contribution   :     -4.40347       3.21582       5.36161
                        -----------------------------------------
Total Dipole Moment    :     -2.25295      -0.51346       0.17522
                        -----------------------------------------
Magnitude (a.u.)       :      2.31736
Magnitude (Debye)      :      5.89025

Rotational constants in cm-1:     0.061226     0.043199     0.033926
Rotational constants in MHz :  1835.503528  1295.087558  1017.061512

                             ****ORCA TERMINATED NORMALLY****
TOTAL RUN TIME: 0 days 0 hours 1 minutes 9 seconds 345 msec
