                         Program Version 5.0.0 -  RELEASE  -
|  1> !TPSS D3BJ RIJCOSX def2-TZVPD def2/J TightSCF xyzfile
|  2>
|  3> *xyzfile 0 1 D3.xyz
|  4>
|  5> %MaxCore 64000
|  6>
|  7> %pal nprocs 4
|  8> end
|  9>
| 10> %scf
| 11>   MaxIter 150
| 12> end
| 13>
| 14>
| 15>                          ****END OF INPUT****

CARTESIAN COORDINATES (ANGSTROEM)
---------------------------------
  C      3.905947    2.819855   -3.752920
  N      5.295615    3.131515   -4.105334
  C      3.803511    1.374716   -3.260807
  C      3.939934    0.320362   -4.367729
  H      4.105043   -0.655085   -3.907733
  H      3.022801    0.280517   -4.957117
  C      5.105846    0.668022   -5.305463
  C      5.708619    3.468885   -5.324190
  N      6.904696    3.038954   -5.717084
  C      4.981884    4.293570   -6.097457
  H      5.000546    4.101311   -7.087761
  H      4.084693    4.596899   -5.739652
  H      5.963358    2.526112   -3.642391
  H      7.047164    2.066861   -5.473604
  H      7.198145    3.307994   -6.645225
  H      3.282025    2.949187   -4.640259
  H      3.565254    3.514574   -2.982523
  H      4.574833    1.215157   -2.500443
  H      2.843514    1.260845   -2.751465
  F      4.809132    1.150187   -6.414361
  O      6.267366    0.564999   -4.819481

 Total Charge           Charge          ....    0
 Multiplicity           Mult            ....    1
 Number of Electrons    NEL             ....   78
 Basis Dimension        Dim             ....  475

ORBITAL ENERGIES
----------------

  NO   OCC          E(Eh)            E(eV)
   0   2.0000     -24.496101      -666.5728
   1   2.0000     -18.905942      -514.4568
   2   2.0000     -14.106750      -383.8642
   3   2.0000     -14.083549      -383.2328
   4   2.0000     -10.173713      -276.8408
   5   2.0000     -10.031134      -272.9610
   6   2.0000     -10.029989      -272.9299
   7   2.0000     -10.018234      -272.6100
   8   2.0000     -10.017652      -272.5942
   9   2.0000      -9.898505      -269.3520
  10   2.0000      -1.261098       -34.3162
  11   2.0000      -0.986243       -26.8370
  12   2.0000      -0.906150       -24.6576
  13   2.0000      -0.826977       -22.5032
  14   2.0000      -0.761449       -20.7201
  15   2.0000      -0.684181       -18.6175
  16   2.0000      -0.649615       -17.6769
  17   2.0000      -0.622558       -16.9407
  18   2.0000      -0.583302       -15.8724
  19   2.0000      -0.522868       -14.2280
  20   2.0000      -0.516715       -14.0605
  21   2.0000      -0.504199       -13.7199
  22   2.0000      -0.488077       -13.2813
  23   2.0000      -0.470524       -12.8036
  24   2.0000      -0.459022       -12.4906
  25   2.0000      -0.441364       -12.0101
  26   2.0000      -0.430647       -11.7185
  27   2.0000      -0.396381       -10.7861
  28   2.0000      -0.383545       -10.4368
  29   2.0000      -0.368109       -10.0168
  30   2.0000      -0.352718        -9.5980
  31   2.0000      -0.349463        -9.5094
  32   2.0000      -0.339467        -9.2374
  33   2.0000      -0.333385        -9.0719
  34   2.0000      -0.321766        -8.7557
  35   2.0000      -0.295793        -8.0489
  36   2.0000      -0.269096        -7.3225
  37   2.0000      -0.216213        -5.8835
  38   2.0000      -0.143927        -3.9165
  39   0.0000      -0.084235        -2.2922
  40   0.0000      -0.013935        -0.3792
  41   0.0000       0.007469         0.2032
  42   0.0000       0.010242         0.2787
  43   0.0000       0.017236         0.4690

MULLIKEN ATOMIC CHARGES
-----------------------
   0 C :   -0.229536
   1 N :   -0.273260
   2 C :   -0.462391
   3 C :   -0.200383
   4 H :    0.121391
   5 H :    0.210075
   6 C :    0.941230
   7 C :    0.392690
   8 N :   -0.482273
   9 C :   -1.296250
  10 H :    0.350108
  11 H :    0.376598
  12 H :    0.322691
  13 H :    0.339586
  14 H :    0.189501
  15 H :    0.295386
  16 H :    0.040411
  17 H :    0.233957
  18 H :    0.040145
  19 F :   -0.237111
  20 O :   -0.672565
Sum of atomic charges:   -0.0000000

LOEWDIN ATOMIC CHARGES
----------------------
   0 C :   -0.168060
   1 N :    0.042597
   2 C :   -0.166477
   3 C :   -0.080283
   4 H :    0.120695
   5 H :    0.113259
   6 C :   -0.479026
   7 C :   -0.596168
   8 N :    0.137282
   9 C :    0.007869
  10 H :    0.008427
  11 H :    0.001419
  12 H :    0.127604
  13 H :    0.056781
  14 H :    0.110809
  15 H :    0.116367
  16 H :    0.114173
  17 H :    0.115279
  18 H :    0.111268
  19 F :    0.250837
  20 O :    0.055350

  Mayer bond orders larger than 0.100000
B(  0-C ,  1-N ) :   0.8407 B(  0-C ,  2-C ) :   1.0136 B(  0-C ,  9-C ) :   0.1015
B(  0-C , 15-H ) :   0.8632 B(  0-C , 16-H ) :   1.0002 B(  1-N ,  2-C ) :   0.1092
B(  1-N ,  7-C ) :   1.0228 B(  1-N , 12-H ) :   0.7376 B(  2-C ,  3-C ) :   0.9573
B(  2-C ,  6-C ) :   0.1150 B(  2-C , 17-H ) :   0.8836 B(  2-C , 18-H ) :   1.0133
B(  3-C ,  4-H ) :   0.9142 B(  3-C ,  5-H ) :   0.9190 B(  3-C ,  6-C ) :   1.0288
B(  6-C , 19-F ) :   0.8711 B(  6-C , 20-O ) :   1.2889 B(  7-C ,  8-N ) :   0.7674
B(  7-C ,  9-C ) :   1.4774 B(  7-C , 20-O ) :   0.1217 B(  8-N ,  9-C ) :   0.1305
B(  8-N , 13-H ) :   0.7543 B(  8-N , 14-H ) :   0.9254 B(  9-C , 10-H ) :   0.8940
B(  9-C , 11-H ) :   0.9098 B( 19-F , 20-O ) :   0.1057

Dispersion correction           -0.028305189
FINAL SINGLE POINT ENERGY      -520.072389420981

DIPOLE MOMENT
-------------
                                X             Y             Z
Electronic contribution:      3.61850      -4.80113      -4.87566
Nuclear contribution   :     -4.64021       3.37029       5.31478
                        -----------------------------------------
Total Dipole Moment    :     -1.02171      -1.43084       0.43912
                        -----------------------------------------
Magnitude (a.u.)       :      1.81219
Magnitude (Debye)      :      4.60622

Rotational constants in cm-1:     0.061077     0.043622     0.034103
Rotational constants in MHz :  1831.041375  1307.759852  1022.388536

                             ****ORCA TERMINATED NORMALLY****
TOTAL RUN TIME: 0 days 0 hours 1 minutes 13 seconds 664 msec
