                         Program Version 5.0.0 -  RELEASE  -
|  1> !TPSS D3BJ RIJCOSX def2-TZVPD def2/J TightSCF xyzfile
|  2>
|  3> *xyzfile 0 1 D4.xyz
|  4>
|  5> %MaxCore 64000
|  6>
|  7> %pal nprocs 4
|  8> end
|  9>
| 10> %scf
| 11>   MaxIter 150
| 12> end
| 13>
| 14>
| 15>                          ****END OF INPUT****

CARTESIAN COORDINATES (ANGSTROEM)
---------------------------------
  C      3.905947    2.819855   -3.752920
  C      5.295615    3.131515   -4.105334
  C      3.803511    1.374716   -3.260807
  C      3.939934    0.320362   -4.367729
  H      4.105043   -0.655085   -3.907733
  H      3.022801    0.280517   -4.957117
  C      5.105846    0.668022   -5.305463
  C      5.708619    3.468885   -5.324190
  N      6.904696    3.038954   -5.717084
  N      4.981884    4.293570   -6.097457
  H      5.000546    4.101311   -7.087761
  H      4.084693    4.596899   -5.739652
  H      5.963358    2.526112   -3.642391
  H      7.047164    2.066861   -5.473604
  H      7.198145    3.307994   -6.645225
  H      3.282025    2.949187   -4.640259
  H      3.565254    3.514574   -2.982523
  H      4.574833    1.215157   -2.500443
  H      2.843514    1.260845   -2.751465
  O      4.809132    1.150187   -6.414361
  F      6.267366    0.564999   -4.819481

 Total Charge           Charge          ....    0
 Multiplicity           Mult            ....    1
 Number of Electrons    NEL             ....   78
 Basis Dimension        Dim             ....  475

ORBITAL ENERGIES
----------------

  NO   OCC          E(Eh)            E(eV)
   0   2.0000     -24.480876      -666.1585
   1   2.0000     -18.883376      -513.8428
   2   2.0000     -14.105502      -383.8302
   3   2.0000     -14.094888      -383.5414
   4   2.0000     -10.148468      -276.1539
   5   2.0000     -10.023882      -272.7637
   6   2.0000     -10.009061      -272.3604
   7   2.0000      -9.992372      -271.9063
   8   2.0000      -9.973518      -271.3932
   9   2.0000      -9.915169      -269.8055
  10   2.0000      -1.242188       -33.8016
  11   2.0000      -0.968090       -26.3431
  12   2.0000      -0.898643       -24.4533
  13   2.0000      -0.815747       -22.1976
  14   2.0000      -0.757811       -20.6211
  15   2.0000      -0.694470       -18.8975
  16   2.0000      -0.638773       -17.3819
  17   2.0000      -0.601521       -16.3682
  18   2.0000      -0.559756       -15.2317
  19   2.0000      -0.538400       -14.6506
  20   2.0000      -0.500924       -13.6308
  21   2.0000      -0.489497       -13.3199
  22   2.0000      -0.481942       -13.1143
  23   2.0000      -0.464426       -12.6377
  24   2.0000      -0.448950       -12.2165
  25   2.0000      -0.426851       -11.6152
  26   2.0000      -0.419667       -11.4197
  27   2.0000      -0.399762       -10.8781
  28   2.0000      -0.385895       -10.5007
  29   2.0000      -0.350391        -9.5346
  30   2.0000      -0.344267        -9.3680
  31   2.0000      -0.333252        -9.0682
  32   2.0000      -0.324871        -8.8402
  33   2.0000      -0.307140        -8.3577
  34   2.0000      -0.299203        -8.1417
  35   2.0000      -0.291186        -7.9236
  36   2.0000      -0.246530        -6.7084
  37   2.0000      -0.227195        -6.1823
  38   2.0000      -0.147495        -4.0135
  39   0.0000      -0.057228        -1.5572
  40   0.0000      -0.008836        -0.2405
  41   0.0000       0.005186         0.1411
  42   0.0000       0.013728         0.3736
  43   0.0000       0.018862         0.5133

MULLIKEN ATOMIC CHARGES
-----------------------
   0 C :    0.288412
   1 C :   -0.879214
   2 C :   -0.570155
   3 C :   -0.223670
   4 H :    0.156997
   5 H :    0.172273
   6 C :    0.862443
   7 C :    0.275172
   8 N :   -0.477806
   9 N :   -0.549778
  10 H :    0.143210
  11 H :    0.226848
  12 H :    0.562465
  13 H :    0.285866
  14 H :    0.162446
  15 H :    0.282688
  16 H :   -0.107420
  17 H :    0.250319
  18 H :    0.051215
  19 O :   -0.612818
  20 F :   -0.299493
Sum of atomic charges:    0.0000000

LOEWDIN ATOMIC CHARGES
----------------------
   0 C :   -0.214630
   1 C :   -0.132395
   2 C :   -0.185915
   3 C :   -0.083143
   4 H :    0.111799
   5 H :    0.118267
   6 C :   -0.501064
   7 C :   -0.563182
   8 N :    0.142907
   9 N :    0.153729
  10 H :    0.100855
  11 H :    0.103202
  12 H :    0.067218
  13 H :    0.080302
  14 H :    0.106190
  15 H :    0.106086
  16 H :    0.101115
  17 H :    0.112736
  18 H :    0.105957
  19 O :    0.088172
  20 F :    0.181794

  Mayer bond orders larger than 0.100000
B(  0-C ,  1-C ) :   0.6051 B(  0-C ,  2-C ) :   0.8092 B(  0-C , 15-H ) :   0.8045
B(  0-C , 16-H ) :   1.0524 B(  1-C ,  2-C ) :   0.4580 B(  1-C ,  6-C ) :   0.1666
B(  1-C ,  7-C ) :   1.6050 B(  1-C ,  9-N ) :   0.1204 B(  1-C , 12-H ) :   0.7461
B(  2-C ,  3-C ) :   0.9942 B(  2-C ,  6-C ) :   0.1046 B(  2-C , 17-H ) :   0.8943
B(  2-C , 18-H ) :   0.9844 B(  3-C ,  4-H ) :   0.9095 B(  3-C ,  5-H ) :   0.9195
B(  3-C ,  6-C ) :   1.0221 B(  6-C , 19-O ) :   1.4167 B(  6-C , 20-F ) :   0.7196
B(  7-C ,  8-N ) :   0.8521 B(  7-C ,  9-N ) :   0.7050 B(  8-N , 13-H ) :   0.8399
B(  8-N , 14-H ) :   0.9233 B(  9-N , 10-H ) :   1.0054 B(  9-N , 11-H ) :   0.9117

Dispersion correction           -0.028515390
FINAL SINGLE POINT ENERGY      -520.081976750689

DIPOLE MOMENT
-------------
                                X             Y             Z
Electronic contribution:      5.88373      -4.40471      -3.91676
Nuclear contribution   :     -6.25608       3.89116       3.75052
                        -----------------------------------------
Total Dipole Moment    :     -0.37235      -0.51355      -0.16624
                        -----------------------------------------
Magnitude (a.u.)       :      0.65575
Magnitude (Debye)      :      1.66679

Rotational constants in cm-1:     0.061229     0.042568     0.033282
Rotational constants in MHz :  1835.590871  1276.154029   997.769927

                             ****ORCA TERMINATED NORMALLY****
TOTAL RUN TIME: 0 days 0 hours 1 minutes 16 seconds 190 msec
