                         Program Version 5.0.0 -  RELEASE  -
|  1> !TPSS D3BJ RIJCOSX def2-TZVPD def2/J TightSCF xyzfile
|  2>
|  3> *xyzfile 0 1 D5.xyz
|  4>
|  5> %MaxCore 64000
|  6>
|  7> %pal nprocs 4
|  8> end
|  9>
| 10> %scf
| 11>   MaxIter 150
| 12> end
| 13>
| 14>
| 15>                          ****END OF INPUT****

CARTESIAN COORDINATES (ANGSTROEM)
---------------------------------
  C      3.905947    2.819855   -3.752920
  N      5.295615    3.131515   -4.105334
  C      3.803511    1.374716   -3.260807
  C      3.939934    0.320362   -4.367729
  H      4.105043   -0.655085   -3.907733
  H      3.022801    0.280517   -4.957117
  C      5.105846    0.668022   -5.305463
  C      5.708619    3.468885   -5.324190
  C      6.904696    3.038954   -5.717084
  N      4.981884    4.293570   -6.097457
  H      5.000546    4.101311   -7.087761
  H      4.084693    4.596899   -5.739652
  H      5.963358    2.526112   -3.642391
  H      7.047164    2.066861   -5.473604
  H      7.198145    3.307994   -6.645225
  H      3.282025    2.949187   -4.640259
  H      3.565254    3.514574   -2.982523
  H      4.574833    1.215157   -2.500443
  H      2.843514    1.260845   -2.751465
  O      4.809132    1.150187   -6.414361
  F      6.267366    0.564999   -4.819481

 Total Charge           Charge          ....    0
 Multiplicity           Mult            ....    1
 Number of Electrons    NEL             ....   78
 Basis Dimension        Dim             ....  475

ORBITAL ENERGIES
----------------

  NO   OCC          E(Eh)            E(eV)
   0   2.0000     -24.478388      -666.0908
   1   2.0000     -18.889195      -514.0011
   2   2.0000     -14.109760      -383.9461
   3   2.0000     -14.099715      -383.6728
   4   2.0000     -10.152366      -276.2599
   5   2.0000     -10.033226      -273.0180
   6   2.0000     -10.022215      -272.7183
   7   2.0000     -10.018691      -272.6224
   8   2.0000     -10.017254      -272.5833
   9   2.0000      -9.888255      -269.0731
  10   2.0000      -1.240169       -33.7467
  11   2.0000      -0.972207       -26.4551
  12   2.0000      -0.906830       -24.6761
  13   2.0000      -0.829471       -22.5711
  14   2.0000      -0.761695       -20.7268
  15   2.0000      -0.688729       -18.7413
  16   2.0000      -0.646707       -17.5978
  17   2.0000      -0.603631       -16.4256
  18   2.0000      -0.574271       -15.6267
  19   2.0000      -0.550853       -14.9895
  20   2.0000      -0.502506       -13.6739
  21   2.0000      -0.499314       -13.5870
  22   2.0000      -0.473793       -12.8926
  23   2.0000      -0.459053       -12.4915
  24   2.0000      -0.454235       -12.3604
  25   2.0000      -0.442129       -12.0309
  26   2.0000      -0.424827       -11.5601
  27   2.0000      -0.401319       -10.9204
  28   2.0000      -0.378465       -10.2986
  29   2.0000      -0.364791        -9.9265
  30   2.0000      -0.352240        -9.5849
  31   2.0000      -0.341815        -9.3013
  32   2.0000      -0.336748        -9.1634
  33   2.0000      -0.327165        -8.9026
  34   2.0000      -0.321747        -8.7552
  35   2.0000      -0.287440        -7.8216
  36   2.0000      -0.248206        -6.7540
  37   2.0000      -0.225296        -6.1306
  38   2.0000      -0.139092        -3.7849
  39   0.0000      -0.062908        -1.7118
  40   0.0000      -0.015595        -0.4244
  41   0.0000       0.000185         0.0050
  42   0.0000       0.010357         0.2818
  43   0.0000       0.015571         0.4237

MULLIKEN ATOMIC CHARGES
-----------------------
   0 C :   -0.203817
   1 N :   -0.323331
   2 C :   -0.485710
   3 C :   -0.164304
   4 H :    0.149527
   5 H :    0.175715
   6 C :    0.777702
   7 C :    0.585627
   8 C :   -1.114038
   9 N :   -0.587676
  10 H :    0.168111
  11 H :    0.208852
  12 H :    0.281607
  13 H :    0.558874
  14 H :    0.229597
  15 H :    0.270184
  16 H :    0.010827
  17 H :    0.232555
  18 H :    0.051809
  19 O :   -0.557181
  20 F :   -0.264931
Sum of atomic charges:    0.0000000

LOEWDIN ATOMIC CHARGES
----------------------
   0 C :   -0.175061
   1 N :    0.042743
   2 C :   -0.172033
   3 C :   -0.083203
   4 H :    0.113713
   5 H :    0.119015
   6 C :   -0.500464
   7 C :   -0.582489
   8 C :    0.003626
   9 N :    0.146285
  10 H :    0.110390
  11 H :    0.092099
  12 H :    0.129399
  13 H :   -0.000978
  14 H :    0.020531
  15 H :    0.115329
  16 H :    0.109732
  17 H :    0.113166
  18 H :    0.109114
  19 O :    0.107303
  20 F :    0.181782

  Mayer bond orders larger than 0.100000
B(  0-C ,  1-N ) :   0.8496 B(  0-C ,  2-C ) :   1.0169 B(  0-C ,  9-N ) :   0.1148
B(  0-C , 15-H ) :   0.8396 B(  0-C , 16-H ) :   1.0618 B(  1-N ,  7-C ) :   0.9217
B(  1-N , 12-H ) :   0.8085 B(  2-C ,  3-C ) :   0.9601 B(  2-C ,  6-C ) :   0.1109
B(  2-C , 17-H ) :   0.9074 B(  2-C , 18-H ) :   1.0060 B(  3-C ,  4-H ) :   0.9249
B(  3-C ,  5-H ) :   0.9241 B(  3-C ,  6-C ) :   1.0326 B(  6-C , 19-O ) :   1.4796
B(  6-C , 20-F ) :   0.7806 B(  7-C ,  8-C ) :   1.6217 B(  7-C ,  9-N ) :   0.6881
B(  8-C , 13-H ) :   0.6265 B(  8-C , 14-H ) :   1.1847 B(  9-N , 10-H ) :   0.9792
B(  9-N , 11-H ) :   0.9224

Dispersion correction           -0.028366584
FINAL SINGLE POINT ENERGY      -520.059146349845

DIPOLE MOMENT
-------------
                                X             Y             Z
Electronic contribution:      4.47453      -4.58880      -2.63931
Nuclear contribution   :     -6.05797       3.87976       3.55209
                        -----------------------------------------
Total Dipole Moment    :     -1.58344      -0.70904       0.91278
                        -----------------------------------------
Magnitude (a.u.)       :      1.96040
Magnitude (Debye)      :      4.98295

Rotational constants in cm-1:     0.061282     0.043164     0.033679
Rotational constants in MHz :  1837.191639  1294.028651  1009.659886

                             ****ORCA TERMINATED NORMALLY****
TOTAL RUN TIME: 0 days 0 hours 1 minutes 11 seconds 85 msec
