                         Program Version 5.0.0 -  RELEASE  -
|  1> !TPSS D3BJ RIJCOSX def2-TZVPD def2/J TightSCF xyzfile
|  2>
|  3> *xyzfile 0 1 D6.xyz
|  4>
|  5> %MaxCore 64000
|  6>
|  7> %pal nprocs 4
|  8> end
|  9>
| 10> %scf
| 11>   MaxIter 150
| 12> end
| 13>
| 14>
| 15>                          ****END OF INPUT****

CARTESIAN COORDINATES (ANGSTROEM)
---------------------------------
  C      3.905947    2.819855   -3.752920
  N      5.295615    3.131515   -4.105334
  C      3.803511    1.374716   -3.260807
  C      3.939934    0.320362   -4.367729
  H      4.105043   -0.655085   -3.907733
  H      3.022801    0.280517   -4.957117
  C      5.105846    0.668022   -5.305463
  C      5.708619    3.468885   -5.324190
  N      6.904696    3.038954   -5.717084
  C      4.981884    4.293570   -6.097457
  H      5.000546    4.101311   -7.087761
  H      4.084693    4.596899   -5.739652
  H      5.963358    2.526112   -3.642391
  H      7.047164    2.066861   -5.473604
  H      7.198145    3.307994   -6.645225
  H      3.282025    2.949187   -4.640259
  H      3.565254    3.514574   -2.982523
  H      4.574833    1.215157   -2.500443
  H      2.843514    1.260845   -2.751465
  O      4.809132    1.150187   -6.414361
  F      6.267366    0.564999   -4.819481

 Total Charge           Charge          ....    0
 Multiplicity           Mult            ....    1
 Number of Electrons    NEL             ....   78
 Basis Dimension        Dim             ....  475

ORBITAL ENERGIES
----------------

  NO   OCC          E(Eh)            E(eV)
   0   2.0000     -24.494167      -666.5202
   1   2.0000     -18.896490      -514.1996
   2   2.0000     -14.112913      -384.0319
   3   2.0000     -14.091909      -383.4603
   4   2.0000     -10.157364      -276.3959
   5   2.0000     -10.030242      -272.9368
   6   2.0000     -10.024626      -272.7839
   7   2.0000     -10.020254      -272.6650
   8   2.0000     -10.016689      -272.5680
   9   2.0000      -9.899875      -269.3893
  10   2.0000      -1.255954       -34.1762
  11   2.0000      -0.978742       -26.6329
  12   2.0000      -0.910998       -24.7895
  13   2.0000      -0.831210       -22.6184
  14   2.0000      -0.759540       -20.6681
  15   2.0000      -0.682756       -18.5787
  16   2.0000      -0.650503       -17.7011
  17   2.0000      -0.622004       -16.9256
  18   2.0000      -0.584085       -15.8938
  19   2.0000      -0.527186       -14.3455
  20   2.0000      -0.518926       -14.1207
  21   2.0000      -0.509358       -13.8603
  22   2.0000      -0.476644       -12.9701
  23   2.0000      -0.463321       -12.6076
  24   2.0000      -0.456671       -12.4267
  25   2.0000      -0.440773       -11.9940
  26   2.0000      -0.435071       -11.8389
  27   2.0000      -0.391967       -10.6660
  28   2.0000      -0.380462       -10.3529
  29   2.0000      -0.364870        -9.9286
  30   2.0000      -0.353144        -9.6095
  31   2.0000      -0.347573        -9.4579
  32   2.0000      -0.342569        -9.3218
  33   2.0000      -0.329992        -8.9795
  34   2.0000      -0.324836        -8.8392
  35   2.0000      -0.294272        -8.0076
  36   2.0000      -0.254369        -6.9217
  37   2.0000      -0.220845        -6.0095
  38   2.0000      -0.146164        -3.9773
  39   0.0000      -0.068174        -1.8551
  40   0.0000      -0.016422        -0.4469
  41   0.0000       0.008033         0.2186
  42   0.0000       0.009277         0.2524
  43   0.0000       0.017951         0.4885

MULLIKEN ATOMIC CHARGES
-----------------------
   0 C :   -0.116913
   1 N :   -0.281914
   2 C :   -0.554566
   3 C :   -0.159273
   4 H :    0.151883
   5 H :    0.170942
   6 C :    0.809432
   7 C :    0.514706
   8 N :   -0.475370
   9 C :   -1.269056
  10 H :    0.334482
  11 H :    0.364053
  12 H :    0.285254
  13 H :    0.295531
  14 H :    0.189844
  15 H :    0.271664
  16 H :    0.034387
  17 H :    0.238624
  18 H :    0.039128
  19 O :   -0.534504
  20 F :   -0.308334
Sum of atomic charges:    0.0000000

LOEWDIN ATOMIC CHARGES
----------------------
   0 C :   -0.165499
   1 N :    0.042973
   2 C :   -0.171314
   3 C :   -0.082797
   4 H :    0.113249
   5 H :    0.120847
   6 C :   -0.502862
   7 C :   -0.593672
   8 N :    0.138440
   9 C :    0.022470
  10 H :    0.015648
  11 H :    0.005841
  12 H :    0.125308
  13 H :    0.070902
  14 H :    0.114013
  15 H :    0.120333
  16 H :    0.114177
  17 H :    0.110762
  18 H :    0.110524
  19 O :    0.113217
  20 F :    0.177440

  Mayer bond orders larger than 0.100000
B(  0-C ,  1-N ) :   0.8684 B(  0-C ,  2-C ) :   1.0027 B(  0-C , 15-H ) :   0.8397
B(  0-C , 16-H ) :   1.0092 B(  1-N ,  2-C ) :   0.1059 B(  1-N ,  7-C ) :   1.0274
B(  1-N , 12-H ) :   0.7437 B(  2-C ,  3-C ) :   0.9407 B(  2-C ,  6-C ) :   0.1256
B(  2-C , 17-H ) :   0.8990 B(  2-C , 18-H ) :   1.0179 B(  3-C ,  4-H ) :   0.9264
B(  3-C ,  5-H ) :   0.9213 B(  3-C ,  6-C ) :   1.0492 B(  6-C , 19-O ) :   1.4814
B(  6-C , 20-F ) :   0.7073 B(  7-C ,  8-N ) :   0.7433 B(  7-C ,  9-C ) :   1.4708
B(  8-N ,  9-C ) :   0.1392 B(  8-N , 13-H ) :   0.7960 B(  8-N , 14-H ) :   0.9109
B(  9-C , 10-H ) :   0.9067 B(  9-C , 11-H ) :   0.9076

Dispersion correction           -0.028366971
FINAL SINGLE POINT ENERGY      -520.069552999450

DIPOLE MOMENT
-------------
                                X             Y             Z
Electronic contribution:      5.99226      -5.54848      -2.36493
Nuclear contribution   :     -6.29470       4.03423       3.50525
                        -----------------------------------------
Total Dipole Moment    :     -0.30245      -1.51425       1.14032
                        -----------------------------------------
Magnitude (a.u.)       :      1.91957
Magnitude (Debye)      :      4.87917

Rotational constants in cm-1:     0.061094     0.043661     0.033867
Rotational constants in MHz :  1831.559881  1308.929520  1015.295167

                             ****ORCA TERMINATED NORMALLY****
TOTAL RUN TIME: 0 days 0 hours 1 minutes 11 seconds 107 msec
