                         Program Version 5.0.0 -  RELEASE  -
|  1> !wB97X-D3 RIJCOSX def2-SVP def2/J TightSCF
|  2> *xyz -1 1
|  3> C          0.70466        1.44313       -4.50363
|  4> C          1.72854        1.42432       -5.63944
|  5> H          2.64672        1.95379       -5.38105
|  6> H          1.29992        1.93061       -6.50361
|  7> S          2.25263       -0.18811       -6.27184
|  8> O          3.56261       -0.44446       -5.63155
|  9> O          2.34494       -0.03374       -7.69650
| 10> C          1.05255        0.69566       -3.21491
| 11> H         -0.23248        1.03293       -4.88445
| 12> H          0.51170        2.49579       -4.26797
| 13> O          1.26606       -1.15918       -5.80536
| 14> H          1.24200       -0.33323       -3.43942
| 15> H          0.23391        0.76629       -2.52954
| 16> H          1.92506        1.13113       -2.77446
| 17> *
| 18>
| 19> %MaxCore 64000
| 20>
| 21> %pal nprocs 8
| 22> end
| 23>
| 24> %scf
| 25>   MaxIter 150
| 26> end
| 27>
| 28>
| 29>                          ****END OF INPUT****

CARTESIAN COORDINATES (ANGSTROEM)
---------------------------------
  C      0.704660    1.443130   -4.503630
  C      1.728540    1.424320   -5.639440
  H      2.646720    1.953790   -5.381050
  H      1.299920    1.930610   -6.503610
  S      2.252630   -0.188110   -6.271840
  O      3.562610   -0.444460   -5.631550
  O      2.344940   -0.033740   -7.696500
  C      1.052550    0.695660   -3.214910
  H     -0.232480    1.032930   -4.884450
  H      0.511700    2.495790   -4.267970
  O      1.266060   -1.159180   -5.805360
  H      1.242000   -0.333230   -3.439420
  H      0.233910    0.766290   -2.529540
  H      1.925060    1.131130   -2.774460

 Total Charge           Charge          ....   -1
 Multiplicity           Mult            ....    1
 Number of Electrons    NEL             ....   66
 Basis Dimension        Dim             ....  137

ORBITAL ENERGIES
----------------

  NO   OCC          E(Eh)            E(eV)
   0   2.0000     -88.941263     -2420.2148
   1   2.0000     -18.995691      -516.8990
   2   2.0000     -18.991051      -516.7728
   3   2.0000     -18.977323      -516.3992
   4   2.0000     -10.155694      -276.3505
   5   2.0000     -10.138724      -275.8887
   6   2.0000     -10.137824      -275.8642
   7   2.0000      -8.021963      -218.2887
   8   2.0000      -5.981039      -162.7524
   9   2.0000      -5.980703      -162.7432
  10   2.0000      -5.980678      -162.7425
  11   2.0000      -1.022966       -27.8363
  12   2.0000      -0.879698       -23.9378
  13   2.0000      -0.854112       -23.2416
  14   2.0000      -0.760676       -20.6990
  15   2.0000      -0.669299       -18.2125
  16   2.0000      -0.570335       -15.5196
  17   2.0000      -0.469864       -12.7857
  18   2.0000      -0.423911       -11.5352
  19   2.0000      -0.412306       -11.2194
  20   2.0000      -0.381809       -10.3896
  21   2.0000      -0.368319       -10.0225
  22   2.0000      -0.342616        -9.3231
  23   2.0000      -0.333539        -9.0761
  24   2.0000      -0.311156        -8.4670
  25   2.0000      -0.304804        -8.2941
  26   2.0000      -0.291078        -7.9206
  27   2.0000      -0.222306        -6.0493
  28   2.0000      -0.220951        -6.0124
  29   2.0000      -0.186785        -5.0827
  30   2.0000      -0.178771        -4.8646
  31   2.0000      -0.167376        -4.5545
  32   2.0000      -0.132229        -3.5981
  33   0.0000       0.270694         7.3660
  34   0.0000       0.318993         8.6803
  35   0.0000       0.322164         8.7665
  36   0.0000       0.345899         9.4124
  37   0.0000       0.356453         9.6996

MULLIKEN ATOMIC CHARGES
-----------------------
   0 C :   -0.067284
   1 C :   -0.093369
   2 H :    0.021766
   3 H :    0.016730
   4 S :    0.890480
   5 O :   -0.627482
   6 O :   -0.574647
   7 C :   -0.005028
   8 H :    0.015228
   9 H :   -0.019539
  10 O :   -0.589822
  11 H :    0.054524
  12 H :   -0.018734
  13 H :   -0.002824
Sum of atomic charges:   -1.0000000

LOEWDIN ATOMIC CHARGES
----------------------
   0 C :   -0.056009
   1 C :   -0.188916
   2 H :    0.012634
   3 H :    0.011975
   4 S :    1.106142
   5 O :   -0.657765
   6 O :   -0.605116
   7 C :   -0.063339
   8 H :    0.017794
   9 H :    0.004351
  10 O :   -0.624215
  11 H :    0.027354
  12 H :    0.004642
  13 H :    0.010468

  Mayer bond orders larger than 0.100000
B(  0-C ,  1-C ) :   1.0589 B(  0-C ,  7-C ) :   1.0802 B(  0-C ,  8-H ) :   0.9509
B(  0-C ,  9-H ) :   0.9504 B(  1-C ,  2-H ) :   0.9437 B(  1-C ,  3-H ) :   0.9450
B(  1-C ,  4-S ) :   0.8884 B(  4-S ,  5-O ) :   1.5897 B(  4-S ,  6-O ) :   1.6520
B(  4-S , 10-O ) :   1.6038 B(  7-C , 11-H ) :   0.9618 B(  7-C , 12-H ) :   0.9695
B(  7-C , 13-H ) :   0.9733

Dispersion correction           -0.004507072
FINAL SINGLE POINT ENERGY      -741.912301920197

DIPOLE MOMENT
-------------
                                X             Y             Z
Electronic contribution:      4.45923      -5.75259      -8.12278
Nuclear contribution   :     -5.44810       7.35485       9.25157
                        -----------------------------------------
Total Dipole Moment    :     -0.98887       1.60226       1.12879
                        -----------------------------------------
Magnitude (a.u.)       :      2.19528
Magnitude (Debye)      :      5.57997

Rotational constants in cm-1:     0.135801     0.054229     0.051056
Rotational constants in MHz :  4071.225075  1625.746654  1530.611411

                             ****ORCA TERMINATED NORMALLY****
TOTAL RUN TIME: 0 days 0 hours 0 minutes 12 seconds 368 msec
