                         Program Version 5.0.0 -  RELEASE  -
|  1> !wB97X-D3 RIJCOSX def2-SVP def2/J TightSCF
|  2> *xyz 1 1
|  3> C          2.91632       -1.24259       -1.54313
|  4> C          3.46659       -1.59097       -2.88908
|  5> N          4.65227       -1.14316       -3.25969
|  6> N          2.75226       -2.29204       -3.72803
|  7> H          1.77836       -2.48960       -3.51274
|  8> H          2.94861       -2.20854       -4.71681
|  9> H          5.14672       -0.51251       -2.63385
| 10> H          4.78303       -1.00720       -4.25350
| 11> C          2.80408        0.29070       -1.35924
| 12> C          2.38838        1.09367       -2.59711
| 13> H          3.76342        0.67472       -0.99989
| 14> H          2.09479        0.46122       -0.54576
| 15> H          1.94047       -1.71653       -1.44116
| 16> H          3.55857       -1.66343       -0.76637
| 17> H          3.08894        0.91965       -3.38694
| 18> H          2.37301        2.13633       -2.35728
| 19> H          1.41303        0.78551       -2.91115
| 20> *
| 21>
| 22> %MaxCore 64000
| 23>
| 24> %pal nprocs 8
| 25> end
| 26>
| 27> %scf
| 28>   MaxIter 150
| 29> end
| 30>
| 31>
| 32>                          ****END OF INPUT****

CARTESIAN COORDINATES (ANGSTROEM)
---------------------------------
  C      2.916320   -1.242590   -1.543130
  C      3.466590   -1.590970   -2.889080
  N      4.652270   -1.143160   -3.259690
  N      2.752260   -2.292040   -3.728030
  H      1.778360   -2.489600   -3.512740
  H      2.948610   -2.208540   -4.716810
  H      5.146720   -0.512510   -2.633850
  H      4.783030   -1.007200   -4.253500
  C      2.804080    0.290700   -1.359240
  C      2.388380    1.093670   -2.597110
  H      3.763420    0.674720   -0.999890
  H      2.094790    0.461220   -0.545760
  H      1.940470   -1.716530   -1.441160
  H      3.558570   -1.663430   -0.766370
  H      3.088940    0.919650   -3.386940
  H      2.373010    2.136330   -2.357280
  H      1.413030    0.785510   -2.911150

 Total Charge           Charge          ....    1
 Multiplicity           Mult            ....    1
 Number of Electrons    NEL             ....   48
 Basis Dimension        Dim             ....  139

ORBITAL ENERGIES
----------------

  NO   OCC          E(Eh)            E(eV)
   0   2.0000     -14.683963      -399.5709
   1   2.0000     -14.678054      -399.4102
   2   2.0000     -10.613566      -288.8098
   3   2.0000     -10.485919      -285.3364
   4   2.0000     -10.456070      -284.5241
   5   2.0000     -10.425936      -283.7042
   6   2.0000      -1.320420       -35.9305
   7   2.0000      -1.217240       -33.1228
   8   2.0000      -1.087585       -29.5947
   9   2.0000      -1.001129       -27.2421
  10   2.0000      -0.941886       -25.6300
  11   2.0000      -0.890881       -24.2421
  12   2.0000      -0.871704       -23.7203
  13   2.0000      -0.836932       -22.7741
  14   2.0000      -0.796853       -21.6835
  15   2.0000      -0.768841       -20.9212
  16   2.0000      -0.732071       -19.9207
  17   2.0000      -0.692599       -18.8466
  18   2.0000      -0.675577       -18.3834
  19   2.0000      -0.663414       -18.0524
  20   2.0000      -0.607082       -16.5195
  21   2.0000      -0.602565       -16.3966
  22   2.0000      -0.593062       -16.1380
  23   2.0000      -0.584656       -15.9093
  24   0.0000      -0.131678        -3.5832
  25   0.0000      -0.055825        -1.5191
  26   0.0000      -0.015120        -0.4114
  27   0.0000      -0.009904        -0.2695
  28   0.0000       0.019967         0.5433

MULLIKEN ATOMIC CHARGES
-----------------------
   0 C :    0.044217
   1 C :   -0.097465
   2 N :   -0.012760
   3 N :    0.003837
   4 H :    0.194484
   5 H :    0.179390
   6 H :    0.194152
   7 H :    0.183999
   8 C :   -0.168370
   9 C :   -0.000823
  10 H :    0.065704
  11 H :    0.094654
  12 H :    0.064348
  13 H :    0.119042
  14 H :    0.002527
  15 H :    0.086872
  16 H :    0.046190
Sum of atomic charges:    1.0000000

LOEWDIN ATOMIC CHARGES
----------------------
   0 C :   -0.034696
   1 C :    0.159649
   2 N :    0.085742
   3 N :    0.099936
   4 H :    0.123094
   5 H :    0.113129
   6 H :    0.120960
   7 H :    0.110820
   8 C :   -0.031151
   9 C :   -0.052980
  10 H :    0.034283
  11 H :    0.054995
  12 H :    0.051674
  13 H :    0.073168
  14 H :    0.009273
  15 H :    0.051261
  16 H :    0.030845

  Mayer bond orders larger than 0.100000
B(  0-C ,  1-C ) :   1.0156 B(  0-C ,  8-C ) :   1.0266 B(  0-C , 12-H ) :   0.9250
B(  0-C , 13-H ) :   0.9222 B(  1-C ,  2-N ) :   1.4772 B(  1-C ,  3-N ) :   1.5253
B(  2-N ,  6-H ) :   0.9247 B(  2-N ,  7-H ) :   0.9285 B(  3-N ,  4-H ) :   0.9178
B(  3-N ,  5-H ) :   0.9286 B(  8-C ,  9-C ) :   1.0824 B(  8-C , 10-H ) :   0.9525
B(  8-C , 11-H ) :   0.9502 B(  9-C , 14-H ) :   0.9531 B(  9-C , 15-H ) :   0.9652
B(  9-C , 16-H ) :   0.9735

Dispersion correction           -0.004872023
FINAL SINGLE POINT ENERGY      -268.075785950972

DIPOLE MOMENT
-------------
                                X             Y             Z
Electronic contribution:      2.03954      -4.56974      -1.93305
Nuclear contribution   :     -1.81078       3.96608       0.97433
                        -----------------------------------------
Total Dipole Moment    :      0.22877      -0.60366      -0.95872
                        -----------------------------------------
Magnitude (a.u.)       :      1.15581
Magnitude (Debye)      :      2.93783

Rotational constants in cm-1:     0.170042     0.080945     0.078209
Rotational constants in MHz :  5097.737821  2426.678005  2344.636232

                             ****ORCA TERMINATED NORMALLY****
TOTAL RUN TIME: 0 days 0 hours 0 minutes 13 seconds 325 msec
