                         Program Version 5.0.0 -  RELEASE  -
|  1> !wB97X-D3 RIJCOSX def2-SVP def2/J TightSCF xyzfile
|  2>
|  3> *xyzfile 0 1 B.xyz
|  4>
|  5> %MaxCore 64000
|  6>
|  7> %pal nprocs 18
|  8> end
|  9>
| 10> %scf
| 11>   MaxIter 150
| 12> end
| 13>
| 14>
| 15>                          ****END OF INPUT****

CARTESIAN COORDINATES (ANGSTROEM)
---------------------------------
  C      2.916324   -1.242589   -1.543125
  C      0.704661    1.443129   -4.503630
  C      1.728539    1.424320   -5.639443
  H      2.646718    1.953794   -5.381054
  H      1.299916    1.930613   -6.503614
  S      2.252625   -0.188115   -6.271840
  C      3.466585   -1.590971   -2.889082
  N      4.652275   -1.143164   -3.259692
  N      2.752264   -2.292043   -3.728029
  H      1.778364   -2.489604   -3.512738
  H      2.948612   -2.208544   -4.716813
  H      5.146723   -0.512508   -2.633852
  H      4.783030   -1.007203   -4.253498
  O      3.562607   -0.444464   -5.631552
  O      2.344944   -0.033742   -7.696501
  C      2.804084    0.290698   -1.359243
  C      1.052550    0.695659   -3.214915
  H     -0.232483    1.032925   -4.884449
  H      0.511700    2.495794   -4.267966
  C      2.388380    1.093669   -2.597108
  H      3.763425    0.674718   -0.999889
  H      2.094788    0.461222   -0.545756
  O      1.266058   -1.159177   -5.805365
  H      3.167316    1.013242   -3.359430
  H      2.357690    2.149375   -2.310997
  H      1.039284   -0.368429   -3.449329
  H      0.250787    0.865605   -2.488283
  H      1.940472   -1.716529   -1.441161
  H      3.558569   -1.663433   -0.766371

 Total Charge           Charge          ....    0
 Multiplicity           Mult            ....    1
 Number of Electrons    NEL             ....  112
 Basis Dimension        Dim             ....  266

ORBITAL ENERGIES
----------------

  NO   OCC          E(Eh)            E(eV)
   0   2.0000     -89.104610     -2424.6597
   1   2.0000     -19.165785      -521.5275
   2   2.0000     -19.157256      -521.2954
   3   2.0000     -19.145010      -520.9622
   4   2.0000     -14.507816      -394.7777
   5   2.0000     -14.507371      -394.7656
   6   2.0000     -10.450957      -284.3850
   7   2.0000     -10.354595      -281.7628
   8   2.0000     -10.333657      -281.1931
   9   2.0000     -10.304210      -280.3918
  10   2.0000     -10.290511      -280.0190
  11   2.0000     -10.285711      -279.8884
  12   2.0000     -10.277966      -279.6777
  13   2.0000      -8.185313      -222.7337
  14   2.0000      -6.145063      -167.2157
  15   2.0000      -6.144026      -167.1875
  16   2.0000      -6.143286      -167.1673
  17   2.0000      -1.189064       -32.3561
  18   2.0000      -1.151150       -31.3244
  19   2.0000      -1.048698       -28.5365
  20   2.0000      -1.037666       -28.2363
  21   2.0000      -1.033745       -28.1296
  22   2.0000      -0.959192       -26.1010
  23   2.0000      -0.910565       -24.7777
  24   2.0000      -0.862292       -23.4641
  25   2.0000      -0.807414       -21.9709
  26   2.0000      -0.777201       -21.1487
  27   2.0000      -0.743275       -20.2255
  28   2.0000      -0.705964       -19.2103
  29   2.0000      -0.694891       -18.9090
  30   2.0000      -0.683672       -18.6037
  31   2.0000      -0.637940       -17.3592
  32   2.0000      -0.625977       -17.0337
  33   2.0000      -0.612474       -16.6663
  34   2.0000      -0.598068       -16.2743
  35   2.0000      -0.571668       -15.5559
  36   2.0000      -0.563235       -15.3264
  37   2.0000      -0.544945       -14.8287
  38   2.0000      -0.531418       -14.4606
  39   2.0000      -0.527567       -14.3558
  40   2.0000      -0.522655       -14.2222
  41   2.0000      -0.508881       -13.8474
  42   2.0000      -0.495239       -13.4761
  43   2.0000      -0.480159       -13.0658
  44   2.0000      -0.471734       -12.8365
  45   2.0000      -0.466808       -12.7025
  46   2.0000      -0.438390       -11.9292
  47   2.0000      -0.431304       -11.7364
  48   2.0000      -0.417810       -11.3692
  49   2.0000      -0.414942       -11.2911
  50   2.0000      -0.388837       -10.5808
  51   2.0000      -0.384581       -10.4650
  52   2.0000      -0.348299        -9.4777
  53   2.0000      -0.341849        -9.3022
  54   2.0000      -0.331869        -9.0306
  55   2.0000      -0.303357        -8.2548
  56   0.0000       0.028529         0.7763
  57   0.0000       0.089179         2.4267
  58   0.0000       0.121693         3.3114
  59   0.0000       0.142693         3.8829
  60   0.0000       0.153511         4.1772

MULLIKEN ATOMIC CHARGES
-----------------------
   0 C :    0.049552
   1 C :   -0.007942
   2 C :   -0.123224
   3 H :    0.051137
   4 H :    0.066979
   5 S :    0.915319
   6 C :   -0.117649
   7 N :   -0.010811
   8 N :    0.034784
   9 H :    0.176058
  10 H :    0.167985
  11 H :    0.156504
  12 H :    0.184159
  13 O :   -0.638847
  14 O :   -0.509940
  15 C :   -0.067816
  16 C :   -0.031962
  17 H :    0.044454
  18 H :    0.020725
  19 C :   -0.040596
  20 H :    0.035508
  21 H :    0.049226
  22 O :   -0.577537
  23 H :    0.016891
  24 H :    0.031461
  25 H :   -0.009254
  26 H :    0.017598
  27 H :    0.041336
  28 H :    0.075900
Sum of atomic charges:    0.0000000

LOEWDIN ATOMIC CHARGES
----------------------
   0 C :   -0.040910
   1 C :   -0.044282
   2 C :   -0.176321
   3 H :    0.020995
   4 H :    0.035080
   5 S :    1.126735
   6 C :    0.140486
   7 N :    0.070981
   8 N :    0.113196
   9 H :    0.104239
  10 H :    0.081626
  11 H :    0.098216
  12 H :    0.087964
  13 O :   -0.629948
  14 O :   -0.550885
  15 C :   -0.029903
  16 C :   -0.048842
  17 H :    0.033695
  18 H :    0.024353
  19 C :   -0.049752
  20 H :    0.024838
  21 H :    0.036587
  22 O :   -0.600765
  23 H :    0.017291
  24 H :    0.030812
  25 H :    0.007374
  26 H :    0.022287
  27 H :    0.041379
  28 H :    0.053474

  Mayer bond orders larger than 0.100000
B(  0-C ,  6-C ) :   1.0234 B(  0-C , 15-C ) :   1.0419 B(  0-C , 27-H ) :   0.9235
B(  0-C , 28-H ) :   0.9265 B(  1-C ,  2-C ) :   1.0566 B(  1-C , 16-C ) :   1.0816
B(  1-C , 17-H ) :   0.9436 B(  1-C , 18-H ) :   0.9458 B(  2-C ,  3-H ) :   0.9398
B(  2-C ,  4-H ) :   0.9425 B(  2-C ,  5-S ) :   0.8926 B(  5-S , 13-O ) :   1.4145
B(  5-S , 14-O ) :   1.7358 B(  5-S , 22-O ) :   1.5736 B(  6-C ,  7-N ) :   1.4784
B(  6-C ,  8-N ) :   1.5752 B(  7-N , 11-H ) :   0.9364 B(  7-N , 12-H ) :   0.8885
B(  8-N ,  9-H ) :   0.9192 B(  8-N , 10-H ) :   0.8797 B( 15-C , 19-C ) :   1.0861
B( 15-C , 20-H ) :   0.9504 B( 15-C , 21-H ) :   0.9479 B( 16-C , 19-C ) :   1.0567
B( 16-C , 25-H ) :   0.9315 B( 16-C , 26-H ) :   0.9451 B( 19-C , 23-H ) :   0.9201
B( 19-C , 24-H ) :   0.9407

Dispersion correction           -0.016427544
FINAL SINGLE POINT ENERGY     -1008.976315185252

DIPOLE MOMENT
-------------
                                X             Y             Z
Electronic contribution:      2.83331      -6.38686     -13.35512
Nuclear contribution   :     -1.90023       6.18953      17.82209
                        -----------------------------------------
Total Dipole Moment    :      0.93307      -0.19733       4.46697
                        -----------------------------------------
Magnitude (a.u.)       :      4.56765
Magnitude (Debye)      :     11.61004

Rotational constants in cm-1:     0.036337     0.018755     0.015005
Rotational constants in MHz :  1089.341704   562.266628   449.834770

                             ****ORCA TERMINATED NORMALLY****
TOTAL RUN TIME: 0 days 0 hours 0 minutes 25 seconds 504 msec
