                         Program Version 5.0.0 -  RELEASE  -
|  1> !wB97X-D3 RIJCOSX def2-SVP def2/J TightSCF
|  2> *xyz 0 1
|  3> C          0.70466        1.44313       -4.50363
|  4> C          1.72854        1.42432       -5.63944
|  5> H          2.64672        1.95379       -5.38105
|  6> H          1.29992        1.93061       -6.50361
|  7> S          2.25263       -0.18811       -6.27184
|  8> F          3.56261       -0.44446       -5.63155
|  9> O          2.34494       -0.03374       -7.69650
| 10> C          1.05255        0.69566       -3.21491
| 11> H         -0.23248        1.03293       -4.88445
| 12> H          0.51170        2.49579       -4.26797
| 13> O          1.26606       -1.15918       -5.80536
| 14> H          1.24200       -0.33323       -3.43942
| 15> H          0.23391        0.76629       -2.52954
| 16> H          1.92506        1.13113       -2.77446
| 17> *
| 18>
| 19> %MaxCore 64000
| 20>
| 21> %pal nprocs 8
| 22> end
| 23>
| 24> %scf
| 25>   MaxIter 150
| 26> end
| 27>
| 28>
| 29>                          ****END OF INPUT****

CARTESIAN COORDINATES (ANGSTROEM)
---------------------------------
  C      0.704660    1.443130   -4.503630
  C      1.728540    1.424320   -5.639440
  H      2.646720    1.953790   -5.381050
  H      1.299920    1.930610   -6.503610
  S      2.252630   -0.188110   -6.271840
  F      3.562610   -0.444460   -5.631550
  O      2.344940   -0.033740   -7.696500
  C      1.052550    0.695660   -3.214910
  H     -0.232480    1.032930   -4.884450
  H      0.511700    2.495790   -4.267970
  O      1.266060   -1.159180   -5.805360
  H      1.242000   -0.333230   -3.439420
  H      0.233910    0.766290   -2.529540
  H      1.925060    1.131130   -2.774460

 Total Charge           Charge          ....    0
 Multiplicity           Mult            ....    1
 Number of Electrons    NEL             ....   66
 Basis Dimension        Dim             ....  137

ORBITAL ENERGIES
----------------

  NO   OCC          E(Eh)            E(eV)
   0   2.0000     -89.212004     -2427.5820
   1   2.0000     -24.887318      -677.2183
   2   2.0000     -19.245663      -523.7011
   3   2.0000     -19.239397      -523.5306
   4   2.0000     -10.346396      -281.5397
   5   2.0000     -10.316775      -280.7337
   6   2.0000     -10.286931      -279.9216
   7   2.0000      -8.294858      -225.7146
   8   2.0000      -6.257844      -170.2846
   9   2.0000      -6.251472      -170.1112
  10   2.0000      -6.250442      -170.0832
  11   2.0000      -1.454737       -39.5854
  12   2.0000      -1.223721       -33.2991
  13   2.0000      -1.123983       -30.5851
  14   2.0000      -0.941605       -25.6224
  15   2.0000      -0.859777       -23.3957
  16   2.0000      -0.802776       -21.8447
  17   2.0000      -0.739149       -20.1133
  18   2.0000      -0.671808       -18.2808
  19   2.0000      -0.663934       -18.0666
  20   2.0000      -0.649010       -17.6605
  21   2.0000      -0.595828       -16.2133
  22   2.0000      -0.580566       -15.7980
  23   2.0000      -0.551268       -15.0008
  24   2.0000      -0.540386       -14.7047
  25   2.0000      -0.532985       -14.5033
  26   2.0000      -0.486264       -13.2319
  27   2.0000      -0.476298       -12.9607
  28   2.0000      -0.466573       -12.6961
  29   2.0000      -0.453257       -12.3337
  30   2.0000      -0.423463       -11.5230
  31   2.0000      -0.413947       -11.2641
  32   2.0000      -0.403151       -10.9703
  33   0.0000       0.120869         3.2890
  34   0.0000       0.123639         3.3644
  35   0.0000       0.159649         4.3443
  36   0.0000       0.169355         4.6084
  37   0.0000       0.182986         4.9793

MULLIKEN ATOMIC CHARGES
-----------------------
   0 C :   -0.087273
   1 C :   -0.141960
   2 H :    0.077940
   3 H :    0.104889
   4 S :    0.975739
   5 F :   -0.214374
   6 O :   -0.440308
   7 C :   -0.036444
   8 H :    0.059514
   9 H :    0.048144
  10 O :   -0.461161
  11 H :    0.049024
  12 H :    0.042008
  13 H :    0.024262
Sum of atomic charges:    0.0000000

LOEWDIN ATOMIC CHARGES
----------------------
   0 C :   -0.050015
   1 C :   -0.154001
   2 H :    0.034284
   3 H :    0.052556
   4 S :    1.171173
   5 F :   -0.158467
   6 O :   -0.480458
   7 C :   -0.059159
   8 H :    0.035533
   9 H :    0.036457
  10 O :   -0.502036
  11 H :    0.022777
  12 H :    0.031616
  13 H :    0.019739

  Mayer bond orders larger than 0.100000
B(  0-C ,  1-C ) :   1.0468 B(  0-C ,  7-C ) :   1.0791 B(  0-C ,  8-H ) :   0.9523
B(  0-C ,  9-H ) :   0.9467 B(  1-C ,  2-H ) :   0.9345 B(  1-C ,  3-H ) :   0.9399
B(  1-C ,  4-S ) :   0.9060 B(  4-S ,  5-F ) :   0.9792 B(  4-S ,  6-O ) :   1.8032
B(  4-S , 10-O ) :   1.7626 B(  7-C , 11-H ) :   0.9702 B(  7-C , 12-H ) :   0.9708
B(  7-C , 13-H ) :   0.9768

Dispersion correction           -0.004443396
FINAL SINGLE POINT ENERGY      -766.428289818829

DIPOLE MOMENT
-------------
                                X             Y             Z
Electronic contribution:      7.41618      -6.74121      -8.26625
Nuclear contribution   :     -7.21372       8.00417       9.21533
                        -----------------------------------------
Total Dipole Moment    :      0.20246       1.26296       0.94908
                        -----------------------------------------
Magnitude (a.u.)       :      1.59273
Magnitude (Debye)      :      4.04841

Rotational constants in cm-1:     0.129205     0.053290     0.050128
Rotational constants in MHz :  3873.458819  1597.595736  1502.810344

                             ****ORCA TERMINATED NORMALLY****
TOTAL RUN TIME: 0 days 0 hours 0 minutes 13 seconds 401 msec
