                         Program Version 5.0.0 -  RELEASE  -
|  1> !wB97X-D3 RIJCOSX def2-SVP def2/J TightSCF
|  2> *xyz 0 1
|  3> C          2.91632       -1.24259       -1.54313
|  4> C          3.46659       -1.59097       -2.88908
|  5> C          4.65227       -1.14316       -3.25969
|  6> N          2.75226       -2.29204       -3.72803
|  7> H          1.77836       -2.48960       -3.51274
|  8> H          2.94861       -2.20854       -4.71681
|  9> H          5.14672       -0.51251       -2.63385
| 10> H          4.78303       -1.00720       -4.25350
| 11> C          2.80408        0.29070       -1.35924
| 12> C          2.38838        1.09367       -2.59711
| 13> H          3.76342        0.67472       -0.99989
| 14> H          2.09479        0.46122       -0.54576
| 15> H          1.94047       -1.71653       -1.44116
| 16> H          3.55857       -1.66343       -0.76637
| 17> H          3.08894        0.91965       -3.38694
| 18> H          2.37301        2.13633       -2.35728
| 19> H          1.41303        0.78551       -2.91115
| 20> *
| 21>
| 22> %MaxCore 64000
| 23>
| 24> %pal nprocs 8
| 25> end
| 26>
| 27> %scf
| 28>   MaxIter 150
| 29> end
| 30>
| 31>
| 32>                          ****END OF INPUT****

CARTESIAN COORDINATES (ANGSTROEM)
---------------------------------
  C      2.916320   -1.242590   -1.543130
  C      3.466590   -1.590970   -2.889080
  C      4.652270   -1.143160   -3.259690
  N      2.752260   -2.292040   -3.728030
  H      1.778360   -2.489600   -3.512740
  H      2.948610   -2.208540   -4.716810
  H      5.146720   -0.512510   -2.633850
  H      4.783030   -1.007200   -4.253500
  C      2.804080    0.290700   -1.359240
  C      2.388380    1.093670   -2.597110
  H      3.763420    0.674720   -0.999890
  H      2.094790    0.461220   -0.545760
  H      1.940470   -1.716530   -1.441160
  H      3.558570   -1.663430   -0.766370
  H      3.088940    0.919650   -3.386940
  H      2.373010    2.136330   -2.357280
  H      1.413030    0.785510   -2.911150

 Total Charge           Charge          ....    0
 Multiplicity           Mult            ....    1
 Number of Electrons    NEL             ....   48
 Basis Dimension        Dim             ....  139

ORBITAL ENERGIES
----------------

  NO   OCC          E(Eh)            E(eV)
   0   2.0000     -14.433987      -392.7688
   1   2.0000     -10.305733      -280.4333
   2   2.0000     -10.288191      -279.9559
   3   2.0000     -10.285532      -279.8836
   4   2.0000     -10.267014      -279.3796
   5   2.0000     -10.211910      -277.8802
   6   2.0000      -1.041426       -28.3386
   7   2.0000      -0.903170       -24.5765
   8   2.0000      -0.832877       -22.6637
   9   2.0000      -0.793471       -21.5914
  10   2.0000      -0.710375       -19.3303
  11   2.0000      -0.658810       -17.9271
  12   2.0000      -0.616786       -16.7836
  13   2.0000      -0.581529       -15.8242
  14   2.0000      -0.555013       -15.1027
  15   2.0000      -0.532662       -14.4945
  16   2.0000      -0.497588       -13.5401
  17   2.0000      -0.481233       -13.0950
  18   2.0000      -0.460036       -12.5182
  19   2.0000      -0.457023       -12.4362
  20   2.0000      -0.428629       -11.6636
  21   2.0000      -0.417794       -11.3688
  22   2.0000      -0.413886       -11.2624
  23   2.0000      -0.271027        -7.3750
  24   0.0000       0.124896         3.3986
  25   0.0000       0.134201         3.6518
  26   0.0000       0.172391         4.6910
  27   0.0000       0.178805         4.8655
  28   0.0000       0.197119         5.3639

MULLIKEN ATOMIC CHARGES
-----------------------
   0 C :    0.087168
   1 C :   -0.204133
   2 C :   -0.043495
   3 N :   -0.081569
   4 H :    0.114454
   5 H :    0.122702
   6 H :   -0.026443
   7 H :   -0.031405
   8 C :   -0.119957
   9 C :    0.017506
  10 H :    0.033206
  11 H :    0.024595
  12 H :   -0.004299
  13 H :    0.050987
  14 H :    0.024263
  15 H :    0.028654
  16 H :    0.007766
Sum of atomic charges:   -0.0000000

LOEWDIN ATOMIC CHARGES
----------------------
   0 C :   -0.031925
   1 C :    0.009185
   2 C :   -0.189122
   3 N :   -0.001904
   4 H :    0.069382
   5 H :    0.077910
   6 H :   -0.002581
   7 H :   -0.007137
   8 C :   -0.035586
   9 C :   -0.058018
  10 H :    0.023732
  11 H :    0.022268
  12 H :    0.016685
  13 H :    0.043053
  14 H :    0.023235
  15 H :    0.024410
  16 H :    0.016415

  Mayer bond orders larger than 0.100000
B(  0-C ,  1-C ) :   1.0000 B(  0-C ,  8-C ) :   1.0635 B(  0-C , 12-H ) :   0.9360
B(  0-C , 13-H ) :   0.9385 B(  1-C ,  2-C ) :   1.8438 B(  1-C ,  3-N ) :   1.2666
B(  2-C ,  6-H ) :   0.9572 B(  2-C ,  7-H ) :   0.9588 B(  3-N ,  4-H ) :   0.9499
B(  3-N ,  5-H ) :   0.9498 B(  8-C ,  9-C ) :   1.0944 B(  8-C , 10-H ) :   0.9538
B(  8-C , 11-H ) :   0.9577 B(  9-C , 14-H ) :   0.9551 B(  9-C , 15-H ) :   0.9714
B(  9-C , 16-H ) :   0.9728

Dispersion correction           -0.004829793
FINAL SINGLE POINT ENERGY      -251.611455396203

DIPOLE MOMENT
-------------
                                X             Y             Z
Electronic contribution:      0.53870      -3.85169      -0.97170
Nuclear contribution   :     -1.45921       3.88617       0.81775
                        -----------------------------------------
Total Dipole Moment    :     -0.92051       0.03447      -0.15395
                        -----------------------------------------
Magnitude (a.u.)       :      0.93393
Magnitude (Debye)      :      2.37387

Rotational constants in cm-1:     0.176264     0.082132     0.079980
Rotational constants in MHz :  5284.261828  2462.256672  2397.741351

                             ****ORCA TERMINATED NORMALLY****
TOTAL RUN TIME: 0 days 0 hours 0 minutes 14 seconds 396 msec
