                         Program Version 5.0.0 -  RELEASE  -
|  1> !wB97X-D3 RIJCOSX def2-SVP def2/J TightSCF
|  2> *xyz 0 1
|  3> C          0.70466        1.44313       -4.50363
|  4> C          1.72854        1.42432       -5.63944
|  5> H          2.64672        1.95379       -5.38105
|  6> H          1.29992        1.93061       -6.50361
|  7> S          2.25263       -0.18811       -6.27184
|  8> O          3.56261       -0.44446       -5.63155
|  9> F          2.34494       -0.03374       -7.69650
| 10> C          1.05255        0.69566       -3.21491
| 11> H         -0.23248        1.03293       -4.88445
| 12> H          0.51170        2.49579       -4.26797
| 13> O          1.26606       -1.15918       -5.80536
| 14> H          1.24200       -0.33323       -3.43942
| 15> H          0.23391        0.76629       -2.52954
| 16> H          1.92506        1.13113       -2.77446
| 17> *
| 18>
| 19> %MaxCore 64000
| 20>
| 21> %pal nprocs 8
| 22> end
| 23>
| 24> %scf
| 25>   MaxIter 150
| 26> end
| 27>
| 28>
| 29>                          ****END OF INPUT****

CARTESIAN COORDINATES (ANGSTROEM)
---------------------------------
  C      0.704660    1.443130   -4.503630
  C      1.728540    1.424320   -5.639440
  H      2.646720    1.953790   -5.381050
  H      1.299920    1.930610   -6.503610
  S      2.252630   -0.188110   -6.271840
  O      3.562610   -0.444460   -5.631550
  F      2.344940   -0.033740   -7.696500
  C      1.052550    0.695660   -3.214910
  H     -0.232480    1.032930   -4.884450
  H      0.511700    2.495790   -4.267970
  O      1.266060   -1.159180   -5.805360
  H      1.242000   -0.333230   -3.439420
  H      0.233910    0.766290   -2.529540
  H      1.925060    1.131130   -2.774460

 Total Charge           Charge          ....    0
 Multiplicity           Mult            ....    1
 Number of Electrons    NEL             ....   66
 Basis Dimension        Dim             ....  137

ORBITAL ENERGIES
----------------

  NO   OCC          E(Eh)            E(eV)
   0   2.0000     -89.212965     -2427.6082
   1   2.0000     -24.911316      -677.8714
   2   2.0000     -19.238597      -523.5088
   3   2.0000     -19.228049      -523.2218
   4   2.0000     -10.347050      -281.5576
   5   2.0000     -10.317015      -280.7403
   6   2.0000     -10.279700      -279.7249
   7   2.0000      -8.296069      -225.7475
   8   2.0000      -6.259166      -170.3206
   9   2.0000      -6.252500      -170.1392
  10   2.0000      -6.251432      -170.1101
  11   2.0000      -1.494169       -40.6584
  12   2.0000      -1.208945       -32.8971
  13   2.0000      -1.101782       -29.9810
  14   2.0000      -0.940504       -25.5924
  15   2.0000      -0.864965       -23.5369
  16   2.0000      -0.814386       -22.1606
  17   2.0000      -0.743146       -20.2220
  18   2.0000      -0.693489       -18.8708
  19   2.0000      -0.685006       -18.6400
  20   2.0000      -0.650213       -17.6932
  21   2.0000      -0.591484       -16.0951
  22   2.0000      -0.580854       -15.8058
  23   2.0000      -0.554126       -15.0785
  24   2.0000      -0.536959       -14.6114
  25   2.0000      -0.516017       -14.0415
  26   2.0000      -0.479845       -13.0573
  27   2.0000      -0.468316       -12.7435
  28   2.0000      -0.462748       -12.5920
  29   2.0000      -0.448326       -12.1996
  30   2.0000      -0.414177       -11.2703
  31   2.0000      -0.403438       -10.9781
  32   2.0000      -0.386616       -10.5204
  33   0.0000       0.119038         3.2392
  34   0.0000       0.122271         3.3272
  35   0.0000       0.159894         4.3509
  36   0.0000       0.167073         4.5463
  37   0.0000       0.181511         4.9392

MULLIKEN ATOMIC CHARGES
-----------------------
   0 C :   -0.091499
   1 C :   -0.134266
   2 H :    0.095306
   3 H :    0.072552
   4 S :    0.965804
   5 O :   -0.486458
   6 F :   -0.168240
   7 C :   -0.023812
   8 H :    0.051065
   9 H :    0.049879
  10 O :   -0.457866
  11 H :    0.060984
  12 H :    0.036202
  13 H :    0.030348
Sum of atomic charges:    0.0000000

LOEWDIN ATOMIC CHARGES
----------------------
   0 C :   -0.045605
   1 C :   -0.153258
   2 H :    0.044206
   3 H :    0.032802
   4 S :    1.164196
   5 O :   -0.527715
   6 F :   -0.111888
   7 C :   -0.054433
   8 H :    0.032619
   9 H :    0.037301
  10 O :   -0.499795
  11 H :    0.029338
  12 H :    0.028842
  13 H :    0.023390

  Mayer bond orders larger than 0.100000
B(  0-C ,  1-C ) :   1.0547 B(  0-C ,  7-C ) :   1.0812 B(  0-C ,  8-H ) :   0.9521
B(  0-C ,  9-H ) :   0.9481 B(  1-C ,  2-H ) :   0.9326 B(  1-C ,  3-H ) :   0.9380
B(  1-C ,  4-S ) :   0.9064 B(  4-S ,  5-O ) :   1.7398 B(  4-S ,  6-F ) :   1.0347
B(  4-S , 10-O ) :   1.7596 B(  7-C , 11-H ) :   0.9696 B(  7-C , 12-H ) :   0.9710
B(  7-C , 13-H ) :   0.9758

Dispersion correction           -0.004500499
FINAL SINGLE POINT ENERGY      -766.406716546577

DIPOLE MOMENT
-------------
                                X             Y             Z
Electronic contribution:      5.29199      -6.04275     -11.86362
Nuclear contribution   :     -5.90419       7.56246      11.43606
                        -----------------------------------------
Total Dipole Moment    :     -0.61220       1.51971      -0.42755
                        -----------------------------------------
Magnitude (a.u.)       :      1.69325
Magnitude (Debye)      :      4.30390

Rotational constants in cm-1:     0.133686     0.052402     0.049175
Rotational constants in MHz :  4007.807944  1570.986792  1474.216272

                             ****ORCA TERMINATED NORMALLY****
TOTAL RUN TIME: 0 days 0 hours 0 minutes 12 seconds 803 msec
