                         Program Version 5.0.0 -  RELEASE  -
|  1> !wB97X-D3 RIJCOSX def2-SVP def2/J TightSCF
|  2> *xyz 0 1
|  3> C          2.91632       -1.24259       -1.54313
|  4> C          3.46659       -1.59097       -2.88908
|  5> N          4.65227       -1.14316       -3.25969
|  6> C          2.75226       -2.29204       -3.72803
|  7> H          1.77836       -2.48960       -3.51274
|  8> H          2.94861       -2.20854       -4.71681
|  9> H          5.14672       -0.51251       -2.63385
| 10> H          4.78303       -1.00720       -4.25350
| 11> C          2.80408        0.29070       -1.35924
| 12> C          2.38838        1.09367       -2.59711
| 13> H          3.76342        0.67472       -0.99989
| 14> H          2.09479        0.46122       -0.54576
| 15> H          1.94047       -1.71653       -1.44116
| 16> H          3.55857       -1.66343       -0.76637
| 17> H          3.08894        0.91965       -3.38694
| 18> H          2.37301        2.13633       -2.35728
| 19> H          1.41303        0.78551       -2.91115
| 20> *
| 21>
| 22> %MaxCore 64000
| 23>
| 24> %pal nprocs 8
| 25> end
| 26>
| 27> %scf
| 28>   MaxIter 150
| 29> end
| 30>
| 31>
| 32>                          ****END OF INPUT****

CARTESIAN COORDINATES (ANGSTROEM)
---------------------------------
  C      2.916320   -1.242590   -1.543130
  C      3.466590   -1.590970   -2.889080
  N      4.652270   -1.143160   -3.259690
  C      2.752260   -2.292040   -3.728030
  H      1.778360   -2.489600   -3.512740
  H      2.948610   -2.208540   -4.716810
  H      5.146720   -0.512510   -2.633850
  H      4.783030   -1.007200   -4.253500
  C      2.804080    0.290700   -1.359240
  C      2.388380    1.093670   -2.597110
  H      3.763420    0.674720   -0.999890
  H      2.094790    0.461220   -0.545760
  H      1.940470   -1.716530   -1.441160
  H      3.558570   -1.663430   -0.766370
  H      3.088940    0.919650   -3.386940
  H      2.373010    2.136330   -2.357280
  H      1.413030    0.785510   -2.911150

 Total Charge           Charge          ....    0
 Multiplicity           Mult            ....    1
 Number of Electrons    NEL             ....   48
 Basis Dimension        Dim             ....  139

ORBITAL ENERGIES
----------------

  NO   OCC          E(Eh)            E(eV)
   0   2.0000     -14.430953      -392.6862
   1   2.0000     -10.304155      -280.3903
   2   2.0000     -10.290080      -280.0073
   3   2.0000     -10.286133      -279.8999
   4   2.0000     -10.272144      -279.5192
   5   2.0000     -10.217395      -278.0295
   6   2.0000      -1.037443       -28.2302
   7   2.0000      -0.901329       -24.5264
   8   2.0000      -0.843370       -22.9493
   9   2.0000      -0.792069       -21.5533
  10   2.0000      -0.704968       -19.1832
  11   2.0000      -0.661567       -18.0022
  12   2.0000      -0.623833       -16.9753
  13   2.0000      -0.566538       -15.4163
  14   2.0000      -0.558264       -15.1911
  15   2.0000      -0.550465       -14.9789
  16   2.0000      -0.489156       -13.3106
  17   2.0000      -0.486564       -13.2401
  18   2.0000      -0.469050       -12.7635
  19   2.0000      -0.458250       -12.4696
  20   2.0000      -0.426706       -11.6113
  21   2.0000      -0.422458       -11.4957
  22   2.0000      -0.408203       -11.1078
  23   2.0000      -0.279728        -7.6118
  24   0.0000       0.125155         3.4056
  25   0.0000       0.132016         3.5923
  26   0.0000       0.176678         4.8076
  27   0.0000       0.183880         5.0036
  28   0.0000       0.193175         5.2566

MULLIKEN ATOMIC CHARGES
-----------------------
   0 C :    0.092253
   1 C :   -0.170862
   2 N :   -0.094239
   3 C :   -0.056667
   4 H :   -0.023053
   5 H :   -0.035804
   6 H :    0.117797
   7 H :    0.129416
   8 C :   -0.141638
   9 C :    0.017036
  10 H :    0.018984
  11 H :    0.033067
  12 H :    0.019150
  13 H :    0.032845
  14 H :    0.007823
  15 H :    0.026963
  16 H :    0.026930
Sum of atomic charges:    0.0000000

LOEWDIN ATOMIC CHARGES
----------------------
   0 C :   -0.029951
   1 C :    0.005429
   2 N :   -0.014095
   3 C :   -0.172289
   4 H :    0.000334
   5 H :   -0.005194
   6 H :    0.070247
   7 H :    0.077401
   8 C :   -0.044543
   9 C :   -0.055650
  10 H :    0.015359
  11 H :    0.026687
  12 H :    0.033992
  13 H :    0.029404
  14 H :    0.014704
  15 H :    0.023741
  16 H :    0.024425

  Mayer bond orders larger than 0.100000
B(  0-C ,  1-C ) :   1.0310 B(  0-C ,  8-C ) :   1.0422 B(  0-C , 12-H ) :   0.9322
B(  0-C , 13-H ) :   0.9400 B(  1-C ,  2-N ) :   1.2318 B(  1-C ,  3-C ) :   1.8817
B(  2-N ,  6-H ) :   0.9575 B(  2-N ,  7-H ) :   0.9503 B(  3-C ,  4-H ) :   0.9503
B(  3-C ,  5-H ) :   0.9592 B(  8-C ,  9-C ) :   1.0865 B(  8-C , 10-H ) :   0.9556
B(  8-C , 11-H ) :   0.9580 B(  9-C , 14-H ) :   0.9572 B(  9-C , 15-H ) :   0.9711
B(  9-C , 16-H ) :   0.9739

Dispersion correction           -0.004878269
FINAL SINGLE POINT ENERGY      -251.616346805094

DIPOLE MOMENT
-------------
                                X             Y             Z
Electronic contribution:      2.24886      -2.81010      -0.55535
Nuclear contribution   :     -1.90863       3.61442       0.70697
                        -----------------------------------------
Total Dipole Moment    :      0.34024       0.80432       0.15162
                        -----------------------------------------
Magnitude (a.u.)       :      0.88639
Magnitude (Debye)      :      2.25302

Rotational constants in cm-1:     0.173428     0.083686     0.080523
Rotational constants in MHz :  5199.232598  2508.829970  2414.016775

                             ****ORCA TERMINATED NORMALLY****
TOTAL RUN TIME: 0 days 0 hours 0 minutes 14 seconds 433 msec
