                         Program Version 5.0.0 -  RELEASE  -
|  1> !wB97X-D3 RIJCOSX def2-SVP def2/J TightSCF
|  2> *xyz 0 1
|  3> C          0.70466        1.44313       -4.50363
|  4> C          1.72854        1.42432       -5.63944
|  5> H          2.64672        1.95379       -5.38105
|  6> H          1.29992        1.93061       -6.50361
|  7> S          2.25263       -0.18811       -6.27184
|  8> O          3.56261       -0.44446       -5.63155
|  9> O          2.34494       -0.03374       -7.69650
| 10> C          1.05255        0.69566       -3.21491
| 11> H         -0.23248        1.03293       -4.88445
| 12> H          0.51170        2.49579       -4.26797
| 13> F          1.26606       -1.15918       -5.80536
| 14> H          1.24200       -0.33323       -3.43942
| 15> H          0.23391        0.76629       -2.52954
| 16> H          1.92506        1.13113       -2.77446
| 17> *
| 18>
| 19> %MaxCore 64000
| 20>
| 21> %pal nprocs 8
| 22> end
| 23>
| 24> %scf
| 25>   MaxIter 150
| 26> end
| 27>
| 28>
| 29>                          ****END OF INPUT****

CARTESIAN COORDINATES (ANGSTROEM)
---------------------------------
  C      0.704660    1.443130   -4.503630
  C      1.728540    1.424320   -5.639440
  H      2.646720    1.953790   -5.381050
  H      1.299920    1.930610   -6.503610
  S      2.252630   -0.188110   -6.271840
  O      3.562610   -0.444460   -5.631550
  O      2.344940   -0.033740   -7.696500
  C      1.052550    0.695660   -3.214910
  H     -0.232480    1.032930   -4.884450
  H      0.511700    2.495790   -4.267970
  F      1.266060   -1.159180   -5.805360
  H      1.242000   -0.333230   -3.439420
  H      0.233910    0.766290   -2.529540
  H      1.925060    1.131130   -2.774460

 Total Charge           Charge          ....    0
 Multiplicity           Mult            ....    1
 Number of Electrons    NEL             ....   66
 Basis Dimension        Dim             ....  137

ORBITAL ENERGIES
----------------

  NO   OCC          E(Eh)            E(eV)
   0   2.0000     -89.210677     -2427.5459
   1   2.0000     -24.899202      -677.5417
   2   2.0000     -19.244327      -523.6648
   3   2.0000     -19.226812      -523.1881
   4   2.0000     -10.345646      -281.5193
   5   2.0000     -10.324220      -280.9363
   6   2.0000     -10.295425      -280.1528
   7   2.0000      -8.293714      -225.6834
   8   2.0000      -6.256890      -170.2586
   9   2.0000      -6.250167      -170.0757
  10   2.0000      -6.249109      -170.0469
  11   2.0000      -1.472379       -40.0655
  12   2.0000      -1.217792       -33.1378
  13   2.0000      -1.109088       -30.1798
  14   2.0000      -0.946703       -25.7611
  15   2.0000      -0.862463       -23.4688
  16   2.0000      -0.811525       -22.0827
  17   2.0000      -0.747025       -20.3276
  18   2.0000      -0.689985       -18.7754
  19   2.0000      -0.677992       -18.4491
  20   2.0000      -0.637679       -17.3521
  21   2.0000      -0.595405       -16.2018
  22   2.0000      -0.579094       -15.7580
  23   2.0000      -0.562895       -15.3171
  24   2.0000      -0.542647       -14.7662
  25   2.0000      -0.526429       -14.3248
  26   2.0000      -0.488359       -13.2889
  27   2.0000      -0.480080       -13.0636
  28   2.0000      -0.472398       -12.8546
  29   2.0000      -0.459068       -12.4919
  30   2.0000      -0.418251       -11.3812
  31   2.0000      -0.403904       -10.9908
  32   2.0000      -0.392020       -10.6674
  33   0.0000       0.104241         2.8366
  34   0.0000       0.138190         3.7603
  35   0.0000       0.161680         4.3995
  36   0.0000       0.168453         4.5838
  37   0.0000       0.175549         4.7769

MULLIKEN ATOMIC CHARGES
-----------------------
   0 C :   -0.127586
   1 C :   -0.120796
   2 H :    0.107134
   3 H :    0.093003
   4 S :    0.965121
   5 O :   -0.490190
   6 O :   -0.436250
   7 C :   -0.022709
   8 H :    0.046054
   9 H :    0.055435
  10 F :   -0.190738
  11 H :    0.035534
  12 H :    0.043625
  13 H :    0.042363
Sum of atomic charges:   -0.0000000

LOEWDIN ATOMIC CHARGES
----------------------
   0 C :   -0.059454
   1 C :   -0.147248
   2 H :    0.052225
   3 H :    0.043776
   4 S :    1.166461
   5 O :   -0.531697
   6 O :   -0.478544
   7 C :   -0.056275
   8 H :    0.027071
   9 H :    0.038954
  10 F :   -0.133703
  11 H :    0.018642
  12 H :    0.031228
  13 H :    0.028564

  Mayer bond orders larger than 0.100000
B(  0-C ,  1-C ) :   1.0441 B(  0-C ,  7-C ) :   1.0742 B(  0-C ,  8-H ) :   0.9585
B(  0-C ,  9-H ) :   0.9468 B(  1-C ,  2-H ) :   0.9350 B(  1-C ,  3-H ) :   0.9405
B(  1-C ,  4-S ) :   0.9182 B(  4-S ,  5-O ) :   1.7395 B(  4-S ,  6-O ) :   1.8008
B(  4-S , 10-F ) :   0.9982 B(  7-C , 11-H ) :   0.9730 B(  7-C , 12-H ) :   0.9716
B(  7-C , 13-H ) :   0.9759

Dispersion correction           -0.004474632
FINAL SINGLE POINT ENERGY      -766.416626564793

DIPOLE MOMENT
-------------
                                X             Y             Z
Electronic contribution:      3.40793      -7.92723      -8.51755
Nuclear contribution   :     -4.74391       8.77281       9.40225
                        -----------------------------------------
Total Dipole Moment    :     -1.33598       0.84557       0.88470
                        -----------------------------------------
Magnitude (a.u.)       :      1.81178
Magnitude (Debye)      :      4.60517

Rotational constants in cm-1:     0.129476     0.053470     0.050698
Rotational constants in MHz :  3881.594668  1602.990831  1519.898630

                             ****ORCA TERMINATED NORMALLY****
TOTAL RUN TIME: 0 days 0 hours 0 minutes 13 seconds 359 msec
