                         Program Version 5.0.0 -  RELEASE  -
|  1> !wB97X-D3 RIJCOSX def2-SVP def2/J TightSCF xyzfile
|  2>
|  3> *xyzfile 0 1 D3.xyz
|  4>
|  5> %MaxCore 64000
|  6>
|  7> %pal nprocs 18
|  8> end
|  9>
| 10> %scf
| 11>   MaxIter 150
| 12> end
| 13>
| 14>
| 15>                          ****END OF INPUT****

CARTESIAN COORDINATES (ANGSTROEM)
---------------------------------
  C      2.916324   -1.242589   -1.543125
  C      0.704661    1.443129   -4.503630
  C      1.728539    1.424320   -5.639443
  H      2.646718    1.953794   -5.381054
  H      1.299916    1.930613   -6.503614
  S      2.252625   -0.188115   -6.271840
  C      3.466585   -1.590971   -2.889082
  C      4.652275   -1.143164   -3.259692
  N      2.752264   -2.292043   -3.728029
  H      1.778364   -2.489604   -3.512738
  H      2.948612   -2.208544   -4.716813
  H      5.146723   -0.512508   -2.633852
  H      4.783030   -1.007203   -4.253498
  O      3.562607   -0.444464   -5.631552
  F      2.344944   -0.033742   -7.696501
  C      2.804084    0.290698   -1.359243
  C      1.052550    0.695659   -3.214915
  H     -0.232483    1.032925   -4.884449
  H      0.511700    2.495794   -4.267966
  C      2.388380    1.093669   -2.597108
  H      3.763425    0.674718   -0.999889
  H      2.094788    0.461222   -0.545756
  O      1.266058   -1.159177   -5.805365
  H      3.167316    1.013242   -3.359430
  H      2.357690    2.149375   -2.310997
  H      1.039284   -0.368429   -3.449329
  H      0.250787    0.865605   -2.488283
  H      1.940472   -1.716529   -1.441161
  H      3.558569   -1.663433   -0.766371

 Total Charge           Charge          ....    0
 Multiplicity           Mult            ....    1
 Number of Electrons    NEL             ....  112
 Basis Dimension        Dim             ....  266

ORBITAL ENERGIES
----------------

  NO   OCC          E(Eh)            E(eV)
   0   2.0000     -89.229362     -2428.0544
   1   2.0000     -24.924213      -678.2223
   2   2.0000     -19.257017      -524.0101
   3   2.0000     -19.247551      -523.7525
   4   2.0000     -14.400450      -391.8562
   5   2.0000     -10.356309      -281.8095
   6   2.0000     -10.321212      -280.8545
   7   2.0000     -10.289562      -279.9932
   8   2.0000     -10.280365      -279.7430
   9   2.0000     -10.279923      -279.7309
  10   2.0000     -10.278953      -279.7045
  11   2.0000     -10.274581      -279.5856
  12   2.0000     -10.182413      -277.0776
  13   2.0000      -8.312348      -226.1905
  14   2.0000      -6.275415      -170.7627
  15   2.0000      -6.269002      -170.5882
  16   2.0000      -6.267527      -170.5481
  17   2.0000      -1.507218       -41.0135
  18   2.0000      -1.229074       -33.4448
  19   2.0000      -1.122504       -30.5449
  20   2.0000      -1.013066       -27.5669
  21   2.0000      -0.953698       -25.9514
  22   2.0000      -0.905813       -24.6484
  23   2.0000      -0.872137       -23.7320
  24   2.0000      -0.834379       -22.7046
  25   2.0000      -0.803615       -21.8675
  26   2.0000      -0.778115       -21.1736
  27   2.0000      -0.741050       -20.1650
  28   2.0000      -0.708262       -19.2728
  29   2.0000      -0.702485       -19.1156
  30   2.0000      -0.674501       -18.3541
  31   2.0000      -0.664684       -18.0870
  32   2.0000      -0.634013       -17.2524
  33   2.0000      -0.605005       -16.4630
  34   2.0000      -0.597299       -16.2533
  35   2.0000      -0.592989       -16.1360
  36   2.0000      -0.577235       -15.7074
  37   2.0000      -0.565483       -15.3876
  38   2.0000      -0.545506       -14.8440
  39   2.0000      -0.535031       -14.5589
  40   2.0000      -0.523851       -14.2547
  41   2.0000      -0.509470       -13.8634
  42   2.0000      -0.495852       -13.4928
  43   2.0000      -0.479991       -13.0612
  44   2.0000      -0.472537       -12.8584
  45   2.0000      -0.456848       -12.4315
  46   2.0000      -0.449364       -12.2278
  47   2.0000      -0.441601       -12.0166
  48   2.0000      -0.432399       -11.7662
  49   2.0000      -0.426889       -11.6162
  50   2.0000      -0.416611       -11.3365
  51   2.0000      -0.409566       -11.1449
  52   2.0000      -0.405727       -11.0404
  53   2.0000      -0.395298       -10.7566
  54   2.0000      -0.388386       -10.5685
  55   2.0000      -0.243154        -6.6166
  56   0.0000       0.104639         2.8474
  57   0.0000       0.113427         3.0865
  58   0.0000       0.144552         3.9334
  59   0.0000       0.145231         3.9519
  60   0.0000       0.151170         4.1135

MULLIKEN ATOMIC CHARGES
-----------------------
   0 C :    0.082723
   1 C :   -0.016868
   2 C :   -0.150376
   3 H :    0.107026
   4 H :    0.077506
   5 S :    0.986519
   6 C :   -0.217182
   7 C :   -0.038387
   8 N :   -0.065364
   9 H :    0.113464
  10 H :    0.115816
  11 H :   -0.047323
  12 H :   -0.010371
  13 O :   -0.464651
  14 F :   -0.161046
  15 C :   -0.032596
  16 C :   -0.035093
  17 H :    0.047618
  18 H :    0.047717
  19 C :   -0.021410
  20 H :    0.030431
  21 H :    0.013071
  22 O :   -0.460655
  23 H :    0.017164
  24 H :    0.009682
  25 H :    0.011114
  26 H :    0.024842
  27 H :   -0.007498
  28 H :    0.044124
Sum of atomic charges:    0.0000000

LOEWDIN ATOMIC CHARGES
----------------------
   0 C :   -0.033324
   1 C :   -0.037621
   2 C :   -0.148551
   3 H :    0.046885
   4 H :    0.035214
   5 S :    1.176583
   6 C :   -0.000953
   7 C :   -0.194027
   8 N :    0.005619
   9 H :    0.060063
  10 H :    0.052081
  11 H :   -0.011519
  12 H :   -0.012323
  13 O :   -0.478764
  14 F :   -0.106994
  15 C :   -0.028540
  16 C :   -0.044637
  17 H :    0.034007
  18 H :    0.038816
  19 C :   -0.046191
  20 H :    0.026865
  21 H :    0.019527
  22 O :   -0.490159
  23 H :    0.021363
  24 H :    0.018966
  25 H :    0.015207
  26 H :    0.027010
  27 H :    0.014404
  28 H :    0.040993

  Mayer bond orders larger than 0.100000
B(  0-C ,  6-C ) :   1.0063 B(  0-C , 15-C ) :   1.0708 B(  0-C , 27-H ) :   0.9329
B(  0-C , 28-H ) :   0.9335 B(  1-C ,  2-C ) :   1.0507 B(  1-C , 16-C ) :   1.0835
B(  1-C , 17-H ) :   0.9467 B(  1-C , 18-H ) :   0.9407 B(  2-C ,  3-H ) :   0.9268
B(  2-C ,  4-H ) :   0.9371 B(  2-C ,  5-S ) :   0.9011 B(  5-S , 13-O ) :   1.6848
B(  5-S , 14-F ) :   1.0443 B(  5-S , 22-O ) :   1.7407 B(  6-C ,  7-C ) :   1.8396
B(  6-C ,  8-N ) :   1.2824 B(  7-C , 11-H ) :   0.9501 B(  7-C , 12-H ) :   0.9467
B(  8-N ,  9-H ) :   0.9488 B(  8-N , 10-H ) :   0.9350 B( 15-C , 19-C ) :   1.0981
B( 15-C , 20-H ) :   0.9458 B( 15-C , 21-H ) :   0.9501 B( 16-C , 19-C ) :   1.0600
B( 16-C , 25-H ) :   0.9327 B( 16-C , 26-H ) :   0.9421 B( 19-C , 23-H ) :   0.9190
B( 19-C , 24-H ) :   0.9453

Dispersion correction           -0.016391803
FINAL SINGLE POINT ENERGY     -1016.827064686190

DIPOLE MOMENT
-------------
                                X             Y             Z
Electronic contribution:      0.03579      -4.19309     -22.63630
Nuclear contribution   :     -1.50273       5.82595      21.72909
                        -----------------------------------------
Total Dipole Moment    :     -1.46694       1.63286      -0.90722
                        -----------------------------------------
Magnitude (a.u.)       :      2.37512
Magnitude (Debye)      :      6.03708

Rotational constants in cm-1:     0.036883     0.018294     0.014745
Rotational constants in MHz :  1105.724679   548.429785   442.050481

                             ****ORCA TERMINATED NORMALLY****
TOTAL RUN TIME: 0 days 0 hours 0 minutes 32 seconds 153 msec
