                         Program Version 5.0.0 -  RELEASE  -
|  1> !wB97X-D3 RIJCOSX def2-SVP def2/J TightSCF xyzfile
|  2>
|  3> *xyzfile 0 1 D6.xyz
|  4>
|  5> %MaxCore 64000
|  6>
|  7> %pal nprocs 18
|  8> end
|  9>
| 10> %scf
| 11>   MaxIter 150
| 12> end
| 13>
| 14>
| 15>                          ****END OF INPUT****

CARTESIAN COORDINATES (ANGSTROEM)
---------------------------------
  C      2.916324   -1.242589   -1.543125
  C      0.704661    1.443129   -4.503630
  C      1.728539    1.424320   -5.639443
  H      2.646718    1.953794   -5.381054
  H      1.299916    1.930613   -6.503614
  S      2.252625   -0.188115   -6.271840
  C      3.466585   -1.590971   -2.889082
  N      4.652275   -1.143164   -3.259692
  C      2.752264   -2.292043   -3.728029
  H      1.778364   -2.489604   -3.512738
  H      2.948612   -2.208544   -4.716813
  H      5.146723   -0.512508   -2.633852
  H      4.783030   -1.007203   -4.253498
  O      3.562607   -0.444464   -5.631552
  O      2.344944   -0.033742   -7.696501
  C      2.804084    0.290698   -1.359243
  C      1.052550    0.695659   -3.214915
  H     -0.232483    1.032925   -4.884449
  H      0.511700    2.495794   -4.267966
  C      2.388380    1.093669   -2.597108
  H      3.763425    0.674718   -0.999889
  H      2.094788    0.461222   -0.545756
  F      1.266058   -1.159177   -5.805365
  H      3.167316    1.013242   -3.359430
  H      2.357690    2.149375   -2.310997
  H      1.039284   -0.368429   -3.449329
  H      0.250787    0.865605   -2.488283
  H      1.940472   -1.716529   -1.441161
  H      3.558569   -1.663433   -0.766371

 Total Charge           Charge          ....    0
 Multiplicity           Mult            ....    1
 Number of Electrons    NEL             ....  112
 Basis Dimension        Dim             ....  266

ORBITAL ENERGIES
----------------

  NO   OCC          E(Eh)            E(eV)
   0   2.0000     -89.222275     -2427.8615
   1   2.0000     -24.903744      -677.6653
   2   2.0000     -19.253386      -523.9113
   3   2.0000     -19.240928      -523.5723
   4   2.0000     -14.408882      -392.0856
   5   2.0000     -10.350687      -281.6565
   6   2.0000     -10.322793      -280.8975
   7   2.0000     -10.296679      -280.1869
   8   2.0000     -10.293346      -280.0962
   9   2.0000     -10.293214      -280.0926
  10   2.0000     -10.291624      -280.0493
  11   2.0000     -10.283486      -279.8279
  12   2.0000     -10.204171      -277.6696
  13   2.0000      -8.304519      -225.9775
  14   2.0000      -6.267657      -170.5516
  15   2.0000      -6.261297      -170.3786
  16   2.0000      -6.259802      -170.3379
  17   2.0000      -1.477613       -40.2079
  18   2.0000      -1.228239       -33.4221
  19   2.0000      -1.123696       -30.5773
  20   2.0000      -1.020465       -27.7683
  21   2.0000      -0.955684       -26.0055
  22   2.0000      -0.910536       -24.7769
  23   2.0000      -0.866981       -23.5918
  24   2.0000      -0.836358       -22.7585
  25   2.0000      -0.813879       -22.1468
  26   2.0000      -0.785022       -21.3615
  27   2.0000      -0.738886       -20.1061
  28   2.0000      -0.703693       -19.1485
  29   2.0000      -0.687463       -18.7068
  30   2.0000      -0.677625       -18.4391
  31   2.0000      -0.659630       -17.9495
  32   2.0000      -0.638900       -17.3854
  33   2.0000      -0.606777       -16.5112
  34   2.0000      -0.598914       -16.2973
  35   2.0000      -0.594672       -16.1818
  36   2.0000      -0.575781       -15.6678
  37   2.0000      -0.562864       -15.3163
  38   2.0000      -0.555510       -15.1162
  39   2.0000      -0.541641       -14.7388
  40   2.0000      -0.533932       -14.5290
  41   2.0000      -0.512566       -13.9476
  42   2.0000      -0.500671       -13.6239
  43   2.0000      -0.488277       -13.2867
  44   2.0000      -0.480417       -13.0728
  45   2.0000      -0.474844       -12.9212
  46   2.0000      -0.459423       -12.5015
  47   2.0000      -0.452895       -12.3239
  48   2.0000      -0.441715       -12.0197
  49   2.0000      -0.425208       -11.5705
  50   2.0000      -0.421631       -11.4732
  51   2.0000      -0.416180       -11.3248
  52   2.0000      -0.412116       -11.2142
  53   2.0000      -0.396167       -10.7803
  54   2.0000      -0.393228       -10.7003
  55   2.0000      -0.265614        -7.2277
  56   0.0000       0.100156         2.7254
  57   0.0000       0.125986         3.4282
  58   0.0000       0.137855         3.7512
  59   0.0000       0.142370         3.8741
  60   0.0000       0.150944         4.1074

MULLIKEN ATOMIC CHARGES
-----------------------
   0 C :    0.089499
   1 C :   -0.052537
   2 C :   -0.133830
   3 H :    0.109494
   4 H :    0.095401
   5 S :    0.998479
   6 C :   -0.179318
   7 N :   -0.080991
   8 C :   -0.068051
   9 H :   -0.028150
  10 H :   -0.036376
  11 H :    0.107477
  12 H :    0.139639
  13 O :   -0.489396
  14 O :   -0.425921
  15 C :   -0.059559
  16 C :   -0.035632
  17 H :    0.045333
  18 H :    0.047521
  19 C :   -0.021131
  20 H :    0.022257
  21 H :    0.024232
  22 F :   -0.177642
  23 H :    0.003656
  24 H :    0.016098
  25 H :    0.014026
  26 H :    0.028683
  27 H :    0.014733
  28 H :    0.032005
Sum of atomic charges:    0.0000000

LOEWDIN ATOMIC CHARGES
----------------------
   0 C :   -0.031594
   1 C :   -0.051033
   2 C :   -0.144019
   3 H :    0.050390
   4 H :    0.045409
   5 S :    1.188795
   6 C :    0.003898
   7 N :   -0.011204
   8 C :   -0.188935
   9 H :   -0.011728
  10 H :   -0.026262
  11 H :    0.063942
  12 H :    0.065267
  13 O :   -0.497310
  14 O :   -0.470986
  15 C :   -0.036656
  16 C :   -0.047335
  17 H :    0.029656
  18 H :    0.037411
  19 C :   -0.046196
  20 H :    0.020810
  21 H :    0.024889
  22 F :   -0.110707
  23 H :    0.013409
  24 H :    0.022409
  25 H :    0.018051
  26 H :    0.028133
  27 H :    0.030694
  28 H :    0.030802

  Mayer bond orders larger than 0.100000
B(  0-C ,  6-C ) :   1.0320 B(  0-C , 15-C ) :   1.0518 B(  0-C , 27-H ) :   0.9305
B(  0-C , 28-H ) :   0.9339 B(  1-C ,  2-C ) :   1.0410 B(  1-C , 16-C ) :   1.0751
B(  1-C , 17-H ) :   0.9540 B(  1-C , 18-H ) :   0.9390 B(  2-C ,  3-H ) :   0.9311
B(  2-C ,  4-H ) :   0.9399 B(  2-C ,  5-S ) :   0.9161 B(  5-S , 13-O ) :   1.6609
B(  5-S , 14-O ) :   1.8171 B(  5-S , 22-F ) :   1.0100 B(  6-C ,  7-N ) :   1.2659
B(  6-C ,  8-C ) :   1.8601 B(  7-N , 11-H ) :   0.9566 B(  7-N , 12-H ) :   0.9315
B(  8-C ,  9-H ) :   0.9450 B(  8-C , 10-H ) :   0.9499 B( 15-C , 19-C ) :   1.0893
B( 15-C , 20-H ) :   0.9491 B( 15-C , 21-H ) :   0.9505 B( 16-C , 19-C ) :   1.0548
B( 16-C , 25-H ) :   0.9354 B( 16-C , 26-H ) :   0.9428 B( 19-C , 23-H ) :   0.9194
B( 19-C , 24-H ) :   0.9459

Dispersion correction           -0.016292960
FINAL SINGLE POINT ENERGY     -1016.842814021301

DIPOLE MOMENT
-------------
                                X             Y             Z
Electronic contribution:     -0.40241      -5.32412     -18.74441
Nuclear contribution   :     -0.51418       6.96452      19.50670
                        -----------------------------------------
Total Dipole Moment    :     -0.91658       1.64040       0.76229
                        -----------------------------------------
Magnitude (a.u.)       :      2.02784
Magnitude (Debye)      :      5.15436

Rotational constants in cm-1:     0.036455     0.018603     0.015008
Rotational constants in MHz :  1092.895336   557.693628   449.926016

                             ****ORCA TERMINATED NORMALLY****
TOTAL RUN TIME: 0 days 0 hours 0 minutes 29 seconds 929 msec
