                         Program Version 5.0.0 -  RELEASE  -
|  1> !B3LYP D3BJ RIJCOSX def2-TZVPD def2/J TightSCF
|  2> *xyz -1 1
|  3> C          0.96805        1.63064       -3.71575
|  4> C         -0.50835        1.72268       -4.12430
|  5> S         -1.32861        0.14674       -4.43578
|  6> H         -0.59151        2.29496       -5.04722
|  7> H         -1.11411        2.23561       -3.37436
|  8> O         -2.57135        0.47573       -5.06834
|  9> O         -1.51496       -0.40051       -3.06342
| 10> O         -0.37793       -0.62756       -5.20114
| 11> H          1.51840        1.12197       -4.47946
| 12> H          1.05062        1.08971       -2.79625
| 13> H          1.36450        2.61606       -3.58668
| 14> *
| 15> %MaxCore 64000
| 16>
| 17> %pal nprocs 4
| 18> end
| 19>
| 20> %scf
| 21>   MaxIter 150
| 22> end
| 23>
| 24>
| 25>                          ****END OF INPUT****

CARTESIAN COORDINATES (ANGSTROEM)
---------------------------------
  C      0.968050    1.630640   -3.715750
  C     -0.508350    1.722680   -4.124300
  S     -1.328610    0.146740   -4.435780
  H     -0.591510    2.294960   -5.047220
  H     -1.114110    2.235610   -3.374360
  O     -2.571350    0.475730   -5.068340
  O     -1.514960   -0.400510   -3.063420
  O     -0.377930   -0.627560   -5.201140
  H      1.518400    1.121970   -4.479460
  H      1.050620    1.089710   -2.796250
  H      1.364500    2.616060   -3.586680

 Total Charge           Charge          ....   -1
 Multiplicity           Mult            ....    1
 Number of Electrons    NEL             ....   58
 Basis Dimension        Dim             ....  285

ORBITAL ENERGIES
----------------

  NO   OCC          E(Eh)            E(eV)
   0   2.0000     -88.837696     -2417.3966
   1   2.0000     -18.909712      -514.5594
   2   2.0000     -18.906344      -514.4678
   3   2.0000     -18.891096      -514.0529
   4   2.0000     -10.026655      -272.8392
   5   2.0000     -10.021273      -272.6927
   6   2.0000      -7.881238      -214.4594
   7   2.0000      -5.844798      -159.0450
   8   2.0000      -5.843733      -159.0161
   9   2.0000      -5.843489      -159.0094
  10   2.0000      -0.925965       -25.1968
  11   2.0000      -0.800612       -21.7858
  12   2.0000      -0.770289       -20.9606
  13   2.0000      -0.626647       -17.0519
  14   2.0000      -0.503307       -13.6957
  15   2.0000      -0.379147       -10.3171
  16   2.0000      -0.313707        -8.5364
  17   2.0000      -0.312822        -8.5123
  18   2.0000      -0.273258        -7.4357
  19   2.0000      -0.260718        -7.0945
  20   2.0000      -0.254547        -6.9266
  21   2.0000      -0.227011        -6.1773
  22   2.0000      -0.213273        -5.8035
  23   2.0000      -0.153833        -4.1860
  24   2.0000      -0.152596        -4.1523
  25   2.0000      -0.120656        -3.2832
  26   2.0000      -0.110656        -3.0111
  27   2.0000      -0.097404        -2.6505
  28   2.0000      -0.066049        -1.7973
  29   0.0000       0.123164         3.3515
  30   0.0000       0.145732         3.9656
  31   0.0000       0.152270         4.1435
  32   0.0000       0.161270         4.3884
  33   0.0000       0.177471         4.8292

MULLIKEN ATOMIC CHARGES
-----------------------
   0 C :   -1.102854
   1 C :   -0.306680
   2 S :    1.253540
   3 H :    0.248439
   4 H :    0.230949
   5 O :   -0.693613
   6 O :   -0.767731
   7 O :   -0.720561
   8 H :    0.277479
   9 H :    0.286613
  10 H :    0.294419
Sum of atomic charges:   -1.0000000

LOEWDIN ATOMIC CHARGES
----------------------
   0 C :   -0.140906
   1 C :   -0.324028
   2 S :    0.347989
   3 H :    0.074302
   4 H :    0.079461
   5 O :   -0.381911
   6 O :   -0.425454
   7 O :   -0.385777
   8 H :    0.053145
   9 H :    0.058343
  10 H :    0.044835

  Mayer bond orders larger than 0.100000
B(  0-C ,  1-C ) :   0.6783 B(  0-C ,  8-H ) :   0.9917 B(  0-C ,  9-H ) :   0.9814
B(  0-C , 10-H ) :   0.9360 B(  1-C ,  2-S ) :   0.8694 B(  1-C ,  3-H ) :   0.9588
B(  1-C ,  4-H ) :   0.9731 B(  1-C ,  5-O ) :   0.1378 B(  1-C ,  6-O ) :   0.1197
B(  1-C ,  7-O ) :   0.1020 B(  2-S ,  5-O ) :   1.4955 B(  2-S ,  6-O ) :   1.4363
B(  2-S ,  7-O ) :   1.4788

Dispersion correction           -0.016692550
FINAL SINGLE POINT ENERGY      -703.123530576235

DIPOLE MOMENT
-------------
                                X             Y             Z
Electronic contribution:     -5.59411      -5.30674      -1.93719
Nuclear contribution   :      6.64523       6.80157       2.07300
                        -----------------------------------------
Total Dipole Moment    :      1.05112       1.49483       0.13581
                        -----------------------------------------
Magnitude (a.u.)       :      1.83243
Magnitude (Debye)      :      4.65767

Rotational constants in cm-1:     0.163070     0.082807     0.081541
Rotational constants in MHz :  4888.719902  2482.497026  2444.541148

                             ****ORCA TERMINATED NORMALLY****
TOTAL RUN TIME: 0 days 0 hours 0 minutes 42 seconds 479 msec
