                         Program Version 5.0.0 -  RELEASE  -
|  1> !B3LYP D3BJ RIJCOSX def2-TZVPD def2/J TightSCF
|  2> *xyz 1 1
|  3> C          1.36401        0.46874       -2.81376
|  4> N          0.42884        0.32140       -1.65531
|  5> C          0.96805        1.63064       -3.71575
|  6> H          0.74858       -0.40054       -1.00134
|  7> H         -0.46105        0.02333       -2.07773
|  8> H          0.31026        1.20137       -1.13495
|  9> H          1.29485       -0.46874       -3.36468
| 10> H          2.37622        0.59740       -2.43149
| 11> H          1.65923        1.70213       -4.52942
| 12> H          0.98421        2.54058       -3.15304
| 13> H         -0.01744        1.46536       -4.09838
| 14> *
| 15> %MaxCore 64000
| 16>
| 17> %pal nprocs 4
| 18> end
| 19>
| 20> %scf
| 21>   MaxIter 150
| 22> end
| 23>
| 24>
| 25>                          ****END OF INPUT****

CARTESIAN COORDINATES (ANGSTROEM)
---------------------------------
  C      1.364010    0.468740   -2.813760
  N      0.428840    0.321400   -1.655310
  C      0.968050    1.630640   -3.715750
  H      0.748580   -0.400540   -1.001340
  H     -0.461050    0.023330   -2.077730
  H      0.310260    1.201370   -1.134950
  H      1.294850   -0.468740   -3.364680
  H      2.376220    0.597400   -2.431490
  H      1.659230    1.702130   -4.529420
  H      0.984210    2.540580   -3.153040
  H     -0.017440    1.465360   -4.098380

 Total Charge           Charge          ....    1
 Multiplicity           Mult            ....    1
 Number of Electrons    NEL             ....   26
 Basis Dimension        Dim             ....  183

ORBITAL ENERGIES
----------------

  NO   OCC          E(Eh)            E(eV)
   0   2.0000     -14.649746      -398.6399
   1   2.0000     -10.423363      -283.6341
   2   2.0000     -10.343878      -281.4712
   3   2.0000      -1.215066       -33.0636
   4   2.0000      -0.965251       -26.2658
   5   2.0000      -0.843255       -22.9461
   6   2.0000      -0.804188       -21.8831
   7   2.0000      -0.788295       -21.4506
   8   2.0000      -0.693889       -18.8817
   9   2.0000      -0.645052       -17.5528
  10   2.0000      -0.585359       -15.9284
  11   2.0000      -0.568993       -15.4831
  12   2.0000      -0.554921       -15.1002
  13   0.0000      -0.203625        -5.5409
  14   0.0000      -0.143910        -3.9160
  15   0.0000      -0.140632        -3.8268
  16   0.0000      -0.133010        -3.6194
  17   0.0000      -0.101985        -2.7751

MULLIKEN ATOMIC CHARGES
-----------------------
   0 C :   -0.279534
   1 N :   -0.255858
   2 C :   -1.066078
   3 H :    0.331653
   4 H :    0.337967
   5 H :    0.317695
   6 H :    0.292853
   7 H :    0.298597
   8 H :    0.308333
   9 H :    0.353888
  10 H :    0.360484
Sum of atomic charges:    1.0000000

LOEWDIN ATOMIC CHARGES
----------------------
   0 C :   -0.194454
   1 N :    0.186431
   2 C :   -0.049632
   3 H :    0.177985
   4 H :    0.178746
   5 H :    0.180212
   6 H :    0.133430
   7 H :    0.133292
   8 H :    0.092109
   9 H :    0.081015
  10 H :    0.080865

  Mayer bond orders larger than 0.100000
B(  0-C ,  1-N ) :   0.9180 B(  0-C ,  2-C ) :   0.6437 B(  0-C ,  6-H ) :   0.9356
B(  0-C ,  7-H ) :   0.9331 B(  1-N ,  3-H ) :   0.8791 B(  1-N ,  4-H ) :   0.8681
B(  1-N ,  5-H ) :   0.8821 B(  2-C ,  8-H ) :   0.9958 B(  2-C ,  9-H ) :   0.9198
B(  2-C , 10-H ) :   0.9152

Dispersion correction           -0.010052209
FINAL SINGLE POINT ENERGY      -135.505823722952

DIPOLE MOMENT
-------------
                                X             Y             Z
Electronic contribution:     -0.33721      -0.93875       1.55312
Nuclear contribution   :     -0.20470       0.31427      -0.31587
                        -----------------------------------------
Total Dipole Moment    :     -0.54190      -0.62449       1.23725
                        -----------------------------------------
Magnitude (a.u.)       :      1.48810
Magnitude (Debye)      :      3.78245

Rotational constants in cm-1:     1.011480     0.279280     0.248378
Rotational constants in MHz : 30323.408050  8372.602834  7446.185305

                             ****ORCA TERMINATED NORMALLY****
TOTAL RUN TIME: 0 days 0 hours 0 minutes 17 seconds 847 msec
