                         Program Version 5.0.0 -  RELEASE  -
|  1> !B3LYP D3BJ RIJCOSX def2-TZVPD def2/J TightSCF xyzfile
|  2>
|  3> *xyzfile 0 1 B.xyz
|  4>
|  5> %MaxCore 64000
|  6>
|  7> %pal nprocs 4
|  8> end
|  9>
| 10> %scf
| 11>   MaxIter 150
| 12> end
| 13>
| 14>
| 15>                          ****END OF INPUT****

CARTESIAN COORDINATES (ANGSTROEM)
---------------------------------
  C      1.364014    0.468742   -2.813764
  N      0.428844    0.321402   -1.655312
  C      0.968045    1.630639   -3.715749
  C     -0.508347    1.722679   -4.124300
  S     -1.328608    0.146737   -4.435781
  H     -0.591511    2.294958   -5.047219
  H     -1.114114    2.235610   -3.374362
  H      0.748578   -0.400542   -1.001345
  H     -0.461053    0.023332   -2.077731
  H      0.310258    1.201375   -1.134948
  O     -2.571347    0.475733   -5.068341
  O     -1.514963   -0.400512   -3.063420
  H      1.294847   -0.468742   -3.364684
  H      2.376216    0.597400   -2.431495
  H      1.578688    1.520652   -4.612733
  H      1.266653    2.575988   -3.250448
  O     -0.377928   -0.627558   -5.201141

 Total Charge           Charge          ....    0
 Multiplicity           Mult            ....    1
 Number of Electrons    NEL             ....   74
 Basis Dimension        Dim             ....  395

ORBITAL ENERGIES
----------------

  NO   OCC          E(Eh)            E(eV)
   0   2.0000     -89.005227     -2421.9554
   1   2.0000     -19.080986      -519.2200
   2   2.0000     -19.065534      -518.7995
   3   2.0000     -19.063407      -518.7417
   4   2.0000     -14.449098      -393.1799
   5   2.0000     -10.260851      -279.2119
   6   2.0000     -10.211694      -277.8743
   7   2.0000     -10.190385      -277.2945
   8   2.0000      -8.048977      -219.0238
   9   2.0000      -6.012893      -163.6191
  10   2.0000      -6.011814      -163.5898
  11   2.0000      -6.010465      -163.5531
  12   2.0000      -1.094557       -29.7844
  13   2.0000      -1.031151       -28.0590
  14   2.0000      -0.958046       -26.0698
  15   2.0000      -0.956565       -26.0295
  16   2.0000      -0.825521       -22.4636
  17   2.0000      -0.738875       -20.1058
  18   2.0000      -0.654121       -17.7995
  19   2.0000      -0.624634       -16.9972
  20   2.0000      -0.612880       -16.6773
  21   2.0000      -0.545713       -14.8496
  22   2.0000      -0.525137       -14.2897
  23   2.0000      -0.489044       -13.3076
  24   2.0000      -0.471518       -12.8307
  25   2.0000      -0.459880       -12.5140
  26   2.0000      -0.429791       -11.6952
  27   2.0000      -0.421194       -11.4613
  28   2.0000      -0.403932       -10.9916
  29   2.0000      -0.393244       -10.7007
  30   2.0000      -0.378347       -10.2953
  31   2.0000      -0.324456        -8.8289
  32   2.0000      -0.315805        -8.5935
  33   2.0000      -0.287565        -7.8250
  34   2.0000      -0.276316        -7.5189
  35   2.0000      -0.269269        -7.3272
  36   2.0000      -0.237526        -6.4634
  37   0.0000      -0.053442        -1.4542
  38   0.0000      -0.010144        -0.2760
  39   0.0000      -0.005832        -0.1587
  40   0.0000       0.020058         0.5458
  41   0.0000       0.032202         0.8763

MULLIKEN ATOMIC CHARGES
-----------------------
   0 C :   -0.680390
   1 N :   -0.144213
   2 C :   -0.238981
   3 C :   -0.674245
   4 S :    1.357981
   5 H :    0.246046
   6 H :    0.287708
   7 H :    0.324561
   8 H :    0.291135
   9 H :    0.303383
  10 O :   -0.650005
  11 O :   -0.861825
  12 H :    0.389034
  13 H :    0.289078
  14 H :    0.217529
  15 H :    0.239420
  16 O :   -0.696215
Sum of atomic charges:   -0.0000000

LOEWDIN ATOMIC CHARGES
----------------------
   0 C :   -0.164467
   1 N :    0.157360
   2 C :   -0.201382
   3 C :   -0.240157
   4 S :    0.433650
   5 H :    0.100078
   6 H :    0.094905
   7 H :    0.166124
   8 H :    0.027651
   9 H :    0.168724
  10 O :   -0.313834
  11 O :   -0.370877
  12 H :    0.120674
  13 H :    0.122262
  14 H :    0.119959
  15 H :    0.110538
  16 O :   -0.331210

  Mayer bond orders larger than 0.100000
B(  0-C ,  1-N ) :   0.9567 B(  0-C ,  2-C ) :   0.8242 B(  0-C , 12-H ) :   0.8812
B(  0-C , 13-H ) :   0.9159 B(  1-N ,  7-H ) :   0.8628 B(  1-N ,  8-H ) :   0.7969
B(  1-N ,  9-H ) :   0.8670 B(  2-C ,  3-C ) :   0.9134 B(  2-C , 14-H ) :   0.9437
B(  2-C , 15-H ) :   0.9484 B(  3-C ,  4-S ) :   0.8763 B(  3-C ,  5-H ) :   0.9981
B(  3-C ,  6-H ) :   0.9252 B(  3-C , 10-O ) :   0.1640 B(  3-C , 11-O ) :   0.1277
B(  4-S , 10-O ) :   1.5134 B(  4-S , 11-O ) :   1.2656 B(  4-S , 16-O ) :   1.4775
B(  8-H , 11-O ) :   0.1548

Dispersion correction           -0.030765305
FINAL SINGLE POINT ENERGY      -798.292928615595

DIPOLE MOMENT
-------------
                                X             Y             Z
Electronic contribution:     -6.92480      -4.15502      -4.31133
Nuclear contribution   :      9.95459       5.57517       7.68169
                        -----------------------------------------
Total Dipole Moment    :      3.02979       1.42015       3.37036
                        -----------------------------------------
Magnitude (a.u.)       :      4.74929
Magnitude (Debye)      :     12.07175

Rotational constants in cm-1:     0.102119     0.045768     0.041299
Rotational constants in MHz :  3061.441288  1372.093000  1238.124534

                             ****ORCA TERMINATED NORMALLY****
TOTAL RUN TIME: 0 days 0 hours 1 minutes 21 seconds 767 msec
