                         Program Version 5.0.0 -  RELEASE  -
|  1> !B3LYP D3BJ RIJCOSX def2-TZVPD def2/J TightSCF
|  2> *xyz 0 1
|  3> C          0.96805        1.63064       -3.71575
|  4> C         -0.50835        1.72268       -4.12430
|  5> S         -1.32861        0.14674       -4.43578
|  6> H         -0.59151        2.29496       -5.04722
|  7> H         -1.11411        2.23561       -3.37436
|  8> F         -2.57135        0.47573       -5.06834
|  9> O         -1.51496       -0.40051       -3.06342
| 10> O         -0.37793       -0.62756       -5.20114
| 11> H          1.51840        1.12197       -4.47946
| 12> H          1.05062        1.08971       -2.79625
| 13> H          1.36450        2.61606       -3.58668
| 14> *
| 15> %MaxCore 64000
| 16>
| 17> %pal nprocs 4
| 18> end
| 19>
| 20> %scf
| 21>   MaxIter 150
| 22> end
| 23>
| 24>
| 25>                          ****END OF INPUT****

CARTESIAN COORDINATES (ANGSTROEM)
---------------------------------
  C      0.968050    1.630640   -3.715750
  C     -0.508350    1.722680   -4.124300
  S     -1.328610    0.146740   -4.435780
  H     -0.591510    2.294960   -5.047220
  H     -1.114110    2.235610   -3.374360
  F     -2.571350    0.475730   -5.068340
  O     -1.514960   -0.400510   -3.063420
  O     -0.377930   -0.627560   -5.201140
  H      1.518400    1.121970   -4.479460
  H      1.050620    1.089710   -2.796250
  H      1.364500    2.616060   -3.586680

 Total Charge           Charge          ....    0
 Multiplicity           Mult            ....    1
 Number of Electrons    NEL             ....   58
 Basis Dimension        Dim             ....  285

ORBITAL ENERGIES
----------------

  NO   OCC          E(Eh)            E(eV)
   0   2.0000     -89.100121     -2424.5376
   1   2.0000     -24.809299      -675.0953
   2   2.0000     -19.140533      -520.8404
   3   2.0000     -19.125086      -520.4201
   4   2.0000     -10.228320      -278.3267
   5   2.0000     -10.185131      -277.1515
   6   2.0000      -8.144095      -221.6121
   7   2.0000      -6.110807      -166.2835
   8   2.0000      -6.104494      -166.1117
   9   2.0000      -6.104255      -166.1052
  10   2.0000      -1.394647       -37.9503
  11   2.0000      -1.104067       -30.0432
  12   2.0000      -1.003812       -27.3151
  13   2.0000      -0.817188       -22.2368
  14   2.0000      -0.741176       -20.1684
  15   2.0000      -0.677075       -18.4241
  16   2.0000      -0.594813       -16.1857
  17   2.0000      -0.592754       -16.1296
  18   2.0000      -0.556420       -15.1410
  19   2.0000      -0.491768       -13.3817
  20   2.0000      -0.482400       -13.1268
  21   2.0000      -0.443969       -12.0810
  22   2.0000      -0.430120       -11.7042
  23   2.0000      -0.407944       -11.1007
  24   2.0000      -0.389392       -10.5959
  25   2.0000      -0.384261       -10.4563
  26   2.0000      -0.336075        -9.1451
  27   2.0000      -0.320071        -8.7096
  28   2.0000      -0.306319        -8.3354
  29   0.0000      -0.012570        -0.3421
  30   0.0000       0.008105         0.2205
  31   0.0000       0.021953         0.5974
  32   0.0000       0.026316         0.7161
  33   0.0000       0.043757         1.1907

MULLIKEN ATOMIC CHARGES
-----------------------
   0 C :   -1.137747
   1 C :   -0.324905
   2 S :    1.193378
   3 H :    0.312566
   4 H :    0.300181
   5 F :   -0.120015
   6 O :   -0.606481
   7 O :   -0.571595
   8 H :    0.320978
   9 H :    0.326854
  10 H :    0.306787
Sum of atomic charges:   -0.0000000

LOEWDIN ATOMIC CHARGES
----------------------
   0 C :   -0.094913
   1 C :   -0.281268
   2 S :    0.596207
   3 H :    0.091806
   4 H :    0.097940
   5 F :   -0.045033
   6 O :   -0.307688
   7 O :   -0.273237
   8 H :    0.069335
   9 H :    0.074814
  10 H :    0.072037

  Mayer bond orders larger than 0.100000
B(  0-C ,  1-C ) :   0.7360 B(  0-C ,  8-H ) :   0.9541 B(  0-C ,  9-H ) :   0.9456
B(  0-C , 10-H ) :   0.9371 B(  1-C ,  2-S ) :   0.8622 B(  1-C ,  3-H ) :   0.8884
B(  1-C ,  4-H ) :   0.9183 B(  2-S ,  5-F ) :   1.0145 B(  2-S ,  6-O ) :   1.6374
B(  2-S ,  7-O ) :   1.6831

Dispersion correction           -0.015951969
FINAL SINGLE POINT ENERGY      -727.635731119538

DIPOLE MOMENT
-------------
                                X             Y             Z
Electronic contribution:     -8.31477      -5.14899      -3.23091
Nuclear contribution   :      8.31000       6.74109       2.87442
                        -----------------------------------------
Total Dipole Moment    :     -0.00476       1.59209      -0.35649
                        -----------------------------------------
Magnitude (a.u.)       :      1.63152
Magnitude (Debye)      :      4.14700

Rotational constants in cm-1:     0.158705     0.080192     0.078179
Rotational constants in MHz :  4757.865601  2404.095079  2343.752507

                             ****ORCA TERMINATED NORMALLY****
TOTAL RUN TIME: 0 days 0 hours 0 minutes 40 seconds 573 msec
