                         Program Version 5.0.0 -  RELEASE  -
|  1> !B3LYP D3BJ RIJCOSX def2-TZVPD def2/J TightSCF
|  2> *xyz 0 1
|  3> C          1.36401        0.46874       -2.81376
|  4> C          0.42884        0.32140       -1.65531
|  5> C          0.96805        1.63064       -3.71575
|  6> H          0.74858       -0.40054       -1.00134
|  7> H         -0.46105        0.02333       -2.07773
|  8> H          0.31026        1.20137       -1.13495
|  9> H          1.29485       -0.46874       -3.36468
| 10> H          2.37622        0.59740       -2.43149
| 11> H          1.65923        1.70213       -4.52942
| 12> H          0.98421        2.54058       -3.15304
| 13> H         -0.01744        1.46536       -4.09838
| 14> *
| 15> %MaxCore 64000
| 16>
| 17> %pal nprocs 4
| 18> end
| 19>
| 20> %scf
| 21>   MaxIter 150
| 22> end
| 23>
| 24>
| 25>                          ****END OF INPUT****

CARTESIAN COORDINATES (ANGSTROEM)
---------------------------------
  C      1.364010    0.468740   -2.813760
  C      0.428840    0.321400   -1.655310
  C      0.968050    1.630640   -3.715750
  H      0.748580   -0.400540   -1.001340
  H     -0.461050    0.023330   -2.077730
  H      0.310260    1.201370   -1.134950
  H      1.294850   -0.468740   -3.364680
  H      2.376220    0.597400   -2.431490
  H      1.659230    1.702130   -4.529420
  H      0.984210    2.540580   -3.153040
  H     -0.017440    1.465360   -4.098380

 Total Charge           Charge          ....    0
 Multiplicity           Mult            ....    1
 Number of Electrons    NEL             ....   26
 Basis Dimension        Dim             ....  183

ORBITAL ENERGIES
----------------

  NO   OCC          E(Eh)            E(eV)
   0   2.0000     -10.153768      -276.2981
   1   2.0000     -10.144867      -276.0559
   2   2.0000     -10.127418      -275.5811
   3   2.0000      -0.789819       -21.4921
   4   2.0000      -0.688937       -18.7469
   5   2.0000      -0.583313       -15.8727
   6   2.0000      -0.470048       -12.7906
   7   2.0000      -0.443879       -12.0786
   8   2.0000      -0.401895       -10.9361
   9   2.0000      -0.390686       -10.6311
  10   2.0000      -0.336709        -9.1623
  11   2.0000      -0.332854        -9.0574
  12   2.0000      -0.329285        -8.9603
  13   0.0000       0.012732         0.3465
  14   0.0000       0.036722         0.9993
  15   0.0000       0.040054         1.0899
  16   0.0000       0.058588         1.5943
  17   0.0000       0.079733         2.1697

MULLIKEN ATOMIC CHARGES
-----------------------
   0 C :    0.075432
   1 C :   -1.234441
   2 C :   -1.066448
   3 H :    0.308571
   4 H :    0.323272
   5 H :    0.335184
   6 H :    0.188840
   7 H :    0.222758
   8 H :    0.260524
   9 H :    0.289851
  10 H :    0.296455
Sum of atomic charges:    0.0000000

LOEWDIN ATOMIC CHARGES
----------------------
   0 C :   -0.312435
   1 C :   -0.119153
   2 C :   -0.111969
   3 H :    0.048548
   4 H :    0.053938
   5 H :    0.053540
   6 H :    0.100622
   7 H :    0.099461
   8 H :    0.059051
   9 H :    0.063941
  10 H :    0.064457

  Mayer bond orders larger than 0.100000
B(  0-C ,  1-C ) :   0.5706 B(  0-C ,  2-C ) :   0.6148 B(  0-C ,  6-H ) :   0.9986
B(  0-C ,  7-H ) :   0.9741 B(  1-C ,  2-C ) :   0.1144 B(  1-C ,  3-H ) :   0.9872
B(  1-C ,  4-H ) :   0.9764 B(  1-C ,  5-H ) :   0.9332 B(  2-C ,  8-H ) :   1.0073
B(  2-C ,  9-H ) :   0.9816 B(  2-C , 10-H ) :   0.9749

Dispersion correction           -0.010129921
FINAL SINGLE POINT ENERGY      -119.095138675859

DIPOLE MOMENT
-------------
                                X             Y             Z
Electronic contribution:      0.36738      -0.18420      -0.01623
Nuclear contribution   :     -0.35842       0.15752       0.02695
                        -----------------------------------------
Total Dipole Moment    :      0.00896      -0.02668       0.01072
                        -----------------------------------------
Magnitude (a.u.)       :      0.03011
Magnitude (Debye)      :      0.07654

Rotational constants in cm-1:     1.019891     0.293671     0.260247
Rotational constants in MHz : 30575.551403  8804.039097  7802.009261

                             ****ORCA TERMINATED NORMALLY****
TOTAL RUN TIME: 0 days 0 hours 0 minutes 18 seconds 523 msec
