                         Program Version 5.0.0 -  RELEASE  -
|  1> !B3LYP D3BJ RIJCOSX def2-TZVPD def2/J TightSCF
|  2> *xyz 0 1
|  3> C          0.96805        1.63064       -3.71575
|  4> C         -0.50835        1.72268       -4.12430
|  5> S         -1.32861        0.14674       -4.43578
|  6> H         -0.59151        2.29496       -5.04722
|  7> H         -1.11411        2.23561       -3.37436
|  8> O         -2.57135        0.47573       -5.06834
|  9> F         -1.51496       -0.40051       -3.06342
| 10> O         -0.37793       -0.62756       -5.20114
| 11> H          1.51840        1.12197       -4.47946
| 12> H          1.05062        1.08971       -2.79625
| 13> H          1.36450        2.61606       -3.58668
| 14> *
| 15> %MaxCore 64000
| 16>
| 17> %pal nprocs 4
| 18> end
| 19>
| 20> %scf
| 21>   MaxIter 150
| 22> end
| 23>
| 24>
| 25>                          ****END OF INPUT****

CARTESIAN COORDINATES (ANGSTROEM)
---------------------------------
  C      0.968050    1.630640   -3.715750
  C     -0.508350    1.722680   -4.124300
  S     -1.328610    0.146740   -4.435780
  H     -0.591510    2.294960   -5.047220
  H     -1.114110    2.235610   -3.374360
  O     -2.571350    0.475730   -5.068340
  F     -1.514960   -0.400510   -3.063420
  O     -0.377930   -0.627560   -5.201140
  H      1.518400    1.121970   -4.479460
  H      1.050620    1.089710   -2.796250
  H      1.364500    2.616060   -3.586680

 Total Charge           Charge          ....    0
 Multiplicity           Mult            ....    1
 Number of Electrons    NEL             ....   58
 Basis Dimension        Dim             ....  285

ORBITAL ENERGIES
----------------

  NO   OCC          E(Eh)            E(eV)
   0   2.0000     -89.097001     -2424.4527
   1   2.0000     -24.780403      -674.3090
   2   2.0000     -19.143527      -520.9219
   3   2.0000     -19.140133      -520.8295
   4   2.0000     -10.227391      -278.3015
   5   2.0000     -10.186429      -277.1868
   6   2.0000      -8.141044      -221.5291
   7   2.0000      -6.107932      -166.2053
   8   2.0000      -6.101578      -166.0324
   9   2.0000      -6.101080      -166.0188
  10   2.0000      -1.347695       -36.6727
  11   2.0000      -1.119429       -30.4612
  12   2.0000      -1.029830       -28.0231
  13   2.0000      -0.818661       -22.2769
  14   2.0000      -0.721166       -19.6239
  15   2.0000      -0.669634       -18.2217
  16   2.0000      -0.576163       -15.6782
  17   2.0000      -0.561377       -15.2758
  18   2.0000      -0.548505       -14.9256
  19   2.0000      -0.492993       -13.4150
  20   2.0000      -0.477952       -13.0057
  21   2.0000      -0.458982       -12.4895
  22   2.0000      -0.435104       -11.8398
  23   2.0000      -0.407012       -11.0754
  24   2.0000      -0.403796       -10.9879
  25   2.0000      -0.384290       -10.4571
  26   2.0000      -0.345234        -9.3943
  27   2.0000      -0.335159        -9.1201
  28   2.0000      -0.325804        -8.8656
  29   0.0000      -0.013060        -0.3554
  30   0.0000       0.014824         0.4034
  31   0.0000       0.022122         0.6020
  32   0.0000       0.024626         0.6701
  33   0.0000       0.043018         1.1706

MULLIKEN ATOMIC CHARGES
-----------------------
   0 C :   -1.112563
   1 C :   -0.317535
   2 S :    1.193714
   3 H :    0.294927
   4 H :    0.307648
   5 O :   -0.554076
   6 F :   -0.188628
   7 O :   -0.573235
   8 H :    0.316939
   9 H :    0.325758
  10 H :    0.307052
Sum of atomic charges:    0.0000000

LOEWDIN ATOMIC CHARGES
----------------------
   0 C :   -0.105344
   1 C :   -0.271920
   2 S :    0.595654
   3 H :    0.103685
   4 H :    0.097432
   5 O :   -0.266653
   6 F :   -0.088854
   7 O :   -0.271293
   8 H :    0.068141
   9 H :    0.068989
  10 H :    0.070164

  Mayer bond orders larger than 0.100000
B(  0-C ,  1-C ) :   0.6922 B(  0-C ,  8-H ) :   0.9818 B(  0-C ,  9-H ) :   0.9282
B(  0-C , 10-H ) :   0.9496 B(  1-C ,  2-S ) :   0.8602 B(  1-C ,  3-H ) :   0.9269
B(  1-C ,  4-H ) :   0.9117 B(  1-C ,  5-O ) :   0.1094 B(  2-S ,  5-O ) :   1.6916
B(  2-S ,  6-F ) :   0.9595 B(  2-S ,  7-O ) :   1.6822

Dispersion correction           -0.015883597
FINAL SINGLE POINT ENERGY      -727.659505699590

DIPOLE MOMENT
-------------
                                X             Y             Z
Electronic contribution:     -6.54144      -6.63147       0.17022
Nuclear contribution   :      7.20921       7.65416       0.78523
                        -----------------------------------------
Total Dipole Moment    :      0.66777       1.02269       0.95545
                        -----------------------------------------
Magnitude (a.u.)       :      1.55071
Magnitude (Debye)      :      3.94159

Rotational constants in cm-1:     0.153780     0.081282     0.079816
Rotational constants in MHz :  4610.199589  2436.778679  2392.820729

                             ****ORCA TERMINATED NORMALLY****
TOTAL RUN TIME: 0 days 0 hours 0 minutes 40 seconds 483 msec
