                         Program Version 5.0.0 -  RELEASE  -
|  1> !B3LYP D3BJ RIJCOSX def2-TZVPD def2/J TightSCF
|  2> *xyz 0 1
|  3> C          0.96805        1.63064       -3.71575
|  4> C         -0.50835        1.72268       -4.12430
|  5> S         -1.32861        0.14674       -4.43578
|  6> H         -0.59151        2.29496       -5.04722
|  7> H         -1.11411        2.23561       -3.37436
|  8> O         -2.57135        0.47573       -5.06834
|  9> O         -1.51496       -0.40051       -3.06342
| 10> F         -0.37793       -0.62756       -5.20114
| 11> H          1.51840        1.12197       -4.47946
| 12> H          1.05062        1.08971       -2.79625
| 13> H          1.36450        2.61606       -3.58668
| 14> *
| 15> %MaxCore 64000
| 16>
| 17> %pal nprocs 4
| 18> end
| 19>
| 20> %scf
| 21>   MaxIter 150
| 22> end
| 23>
| 24>
| 25>                          ****END OF INPUT****

CARTESIAN COORDINATES (ANGSTROEM)
---------------------------------
  C      0.968050    1.630640   -3.715750
  C     -0.508350    1.722680   -4.124300
  S     -1.328610    0.146740   -4.435780
  H     -0.591510    2.294960   -5.047220
  H     -1.114110    2.235610   -3.374360
  O     -2.571350    0.475730   -5.068340
  O     -1.514960   -0.400510   -3.063420
  F     -0.377930   -0.627560   -5.201140
  H      1.518400    1.121970   -4.479460
  H      1.050620    1.089710   -2.796250
  H      1.364500    2.616060   -3.586680

 Total Charge           Charge          ....    0
 Multiplicity           Mult            ....    1
 Number of Electrons    NEL             ....   58
 Basis Dimension        Dim             ....  285

ORBITAL ENERGIES
----------------

  NO   OCC          E(Eh)            E(eV)
   0   2.0000     -89.099365     -2424.5170
   1   2.0000     -24.803240      -674.9305
   2   2.0000     -19.144125      -520.9381
   3   2.0000     -19.125173      -520.4224
   4   2.0000     -10.228149      -278.3221
   5   2.0000     -10.189994      -277.2838
   6   2.0000      -8.143373      -221.5924
   7   2.0000      -6.110258      -166.2686
   8   2.0000      -6.103702      -166.0902
   9   2.0000      -6.103474      -166.0840
  10   2.0000      -1.384258       -37.6676
  11   2.0000      -1.110041       -30.2058
  12   2.0000      -1.006616       -27.3914
  13   2.0000      -0.820963       -22.3395
  14   2.0000      -0.734419       -19.9846
  15   2.0000      -0.679128       -18.4800
  16   2.0000      -0.597933       -16.2706
  17   2.0000      -0.586938       -15.9714
  18   2.0000      -0.548296       -14.9199
  19   2.0000      -0.493482       -13.4283
  20   2.0000      -0.477520       -12.9940
  21   2.0000      -0.452331       -12.3085
  22   2.0000      -0.438964       -11.9448
  23   2.0000      -0.411948       -11.2097
  24   2.0000      -0.397716       -10.8224
  25   2.0000      -0.383812       -10.4441
  26   2.0000      -0.339026        -9.2254
  27   2.0000      -0.320587        -8.7236
  28   2.0000      -0.309134        -8.4120
  29   0.0000      -0.016454        -0.4477
  30   0.0000       0.013513         0.3677
  31   0.0000       0.020165         0.5487
  32   0.0000       0.025636         0.6976
  33   0.0000       0.042389         1.1535

MULLIKEN ATOMIC CHARGES
-----------------------
   0 C :   -1.153110
   1 C :   -0.277218
   2 S :    1.184502
   3 H :    0.306735
   4 H :    0.281233
   5 O :   -0.547031
   6 O :   -0.608649
   7 F :   -0.150649
   8 H :    0.329839
   9 H :    0.330812
  10 H :    0.303536
Sum of atomic charges:   -0.0000000

LOEWDIN ATOMIC CHARGES
----------------------
   0 C :   -0.106086
   1 C :   -0.272154
   2 S :    0.594011
   3 H :    0.094726
   4 H :    0.108298
   5 O :   -0.265670
   6 O :   -0.306565
   7 F :   -0.053380
   8 H :    0.064363
   9 H :    0.071735
  10 H :    0.070722

  Mayer bond orders larger than 0.100000
B(  0-C ,  1-C ) :   0.6598 B(  0-C ,  8-H ) :   0.9273 B(  0-C ,  9-H ) :   0.9677
B(  0-C , 10-H ) :   0.9554 B(  1-C ,  2-S ) :   0.8564 B(  1-C ,  3-H ) :   0.9239
B(  1-C ,  4-H ) :   0.9358 B(  1-C ,  5-O ) :   0.1050 B(  2-S ,  5-O ) :   1.6989
B(  2-S ,  6-O ) :   1.6411 B(  2-S ,  7-F ) :   1.0106

Dispersion correction           -0.015852589
FINAL SINGLE POINT ENERGY      -727.640386594960

DIPOLE MOMENT
-------------
                                X             Y             Z
Electronic contribution:     -4.62295      -6.98858      -3.44119
Nuclear contribution   :      6.02439       7.89075       3.01280
                        -----------------------------------------
Total Dipole Moment    :      1.40144       0.90217      -0.42839
                        -----------------------------------------
Magnitude (a.u.)       :      1.72089
Magnitude (Debye)      :      4.37416

Rotational constants in cm-1:     0.153652     0.082400     0.079295
Rotational constants in MHz :  4606.361242  2470.285703  2377.214112

                             ****ORCA TERMINATED NORMALLY****
TOTAL RUN TIME: 0 days 0 hours 0 minutes 41 seconds 147 msec
