                         Program Version 5.0.0 -  RELEASE  -
|  1> !B3LYP D3BJ RIJCOSX def2-TZVPD def2/J TightSCF xyzfile
|  2>
|  3> *xyzfile 0 1 D1.xyz
|  4>
|  5> %MaxCore 64000
|  6>
|  7> %pal nprocs 4
|  8> end
|  9>
| 10> %scf
| 11>   MaxIter 150
| 12> end
| 13>
| 14>
| 15>                          ****END OF INPUT****

CARTESIAN COORDINATES (ANGSTROEM)
---------------------------------
  C      1.364014    0.468742   -2.813764
  C      0.428844    0.321402   -1.655312
  C      0.968045    1.630639   -3.715749
  C     -0.508347    1.722679   -4.124300
  S     -1.328608    0.146737   -4.435781
  H     -0.591511    2.294958   -5.047219
  H     -1.114114    2.235610   -3.374362
  H      0.748578   -0.400542   -1.001345
  H     -0.461053    0.023332   -2.077731
  H      0.310258    1.201375   -1.134948
  F     -2.571347    0.475733   -5.068341
  O     -1.514963   -0.400512   -3.063420
  H      1.294847   -0.468742   -3.364684
  H      2.376216    0.597400   -2.431495
  H      1.578688    1.520652   -4.612733
  H      1.266653    2.575988   -3.250448
  O     -0.377928   -0.627558   -5.201141

 Total Charge           Charge          ....    0
 Multiplicity           Mult            ....    1
 Number of Electrons    NEL             ....   74
 Basis Dimension        Dim             ....  395

ORBITAL ENERGIES
----------------

  NO   OCC          E(Eh)            E(eV)
   0   2.0000     -89.105572     -2424.6859
   1   2.0000     -24.812207      -675.1745
   2   2.0000     -19.144989      -520.9616
   3   2.0000     -19.132275      -520.6157
   4   2.0000     -10.228789      -278.3395
   5   2.0000     -10.189424      -277.2683
   6   2.0000     -10.153178      -276.2820
   7   2.0000     -10.095920      -274.7239
   8   2.0000      -8.149826      -221.7680
   9   2.0000      -6.116533      -166.4393
  10   2.0000      -6.110223      -166.2676
  11   2.0000      -6.109980      -166.2610
  12   2.0000      -1.397956       -38.0403
  13   2.0000      -1.112915       -30.2840
  14   2.0000      -1.017397       -27.6848
  15   2.0000      -0.829601       -22.5746
  16   2.0000      -0.774951       -21.0875
  17   2.0000      -0.724864       -19.7246
  18   2.0000      -0.677365       -18.4320
  19   2.0000      -0.609712       -16.5911
  20   2.0000      -0.599594       -16.3158
  21   2.0000      -0.579907       -15.7801
  22   2.0000      -0.548146       -14.9158
  23   2.0000      -0.506452       -13.7813
  24   2.0000      -0.494372       -13.4525
  25   2.0000      -0.461655       -12.5623
  26   2.0000      -0.458001       -12.4628
  27   2.0000      -0.423592       -11.5265
  28   2.0000      -0.405470       -11.0334
  29   2.0000      -0.401443       -10.9238
  30   2.0000      -0.386376       -10.5138
  31   2.0000      -0.357688        -9.7332
  32   2.0000      -0.348524        -9.4838
  33   2.0000      -0.323614        -8.8060
  34   2.0000      -0.322580        -8.7779
  35   2.0000      -0.316256        -8.6058
  36   2.0000      -0.279523        -7.6062
  37   0.0000      -0.012808        -0.3485
  38   0.0000       0.004397         0.1196
  39   0.0000       0.019002         0.5171
  40   0.0000       0.025265         0.6875
  41   0.0000       0.040977         1.1151

MULLIKEN ATOMIC CHARGES
-----------------------
   0 C :   -0.286429
   1 C :   -1.270192
   2 C :   -0.311636
   3 C :   -0.637703
   4 S :    1.213318
   5 H :    0.291173
   6 H :    0.330492
   7 H :    0.363414
   8 H :    0.397307
   9 H :    0.329444
  10 F :   -0.107891
  11 O :   -0.638358
  12 H :    0.272812
  13 H :    0.213045
  14 H :    0.187004
  15 H :    0.258393
  16 O :   -0.604192
Sum of atomic charges:   -0.0000000

LOEWDIN ATOMIC CHARGES
----------------------
   0 C :   -0.245913
   1 C :   -0.110918
   2 C :   -0.209040
   3 C :   -0.212851
   4 S :    0.642139
   5 H :    0.097762
   6 H :    0.107079
   7 H :    0.060549
   8 H :   -0.034085
   9 H :    0.062893
  10 F :   -0.038096
  11 O :   -0.301567
  12 H :    0.101826
  13 H :    0.108707
  14 H :    0.109390
  15 H :    0.119644
  16 O :   -0.257520

  Mayer bond orders larger than 0.100000
B(  0-C ,  1-C ) :   0.5832 B(  0-C ,  2-C ) :   0.9111 B(  0-C , 12-H ) :   0.9358
B(  0-C , 13-H ) :   0.9605 B(  1-C ,  7-H ) :   0.9414 B(  1-C ,  8-H ) :   1.0335
B(  1-C ,  9-H ) :   0.9843 B(  2-C ,  3-C ) :   1.0123 B(  2-C , 14-H ) :   0.9300
B(  2-C , 15-H ) :   0.9249 B(  3-C ,  4-S ) :   0.8732 B(  3-C ,  5-H ) :   0.9086
B(  3-C ,  6-H ) :   0.8594 B(  3-C , 11-O ) :   0.1347 B(  4-S , 10-F ) :   0.9975
B(  4-S , 11-O ) :   1.6339 B(  4-S , 16-O ) :   1.6614 B(  8-H , 11-O ) :  -0.2101

Dispersion correction           -0.030142512
FINAL SINGLE POINT ENERGY      -806.199077506920

DIPOLE MOMENT
-------------
                                X             Y             Z
Electronic contribution:    -12.46692      -4.08763      -9.71169
Nuclear contribution   :     12.25227       5.48563       9.26621
                        -----------------------------------------
Total Dipole Moment    :     -0.21465       1.39800      -0.44548
                        -----------------------------------------
Magnitude (a.u.)       :      1.48288
Magnitude (Debye)      :      3.76918

Rotational constants in cm-1:     0.103176     0.044975     0.040960
Rotational constants in MHz :  3093.138469  1348.317425  1227.945122

                             ****ORCA TERMINATED NORMALLY****
TOTAL RUN TIME: 0 days 0 hours 1 minutes 38 seconds 376 msec
