                         Program Version 5.0.0 -  RELEASE  -
|  1> !B3LYP D3BJ RIJCOSX def2-TZVPD def2/J TightSCF xyzfile
|  2>
|  3> *xyzfile 0 1 D2.xyz
|  4>
|  5> %MaxCore 64000
|  6>
|  7> %pal nprocs 4
|  8> end
|  9>
| 10> %scf
| 11>   MaxIter 150
| 12> end
| 13>
| 14>
| 15>                          ****END OF INPUT****

CARTESIAN COORDINATES (ANGSTROEM)
---------------------------------
  C      1.364014    0.468742   -2.813764
  C      0.428844    0.321402   -1.655312
  C      0.968045    1.630639   -3.715749
  C     -0.508347    1.722679   -4.124300
  S     -1.328608    0.146737   -4.435781
  H     -0.591511    2.294958   -5.047219
  H     -1.114114    2.235610   -3.374362
  H      0.748578   -0.400542   -1.001345
  H     -0.461053    0.023332   -2.077731
  H      0.310258    1.201375   -1.134948
  O     -2.571347    0.475733   -5.068341
  F     -1.514963   -0.400512   -3.063420
  H      1.294847   -0.468742   -3.364684
  H      2.376216    0.597400   -2.431495
  H      1.578688    1.520652   -4.612733
  H      1.266653    2.575988   -3.250448
  O     -0.377928   -0.627558   -5.201141

 Total Charge           Charge          ....    0
 Multiplicity           Mult            ....    1
 Number of Electrons    NEL             ....   74
 Basis Dimension        Dim             ....  395

ORBITAL ENERGIES
----------------

  NO   OCC          E(Eh)            E(eV)
   0   2.0000     -89.100175     -2424.5390
   1   2.0000     -24.786244      -674.4680
   2   2.0000     -19.145973      -520.9884
   3   2.0000     -19.142787      -520.9017
   4   2.0000     -10.226706      -278.2828
   5   2.0000     -10.190660      -277.3020
   6   2.0000     -10.167372      -276.6682
   7   2.0000     -10.126132      -275.5461
   8   2.0000      -8.144563      -221.6248
   9   2.0000      -6.111580      -166.3046
  10   2.0000      -6.104950      -166.1241
  11   2.0000      -6.104489      -166.1116
  12   2.0000      -1.361662       -37.0527
  13   2.0000      -1.123481       -30.5715
  14   2.0000      -1.032964       -28.1084
  15   2.0000      -0.836719       -22.7683
  16   2.0000      -0.779387       -21.2082
  17   2.0000      -0.715711       -19.4755
  18   2.0000      -0.694147       -18.8887
  19   2.0000      -0.599942       -16.3253
  20   2.0000      -0.588755       -16.0208
  21   2.0000      -0.571534       -15.5522
  22   2.0000      -0.550083       -14.9685
  23   2.0000      -0.498457       -13.5637
  24   2.0000      -0.481933       -13.1141
  25   2.0000      -0.475931       -12.9507
  26   2.0000      -0.461901       -12.5690
  27   2.0000      -0.431898       -11.7526
  28   2.0000      -0.414311       -11.2740
  29   2.0000      -0.404515       -11.0074
  30   2.0000      -0.396227       -10.7819
  31   2.0000      -0.358170        -9.7463
  32   2.0000      -0.352379        -9.5887
  33   2.0000      -0.341817        -9.3013
  34   2.0000      -0.335773        -9.1369
  35   2.0000      -0.329434        -8.9644
  36   2.0000      -0.320086        -8.7100
  37   0.0000      -0.008407        -0.2288
  38   0.0000       0.010170         0.2768
  39   0.0000       0.017958         0.4887
  40   0.0000       0.019519         0.5311
  41   0.0000       0.035678         0.9708

MULLIKEN ATOMIC CHARGES
-----------------------
   0 C :   -0.315479
   1 C :   -1.312032
   2 C :   -0.243310
   3 C :   -0.617697
   4 S :    1.203805
   5 H :    0.259641
   6 H :    0.317010
   7 H :    0.371341
   8 H :    0.423229
   9 H :    0.347641
  10 O :   -0.578901
  11 F :   -0.221339
  12 H :    0.287643
  13 H :    0.215031
  14 H :    0.188124
  15 H :    0.267645
  16 O :   -0.592352
Sum of atomic charges:   -0.0000000

LOEWDIN ATOMIC CHARGES
----------------------
   0 C :   -0.248873
   1 C :   -0.099072
   2 C :   -0.216289
   3 C :   -0.208148
   4 S :    0.619877
   5 H :    0.109149
   6 H :    0.106298
   7 H :    0.062631
   8 H :   -0.005391
   9 H :    0.066878
  10 O :   -0.257452
  11 F :   -0.112421
  12 H :    0.099952
  13 H :    0.111194
  14 H :    0.110286
  15 H :    0.117148
  16 O :   -0.255767

  Mayer bond orders larger than 0.100000
B(  0-C ,  1-C ) :   0.5749 B(  0-C ,  2-C ) :   0.8783 B(  0-C , 12-H ) :   0.9507
B(  0-C , 13-H ) :   0.9614 B(  1-C ,  3-C ) :   0.1106 B(  1-C ,  7-H ) :   0.9219
B(  1-C ,  8-H ) :   1.0005 B(  1-C ,  9-H ) :   0.9337 B(  1-C , 11-F ) :   0.1116
B(  2-C ,  3-C ) :   0.9161 B(  2-C , 14-H ) :   0.9464 B(  2-C , 15-H ) :   0.9407
B(  3-C ,  4-S ) :   0.8761 B(  3-C ,  5-H ) :   0.9454 B(  3-C ,  6-H ) :   0.8870
B(  3-C , 10-O ) :   0.1136 B(  4-S , 10-O ) :   1.6206 B(  4-S , 11-F ) :   1.0145
B(  4-S , 16-O ) :   1.6589 B(  8-H , 11-F ) :  -0.1629

Dispersion correction           -0.029784252
FINAL SINGLE POINT ENERGY      -806.220383828019

DIPOLE MOMENT
-------------
                                X             Y             Z
Electronic contribution:    -10.50299      -5.56918      -6.16019
Nuclear contribution   :     11.08796       6.45140       7.05645
                        -----------------------------------------
Total Dipole Moment    :      0.58497       0.88222       0.89627
                        -----------------------------------------
Magnitude (a.u.)       :      1.38701
Magnitude (Debye)      :      3.52550

Rotational constants in cm-1:     0.100113     0.046890     0.041843
Rotational constants in MHz :  3001.313402  1405.711946  1254.411771

                             ****ORCA TERMINATED NORMALLY****
TOTAL RUN TIME: 0 days 0 hours 1 minutes 36 seconds 538 msec
