                         Program Version 5.0.0 -  RELEASE  -
|  1> !B3LYP D3BJ RIJCOSX def2-TZVPD def2/J TightSCF xyzfile
|  2>
|  3> *xyzfile 0 1 D3.xyz
|  4>
|  5> %MaxCore 64000
|  6>
|  7> %pal nprocs 4
|  8> end
|  9>
| 10> %scf
| 11>   MaxIter 150
| 12> end
| 13>
| 14>
| 15>                          ****END OF INPUT****

CARTESIAN COORDINATES (ANGSTROEM)
---------------------------------
  C      1.364014    0.468742   -2.813764
  C      0.428844    0.321402   -1.655312
  C      0.968045    1.630639   -3.715749
  C     -0.508347    1.722679   -4.124300
  S     -1.328608    0.146737   -4.435781
  H     -0.591511    2.294958   -5.047219
  H     -1.114114    2.235610   -3.374362
  H      0.748578   -0.400542   -1.001345
  H     -0.461053    0.023332   -2.077731
  H      0.310258    1.201375   -1.134948
  O     -2.571347    0.475733   -5.068341
  O     -1.514963   -0.400512   -3.063420
  H      1.294847   -0.468742   -3.364684
  H      2.376216    0.597400   -2.431495
  H      1.578688    1.520652   -4.612733
  H      1.266653    2.575988   -3.250448
  F     -0.377928   -0.627558   -5.201141

 Total Charge           Charge          ....    0
 Multiplicity           Mult            ....    1
 Number of Electrons    NEL             ....   74
 Basis Dimension        Dim             ....  395

ORBITAL ENERGIES
----------------

  NO   OCC          E(Eh)            E(eV)
   0   2.0000     -89.105481     -2424.6834
   1   2.0000     -24.807475      -675.0457
   2   2.0000     -19.148058      -521.0452
   3   2.0000     -19.131144      -520.5849
   4   2.0000     -10.228458      -278.3305
   5   2.0000     -10.193234      -277.3720
   6   2.0000     -10.165042      -276.6049
   7   2.0000     -10.100066      -274.8368
   8   2.0000      -8.149698      -221.7646
   9   2.0000      -6.116581      -166.4406
  10   2.0000      -6.110155      -166.2658
  11   2.0000      -6.109650      -166.2520
  12   2.0000      -1.389070       -37.7985
  13   2.0000      -1.117411       -30.4063
  14   2.0000      -1.020799       -27.7774
  15   2.0000      -0.835576       -22.7372
  16   2.0000      -0.774042       -21.0627
  17   2.0000      -0.724924       -19.7262
  18   2.0000      -0.679495       -18.4900
  19   2.0000      -0.613995       -16.7077
  20   2.0000      -0.594069       -16.1654
  21   2.0000      -0.585774       -15.9397
  22   2.0000      -0.545795       -14.8518
  23   2.0000      -0.501118       -13.6361
  24   2.0000      -0.496615       -13.5136
  25   2.0000      -0.470238       -12.7958
  26   2.0000      -0.460185       -12.5223
  27   2.0000      -0.428917       -11.6714
  28   2.0000      -0.412278       -11.2187
  29   2.0000      -0.399816       -10.8795
  30   2.0000      -0.391938       -10.6652
  31   2.0000      -0.368108       -10.0167
  32   2.0000      -0.347450        -9.4546
  33   2.0000      -0.335183        -9.1208
  34   2.0000      -0.332297        -9.0423
  35   2.0000      -0.323828        -8.8118
  36   2.0000      -0.274643        -7.4734
  37   0.0000      -0.015190        -0.4134
  38   0.0000       0.008668         0.2359
  39   0.0000       0.014765         0.4018
  40   0.0000       0.023928         0.6511
  41   0.0000       0.036568         0.9951

MULLIKEN ATOMIC CHARGES
-----------------------
   0 C :   -0.214946
   1 C :   -1.254140
   2 C :   -0.341837
   3 C :   -0.562846
   4 S :    1.205321
   5 H :    0.262044
   6 H :    0.304222
   7 H :    0.364126
   8 H :    0.402946
   9 H :    0.336058
  10 O :   -0.567896
  11 O :   -0.630781
  12 H :    0.212894
  13 H :    0.203584
  14 H :    0.192177
  15 H :    0.260571
  16 F :   -0.171496
Sum of atomic charges:    0.0000000

LOEWDIN ATOMIC CHARGES
----------------------
   0 C :   -0.251039
   1 C :   -0.112718
   2 C :   -0.220017
   3 C :   -0.201951
   4 S :    0.639459
   5 H :    0.100530
   6 H :    0.117511
   7 H :    0.060514
   8 H :   -0.035940
   9 H :    0.064482
  10 O :   -0.254958
  11 O :   -0.295914
  12 H :    0.098476
  13 H :    0.109345
  14 H :    0.105318
  15 H :    0.118459
  16 F :   -0.041557

  Mayer bond orders larger than 0.100000
B(  0-C ,  1-C ) :   0.5763 B(  0-C ,  2-C ) :   0.8446 B(  0-C , 12-H ) :   0.9747
B(  0-C , 13-H ) :   0.9690 B(  1-C ,  7-H ) :   0.9484 B(  1-C ,  8-H ) :   1.0633
B(  1-C ,  9-H ) :   0.9807 B(  2-C ,  3-C ) :   0.9511 B(  2-C , 14-H ) :   0.9680
B(  2-C , 15-H ) :   0.9258 B(  3-C ,  4-S ) :   0.8600 B(  3-C ,  5-H ) :   0.9741
B(  3-C ,  6-H ) :   0.8889 B(  3-C , 10-O ) :   0.1060 B(  3-C , 11-O ) :   0.1259
B(  4-S , 10-O ) :   1.6583 B(  4-S , 11-O ) :   1.6487 B(  4-S , 16-F ) :   1.0063
B(  8-H , 11-O ) :  -0.2415

Dispersion correction           -0.029898470
FINAL SINGLE POINT ENERGY      -806.202596661843

DIPOLE MOMENT
-------------
                                X             Y             Z
Electronic contribution:     -8.66540      -5.96829      -9.89229
Nuclear contribution   :      9.83476       6.70164       9.41257
                        -----------------------------------------
Total Dipole Moment    :      1.16937       0.73334      -0.47971
                        -----------------------------------------
Magnitude (a.u.)       :      1.46128
Magnitude (Debye)      :      3.71428

Rotational constants in cm-1:     0.099832     0.045916     0.042219
Rotational constants in MHz :  2992.874960  1376.530174  1265.693813

                             ****ORCA TERMINATED NORMALLY****
TOTAL RUN TIME: 0 days 0 hours 1 minutes 52 seconds 263 msec
