                         Program Version 5.0.0 -  RELEASE  -
|  1> !CAM-B3LYP RIJCOSX def2-SVPD def2/J TightSCF
|  2> *xyz -1 1
|  3> C         -0.81136       -2.90878       -4.60763
|  4> C         -1.91658       -2.48508       -3.64367
|  5> H         -2.55452       -1.71243       -4.09199
|  6> C         -1.36353       -1.98134       -2.29361
|  7> H         -2.55345       -3.35567       -3.45881
|  8> O         -0.35039       -2.74969       -1.79601
|  9> H         -2.22622       -1.90839       -1.60204
| 10> H         -1.05135       -0.91567       -2.44333
| 11> H         -1.24783       -3.24801       -5.52377
| 12> H         -0.24047       -3.70079       -4.16978
| 13> H         -0.17107       -2.07453       -4.80501
| 14> *
| 15>
| 16> %MaxCore 64000
| 17> %pal nprocs 4
| 18> end
| 19>
| 20> %scf
| 21>   MaxIter 150
| 22> end
| 23>
| 24>
| 25>                          ****END OF INPUT****

CARTESIAN COORDINATES (ANGSTROEM)
---------------------------------
  C     -0.811360   -2.908780   -4.607630
  C     -1.916580   -2.485080   -3.643670
  H     -2.554520   -1.712430   -4.091990
  C     -1.363530   -1.981340   -2.293610
  H     -2.553450   -3.355670   -3.458810
  O     -0.350390   -2.749690   -1.796010
  H     -2.226220   -1.908390   -1.602040
  H     -1.051350   -0.915670   -2.443330
  H     -1.247830   -3.248010   -5.523770
  H     -0.240470   -3.700790   -4.169780
  H     -0.171070   -2.074530   -4.805010

 Total Charge           Charge          ....   -1
 Multiplicity           Mult            ....    1
 Number of Electrons    NEL             ....   34
 Basis Dimension        Dim             ....  139

ORBITAL ENERGIES
----------------

  NO   OCC          E(Eh)            E(eV)
   0   2.0000     -18.882914      -513.8302
   1   2.0000     -10.075709      -274.1740
   2   2.0000     -10.072025      -274.0737
   3   2.0000     -10.066967      -273.9361
   4   2.0000      -0.757653       -20.6168
   5   2.0000      -0.656471       -17.8635
   6   2.0000      -0.540480       -14.7072
   7   2.0000      -0.432687       -11.7740
   8   2.0000      -0.346312        -9.4236
   9   2.0000      -0.334502        -9.1023
  10   2.0000      -0.281288        -7.6542
  11   2.0000      -0.255843        -6.9618
  12   2.0000      -0.227067        -6.1788
  13   2.0000      -0.214635        -5.8405
  14   2.0000      -0.179300        -4.8790
  15   2.0000      -0.038024        -1.0347
  16   2.0000      -0.033987        -0.9248
  17   0.0000       0.194745         5.2993
  18   0.0000       0.218825         5.9545
  19   0.0000       0.237241         6.4557
  20   0.0000       0.262511         7.1433
  21   0.0000       0.283874         7.7246

MULLIKEN ATOMIC CHARGES
-----------------------
   0 C :    0.811946
   1 C :   -0.369059
   2 H :   -0.165104
   3 C :    0.518090
   4 H :   -0.126742
   5 O :   -0.859866
   6 H :   -0.236185
   7 H :   -0.164464
   8 H :   -0.185004
   9 H :   -0.080230
  10 H :   -0.143382
Sum of atomic charges:   -1.0000000

LOEWDIN ATOMIC CHARGES
----------------------
   0 C :    0.083585
   1 C :   -0.113037
   2 H :   -0.011207
   3 C :   -0.219503
   4 H :   -0.003405
   5 O :   -0.558745
   6 H :   -0.033988
   7 H :   -0.027106
   8 H :   -0.050719
   9 H :   -0.035323
  10 H :   -0.030551

  Mayer bond orders larger than 0.100000
B(  0-C ,  1-C ) :   1.2671 B(  0-C ,  8-H ) :   0.7460 B(  0-C ,  9-H ) :   0.7876
B(  0-C , 10-H ) :   0.7797 B(  1-C ,  2-H ) :   0.9756 B(  1-C ,  3-C ) :   1.0509
B(  1-C ,  4-H ) :   0.9196 B(  1-C ,  6-H ) :   0.1610 B(  1-C ,  7-H ) :   0.1571
B(  1-C ,  8-H ) :   0.2293 B(  1-C ,  9-H ) :   0.2211 B(  1-C , 10-H ) :   0.2160
B(  2-H ,  3-C ) :   0.1052 B(  3-C ,  4-H ) :   0.1125 B(  3-C ,  5-O ) :   1.2018
B(  3-C ,  6-H ) :   0.9290 B(  3-C ,  7-H ) :   0.9210

FINAL SINGLE POINT ENERGY      -193.510915913317

DIPOLE MOMENT
-------------
                                X             Y             Z
Electronic contribution:      1.21751      -0.52104       2.48586
Nuclear contribution   :     -2.20255       0.75707      -4.26861
                        -----------------------------------------
Total Dipole Moment    :     -0.98504       0.23603      -1.78275
                        -----------------------------------------
Magnitude (a.u.)       :      2.05042
Magnitude (Debye)      :      5.21175

Rotational constants in cm-1:     0.480704     0.187939     0.150770
Rotational constants in MHz : 14411.155440  5634.276828  4519.982802

                             ****ORCA TERMINATED NORMALLY****
TOTAL RUN TIME: 0 days 0 hours 0 minutes 14 seconds 344 msec
