                         Program Version 5.0.0 -  RELEASE  -
|  1> !CAM-B3LYP RIJCOSX def2-SVPD def2/J TightSCF
|  2> *xyz 1 1
|  3> C          1.64703       -2.34528       -5.02041
|  4> C          0.21763       -1.81402       -4.92439
|  5> C          2.20996       -2.81239       -3.66571
|  6> H          2.30838       -1.58870       -5.45713
|  7> H          1.67429       -3.20348       -5.69739
|  8> C          2.48901       -1.66851       -2.73754
|  9> N          3.59631       -0.94761       -2.95225
| 10> N          1.66394       -1.41369       -1.77781
| 11> H          0.81164       -1.96318       -1.70275
| 12> H          1.84550       -0.63508       -1.15875
| 13> H          4.20535       -1.17600       -3.73383
| 14> H          3.81723       -0.12585       -2.40604
| 15> H          3.14311       -3.36280       -3.81152
| 16> H          1.48768       -3.45893       -3.16521
| 17> H         -0.11459       -1.50684       -5.89401
| 18> H          0.19193       -0.97796       -4.25713
| 19> H         -0.42543       -2.58523       -4.55479
| 20> *
| 21>
| 22> %MaxCore 64000
| 23> %pal nprocs 4
| 24> end
| 25>
| 26> %scf
| 27>   MaxIter 150
| 28> end
| 29>
| 30>
| 31>                          ****END OF INPUT****

CARTESIAN COORDINATES (ANGSTROEM)
---------------------------------
  C      1.647030   -2.345280   -5.020410
  C      0.217630   -1.814020   -4.924390
  C      2.209960   -2.812390   -3.665710
  H      2.308380   -1.588700   -5.457130
  H      1.674290   -3.203480   -5.697390
  C      2.489010   -1.668510   -2.737540
  N      3.596310   -0.947610   -2.952250
  N      1.663940   -1.413690   -1.777810
  H      0.811640   -1.963180   -1.702750
  H      1.845500   -0.635080   -1.158750
  H      4.205350   -1.176000   -3.733830
  H      3.817230   -0.125850   -2.406040
  H      3.143110   -3.362800   -3.811520
  H      1.487680   -3.458930   -3.165210
  H     -0.114590   -1.506840   -5.894010
  H      0.191930   -0.977960   -4.257130
  H     -0.425430   -2.585230   -4.554790

 Total Charge           Charge          ....    1
 Multiplicity           Mult            ....    1
 Number of Electrons    NEL             ....   48
 Basis Dimension        Dim             ....  208

ORBITAL ENERGIES
----------------

  NO   OCC          E(Eh)            E(eV)
   0   2.0000     -14.655648      -398.8005
   1   2.0000     -14.645781      -398.5320
   2   2.0000     -10.582171      -287.9555
   3   2.0000     -10.452246      -284.4201
   4   2.0000     -10.419998      -283.5426
   5   2.0000     -10.385378      -282.6005
   6   2.0000      -1.280277       -34.8381
   7   2.0000      -1.181444       -32.1487
   8   2.0000      -1.050632       -28.5892
   9   2.0000      -0.962529       -26.1917
  10   2.0000      -0.906530       -24.6679
  11   2.0000      -0.860226       -23.4079
  12   2.0000      -0.841704       -22.9039
  13   2.0000      -0.806673       -21.9507
  14   2.0000      -0.773121       -21.0377
  15   2.0000      -0.724890       -19.7253
  16   2.0000      -0.695418       -18.9233
  17   2.0000      -0.668640       -18.1946
  18   2.0000      -0.640386       -17.4258
  19   2.0000      -0.628969       -17.1151
  20   2.0000      -0.571497       -15.5512
  21   2.0000      -0.566676       -15.4200
  22   2.0000      -0.561841       -15.2885
  23   2.0000      -0.550533       -14.9808
  24   0.0000      -0.160487        -4.3671
  25   0.0000      -0.122690        -3.3386
  26   0.0000      -0.083593        -2.2747
  27   0.0000      -0.077296        -2.1033
  28   0.0000      -0.053033        -1.4431

MULLIKEN ATOMIC CHARGES
-----------------------
   0 C :   -0.140143
   1 C :    0.956452
   2 C :    0.176403
   3 H :   -0.098194
   4 H :   -0.120137
   5 C :    0.569005
   6 N :    0.140639
   7 N :    0.194242
   8 H :    0.054478
   9 H :   -0.122929
  10 H :    0.012012
  11 H :   -0.160296
  12 H :   -0.100332
  13 H :   -0.013146
  14 H :   -0.135219
  15 H :   -0.184900
  16 H :   -0.027936
Sum of atomic charges:    1.0000000

LOEWDIN ATOMIC CHARGES
----------------------
   0 C :   -0.042357
   1 C :    0.141331
   2 C :    0.044082
   3 H :    0.026327
   4 H :    0.039576
   5 C :   -0.049704
   6 N :    0.285116
   7 N :    0.292211
   8 H :    0.060730
   9 H :    0.055077
  10 H :    0.051121
  11 H :    0.042048
  12 H :    0.047695
  13 H :    0.037316
  14 H :    0.000196
  15 H :   -0.024788
  16 H :   -0.005977

  Mayer bond orders larger than 0.100000
B(  0-C ,  1-C ) :   1.3097 B(  0-C ,  2-C ) :   1.1571 B(  0-C ,  3-H ) :   0.8761
B(  0-C ,  4-H ) :   0.9444 B(  0-C , 13-H ) :   0.1159 B(  0-C , 14-H ) :   0.2338
B(  0-C , 15-H ) :   0.2394 B(  0-C , 16-H ) :   0.2160 B(  1-C , 14-H ) :   0.7446
B(  1-C , 15-H ) :   0.7569 B(  1-C , 16-H ) :   0.7415 B(  2-C ,  3-H ) :   0.1282
B(  2-C ,  4-H ) :   0.1058 B(  2-C ,  5-C ) :   1.1044 B(  2-C ,  6-N ) :   0.1201
B(  2-C ,  7-N ) :   0.1030 B(  2-C , 12-H ) :   0.8858 B(  2-C , 13-H ) :   0.8104
B(  5-C ,  6-N ) :   1.1323 B(  5-C ,  7-N ) :   1.1737 B(  5-C ,  9-H ) :  -0.1542
B(  5-C , 11-H ) :  -0.1528 B(  5-C , 12-H ) :   0.1027 B(  5-C , 13-H ) :   0.1577
B(  6-N ,  7-N ) :   0.1511 B(  6-N , 10-H ) :   1.1130 B(  6-N , 11-H ) :   1.2839
B(  7-N ,  8-H ) :   1.0823 B(  7-N ,  9-H ) :   1.2806 B(  8-H ,  9-H ) :  -0.1697
B( 10-H , 11-H ) :  -0.1798

FINAL SINGLE POINT ENERGY      -268.020141532823

DIPOLE MOMENT
-------------
                                X             Y             Z
Electronic contribution:      3.27048       1.27496       4.37672
Nuclear contribution   :     -2.54148      -0.64126      -3.14660
                        -----------------------------------------
Total Dipole Moment    :      0.72900       0.63370       1.23012
                        -----------------------------------------
Magnitude (a.u.)       :      1.56404
Magnitude (Debye)      :      3.97546

Rotational constants in cm-1:     0.179759     0.078784     0.067518
Rotational constants in MHz :  5389.046501  2361.884510  2024.132984

                             ****ORCA TERMINATED NORMALLY****
TOTAL RUN TIME: 0 days 0 hours 0 minutes 38 seconds 26 msec
