                         Program Version 5.0.0 -  RELEASE  -
|  1> !CAM-B3LYP RIJCOSX def2-SVPD def2/J TightSCF
|  2> *xyz 0 1
|  3> C         -0.81136       -2.90878       -4.60763
|  4> C         -1.91658       -2.48508       -3.64367
|  5> H         -2.55452       -1.71243       -4.09199
|  6> C         -1.36353       -1.98134       -2.29361
|  7> H         -2.55345       -3.35567       -3.45881
|  8> F         -0.35039       -2.74969       -1.79601
|  9> H         -2.22622       -1.90839       -1.60204
| 10> H         -1.05135       -0.91567       -2.44333
| 11> H         -1.24783       -3.24801       -5.52377
| 12> H         -0.24047       -3.70079       -4.16978
| 13> H         -0.17107       -2.07453       -4.80501
| 14> *
| 15>
| 16> %MaxCore 64000
| 17> %pal nprocs 4
| 18> end
| 19>
| 20> %scf
| 21>   MaxIter 150
| 22> end
| 23>
| 24>
| 25>                          ****END OF INPUT****

CARTESIAN COORDINATES (ANGSTROEM)
---------------------------------
  C     -0.811360   -2.908780   -4.607630
  C     -1.916580   -2.485080   -3.643670
  H     -2.554520   -1.712430   -4.091990
  C     -1.363530   -1.981340   -2.293610
  H     -2.553450   -3.355670   -3.458810
  F     -0.350390   -2.749690   -1.796010
  H     -2.226220   -1.908390   -1.602040
  H     -1.051350   -0.915670   -2.443330
  H     -1.247830   -3.248010   -5.523770
  H     -0.240470   -3.700790   -4.169780
  H     -0.171070   -2.074530   -4.805010

 Total Charge           Charge          ....    0
 Multiplicity           Mult            ....    1
 Number of Electrons    NEL             ....   34
 Basis Dimension        Dim             ....  139

ORBITAL ENERGIES
----------------

  NO   OCC          E(Eh)            E(eV)
   0   2.0000     -24.765049      -673.8912
   1   2.0000     -10.339406      -281.3495
   2   2.0000     -10.265603      -279.3413
   3   2.0000     -10.244820      -278.7757
   4   2.0000      -1.269940       -34.5568
   5   2.0000      -0.865866       -23.5614
   6   2.0000      -0.765468       -20.8294
   7   2.0000      -0.668991       -18.2042
   8   2.0000      -0.584806       -15.9134
   9   2.0000      -0.570750       -15.5309
  10   2.0000      -0.548689       -14.9306
  11   2.0000      -0.508286       -13.8312
  12   2.0000      -0.469128       -12.7656
  13   2.0000      -0.442751       -12.0479
  14   2.0000      -0.424186       -11.5427
  15   2.0000      -0.394948       -10.7471
  16   2.0000      -0.389078       -10.5874
  17   0.0000       0.050248         1.3673
  18   0.0000       0.075610         2.0575
  19   0.0000       0.086152         2.3443
  20   0.0000       0.103122         2.8061
  21   0.0000       0.125920         3.4265

MULLIKEN ATOMIC CHARGES
-----------------------
   0 C :    0.820730
   1 C :   -0.336741
   2 H :   -0.144580
   3 C :    0.815856
   4 H :   -0.122604
   5 F :   -0.427871
   6 H :   -0.153622
   7 H :   -0.083007
   8 H :   -0.155378
   9 H :   -0.082950
  10 H :   -0.129833
Sum of atomic charges:   -0.0000000

LOEWDIN ATOMIC CHARGES
----------------------
   0 C :    0.119625
   1 C :   -0.065364
   2 H :    0.026469
   3 C :    0.093610
   4 H :    0.019201
   5 F :   -0.207801
   6 H :    0.028897
   7 H :    0.037665
   8 H :   -0.019369
   9 H :   -0.017710
  10 H :   -0.015222

  Mayer bond orders larger than 0.100000
B(  0-C ,  1-C ) :   1.2983 B(  0-C ,  8-H ) :   0.7750 B(  0-C ,  9-H ) :   0.7876
B(  0-C , 10-H ) :   0.7800 B(  1-C ,  2-H ) :   0.9442 B(  1-C ,  3-C ) :   1.1835
B(  1-C ,  4-H ) :   0.9098 B(  1-C ,  6-H ) :   0.1269 B(  1-C ,  7-H ) :   0.1297
B(  1-C ,  8-H ) :   0.2145 B(  1-C ,  9-H ) :   0.1904 B(  1-C , 10-H ) :   0.1974
B(  3-C ,  5-F ) :   0.7554 B(  3-C ,  6-H ) :   0.8933 B(  3-C ,  7-H ) :   0.8726

FINAL SINGLE POINT ENERGY      -218.122836482822

DIPOLE MOMENT
-------------
                                X             Y             Z
Electronic contribution:      2.57226      -0.68569       5.47172
Nuclear contribution   :     -3.10989       1.02097      -5.82098
                        -----------------------------------------
Total Dipole Moment    :     -0.53764       0.33529      -0.34926
                        -----------------------------------------
Magnitude (a.u.)       :      0.72350
Magnitude (Debye)      :      1.83899

Rotational constants in cm-1:     0.466172     0.177379     0.142652
Rotational constants in MHz : 13975.492374  5317.681709  4276.599690

                             ****ORCA TERMINATED NORMALLY****
TOTAL RUN TIME: 0 days 0 hours 0 minutes 13 seconds 972 msec
