                         Program Version 5.0.0 -  RELEASE  -
|  1> !CAM-B3LYP RIJCOSX def2-SVPD def2/J TightSCF
|  2> *xyz 0 1
|  3> C          1.64703       -2.34528       -5.02041
|  4> C          0.21763       -1.81402       -4.92439
|  5> C          2.20996       -2.81239       -3.66571
|  6> H          2.30838       -1.58870       -5.45713
|  7> H          1.67429       -3.20348       -5.69739
|  8> C          2.48901       -1.66851       -2.73754
|  9> C          3.59631       -0.94761       -2.95225
| 10> N          1.66394       -1.41369       -1.77781
| 11> H          0.81164       -1.96318       -1.70275
| 12> H          1.84550       -0.63508       -1.15875
| 13> H          4.20535       -1.17600       -3.73383
| 14> H          3.81723       -0.12585       -2.40604
| 15> H          3.14311       -3.36280       -3.81152
| 16> H          1.48768       -3.45893       -3.16521
| 17> H         -0.11459       -1.50684       -5.89401
| 18> H          0.19193       -0.97796       -4.25713
| 19> H         -0.42543       -2.58523       -4.55479
| 20> *
| 21>
| 22> %MaxCore 64000
| 23> %pal nprocs 4
| 24> end
| 25>
| 26> %scf
| 27>   MaxIter 150
| 28> end
| 29>
| 30>
| 31>                          ****END OF INPUT****

CARTESIAN COORDINATES (ANGSTROEM)
---------------------------------
  C      1.647030   -2.345280   -5.020410
  C      0.217630   -1.814020   -4.924390
  C      2.209960   -2.812390   -3.665710
  H      2.308380   -1.588700   -5.457130
  H      1.674290   -3.203480   -5.697390
  C      2.489010   -1.668510   -2.737540
  C      3.596310   -0.947610   -2.952250
  N      1.663940   -1.413690   -1.777810
  H      0.811640   -1.963180   -1.702750
  H      1.845500   -0.635080   -1.158750
  H      4.205350   -1.176000   -3.733830
  H      3.817230   -0.125850   -2.406040
  H      3.143110   -3.362800   -3.811520
  H      1.487680   -3.458930   -3.165210
  H     -0.114590   -1.506840   -5.894010
  H      0.191930   -0.977960   -4.257130
  H     -0.425430   -2.585230   -4.554790

 Total Charge           Charge          ....    0
 Multiplicity           Mult            ....    1
 Number of Electrons    NEL             ....   48
 Basis Dimension        Dim             ....  208

ORBITAL ENERGIES
----------------

  NO   OCC          E(Eh)            E(eV)
   0   2.0000     -14.411189      -392.1484
   1   2.0000     -10.279921      -279.7309
   2   2.0000     -10.256129      -279.0835
   3   2.0000     -10.253489      -279.0116
   4   2.0000     -10.240906      -278.6692
   5   2.0000     -10.188050      -277.2309
   6   2.0000      -1.015621       -27.6365
   7   2.0000      -0.870748       -23.6943
   8   2.0000      -0.805610       -21.9218
   9   2.0000      -0.753562       -20.5055
  10   2.0000      -0.681049       -18.5323
  11   2.0000      -0.635279       -17.2868
  12   2.0000      -0.601352       -16.3636
  13   2.0000      -0.556638       -15.1469
  14   2.0000      -0.523997       -14.2587
  15   2.0000      -0.500696       -13.6246
  16   2.0000      -0.472900       -12.8683
  17   2.0000      -0.459414       -12.5013
  18   2.0000      -0.440515       -11.9870
  19   2.0000      -0.425521       -11.5790
  20   2.0000      -0.404344       -11.0028
  21   2.0000      -0.393271       -10.7014
  22   2.0000      -0.389827       -10.6077
  23   2.0000      -0.243061        -6.6140
  24   0.0000       0.047055         1.2804
  25   0.0000       0.072066         1.9610
  26   0.0000       0.076251         2.0749
  27   0.0000       0.080386         2.1874
  28   0.0000       0.101617         2.7651

MULLIKEN ATOMIC CHARGES
-----------------------
   0 C :   -0.213585
   1 C :    0.925626
   2 C :    0.430049
   3 H :   -0.104690
   4 H :   -0.165536
   5 C :   -0.179648
   6 C :    0.606582
   7 N :    0.313887
   8 H :   -0.076911
   9 H :   -0.168603
  10 H :   -0.227656
  11 H :   -0.589454
  12 H :   -0.053210
  13 H :   -0.123949
  14 H :   -0.167020
  15 H :   -0.167795
  16 H :   -0.038088
Sum of atomic charges:    0.0000000

LOEWDIN ATOMIC CHARGES
----------------------
   0 C :   -0.062229
   1 C :    0.120856
   2 C :    0.004678
   3 H :    0.019722
   4 H :    0.015939
   5 C :   -0.267020
   6 C :    0.174902
   7 N :    0.174791
   8 H :    0.008264
   9 H :    0.015732
  10 H :   -0.083714
  11 H :   -0.095192
  12 H :    0.027283
  13 H :    0.012440
  14 H :   -0.020376
  15 H :   -0.025764
  16 H :   -0.020313

  Mayer bond orders larger than 0.100000
B(  0-C ,  1-C ) :   1.2891 B(  0-C ,  2-C ) :   1.1581 B(  0-C ,  3-H ) :   0.9180
B(  0-C ,  4-H ) :   0.9461 B(  0-C , 12-H ) :   0.1076 B(  0-C , 13-H ) :   0.1542
B(  0-C , 14-H ) :   0.2434 B(  0-C , 15-H ) :   0.2408 B(  0-C , 16-H ) :   0.2262
B(  1-C , 14-H ) :   0.7273 B(  1-C , 15-H ) :   0.7832 B(  1-C , 16-H ) :   0.7420
B(  2-C ,  3-H ) :   0.1506 B(  2-C ,  5-C ) :   1.0596 B(  2-C ,  6-C ) :   0.2025
B(  2-C ,  7-N ) :   0.1203 B(  2-C , 12-H ) :   0.8212 B(  2-C , 13-H ) :   0.6825
B(  5-C ,  6-C ) :   1.7181 B(  5-C ,  7-N ) :   1.2197 B(  5-C , 11-H ) :   0.1839
B(  5-C , 12-H ) :   0.1446 B(  5-C , 13-H ) :   0.2349 B(  6-C ,  7-N ) :   0.2669
B(  6-C , 10-H ) :   0.7997 B(  6-C , 11-H ) :   0.6609 B(  7-N ,  8-H ) :   1.0529
B(  7-N ,  9-H ) :   1.2246 B(  8-H ,  9-H ) :  -0.1551

FINAL SINGLE POINT ENERGY      -251.557929760602

DIPOLE MOMENT
-------------
                                X             Y             Z
Electronic contribution:      1.44279       0.27862       3.29140
Nuclear contribution   :     -2.15663      -0.43764      -3.01766
                        -----------------------------------------
Total Dipole Moment    :     -0.71385      -0.15901       0.27374
                        -----------------------------------------
Magnitude (a.u.)       :      0.78089
Magnitude (Debye)      :      1.98488

Rotational constants in cm-1:     0.184410     0.080989     0.069427
Rotational constants in MHz :  5528.462717  2427.993314  2081.376031

                             ****ORCA TERMINATED NORMALLY****
TOTAL RUN TIME: 0 days 0 hours 0 minutes 40 seconds 158 msec
