                         Program Version 5.0.0 -  RELEASE  -
|  1> !CAM-B3LYP RIJCOSX def2-SVPD def2/J TightSCF
|  2> *xyz 0 1
|  3> C          1.64703       -2.34528       -5.02041
|  4> C          0.21763       -1.81402       -4.92439
|  5> C          2.20996       -2.81239       -3.66571
|  6> H          2.30838       -1.58870       -5.45713
|  7> H          1.67429       -3.20348       -5.69739
|  8> C          2.48901       -1.66851       -2.73754
|  9> N          3.59631       -0.94761       -2.95225
| 10> C          1.66394       -1.41369       -1.77781
| 11> H          0.81164       -1.96318       -1.70275
| 12> H          1.84550       -0.63508       -1.15875
| 13> H          4.20535       -1.17600       -3.73383
| 14> H          3.81723       -0.12585       -2.40604
| 15> H          3.14311       -3.36280       -3.81152
| 16> H          1.48768       -3.45893       -3.16521
| 17> H         -0.11459       -1.50684       -5.89401
| 18> H          0.19193       -0.97796       -4.25713
| 19> H         -0.42543       -2.58523       -4.55479
| 20> *
| 21>
| 22> %MaxCore 64000
| 23> %pal nprocs 4
| 24> end
| 25>
| 26> %scf
| 27>   MaxIter 150
| 28> end
| 29>
| 30>
| 31>                          ****END OF INPUT****

CARTESIAN COORDINATES (ANGSTROEM)
---------------------------------
  C      1.647030   -2.345280   -5.020410
  C      0.217630   -1.814020   -4.924390
  C      2.209960   -2.812390   -3.665710
  H      2.308380   -1.588700   -5.457130
  H      1.674290   -3.203480   -5.697390
  C      2.489010   -1.668510   -2.737540
  N      3.596310   -0.947610   -2.952250
  C      1.663940   -1.413690   -1.777810
  H      0.811640   -1.963180   -1.702750
  H      1.845500   -0.635080   -1.158750
  H      4.205350   -1.176000   -3.733830
  H      3.817230   -0.125850   -2.406040
  H      3.143110   -3.362800   -3.811520
  H      1.487680   -3.458930   -3.165210
  H     -0.114590   -1.506840   -5.894010
  H      0.191930   -0.977960   -4.257130
  H     -0.425430   -2.585230   -4.554790

 Total Charge           Charge          ....    0
 Multiplicity           Mult            ....    1
 Number of Electrons    NEL             ....   48
 Basis Dimension        Dim             ....  208

ORBITAL ENERGIES
----------------

  NO   OCC          E(Eh)            E(eV)
   0   2.0000     -14.404095      -391.9554
   1   2.0000     -10.276512      -279.6381
   2   2.0000     -10.254669      -279.0437
   3   2.0000     -10.254419      -279.0369
   4   2.0000     -10.235439      -278.5205
   5   2.0000     -10.192115      -277.3415
   6   2.0000      -0.996729       -27.1224
   7   2.0000      -0.869690       -23.6655
   8   2.0000      -0.812635       -22.1129
   9   2.0000      -0.758530       -20.6407
  10   2.0000      -0.669385       -18.2149
  11   2.0000      -0.636518       -17.3205
  12   2.0000      -0.592514       -16.1231
  13   2.0000      -0.548017       -14.9123
  14   2.0000      -0.518442       -14.1075
  15   2.0000      -0.512757       -13.9528
  16   2.0000      -0.468098       -12.7376
  17   2.0000      -0.458840       -12.4857
  18   2.0000      -0.440286       -11.9808
  19   2.0000      -0.430389       -11.7115
  20   2.0000      -0.401880       -10.9357
  21   2.0000      -0.387422       -10.5423
  22   2.0000      -0.384187       -10.4543
  23   2.0000      -0.255781        -6.9601
  24   0.0000       0.048124         1.3095
  25   0.0000       0.073902         2.0110
  26   0.0000       0.074771         2.0346
  27   0.0000       0.082121         2.2346
  28   0.0000       0.106061         2.8861

MULLIKEN ATOMIC CHARGES
-----------------------
   0 C :   -0.124285
   1 C :    0.943287
   2 C :    0.357184
   3 H :   -0.133739
   4 H :   -0.151425
   5 C :   -0.078088
   6 N :    0.224695
   7 C :    0.554804
   8 H :   -0.164035
   9 H :   -0.523015
  10 H :   -0.147901
  11 H :   -0.210827
  12 H :   -0.188468
  13 H :    0.024056
  14 H :   -0.163109
  15 H :   -0.164014
  16 H :   -0.055119
Sum of atomic charges:    0.0000000

LOEWDIN ATOMIC CHARGES
----------------------
   0 C :   -0.066317
   1 C :    0.123971
   2 C :    0.003110
   3 H :    0.014000
   4 H :    0.015269
   5 C :   -0.264346
   6 N :    0.176107
   7 C :    0.170683
   8 H :   -0.070896
   9 H :   -0.078428
  10 H :   -0.002763
  11 H :    0.000814
  12 H :    0.020330
  13 H :    0.021793
  14 H :   -0.021680
  15 H :   -0.025238
  16 H :   -0.016409

  Mayer bond orders larger than 0.100000
B(  0-C ,  1-C ) :   1.2833 B(  0-C ,  2-C ) :   1.1284 B(  0-C ,  3-H ) :   0.8768
B(  0-C ,  4-H ) :   0.9000 B(  0-C , 13-H ) :   0.1250 B(  0-C , 14-H ) :   0.2439
B(  0-C , 15-H ) :   0.2449 B(  0-C , 16-H ) :   0.2257 B(  1-C , 14-H ) :   0.7275
B(  1-C , 15-H ) :   0.7797 B(  1-C , 16-H ) :   0.7363 B(  2-C ,  3-H ) :   0.1512
B(  2-C ,  4-H ) :   0.1294 B(  2-C ,  5-C ) :   1.1130 B(  2-C ,  6-N ) :   0.1315
B(  2-C ,  7-C ) :   0.1790 B(  2-C , 12-H ) :   0.8592 B(  2-C , 13-H ) :   0.7712
B(  5-C ,  6-N ) :   1.1985 B(  5-C ,  7-C ) :   1.7169 B(  5-C ,  8-H ) :   0.1321
B(  5-C ,  9-H ) :   0.2936 B(  5-C , 12-H ) :   0.1669 B(  5-C , 13-H ) :   0.1755
B(  6-N ,  7-C ) :   0.2469 B(  6-N , 10-H ) :   1.1536 B(  6-N , 11-H ) :   1.2431
B(  7-C ,  8-H ) :   0.9054 B(  7-C ,  9-H ) :   0.5205 B( 10-H , 11-H ) :  -0.1588
B( 15-H , 16-H ) :   0.1015

FINAL SINGLE POINT ENERGY      -251.562380592324

DIPOLE MOMENT
-------------
                                X             Y             Z
Electronic contribution:      3.11402       0.69751       2.30477
Nuclear contribution   :     -2.61370      -0.54788      -2.73987
                        -----------------------------------------
Total Dipole Moment    :      0.50032       0.14963      -0.43510
                        -----------------------------------------
Magnitude (a.u.)       :      0.67972
Magnitude (Debye)      :      1.72771

Rotational constants in cm-1:     0.186678     0.079942     0.069329
Rotational constants in MHz :  5596.476267  2396.611465  2078.426257

                             ****ORCA TERMINATED NORMALLY****
TOTAL RUN TIME: 0 days 0 hours 0 minutes 36 seconds 525 msec
