                         Program Version 5.0.0 -  RELEASE  -
|  1> !CAM-B3LYP RIJCOSX def2-SVPD def2/J TightSCF xyzfile
|  2>
|  3> *xyzfile 0 1 D2.xyz
|  4>
|  5> %MaxCore 64000
|  6>
|  7> %pal nprocs 4
|  8> end
|  9>
| 10> %scf
| 11>   MaxIter 150
| 12> end
| 13>
| 14>
| 15>                          ****END OF INPUT****

CARTESIAN COORDINATES (ANGSTROEM)
---------------------------------
  C      1.647032   -2.345276   -5.020411
  C      0.217628   -1.814022   -4.924389
  C      2.209964   -2.812388   -3.665708
  C     -0.811356   -2.908780   -4.607625
  C     -1.916579   -2.485081   -3.643665
  H     -2.554525   -1.712428   -4.091993
  C     -1.363531   -1.981337   -2.293608
  H     -2.553448   -3.355667   -3.458815
  F     -0.350395   -2.749689   -1.796006
  H      2.308385   -1.588704   -5.457128
  H      1.674286   -3.203478   -5.697392
  C      2.489007   -1.668510   -2.737538
  N      3.596314   -0.947608   -2.952247
  C      1.663936   -1.413685   -1.777806
  H      0.811642   -1.963178   -1.702755
  H      1.845503   -0.635078   -1.158749
  H      4.205351   -1.176003   -3.733825
  H      3.817230   -0.125845   -2.406041
  H     -1.244829   -3.280884   -5.541040
  H     -0.306331   -3.757746   -4.142734
  H     -0.036244   -1.318555   -5.865303
  H      0.175004   -1.035382   -4.158095
  H      3.143106   -3.362803   -3.811524
  H      1.487683   -3.458935   -3.165211
  H     -2.226220   -1.908386   -1.602039
  H     -1.051353   -0.915671   -2.443331

 Total Charge           Charge          ....    0
 Multiplicity           Mult            ....    1
 Number of Electrons    NEL             ....   80
 Basis Dimension        Dim             ....  331

ORBITAL ENERGIES
----------------

  NO   OCC          E(Eh)            E(eV)
   0   2.0000     -24.776919      -674.2142
   1   2.0000     -14.390414      -391.5831
   2   2.0000     -10.341764      -281.4137
   3   2.0000     -10.265481      -279.3379
   4   2.0000     -10.258798      -279.1561
   5   2.0000     -10.252595      -278.9873
   6   2.0000     -10.249389      -278.9000
   7   2.0000     -10.245687      -278.7993
   8   2.0000     -10.243604      -278.7426
   9   2.0000     -10.157652      -276.4038
  10   2.0000      -1.293670       -35.2026
  11   2.0000      -0.982604       -26.7380
  12   2.0000      -0.890802       -24.2399
  13   2.0000      -0.854257       -23.2455
  14   2.0000      -0.802581       -21.8394
  15   2.0000      -0.776571       -21.1316
  16   2.0000      -0.732256       -19.9257
  17   2.0000      -0.677380       -18.4325
  18   2.0000      -0.643782       -17.5182
  19   2.0000      -0.641753       -17.4630
  20   2.0000      -0.601025       -16.3547
  21   2.0000      -0.588717       -16.0198
  22   2.0000      -0.570977       -15.5371
  23   2.0000      -0.560888       -15.2625
  24   2.0000      -0.533812       -14.5258
  25   2.0000      -0.517831       -14.0909
  26   2.0000      -0.512974       -13.9587
  27   2.0000      -0.500484       -13.6189
  28   2.0000      -0.471862       -12.8400
  29   2.0000      -0.451588       -12.2883
  30   2.0000      -0.436408       -11.8753
  31   2.0000      -0.424873       -11.5614
  32   2.0000      -0.418040       -11.3755
  33   2.0000      -0.404462       -11.0060
  34   2.0000      -0.393918       -10.7191
  35   2.0000      -0.389975       -10.6118
  36   2.0000      -0.376432       -10.2432
  37   2.0000      -0.371832       -10.1181
  38   2.0000      -0.359327        -9.7778
  39   2.0000      -0.238449        -6.4885
  40   0.0000       0.052402         1.4259
  41   0.0000       0.058346         1.5877
  42   0.0000       0.067110         1.8262
  43   0.0000       0.076833         2.0907
  44   0.0000       0.089552         2.4368

MULLIKEN ATOMIC CHARGES
-----------------------
   0 C :    0.455392
   1 C :    0.354190
   2 C :    0.510230
   3 C :    0.218777
   4 C :    0.373469
   5 H :   -0.198592
   6 C :    0.732253
   7 H :   -0.066325
   8 F :   -0.514098
   9 H :   -0.125468
  10 H :   -0.186989
  11 C :   -0.044162
  12 N :    0.203566
  13 C :    1.325247
  14 H :   -0.610105
  15 H :   -0.847269
  16 H :   -0.157393
  17 H :   -0.210697
  18 H :   -0.292557
  19 H :   -0.060197
  20 H :   -0.255183
  21 H :   -0.152244
  22 H :   -0.252262
  23 H :   -0.080535
  24 H :   -0.382138
  25 H :    0.263089
Sum of atomic charges:   -0.0000000

LOEWDIN ATOMIC CHARGES
----------------------
   0 C :   -0.019012
   1 C :   -0.014941
   2 C :    0.022123
   3 C :   -0.025146
   4 C :   -0.011068
   5 H :    0.032893
   6 C :    0.142542
   7 H :    0.022694
   8 F :   -0.194699
   9 H :    0.015712
  10 H :    0.019664
  11 C :   -0.240802
  12 N :    0.170452
  13 C :    0.202512
  14 H :   -0.185033
  15 H :   -0.072328
  16 H :   -0.007451
  17 H :   -0.002508
  18 H :    0.022898
  19 H :    0.006600
  20 H :    0.019486
  21 H :   -0.001610
  22 H :    0.021869
  23 H :    0.002186
  24 H :    0.036105
  25 H :    0.036864

  Mayer bond orders larger than 0.100000
B(  0-C ,  1-C ) :   1.2160 B(  0-C ,  2-C ) :   1.0706 B(  0-C ,  9-H ) :   0.7077
B(  0-C , 10-H ) :   0.7780 B(  0-C , 21-H ) :   0.1888 B(  0-C , 22-H ) :   0.1192
B(  0-C , 23-H ) :   0.1012 B(  1-C ,  2-C ) :   0.1354 B(  1-C ,  3-C ) :   1.1342
B(  1-C ,  9-H ) :   0.2031 B(  1-C , 18-H ) :   0.2156 B(  1-C , 19-H ) :   0.1031
B(  1-C , 20-H ) :   0.7946 B(  1-C , 21-H ) :   0.7603 B(  2-C ,  9-H ) :   0.1211
B(  2-C , 10-H ) :   0.1726 B(  2-C , 11-C ) :   1.2000 B(  2-C , 12-N ) :   0.1580
B(  2-C , 13-C ) :   0.1623 B(  2-C , 14-H ) :  -0.1206 B(  2-C , 21-H ) :  -0.1201
B(  2-C , 22-H ) :   0.7492 B(  2-C , 23-H ) :   0.8047 B(  3-C ,  4-C ) :   1.2290
B(  3-C ,  5-H ) :   0.1370 B(  3-C ,  7-H ) :   0.2332 B(  3-C , 18-H ) :   0.8367
B(  3-C , 19-H ) :   0.7762 B(  3-C , 20-H ) :   0.1318 B(  3-C , 21-H ) :   0.1643
B(  4-C ,  5-H ) :   0.8380 B(  4-C ,  6-C ) :   1.2294 B(  4-C ,  7-H ) :   0.6471
B(  4-C , 24-H ) :   0.1518 B(  5-H ,  6-C ) :   0.1220 B(  6-C ,  7-H ) :   0.1077
B(  6-C ,  8-F ) :   0.6052 B(  6-C , 14-H ) :   0.1048 B(  6-C , 24-H ) :   0.9776
B(  6-C , 25-H ) :   0.7392 B(  8-F , 14-H ) :   0.2663 B(  8-F , 24-H ) :  -0.1044
B( 11-C , 12-N ) :   1.0492 B( 11-C , 13-C ) :   1.8655 B( 11-C , 14-H ) :   0.2050
B( 11-C , 15-H ) :   0.2459 B( 11-C , 21-H ) :   0.1135 B( 11-C , 22-H ) :   0.2460
B( 11-C , 23-H ) :   0.1741 B( 12-N , 13-C ) :   0.3473 B( 12-N , 16-H ) :   1.1696
B( 12-N , 17-H ) :   1.2636 B( 13-C , 14-H ) :   0.3669 B( 13-C , 15-H ) :   0.3626
B( 13-C , 23-H ) :  -0.1182 B( 14-H , 15-H ) :  -0.3307 B( 15-H , 21-H ) :  -0.1313
B( 16-H , 17-H ) :  -0.1592 B( 19-H , 23-H ) :   0.1299 B( 24-H , 25-H ) :  -0.1019

FINAL SINGLE POINT ENERGY      -468.454745282254

DIPOLE MOMENT
-------------
                                X             Y             Z
Electronic contribution:      0.38258      -1.30693       6.06576
Nuclear contribution   :     -0.73748       1.64619      -6.72655
                        -----------------------------------------
Total Dipole Moment    :     -0.35491       0.33926      -0.66079
                        -----------------------------------------
Magnitude (a.u.)       :      0.82322
Magnitude (Debye)      :      2.09247

Rotational constants in cm-1:     0.063169     0.031711     0.023958
Rotational constants in MHz :  1893.751676   950.657187   718.229932

                             ****ORCA TERMINATED NORMALLY****
TOTAL RUN TIME: 0 days 0 hours 2 minutes 20 seconds 326 msec
