                         Program Version 5.0.0 -  RELEASE  -
|  1> !wB97X-D3 RIJCOSX def2-SVP def2/J TightSCF
|  2> *xyz -1 1
|  3> C         -7.33044       -2.67899       -3.20681
|  4> S         -6.01966       -2.92697       -4.41913
|  5> O         -5.64583       -1.58838       -4.91931
|  6> O         -4.88196       -3.50370       -3.66724
|  7> O         -6.54927       -3.80515       -5.42507
|  8> C         -6.28692       -0.73588       -1.89353
|  9> C         -7.46900       -1.24615       -2.71383
| 10> H         -7.60191       -0.60135       -3.58533
| 11> H         -8.38979       -1.17344       -2.12692
| 12> H         -7.11825       -3.37982       -2.39805
| 13> H         -8.24184       -3.00474       -3.70651
| 14> H         -5.39124       -0.81034       -2.47415
| 15> H         -6.18709       -1.32597       -1.00655
| 16> H         -6.45393        0.28631       -1.62495
| 17> *
| 18> %MaxCore 64000
| 19>
| 20> %pal nprocs 8
| 21> end
| 22>
| 23> %scf
| 24>   MaxIter 150
| 25> end
| 26>
| 27>
| 28>                          ****END OF INPUT****

CARTESIAN COORDINATES (ANGSTROEM)
---------------------------------
  C     -7.330440   -2.678990   -3.206810
  S     -6.019660   -2.926970   -4.419130
  O     -5.645830   -1.588380   -4.919310
  O     -4.881960   -3.503700   -3.667240
  O     -6.549270   -3.805150   -5.425070
  C     -6.286920   -0.735880   -1.893530
  C     -7.469000   -1.246150   -2.713830
  H     -7.601910   -0.601350   -3.585330
  H     -8.389790   -1.173440   -2.126920
  H     -7.118250   -3.379820   -2.398050
  H     -8.241840   -3.004740   -3.706510
  H     -5.391240   -0.810340   -2.474150
  H     -6.187090   -1.325970   -1.006550
  H     -6.453930    0.286310   -1.624950

 Total Charge           Charge          ....   -1
 Multiplicity           Mult            ....    1
 Number of Electrons    NEL             ....   66
 Basis Dimension        Dim             ....  137

ORBITAL ENERGIES
----------------

  NO   OCC          E(Eh)            E(eV)
   0   2.0000     -88.941255     -2420.2146
   1   2.0000     -18.996174      -516.9122
   2   2.0000     -18.987281      -516.6702
   3   2.0000     -18.979693      -516.4637
   4   2.0000     -10.152784      -276.2713
   5   2.0000     -10.139820      -275.9185
   6   2.0000     -10.138356      -275.8787
   7   2.0000      -8.022034      -218.2907
   8   2.0000      -5.981044      -162.7525
   9   2.0000      -5.980809      -162.7461
  10   2.0000      -5.980732      -162.7440
  11   2.0000      -1.020159       -27.7600
  12   2.0000      -0.875785       -23.8313
  13   2.0000      -0.851892       -23.1812
  14   2.0000      -0.763328       -20.7712
  15   2.0000      -0.669572       -18.2200
  16   2.0000      -0.570570       -15.5260
  17   2.0000      -0.473082       -12.8732
  18   2.0000      -0.422372       -11.4933
  19   2.0000      -0.416503       -11.3336
  20   2.0000      -0.380924       -10.3655
  21   2.0000      -0.367927       -10.0118
  22   2.0000      -0.340998        -9.2790
  23   2.0000      -0.333324        -9.0702
  24   2.0000      -0.311886        -8.4868
  25   2.0000      -0.302934        -8.2432
  26   2.0000      -0.292400        -7.9566
  27   2.0000      -0.219993        -5.9863
  28   2.0000      -0.219372        -5.9694
  29   2.0000      -0.184702        -5.0260
  30   2.0000      -0.178192        -4.8489
  31   2.0000      -0.167847        -4.5674
  32   2.0000      -0.131259        -3.5717
  33   0.0000       0.273157         7.4330
  34   0.0000       0.319180         8.6853
  35   0.0000       0.322148         8.7661
  36   0.0000       0.346902         9.4397
  37   0.0000       0.355258         9.6671

MULLIKEN ATOMIC CHARGES
-----------------------
   0 C :   -0.097797
   1 S :    0.892531
   2 O :   -0.603683
   3 O :   -0.624178
   4 O :   -0.573201
   5 C :   -0.005274
   6 C :   -0.061303
   7 H :    0.024033
   8 H :   -0.021991
   9 H :    0.022499
  10 H :    0.019038
  11 H :    0.055118
  12 H :   -0.008695
  13 H :   -0.017096
Sum of atomic charges:   -1.0000000

LOEWDIN ATOMIC CHARGES
----------------------
   0 C :   -0.185302
   1 S :    1.114068
   2 O :   -0.637436
   3 O :   -0.655166
   4 O :   -0.605203
   5 C :   -0.061426
   6 C :   -0.058142
   7 H :    0.019782
   8 H :    0.001947
   9 H :    0.013232
  10 H :    0.011839
  11 H :    0.028178
  12 H :    0.008364
  13 H :    0.005265

  Mayer bond orders larger than 0.100000
B(  0-C ,  1-S ) :   0.8866 B(  0-C ,  6-C ) :   1.0626 B(  0-C ,  9-H ) :   0.9436
B(  0-C , 10-H ) :   0.9459 B(  1-S ,  2-O ) :   1.5803 B(  1-S ,  3-O ) :   1.5829
B(  1-S ,  4-O ) :   1.6533 B(  5-C ,  6-C ) :   1.0783 B(  5-C , 11-H ) :   0.9644
B(  5-C , 12-H ) :   0.9721 B(  5-C , 13-H ) :   0.9702 B(  6-C ,  7-H ) :   0.9443
B(  6-C ,  8-H ) :   0.9496

Dispersion correction           -0.004501560
FINAL SINGLE POINT ENERGY      -741.913689643610

DIPOLE MOMENT
-------------
                                X             Y             Z
Electronic contribution:      3.87992      -5.91483      -8.02989
Nuclear contribution   :     -5.28952       6.71955       9.52938
                        -----------------------------------------
Total Dipole Moment    :     -1.40960       0.80472       1.49949
                        -----------------------------------------
Magnitude (a.u.)       :      2.20975
Magnitude (Debye)      :      5.61675

Rotational constants in cm-1:     0.135789     0.055302     0.052251
Rotational constants in MHz :  4070.851802  1657.908940  1566.458563

                             ****ORCA TERMINATED NORMALLY****
TOTAL RUN TIME: 0 days 0 hours 0 minutes 12 seconds 345 msec
