                         Program Version 5.0.0 -  RELEASE  -
|  1> !wB97X-D3 RIJCOSX def2-SVP def2/J TightSCF
|  2> *xyz 1 1
|  3> C         -2.16038       -1.36949       -3.46710
|  4> N         -3.03011       -1.91086       -4.54107
|  5> C         -2.04772        0.14658       -3.51177
|  6> H         -3.47744       -2.79151       -4.25710
|  7> H         -2.53801       -2.01786       -5.43808
|  8> H         -3.89159       -1.37604       -4.71437
|  9> H         -1.18444       -1.84400       -3.56639
| 10> H         -2.59819       -1.70838       -2.52848
| 11> C         -3.32876        0.87504       -3.10367
| 12> H         -1.74003        0.45234       -4.51713
| 13> H         -1.23261        0.43494       -2.84221
| 14> H         -4.12483        0.59148       -3.76000
| 15> H         -3.17368        1.93185       -3.16688
| 16> H         -3.58415        0.61151       -2.09857
| 17> *
| 18> %MaxCore 64000
| 19>
| 20> %pal nprocs 8
| 21> end
| 22>
| 23> %scf
| 24>   MaxIter 150
| 25> end
| 26>
| 27>
| 28>                          ****END OF INPUT****

CARTESIAN COORDINATES (ANGSTROEM)
---------------------------------
  C     -2.160380   -1.369490   -3.467100
  N     -3.030110   -1.910860   -4.541070
  C     -2.047720    0.146580   -3.511770
  H     -3.477440   -2.791510   -4.257100
  H     -2.538010   -2.017860   -5.438080
  H     -3.891590   -1.376040   -4.714370
  H     -1.184440   -1.844000   -3.566390
  H     -2.598190   -1.708380   -2.528480
  C     -3.328760    0.875040   -3.103670
  H     -1.740030    0.452340   -4.517130
  H     -1.232610    0.434940   -2.842210
  H     -4.124830    0.591480   -3.760000
  H     -3.173680    1.931850   -3.166880
  H     -3.584150    0.611510   -2.098570

 Total Charge           Charge          ....    1
 Multiplicity           Mult            ....    1
 Number of Electrons    NEL             ....   34
 Basis Dimension        Dim             ....  106

ORBITAL ENERGIES
----------------

  NO   OCC          E(Eh)            E(eV)
   0   2.0000     -14.772107      -401.9695
   1   2.0000     -10.536807      -286.7211
   2   2.0000     -10.465643      -284.7846
   3   2.0000     -10.433060      -283.8980
   4   2.0000      -1.324455       -36.0402
   5   2.0000      -1.085753       -29.5448
   6   2.0000      -0.994062       -27.0498
   7   2.0000      -0.914204       -24.8768
   8   2.0000      -0.891806       -24.2673
   9   2.0000      -0.868443       -23.6315
  10   2.0000      -0.795362       -21.6429
  11   2.0000      -0.731482       -19.9046
  12   2.0000      -0.706208       -19.2169
  13   2.0000      -0.682103       -18.5610
  14   2.0000      -0.619656       -16.8617
  15   2.0000      -0.613602       -16.6970
  16   2.0000      -0.606276       -16.4976
  17   0.0000      -0.091865        -2.4998
  18   0.0000      -0.035891        -0.9766
  19   0.0000      -0.033382        -0.9084
  20   0.0000       0.001888         0.0514
  21   0.0000       0.036665         0.9977

MULLIKEN ATOMIC CHARGES
-----------------------
   0 C :   -0.010745
   1 N :   -0.018005
   2 C :   -0.142154
   3 H :    0.218746
   4 H :    0.229216
   5 H :    0.201833
   6 H :    0.115079
   7 H :    0.101424
   8 C :   -0.038171
   9 H :    0.068361
  10 H :    0.103179
  11 H :    0.014791
  12 H :    0.092130
  13 H :    0.064315
Sum of atomic charges:    1.0000000

LOEWDIN ATOMIC CHARGES
----------------------
   0 C :    0.051548
   1 N :    0.288817
   2 C :   -0.048219
   3 H :    0.150028
   4 H :    0.149286
   5 H :    0.139966
   6 H :    0.057632
   7 H :    0.051726
   8 C :   -0.045786
   9 H :    0.038341
  10 H :    0.061260
  11 H :    0.014232
  12 H :    0.053138
  13 H :    0.038030

  Mayer bond orders larger than 0.100000
B(  0-C ,  1-N ) :   0.9041 B(  0-C ,  2-C ) :   1.0594 B(  0-C ,  6-H ) :   0.9535
B(  0-C ,  7-H ) :   0.9559 B(  1-N ,  3-H ) :   0.9314 B(  1-N ,  4-H ) :   0.9290
B(  1-N ,  5-H ) :   0.9297 B(  2-C ,  8-C ) :   1.0651 B(  2-C ,  9-H ) :   0.9545
B(  2-C , 10-H ) :   0.9415 B(  8-C , 11-H ) :   0.9732 B(  8-C , 12-H ) :   0.9657
B(  8-C , 13-H ) :   0.9752

Dispersion correction           -0.002834713
FINAL SINGLE POINT ENERGY      -174.676269016165

DIPOLE MOMENT
-------------
                                X             Y             Z
Electronic contribution:      0.29956      -2.19666      -1.12973
Nuclear contribution   :     -0.76147       0.35838       0.01319
                        -----------------------------------------
Total Dipole Moment    :     -0.46191      -1.83828      -1.11653
                        -----------------------------------------
Magnitude (a.u.)       :      2.19984
Magnitude (Debye)      :      5.59154

Rotational constants in cm-1:     0.457188     0.153451     0.133348
Rotational constants in MHz : 13706.154863  4600.337483  3997.673747

                             ****ORCA TERMINATED NORMALLY****
TOTAL RUN TIME: 0 days 0 hours 0 minutes 7 seconds 723 msec
