                         Program Version 5.0.0 -  RELEASE  -
|  1> !wB97X-D3 RIJCOSX def2-SVP def2/J TightSCF
|  2> *xyz 0 1
|  3> C         -7.33044       -2.67899       -3.20681
|  4> S         -6.01966       -2.92697       -4.41913
|  5> F         -5.64583       -1.58838       -4.91931
|  6> O         -4.88196       -3.50370       -3.66724
|  7> O         -6.54927       -3.80515       -5.42507
|  8> C         -6.28692       -0.73588       -1.89353
|  9> C         -7.46900       -1.24615       -2.71383
| 10> H         -7.60191       -0.60135       -3.58533
| 11> H         -8.38979       -1.17344       -2.12692
| 12> H         -7.11825       -3.37982       -2.39805
| 13> H         -8.24184       -3.00474       -3.70651
| 14> H         -5.39124       -0.81034       -2.47415
| 15> H         -6.18709       -1.32597       -1.00655
| 16> H         -6.45393        0.28631       -1.62495
| 17> *
| 18> %MaxCore 64000
| 19>
| 20> %pal nprocs 8
| 21> end
| 22>
| 23> %scf
| 24>   MaxIter 150
| 25> end
| 26>
| 27>
| 28>                          ****END OF INPUT****

CARTESIAN COORDINATES (ANGSTROEM)
---------------------------------
  C     -7.330440   -2.678990   -3.206810
  S     -6.019660   -2.926970   -4.419130
  F     -5.645830   -1.588380   -4.919310
  O     -4.881960   -3.503700   -3.667240
  O     -6.549270   -3.805150   -5.425070
  C     -6.286920   -0.735880   -1.893530
  C     -7.469000   -1.246150   -2.713830
  H     -7.601910   -0.601350   -3.585330
  H     -8.389790   -1.173440   -2.126920
  H     -7.118250   -3.379820   -2.398050
  H     -8.241840   -3.004740   -3.706510
  H     -5.391240   -0.810340   -2.474150
  H     -6.187090   -1.325970   -1.006550
  H     -6.453930    0.286310   -1.624950

 Total Charge           Charge          ....    0
 Multiplicity           Mult            ....    1
 Number of Electrons    NEL             ....   66
 Basis Dimension        Dim             ....  137

ORBITAL ENERGIES
----------------

  NO   OCC          E(Eh)            E(eV)
   0   2.0000     -89.209932     -2427.5257
   1   2.0000     -24.892324      -677.3546
   2   2.0000     -19.244919      -523.6809
   3   2.0000     -19.228678      -523.2389
   4   2.0000     -10.347685      -281.5748
   5   2.0000     -10.324569      -280.9458
   6   2.0000     -10.295228      -280.1474
   7   2.0000      -8.292952      -225.6627
   8   2.0000      -6.256064      -170.2362
   9   2.0000      -6.249478      -170.0569
  10   2.0000      -6.248369      -170.0268
  11   2.0000      -1.459515       -39.7154
  12   2.0000      -1.217638       -33.1336
  13   2.0000      -1.110553       -30.2197
  14   2.0000      -0.952444       -25.9173
  15   2.0000      -0.862053       -23.4577
  16   2.0000      -0.805980       -21.9318
  17   2.0000      -0.745265       -20.2797
  18   2.0000      -0.689070       -18.7505
  19   2.0000      -0.669443       -18.2165
  20   2.0000      -0.637432       -17.3454
  21   2.0000      -0.595828       -16.2133
  22   2.0000      -0.582786       -15.8584
  23   2.0000      -0.561097       -15.2682
  24   2.0000      -0.543293       -14.7837
  25   2.0000      -0.528009       -14.3678
  26   2.0000      -0.487868       -13.2756
  27   2.0000      -0.480684       -13.0801
  28   2.0000      -0.473151       -12.8751
  29   2.0000      -0.463205       -12.6045
  30   2.0000      -0.419472       -11.4144
  31   2.0000      -0.405843       -11.0435
  32   2.0000      -0.393734       -10.7140
  33   0.0000       0.101125         2.7518
  34   0.0000       0.137718         3.7475
  35   0.0000       0.161578         4.3968
  36   0.0000       0.172956         4.7064
  37   0.0000       0.174888         4.7589

MULLIKEN ATOMIC CHARGES
-----------------------
   0 C :   -0.119775
   1 S :    0.968185
   2 F :   -0.205114
   3 O :   -0.487579
   4 O :   -0.435092
   5 C :   -0.022919
   6 C :   -0.127208
   7 H :    0.048373
   8 H :    0.056310
   9 H :    0.107239
  10 H :    0.095726
  11 H :    0.039177
  12 H :    0.039281
  13 H :    0.043396
Sum of atomic charges:    0.0000000

LOEWDIN ATOMIC CHARGES
----------------------
   0 C :   -0.141775
   1 S :    1.176118
   2 F :   -0.148253
   3 O :   -0.529864
   4 O :   -0.478976
   5 C :   -0.054857
   6 C :   -0.060797
   7 H :    0.026002
   8 H :    0.037668
   9 H :    0.051982
  10 H :    0.043995
  11 H :    0.019992
  12 H :    0.028158
  13 H :    0.030609

  Mayer bond orders larger than 0.100000
B(  0-C ,  1-S ) :   0.9187 B(  0-C ,  6-C ) :   1.0428 B(  0-C ,  9-H ) :   0.9353
B(  0-C , 10-H ) :   0.9407 B(  1-S ,  2-F ) :   0.9782 B(  1-S ,  3-O ) :   1.7356
B(  1-S ,  4-O ) :   1.8031 B(  5-C ,  6-C ) :   1.0698 B(  5-C , 11-H ) :   0.9741
B(  5-C , 12-H ) :   0.9748 B(  5-C , 13-H ) :   0.9720 B(  6-C ,  7-H ) :   0.9566
B(  6-C ,  8-H ) :   0.9482

Dispersion correction           -0.004487415
FINAL SINGLE POINT ENERGY      -766.423613462328

DIPOLE MOMENT
-------------
                                X             Y             Z
Electronic contribution:      4.81843      -4.58283      -9.86975
Nuclear contribution   :     -5.93570       5.78812      10.65621
                        -----------------------------------------
Total Dipole Moment    :     -1.11727       1.20529       0.78646
                        -----------------------------------------
Magnitude (a.u.)       :      1.82196
Magnitude (Debye)      :      4.63105

Rotational constants in cm-1:     0.129417     0.054385     0.051980
Rotational constants in MHz :  3879.823072  1630.427453  1558.324762

                             ****ORCA TERMINATED NORMALLY****
TOTAL RUN TIME: 0 days 0 hours 0 minutes 12 seconds 861 msec
