                         Program Version 5.0.0 -  RELEASE  -
|  1> !wB97X-D3 RIJCOSX def2-SVP def2/J TightSCF
|  2> *xyz 0 1
|  3> C         -2.16038       -1.36949       -3.46710
|  4> C         -3.03011       -1.91086       -4.54107
|  5> C         -2.04772        0.14658       -3.51177
|  6> H         -3.47744       -2.79151       -4.25710
|  7> H         -2.53801       -2.01786       -5.43808
|  8> H         -3.89159       -1.37604       -4.71437
|  9> H         -1.18444       -1.84400       -3.56639
| 10> H         -2.59819       -1.70838       -2.52848
| 11> C         -3.32876        0.87504       -3.10367
| 12> H         -1.74003        0.45234       -4.51713
| 13> H         -1.23261        0.43494       -2.84221
| 14> H         -4.12483        0.59148       -3.76000
| 15> H         -3.17368        1.93185       -3.16688
| 16> H         -3.58415        0.61151       -2.09857
| 17> *
| 18> %MaxCore 64000
| 19>
| 20> %pal nprocs 8
| 21> end
| 22>
| 23> %scf
| 24>   MaxIter 150
| 25> end
| 26>
| 27>
| 28>                          ****END OF INPUT****

CARTESIAN COORDINATES (ANGSTROEM)
---------------------------------
  C     -2.160380   -1.369490   -3.467100
  C     -3.030110   -1.910860   -4.541070
  C     -2.047720    0.146580   -3.511770
  H     -3.477440   -2.791510   -4.257100
  H     -2.538010   -2.017860   -5.438080
  H     -3.891590   -1.376040   -4.714370
  H     -1.184440   -1.844000   -3.566390
  H     -2.598190   -1.708380   -2.528480
  C     -3.328760    0.875040   -3.103670
  H     -1.740030    0.452340   -4.517130
  H     -1.232610    0.434940   -2.842210
  H     -4.124830    0.591480   -3.760000
  H     -3.173680    1.931850   -3.166880
  H     -3.584150    0.611510   -2.098570

 Total Charge           Charge          ....    0
 Multiplicity           Mult            ....    1
 Number of Electrons    NEL             ....   34
 Basis Dimension        Dim             ....  106

ORBITAL ENERGIES
----------------

  NO   OCC          E(Eh)            E(eV)
   0   2.0000     -10.276692      -279.6430
   1   2.0000     -10.272828      -279.5378
   2   2.0000     -10.268130      -279.4100
   3   2.0000     -10.248867      -278.8859
   4   2.0000      -0.911746       -24.8099
   5   2.0000      -0.836961       -22.7749
   6   2.0000      -0.750690       -20.4273
   7   2.0000      -0.671866       -18.2824
   8   2.0000      -0.566762       -15.4224
   9   2.0000      -0.560124       -15.2417
  10   2.0000      -0.526380       -14.3235
  11   2.0000      -0.484509       -13.1842
  12   2.0000      -0.473178       -12.8758
  13   2.0000      -0.458945       -12.4885
  14   2.0000      -0.414647       -11.2831
  15   2.0000      -0.413386       -11.2488
  16   2.0000      -0.410400       -11.1676
  17   0.0000       0.147443         4.0121
  18   0.0000       0.183559         4.9949
  19   0.0000       0.189333         5.1520
  20   0.0000       0.190863         5.1936
  21   0.0000       0.226020         6.1503

MULLIKEN ATOMIC CHARGES
-----------------------
   0 C :   -0.074742
   1 C :    0.037264
   2 C :   -0.086943
   3 H :   -0.003423
   4 H :    0.011177
   5 H :   -0.014650
   6 H :    0.023097
   7 H :    0.014568
   8 C :   -0.018385
   9 H :    0.020078
  10 H :    0.020850
  11 H :    0.020969
  12 H :    0.027976
  13 H :    0.022163
Sum of atomic charges:   -0.0000000

LOEWDIN ATOMIC CHARGES
----------------------
   0 C :   -0.042731
   1 C :   -0.052975
   2 C :   -0.044101
   3 H :    0.019007
   4 H :    0.015621
   5 H :    0.013385
   6 H :    0.023620
   7 H :    0.019992
   8 C :   -0.055097
   9 H :    0.019967
  10 H :    0.020287
  11 H :    0.018214
  12 H :    0.023769
  13 H :    0.021043

  Mayer bond orders larger than 0.100000
B(  0-C ,  1-C ) :   1.0860 B(  0-C ,  2-C ) :   1.0719 B(  0-C ,  6-H ) :   0.9569
B(  0-C ,  7-H ) :   0.9605 B(  1-C ,  3-H ) :   0.9624 B(  1-C ,  4-H ) :   0.9718
B(  1-C ,  5-H ) :   0.9657 B(  2-C ,  8-C ) :   1.0800 B(  2-C ,  9-H ) :   0.9587
B(  2-C , 10-H ) :   0.9569 B(  8-C , 11-H ) :   0.9758 B(  8-C , 12-H ) :   0.9725
B(  8-C , 13-H ) :   0.9752

Dispersion correction           -0.002735097
FINAL SINGLE POINT ENERGY      -158.279525049570

DIPOLE MOMENT
-------------
                                X             Y             Z
Electronic contribution:      0.84910       0.03765       0.25075
Nuclear contribution   :     -0.87438      -0.05339      -0.25605
                        -----------------------------------------
Total Dipole Moment    :     -0.02528      -0.01574      -0.00530
                        -----------------------------------------
Magnitude (a.u.)       :      0.03025
Magnitude (Debye)      :      0.07689

Rotational constants in cm-1:     0.464420     0.160323     0.139078
Rotational constants in MHz : 13922.972952  4806.377145  4169.443621

                             ****ORCA TERMINATED NORMALLY****
TOTAL RUN TIME: 0 days 0 hours 0 minutes 7 seconds 235 msec
