                         Program Version 5.0.0 -  RELEASE  -
|  1> !wB97X-D3 RIJCOSX def2-SVP def2/J TightSCF
|  2> *xyz 0 1
|  3> C         -7.33044       -2.67899       -3.20681
|  4> S         -6.01966       -2.92697       -4.41913
|  5> O         -5.64583       -1.58838       -4.91931
|  6> F         -4.88196       -3.50370       -3.66724
|  7> O         -6.54927       -3.80515       -5.42507
|  8> C         -6.28692       -0.73588       -1.89353
|  9> C         -7.46900       -1.24615       -2.71383
| 10> H         -7.60191       -0.60135       -3.58533
| 11> H         -8.38979       -1.17344       -2.12692
| 12> H         -7.11825       -3.37982       -2.39805
| 13> H         -8.24184       -3.00474       -3.70651
| 14> H         -5.39124       -0.81034       -2.47415
| 15> H         -6.18709       -1.32597       -1.00655
| 16> H         -6.45393        0.28631       -1.62495
| 17> *
| 18> %MaxCore 64000
| 19>
| 20> %pal nprocs 8
| 21> end
| 22>
| 23> %scf
| 24>   MaxIter 150
| 25> end
| 26>
| 27>
| 28>                          ****END OF INPUT****

CARTESIAN COORDINATES (ANGSTROEM)
---------------------------------
  C     -7.330440   -2.678990   -3.206810
  S     -6.019660   -2.926970   -4.419130
  O     -5.645830   -1.588380   -4.919310
  F     -4.881960   -3.503700   -3.667240
  O     -6.549270   -3.805150   -5.425070
  C     -6.286920   -0.735880   -1.893530
  C     -7.469000   -1.246150   -2.713830
  H     -7.601910   -0.601350   -3.585330
  H     -8.389790   -1.173440   -2.126920
  H     -7.118250   -3.379820   -2.398050
  H     -8.241840   -3.004740   -3.706510
  H     -5.391240   -0.810340   -2.474150
  H     -6.187090   -1.325970   -1.006550
  H     -6.453930    0.286310   -1.624950

 Total Charge           Charge          ....    0
 Multiplicity           Mult            ....    1
 Number of Electrons    NEL             ....   66
 Basis Dimension        Dim             ....  137

ORBITAL ENERGIES
----------------

  NO   OCC          E(Eh)            E(eV)
   0   2.0000     -89.211491     -2427.5681
   1   2.0000     -24.888434      -677.2487
   2   2.0000     -19.246006      -523.7104
   3   2.0000     -19.235194      -523.4162
   4   2.0000     -10.348554      -281.5985
   5   2.0000     -10.315773      -280.7064
   6   2.0000     -10.288540      -279.9654
   7   2.0000      -8.294447      -225.7034
   8   2.0000      -6.257446      -170.2738
   9   2.0000      -6.251033      -170.0993
  10   2.0000      -6.249977      -170.0705
  11   2.0000      -1.455144       -39.5965
  12   2.0000      -1.220077       -33.2000
  13   2.0000      -1.116332       -30.3769
  14   2.0000      -0.946928       -25.7672
  15   2.0000      -0.861112       -23.4320
  16   2.0000      -0.803152       -21.8549
  17   2.0000      -0.739152       -20.1134
  18   2.0000      -0.674786       -18.3619
  19   2.0000      -0.664941       -18.0940
  20   2.0000      -0.649907       -17.6849
  21   2.0000      -0.594847       -16.1866
  22   2.0000      -0.586656       -15.9637
  23   2.0000      -0.550698       -14.9853
  24   2.0000      -0.539674       -14.6853
  25   2.0000      -0.531876       -14.4731
  26   2.0000      -0.484418       -13.1817
  27   2.0000      -0.477321       -12.9886
  28   2.0000      -0.463588       -12.6149
  29   2.0000      -0.458010       -12.4631
  30   2.0000      -0.419038       -11.4026
  31   2.0000      -0.414889       -11.2897
  32   2.0000      -0.398784       -10.8515
  33   0.0000       0.119489         3.2515
  34   0.0000       0.122711         3.3391
  35   0.0000       0.155961         4.2439
  36   0.0000       0.172895         4.7047
  37   0.0000       0.179292         4.8788

MULLIKEN ATOMIC CHARGES
-----------------------
   0 C :   -0.141602
   1 S :    0.975311
   2 O :   -0.475128
   3 F :   -0.213028
   4 O :   -0.437479
   5 C :   -0.035220
   6 C :   -0.085092
   7 H :    0.067199
   8 H :    0.048837
   9 H :    0.078726
  10 H :    0.106550
  11 H :    0.042977
  12 H :    0.024109
  13 H :    0.043838
Sum of atomic charges:   -0.0000000

LOEWDIN ATOMIC CHARGES
----------------------
   0 C :   -0.148648
   1 S :    1.178359
   2 O :   -0.515518
   3 F :   -0.157694
   4 O :   -0.479490
   5 C :   -0.057347
   6 C :   -0.051481
   7 H :    0.036820
   8 H :    0.035411
   9 H :    0.034601
  10 H :    0.052057
  11 H :    0.020723
  12 H :    0.020067
  13 H :    0.032140

  Mayer bond orders larger than 0.100000
B(  0-C ,  1-S ) :   0.9040 B(  0-C ,  6-C ) :   1.0475 B(  0-C ,  9-H ) :   0.9352
B(  0-C , 10-H ) :   0.9389 B(  1-S ,  2-O ) :   1.7398 B(  1-S ,  3-F ) :   0.9764
B(  1-S ,  4-O ) :   1.8036 B(  5-C ,  6-C ) :   1.0737 B(  5-C , 11-H ) :   0.9734
B(  5-C , 12-H ) :   0.9754 B(  5-C , 13-H ) :   0.9715 B(  6-C ,  7-H ) :   0.9473
B(  6-C ,  8-H ) :   0.9473

Dispersion correction           -0.004440525
FINAL SINGLE POINT ENERGY      -766.428083751823

DIPOLE MOMENT
-------------
                                X             Y             Z
Electronic contribution:      6.17581      -7.92309      -7.76242
Nuclear contribution   :     -6.75719       7.84793       9.30968
                        -----------------------------------------
Total Dipole Moment    :     -0.58138      -0.07515       1.54726
                        -----------------------------------------
Magnitude (a.u.)       :      1.65459
Magnitude (Debye)      :      4.20563

Rotational constants in cm-1:     0.129104     0.054499     0.051192
Rotational constants in MHz :  3870.429564  1633.827608  1534.709243

                             ****ORCA TERMINATED NORMALLY****
TOTAL RUN TIME: 0 days 0 hours 0 minutes 12 seconds 913 msec
