                         Program Version 5.0.0 -  RELEASE  -
|  1> !wB97X-D3 RIJCOSX def2-SVP def2/J TightSCF
|  2> *xyz 0 1
|  3> C         -7.33044       -2.67899       -3.20681
|  4> S         -6.01966       -2.92697       -4.41913
|  5> O         -5.64583       -1.58838       -4.91931
|  6> O         -4.88196       -3.50370       -3.66724
|  7> F         -6.54927       -3.80515       -5.42507
|  8> C         -6.28692       -0.73588       -1.89353
|  9> C         -7.46900       -1.24615       -2.71383
| 10> H         -7.60191       -0.60135       -3.58533
| 11> H         -8.38979       -1.17344       -2.12692
| 12> H         -7.11825       -3.37982       -2.39805
| 13> H         -8.24184       -3.00474       -3.70651
| 14> H         -5.39124       -0.81034       -2.47415
| 15> H         -6.18709       -1.32597       -1.00655
| 16> H         -6.45393        0.28631       -1.62495
| 17> *
| 18> %MaxCore 64000
| 19>
| 20> %pal nprocs 8
| 21> end
| 22>
| 23> %scf
| 24>   MaxIter 150
| 25> end
| 26>
| 27>
| 28>                          ****END OF INPUT****

CARTESIAN COORDINATES (ANGSTROEM)
---------------------------------
  C     -7.330440   -2.678990   -3.206810
  S     -6.019660   -2.926970   -4.419130
  O     -5.645830   -1.588380   -4.919310
  O     -4.881960   -3.503700   -3.667240
  F     -6.549270   -3.805150   -5.425070
  C     -6.286920   -0.735880   -1.893530
  C     -7.469000   -1.246150   -2.713830
  H     -7.601910   -0.601350   -3.585330
  H     -8.389790   -1.173440   -2.126920
  H     -7.118250   -3.379820   -2.398050
  H     -8.241840   -3.004740   -3.706510
  H     -5.391240   -0.810340   -2.474150
  H     -6.187090   -1.325970   -1.006550
  H     -6.453930    0.286310   -1.624950

 Total Charge           Charge          ....    0
 Multiplicity           Mult            ....    1
 Number of Electrons    NEL             ....   66
 Basis Dimension        Dim             ....  137

ORBITAL ENERGIES
----------------

  NO   OCC          E(Eh)            E(eV)
   0   2.0000     -89.212818     -2427.6042
   1   2.0000     -24.911353      -677.8724
   2   2.0000     -19.234864      -523.4073
   3   2.0000     -19.230019      -523.2754
   4   2.0000     -10.348994      -281.6104
   5   2.0000     -10.315285      -280.6932
   6   2.0000     -10.280033      -279.7339
   7   2.0000      -8.296005      -225.7458
   8   2.0000      -6.259135      -170.3197
   9   2.0000      -6.252417      -170.1369
  10   2.0000      -6.251309      -170.1068
  11   2.0000      -1.493763       -40.6474
  12   2.0000      -1.203895       -32.7596
  13   2.0000      -1.097513       -29.8648
  14   2.0000      -0.945117       -25.7179
  15   2.0000      -0.865755       -23.5584
  16   2.0000      -0.813872       -22.1466
  17   2.0000      -0.742010       -20.1911
  18   2.0000      -0.693672       -18.8758
  19   2.0000      -0.687372       -18.7043
  20   2.0000      -0.652796       -17.7635
  21   2.0000      -0.590920       -16.0797
  22   2.0000      -0.584134       -15.8951
  23   2.0000      -0.554907       -15.0998
  24   2.0000      -0.534837       -14.5537
  25   2.0000      -0.515691       -14.0327
  26   2.0000      -0.476846       -12.9756
  27   2.0000      -0.468325       -12.7438
  28   2.0000      -0.461775       -12.5655
  29   2.0000      -0.449235       -12.2243
  30   2.0000      -0.412567       -11.2265
  31   2.0000      -0.404800       -11.0152
  32   2.0000      -0.384304       -10.4574
  33   0.0000       0.116476         3.1695
  34   0.0000       0.122961         3.3460
  35   0.0000       0.155338         4.2270
  36   0.0000       0.171713         4.6726
  37   0.0000       0.180570         4.9136

MULLIKEN ATOMIC CHARGES
-----------------------
   0 C :   -0.136563
   1 S :    0.967608
   2 O :   -0.471441
   3 O :   -0.483330
   4 F :   -0.167337
   5 C :   -0.024697
   6 C :   -0.088693
   7 H :    0.057657
   8 H :    0.049587
   9 H :    0.096907
  10 H :    0.075380
  11 H :    0.060458
  12 H :    0.026960
  13 H :    0.037504
Sum of atomic charges:    0.0000000

LOEWDIN ATOMIC CHARGES
----------------------
   0 C :   -0.148751
   1 S :    1.171986
   2 O :   -0.513031
   3 O :   -0.524960
   4 F :   -0.112292
   5 C :   -0.053155
   6 C :   -0.048133
   7 H :    0.033569
   8 H :    0.035587
   9 H :    0.045243
  10 H :    0.032999
  11 H :    0.029393
  12 H :    0.022460
  13 H :    0.029087

  Mayer bond orders larger than 0.100000
B(  0-C ,  1-S ) :   0.9044 B(  0-C ,  6-C ) :   1.0537 B(  0-C ,  9-H ) :   0.9329
B(  0-C , 10-H ) :   0.9378 B(  1-S ,  2-O ) :   1.7380 B(  1-S ,  3-O ) :   1.7349
B(  1-S ,  4-F ) :   1.0348 B(  5-C ,  6-C ) :   1.0770 B(  5-C , 11-H ) :   0.9720
B(  5-C , 12-H ) :   0.9746 B(  5-C , 13-H ) :   0.9719 B(  6-C ,  7-H ) :   0.9465
B(  6-C ,  8-H ) :   0.9488

Dispersion correction           -0.004488984
FINAL SINGLE POINT ENERGY      -766.407805009289

DIPOLE MOMENT
-------------
                                X             Y             Z
Electronic contribution:      3.29745      -8.45060     -10.83748
Nuclear contribution   :     -4.96410       8.17213      11.20012
                        -----------------------------------------
Total Dipole Moment    :     -1.66665      -0.27847       0.36264
                        -----------------------------------------
Magnitude (a.u.)       :      1.72823
Magnitude (Debye)      :      4.39282

Rotational constants in cm-1:     0.133784     0.053405     0.050278
Rotational constants in MHz :  4010.731548  1601.045142  1507.298018

                             ****ORCA TERMINATED NORMALLY****
TOTAL RUN TIME: 0 days 0 hours 0 minutes 12 seconds 985 msec
