                         Program Version 5.0.0 -  RELEASE  -
|  1> !wB97X-D3 RIJCOSX def2-SVP def2/J TightSCF xyzfile
|  2>
|  3> *xyzfile 0 1 D2.xyz
|  4>
|  5> %MaxCore 64000
|  6>
|  7> %pal nprocs 18
|  8> end
|  9>
| 10> %scf
| 11>   MaxIter 150
| 12> end
| 13>
| 14>
| 15>                          ****END OF INPUT****

CARTESIAN COORDINATES (ANGSTROEM)
---------------------------------
  C     -2.160376   -1.369486   -3.467104
  C     -3.030108   -1.910857   -4.541074
  C     -2.047717    0.146583   -3.511774
  C     -7.330440   -2.678991   -3.206811
  S     -6.019659   -2.926965   -4.419128
  H     -3.477443   -2.791513   -4.257096
  H     -2.538013   -2.017860   -5.438075
  H     -3.891589   -1.376039   -4.714365
  O     -5.645830   -1.588384   -4.919307
  F     -4.881961   -3.503697   -3.667235
  H     -1.184438   -1.843997   -3.566393
  H     -2.598195   -1.708376   -2.528477
  O     -6.549267   -3.805150   -5.425071
  C     -3.328755    0.875037   -3.103669
  H     -1.740034    0.452343   -4.517126
  H     -1.232611    0.434938   -2.842208
  C     -3.628487    0.771601   -1.609363
  H     -4.175106    0.490791   -3.682203
  H     -3.237812    1.928663   -3.381480
  C     -4.975718    1.361432   -1.190644
  H     -2.830700    1.276234   -1.054766
  H     -3.594312   -0.275838   -1.294603
  C     -6.184720    0.784347   -1.926464
  H     -4.956292    2.445725   -1.342200
  H     -5.097256    1.205252   -0.114136
  C     -6.286921   -0.735882   -1.893531
  H     -6.163994    1.100199   -2.974250
  H     -7.094530    1.223459   -1.504509
  C     -7.468999   -1.246153   -2.713833
  H     -6.360641   -1.090347   -0.859176
  H     -5.369848   -1.171853   -2.295982
  H     -7.601914   -0.601349   -3.585329
  H     -8.389791   -1.173436   -2.126922
  H     -7.118254   -3.379818   -2.398055
  H     -8.241838   -3.004745   -3.706513

 Total Charge           Charge          ....    0
 Multiplicity           Mult            ....    1
 Number of Electrons    NEL             ....  122
 Basis Dimension        Dim             ....  305

ORBITAL ENERGIES
----------------

  NO   OCC          E(Eh)            E(eV)
   0   2.0000     -89.221511     -2427.8408
   1   2.0000     -24.899185      -677.5413
   2   2.0000     -19.254766      -523.9488
   3   2.0000     -19.244838      -523.6787
   4   2.0000     -10.354276      -281.7542
   5   2.0000     -10.317462      -280.7524
   6   2.0000     -10.299237      -280.2565
   7   2.0000     -10.288319      -279.9594
   8   2.0000     -10.283040      -279.8157
   9   2.0000     -10.276981      -279.6509
  10   2.0000     -10.270925      -279.4861
  11   2.0000     -10.267803      -279.4011
  12   2.0000     -10.261478      -279.2290
  13   2.0000     -10.215043      -277.9655
  14   2.0000      -8.304117      -225.9665
  15   2.0000      -6.267151      -170.5378
  16   2.0000      -6.260853      -170.3665
  17   2.0000      -6.259472      -170.3289
  18   2.0000      -1.469650       -39.9912
  19   2.0000      -1.230393       -33.4807
  20   2.0000      -1.128762       -30.7152
  21   2.0000      -0.957462       -26.0539
  22   2.0000      -0.925313       -25.1790
  23   2.0000      -0.897383       -24.4190
  24   2.0000      -0.871073       -23.7031
  25   2.0000      -0.829044       -22.5594
  26   2.0000      -0.814266       -22.1573
  27   2.0000      -0.775232       -21.0951
  28   2.0000      -0.740752       -20.1569
  29   2.0000      -0.725846       -19.7513
  30   2.0000      -0.686636       -18.6843
  31   2.0000      -0.683655       -18.6032
  32   2.0000      -0.675385       -18.3782
  33   2.0000      -0.660684       -17.9781
  34   2.0000      -0.645369       -17.5614
  35   2.0000      -0.606221       -16.4961
  36   2.0000      -0.589025       -16.0282
  37   2.0000      -0.578362       -15.7380
  38   2.0000      -0.570615       -15.5272
  39   2.0000      -0.561998       -15.2928
  40   2.0000      -0.544995       -14.8301
  41   2.0000      -0.532639       -14.4938
  42   2.0000      -0.529088       -14.3972
  43   2.0000      -0.524895       -14.2831
  44   2.0000      -0.503193       -13.6926
  45   2.0000      -0.494167       -13.4470
  46   2.0000      -0.484862       -13.1938
  47   2.0000      -0.478225       -13.0132
  48   2.0000      -0.468649       -12.7526
  49   2.0000      -0.458643       -12.4803
  50   2.0000      -0.451584       -12.2882
  51   2.0000      -0.438307       -11.9269
  52   2.0000      -0.430741       -11.7210
  53   2.0000      -0.424260       -11.5447
  54   2.0000      -0.421427       -11.4676
  55   2.0000      -0.415346       -11.3021
  56   2.0000      -0.410372       -11.1668
  57   2.0000      -0.404038       -10.9944
  58   2.0000      -0.391934       -10.6651
  59   2.0000      -0.389774       -10.6063
  60   2.0000      -0.374951       -10.2029
  61   0.0000       0.108269         2.9462
  62   0.0000       0.119663         3.2562
  63   0.0000       0.143772         3.9122
  64   0.0000       0.148503         4.0410
  65   0.0000       0.152433         4.1479

MULLIKEN ATOMIC CHARGES
-----------------------
   0 C :   -0.058246
   1 C :   -0.030252
   2 C :   -0.000021
   3 C :   -0.119407
   4 S :    0.985121
   5 H :   -0.006833
   6 H :   -0.003739
   7 H :    0.027694
   8 O :   -0.455842
   9 F :   -0.196453
  10 H :    0.014161
  11 H :   -0.006982
  12 O :   -0.425771
  13 C :   -0.050823
  14 H :    0.016911
  15 H :    0.005478
  16 C :   -0.067203
  17 H :    0.028858
  18 H :    0.014068
  19 C :    0.020608
  20 H :    0.018152
  21 H :    0.016026
  22 C :   -0.063808
  23 H :    0.020228
  24 H :    0.015190
  25 C :   -0.053736
  26 H :    0.038198
  27 H :    0.020806
  28 C :   -0.021910
  29 H :    0.023903
  30 H :    0.003247
  31 H :    0.057336
  32 H :    0.048501
  33 H :    0.081132
  34 H :    0.105410
Sum of atomic charges:    0.0000000

LOEWDIN ATOMIC CHARGES
----------------------
   0 C :   -0.041543
   1 C :   -0.090339
   2 C :   -0.035886
   3 C :   -0.142431
   4 S :    1.193238
   5 H :   -0.016754
   6 H :    0.010772
   7 H :   -0.004298
   8 O :   -0.471002
   9 F :   -0.118614
  10 H :    0.020060
  11 H :    0.009719
  12 O :   -0.471363
  13 C :   -0.041836
  14 H :    0.022769
  15 H :    0.016875
  16 C :   -0.042157
  17 H :    0.020757
  18 H :    0.022114
  19 C :   -0.037121
  20 H :    0.023563
  21 H :    0.013796
  22 C :   -0.038965
  23 H :    0.024053
  24 H :    0.021134
  25 C :   -0.043895
  26 H :    0.025288
  27 H :    0.023284
  28 C :   -0.045248
  29 H :    0.023229
  30 H :    0.008969
  31 H :    0.034957
  32 H :    0.037499
  33 H :    0.036635
  34 H :    0.052743

  Mayer bond orders larger than 0.100000
B(  0-C ,  1-C ) :   1.0806 B(  0-C ,  2-C ) :   1.0725 B(  0-C , 10-H ) :   0.9498
B(  0-C , 11-H ) :   0.9555 B(  1-C ,  5-H ) :   0.9540 B(  1-C ,  6-H ) :   0.9403
B(  1-C ,  7-H ) :   0.9591 B(  2-C , 13-C ) :   1.0764 B(  2-C , 14-H ) :   0.9505
B(  2-C , 15-H ) :   0.9488 B(  3-C ,  4-S ) :   0.9009 B(  3-C , 28-C ) :   1.0504
B(  3-C , 33-H ) :   0.9322 B(  3-C , 34-H ) :   0.9360 B(  4-S ,  8-O ) :   1.6939
B(  4-S ,  9-F ) :   0.9438 B(  4-S , 12-O ) :   1.8158 B( 13-C , 16-C ) :   1.0497
B( 13-C , 17-H ) :   0.9448 B( 13-C , 18-H ) :   0.9449 B( 16-C , 19-C ) :   1.0787
B( 16-C , 20-H ) :   0.9445 B( 16-C , 21-H ) :   0.9474 B( 19-C , 22-C ) :   1.0768
B( 19-C , 23-H ) :   0.9467 B( 19-C , 24-H ) :   0.9474 B( 22-C , 25-C ) :   1.0632
B( 22-C , 26-H ) :   0.9477 B( 22-C , 27-H ) :   0.9480 B( 25-C , 28-C ) :   1.0495
B( 25-C , 29-H ) :   0.9443 B( 25-C , 30-H ) :   0.9503 B( 28-C , 31-H ) :   0.9448
B( 28-C , 32-H ) :   0.9379

Dispersion correction           -0.018521771
FINAL SINGLE POINT ENERGY     -1041.319185500352

DIPOLE MOMENT
-------------
                                X             Y             Z
Electronic contribution:     -9.62129     -19.59938     -11.11694
Nuclear contribution   :      8.71934      19.48829      12.54264
                        -----------------------------------------
Total Dipole Moment    :     -0.90195      -0.11109       1.42570
                        -----------------------------------------
Magnitude (a.u.)       :      1.69070
Magnitude (Debye)      :      4.29742

Rotational constants in cm-1:     0.025810     0.015137     0.010647
Rotational constants in MHz :   773.773140   453.802427   319.195213

                             ****ORCA TERMINATED NORMALLY****
TOTAL RUN TIME: 0 days 0 hours 0 minutes 35 seconds 568 msec
