                         Program Version 5.0.0 -  RELEASE  -
|  1> !wB97X-D3 RIJCOSX def2-SVP def2/J TightSCF xyzfile
|  2>
|  3> *xyzfile 0 1 D3.xyz
|  4>
|  5> %MaxCore 64000
|  6>
|  7> %pal nprocs 18
|  8> end
|  9>
| 10> %scf
| 11>   MaxIter 150
| 12> end
| 13>
| 14>
| 15>                          ****END OF INPUT****

CARTESIAN COORDINATES (ANGSTROEM)
---------------------------------
  C     -2.160376   -1.369486   -3.467104
  C     -3.030108   -1.910857   -4.541074
  C     -2.047717    0.146583   -3.511774
  C     -7.330440   -2.678991   -3.206811
  S     -6.019659   -2.926965   -4.419128
  H     -3.477443   -2.791513   -4.257096
  H     -2.538013   -2.017860   -5.438075
  H     -3.891589   -1.376039   -4.714365
  O     -5.645830   -1.588384   -4.919307
  O     -4.881961   -3.503697   -3.667235
  H     -1.184438   -1.843997   -3.566393
  H     -2.598195   -1.708376   -2.528477
  F     -6.549267   -3.805150   -5.425071
  C     -3.328755    0.875037   -3.103669
  H     -1.740034    0.452343   -4.517126
  H     -1.232611    0.434938   -2.842208
  C     -3.628487    0.771601   -1.609363
  H     -4.175106    0.490791   -3.682203
  H     -3.237812    1.928663   -3.381480
  C     -4.975718    1.361432   -1.190644
  H     -2.830700    1.276234   -1.054766
  H     -3.594312   -0.275838   -1.294603
  C     -6.184720    0.784347   -1.926464
  H     -4.956292    2.445725   -1.342200
  H     -5.097256    1.205252   -0.114136
  C     -6.286921   -0.735882   -1.893531
  H     -6.163994    1.100199   -2.974250
  H     -7.094530    1.223459   -1.504509
  C     -7.468999   -1.246153   -2.713833
  H     -6.360641   -1.090347   -0.859176
  H     -5.369848   -1.171853   -2.295982
  H     -7.601914   -0.601349   -3.585329
  H     -8.389791   -1.173436   -2.126922
  H     -7.118254   -3.379818   -2.398055
  H     -8.241838   -3.004745   -3.706513

 Total Charge           Charge          ....    0
 Multiplicity           Mult            ....    1
 Number of Electrons    NEL             ....  122
 Basis Dimension        Dim             ....  305

ORBITAL ENERGIES
----------------

  NO   OCC          E(Eh)            E(eV)
   0   2.0000     -89.227973     -2428.0166
   1   2.0000     -24.922999      -678.1893
   2   2.0000     -19.248888      -523.7889
   3   2.0000     -19.244904      -523.6805
   4   2.0000     -10.356981      -281.8278
   5   2.0000     -10.318361      -280.7769
   6   2.0000     -10.291016      -280.0328
   7   2.0000     -10.282726      -279.8072
   8   2.0000     -10.276667      -279.6423
   9   2.0000     -10.268319      -279.4152
  10   2.0000     -10.261825      -279.2385
  11   2.0000     -10.255682      -279.0713
  12   2.0000     -10.243870      -278.7499
  13   2.0000     -10.188253      -277.2365
  14   2.0000      -8.310658      -226.1445
  15   2.0000      -6.273922      -170.7221
  16   2.0000      -6.267217      -170.5396
  17   2.0000      -6.265816      -170.5015
  18   2.0000      -1.505228       -40.9593
  19   2.0000      -1.222680       -33.2708
  20   2.0000      -1.116583       -30.3838
  21   2.0000      -0.956831       -26.0367
  22   2.0000      -0.918870       -25.0037
  23   2.0000      -0.888431       -24.1754
  24   2.0000      -0.867544       -23.6071
  25   2.0000      -0.832340       -22.6491
  26   2.0000      -0.806849       -21.9555
  27   2.0000      -0.770971       -20.9792
  28   2.0000      -0.735562       -20.0157
  29   2.0000      -0.713821       -19.4241
  30   2.0000      -0.706257       -19.2182
  31   2.0000      -0.696998       -18.9663
  32   2.0000      -0.668970       -18.2036
  33   2.0000      -0.662967       -18.0402
  34   2.0000      -0.633858       -17.2482
  35   2.0000      -0.602546       -16.3961
  36   2.0000      -0.591751       -16.1024
  37   2.0000      -0.573714       -15.6116
  38   2.0000      -0.567835       -15.4516
  39   2.0000      -0.560267       -15.2456
  40   2.0000      -0.544365       -14.8129
  41   2.0000      -0.530438       -14.4340
  42   2.0000      -0.519498       -14.1363
  43   2.0000      -0.514897       -14.0110
  44   2.0000      -0.500411       -13.6169
  45   2.0000      -0.483295       -13.1511
  46   2.0000      -0.477620       -12.9967
  47   2.0000      -0.472994       -12.8708
  48   2.0000      -0.460245       -12.5239
  49   2.0000      -0.446407       -12.1474
  50   2.0000      -0.440868       -11.9966
  51   2.0000      -0.430272       -11.7083
  52   2.0000      -0.425297       -11.5729
  53   2.0000      -0.422843       -11.5061
  54   2.0000      -0.414254       -11.2724
  55   2.0000      -0.404076       -10.9955
  56   2.0000      -0.398114       -10.8332
  57   2.0000      -0.393977       -10.7207
  58   2.0000      -0.378592       -10.3020
  59   2.0000      -0.367861       -10.0100
  60   2.0000      -0.352709        -9.5977
  61   0.0000       0.105014         2.8576
  62   0.0000       0.116487         3.1698
  63   0.0000       0.143900         3.9157
  64   0.0000       0.148953         4.0532
  65   0.0000       0.157306         4.2805

MULLIKEN ATOMIC CHARGES
-----------------------
   0 C :   -0.059738
   1 C :    0.000766
   2 C :    0.002356
   3 C :   -0.115496
   4 S :    0.990230
   5 H :    0.014167
   6 H :   -0.027392
   7 H :    0.001702
   8 O :   -0.451906
   9 O :   -0.456885
  10 H :    0.006510
  11 H :    0.000200
  12 F :   -0.160309
  13 C :   -0.045229
  14 H :    0.010201
  15 H :   -0.000291
  16 C :   -0.067027
  17 H :    0.023467
  18 H :    0.008633
  19 C :    0.021461
  20 H :    0.015408
  21 H :    0.021212
  22 C :   -0.063497
  23 H :    0.017215
  24 H :    0.013577
  25 C :   -0.054625
  26 H :    0.034351
  27 H :    0.015848
  28 C :   -0.025766
  29 H :    0.023366
  30 H :    0.032579
  31 H :    0.048597
  32 H :    0.049959
  33 H :    0.099693
  34 H :    0.076664
Sum of atomic charges:   -0.0000000

LOEWDIN ATOMIC CHARGES
----------------------
   0 C :   -0.040739
   1 C :   -0.091372
   2 C :   -0.037220
   3 C :   -0.142676
   4 S :    1.191527
   5 H :   -0.010905
   6 H :    0.001072
   7 H :   -0.008384
   8 O :   -0.468212
   9 O :   -0.468418
  10 H :    0.017496
  11 H :    0.012431
  12 F :   -0.106139
  13 C :   -0.041459
  14 H :    0.020049
  15 H :    0.014303
  16 C :   -0.041915
  17 H :    0.019626
  18 H :    0.019575
  19 C :   -0.037208
  20 H :    0.022555
  21 H :    0.016456
  22 C :   -0.039709
  23 H :    0.022747
  24 H :    0.020537
  25 C :   -0.042733
  26 H :    0.023633
  27 H :    0.020713
  28 C :   -0.041609
  29 H :    0.023742
  30 H :    0.019941
  31 H :    0.032264
  32 H :    0.037977
  33 H :    0.047326
  34 H :    0.034733

  Mayer bond orders larger than 0.100000
B(  0-C ,  1-C ) :   1.0875 B(  0-C ,  2-C ) :   1.0697 B(  0-C , 10-H ) :   0.9490
B(  0-C , 11-H ) :   0.9560 B(  1-C ,  5-H ) :   0.9334 B(  1-C ,  6-H ) :   0.9361
B(  1-C ,  7-H ) :   0.9583 B(  2-C , 13-C ) :   1.0775 B(  2-C , 14-H ) :   0.9496
B(  2-C , 15-H ) :   0.9481 B(  3-C ,  4-S ) :   0.8971 B(  3-C , 28-C ) :   1.0584
B(  3-C , 33-H ) :   0.9287 B(  3-C , 34-H ) :   0.9346 B(  4-S ,  8-O ) :   1.7040
B(  4-S ,  9-O ) :   1.6711 B(  4-S , 12-F ) :   1.0457 B( 13-C , 16-C ) :   1.0510
B( 13-C , 17-H ) :   0.9440 B( 13-C , 18-H ) :   0.9451 B( 16-C , 19-C ) :   1.0784
B( 16-C , 20-H ) :   0.9443 B( 16-C , 21-H ) :   0.9475 B( 19-C , 22-C ) :   1.0779
B( 19-C , 23-H ) :   0.9465 B( 19-C , 24-H ) :   0.9472 B( 22-C , 25-C ) :   1.0620
B( 22-C , 26-H ) :   0.9474 B( 22-C , 27-H ) :   0.9477 B( 25-C , 28-C ) :   1.0517
B( 25-C , 29-H ) :   0.9450 B( 25-C , 30-H ) :   0.9493 B( 28-C , 31-H ) :   0.9433
B( 28-C , 32-H ) :   0.9396

Dispersion correction           -0.018589015
FINAL SINGLE POINT ENERGY     -1041.299499250802

DIPOLE MOMENT
-------------
                                X             Y             Z
Electronic contribution:    -12.78376     -20.36158     -14.34973
Nuclear contribution   :     10.70731      19.84772      14.63855
                        -----------------------------------------
Total Dipole Moment    :     -2.07645      -0.51387       0.28883
                        -----------------------------------------
Magnitude (a.u.)       :      2.15850
Magnitude (Debye)      :      5.48647

Rotational constants in cm-1:     0.026014     0.014812     0.010477
Rotational constants in MHz :   779.874765   444.063394   314.081855

                             ****ORCA TERMINATED NORMALLY****
TOTAL RUN TIME: 0 days 0 hours 0 minutes 36 seconds 472 msec
