                         Program Version 5.0.0 -  RELEASE  -
|  1> !wB97X-D3 RIJCOSX def2-SVP def2/J TightSCF
|  2> *xyz -1 1
|  3> C          3.51177       -2.80621       -6.49228
|  4> S          3.00462       -1.09621       -6.38926
|  5> O          4.12886       -0.32965       -6.95372
|  6> O          1.78128       -1.00078       -7.13640
|  7> O          2.85155       -0.78368       -4.95679
|  8> H          3.63615       -3.08010       -7.51913
|  9> H          2.76397       -3.42755       -6.04548
| 10> H          4.43892       -2.93511       -5.97393
| 11> *
| 12>
| 13> %MaxCore 64000
| 14>
| 15> %pal nprocs 8
| 16> end
| 17>
| 18> %scf
| 19>   MaxIter 150
| 20> end
| 21>
| 22>
| 23>                          ****END OF INPUT****

CARTESIAN COORDINATES (ANGSTROEM)
---------------------------------
  C      3.511770   -2.806210   -6.492280
  S      3.004620   -1.096210   -6.389260
  O      4.128860   -0.329650   -6.953720
  O      1.781280   -1.000780   -7.136400
  O      2.851550   -0.783680   -4.956790
  H      3.636150   -3.080100   -7.519130
  H      2.763970   -3.427550   -6.045480
  H      4.438920   -2.935110   -5.973930

 Total Charge           Charge          ....   -1
 Multiplicity           Mult            ....    1
 Number of Electrons    NEL             ....   50
 Basis Dimension        Dim             ....   89

ORBITAL ENERGIES
----------------

  NO   OCC          E(Eh)            E(eV)
   0   2.0000     -88.935972     -2420.0708
   1   2.0000     -18.987598      -516.6788
   2   2.0000     -18.974694      -516.3277
   3   2.0000     -18.974213      -516.3146
   4   2.0000     -10.128022      -275.5975
   5   2.0000      -8.016272      -218.1339
   6   2.0000      -5.975361      -162.5978
   7   2.0000      -5.975087      -162.5904
   8   2.0000      -5.975041      -162.5891
   9   2.0000      -1.013620       -27.5820
  10   2.0000      -0.867915       -23.6172
  11   2.0000      -0.846259       -23.0279
  12   2.0000      -0.684050       -18.6139
  13   2.0000      -0.471876       -12.8404
  14   2.0000      -0.377970       -10.2851
  15   2.0000      -0.377757       -10.2793
  16   2.0000      -0.376463       -10.2441
  17   2.0000      -0.319842        -8.7033
  18   2.0000      -0.318689        -8.6720
  19   2.0000      -0.214644        -5.8407
  20   2.0000      -0.213250        -5.8028
  21   2.0000      -0.179112        -4.8739
  22   2.0000      -0.172277        -4.6879
  23   2.0000      -0.163403        -4.4464
  24   2.0000      -0.123653        -3.3648
  25   0.0000       0.310624         8.4525
  26   0.0000       0.359381         9.7793
  27   0.0000       0.361460         9.8358
  28   0.0000       0.401148        10.9158
  29   0.0000       0.475425        12.9370

MULLIKEN ATOMIC CHARGES
-----------------------
   0 C :   -0.072015
   1 S :    0.864895
   2 O :   -0.625363
   3 O :   -0.585426
   4 O :   -0.623483
   5 H :    0.013668
   6 H :    0.011320
   7 H :    0.016402
Sum of atomic charges:   -1.0000000

LOEWDIN ATOMIC CHARGES
----------------------
   0 C :   -0.210774
   1 S :    1.106540
   2 O :   -0.654347
   3 O :   -0.614513
   4 O :   -0.653945
   5 H :    0.008995
   6 H :    0.007561
   7 H :    0.010483

  Mayer bond orders larger than 0.100000
B(  0-C ,  1-S ) :   0.9116 B(  0-C ,  5-H ) :   0.9637 B(  0-C ,  6-H ) :   0.9633
B(  0-C ,  7-H ) :   0.9657 B(  1-S ,  2-O ) :   1.6011 B(  1-S ,  3-O ) :   1.6423
B(  1-S ,  4-O ) :   1.6030

Dispersion correction           -0.001518362
FINAL SINGLE POINT ENERGY      -663.357347440814

DIPOLE MOMENT
-------------
                                X             Y             Z
Electronic contribution:     -1.31110       4.09144       0.18669
Nuclear contribution   :      1.59265      -5.51967      -0.35565
                        -----------------------------------------
Total Dipole Moment    :      0.28155      -1.42823      -0.16896
                        -----------------------------------------
Magnitude (a.u.)       :      1.46549
Magnitude (Debye)      :      3.72498

Rotational constants in cm-1:     0.172598     0.157065     0.154689
Rotational constants in MHz :  5174.362736  4708.699947  4637.458896

                             ****ORCA TERMINATED NORMALLY****
TOTAL RUN TIME: 0 days 0 hours 0 minutes 6 seconds 566 msec
