                         Program Version 5.0.0 -  RELEASE  -
|  1> !wB97X-D3 RIJCOSX def2-SVP def2/J TightSCF
|  2> *xyz 1 1
|  3> C          4.49059        1.15590       -2.46929
|  4> N          4.30539        1.22276       -3.90832
|  5> C          4.63192        2.24637       -4.67096
|  6> N          4.54169        2.14399       -5.98714
|  7> N          5.08409        3.39358       -4.11855
|  8> H          4.92067        3.57050       -3.13587
|  9> H          5.25465        4.19739       -4.70696
| 10> H          3.82453        0.44911       -4.35093
| 11> H          4.34337        1.24932       -6.41665
| 12> H          4.67671        2.95662       -6.57411
| 13> H          5.00867        2.03053       -2.13534
| 14> H          5.06354        0.28631       -2.22344
| 15> H          3.53600        1.10160       -1.98897
| 16> *
| 17>
| 18> %MaxCore 64000
| 19>
| 20> %pal nprocs 8
| 21> end
| 22>
| 23> %scf
| 24>   MaxIter 150
| 25> end
| 26>
| 27>
| 28>                          ****END OF INPUT****

CARTESIAN COORDINATES (ANGSTROEM)
---------------------------------
  C      4.490590    1.155900   -2.469290
  N      4.305390    1.222760   -3.908320
  C      4.631920    2.246370   -4.670960
  N      4.541690    2.143990   -5.987140
  N      5.084090    3.393580   -4.118550
  H      4.920670    3.570500   -3.135870
  H      5.254650    4.197390   -4.706960
  H      3.824530    0.449110   -4.350930
  H      4.343370    1.249320   -6.416650
  H      4.676710    2.956620   -6.574110
  H      5.008670    2.030530   -2.135340
  H      5.063540    0.286310   -2.223440
  H      3.536000    1.101600   -1.988970

 Total Charge           Charge          ....    1
 Multiplicity           Mult            ....    1
 Number of Electrons    NEL             ....   40
 Basis Dimension        Dim             ....  110

ORBITAL ENERGIES
----------------

  NO   OCC          E(Eh)            E(eV)
   0   2.0000     -14.665258      -399.0620
   1   2.0000     -14.662320      -398.9820
   2   2.0000     -14.658449      -398.8767
   3   2.0000     -10.630851      -289.2801
   4   2.0000     -10.494390      -285.5669
   5   2.0000      -1.330132       -36.1947
   6   2.0000      -1.216789       -33.1105
   7   2.0000      -1.199618       -32.6433
   8   2.0000      -1.017370       -27.6840
   9   2.0000      -0.933522       -25.4024
  10   2.0000      -0.895730       -24.3740
  11   2.0000      -0.860711       -23.4211
  12   2.0000      -0.794739       -21.6260
  13   2.0000      -0.791320       -21.5329
  14   2.0000      -0.758880       -20.6502
  15   2.0000      -0.741510       -20.1775
  16   2.0000      -0.692800       -18.8521
  17   2.0000      -0.679660       -18.4945
  18   2.0000      -0.572774       -15.5860
  19   2.0000      -0.547299       -14.8928
  20   0.0000      -0.074271        -2.0210
  21   0.0000      -0.048342        -1.3155
  22   0.0000      -0.014907        -0.4057
  23   0.0000      -0.004965        -0.1351
  24   0.0000       0.014174         0.3857

MULLIKEN ATOMIC CHARGES
-----------------------
   0 C :    0.077890
   1 N :   -0.195831
   2 C :    0.115621
   3 N :   -0.062117
   4 N :   -0.106784
   5 H :    0.182334
   6 H :    0.181650
   7 H :    0.182864
   8 H :    0.186249
   9 H :    0.186927
  10 H :    0.056235
  11 H :    0.098722
  12 H :    0.096240
Sum of atomic charges:    1.0000000

LOEWDIN ATOMIC CHARGES
----------------------
   0 C :    0.057662
   1 N :    0.019631
   2 C :    0.160040
   3 N :    0.043301
   4 N :    0.026335
   5 H :    0.105958
   6 H :    0.111467
   7 H :    0.111645
   8 H :    0.115164
   9 H :    0.115126
  10 H :    0.035167
  11 H :    0.051500
  12 H :    0.047005

  Mayer bond orders larger than 0.100000
B(  0-C ,  1-N ) :   0.9268 B(  0-C , 10-H ) :   0.9739 B(  0-C , 11-H ) :   0.9716
B(  0-C , 12-H ) :   0.9748 B(  1-N ,  2-C ) :   1.3870 B(  1-N ,  7-H ) :   0.9103
B(  2-C ,  3-N ) :   1.4037 B(  2-C ,  4-N ) :   1.3713 B(  3-N ,  8-H ) :   0.9227
B(  3-N ,  9-H ) :   0.9242 B(  4-N ,  5-H ) :   0.9243 B(  4-N ,  6-H ) :   0.9259

Dispersion correction           -0.002329592
FINAL SINGLE POINT ENERGY      -244.838337931914

DIPOLE MOMENT
-------------
                                X             Y             Z
Electronic contribution:      0.01603       0.72396      -2.72533
Nuclear contribution   :     -0.23495      -0.48067       2.19509
                        -----------------------------------------
Total Dipole Moment    :     -0.21892       0.24329      -0.53024
                        -----------------------------------------
Magnitude (a.u.)       :      0.62311
Magnitude (Debye)      :      1.58383

Rotational constants in cm-1:     0.315679     0.134071     0.096006
Rotational constants in MHz :  9463.824527  4019.347586  2878.182223

                             ****ORCA TERMINATED NORMALLY****
TOTAL RUN TIME: 0 days 0 hours 0 minutes 8 seconds 525 msec
