                         Program Version 5.0.0 -  RELEASE  -
|  1> !wB97X-D3 RIJCOSX def2-SVP def2/J TightSCF
|  2> *xyz 0 1
|  3> C          3.51177       -2.80621       -6.49228
|  4> S          3.00462       -1.09621       -6.38926
|  5> F          4.12886       -0.32965       -6.95372
|  6> O          1.78128       -1.00078       -7.13640
|  7> O          2.85155       -0.78368       -4.95679
|  8> H          3.63615       -3.08010       -7.51913
|  9> H          2.76397       -3.42755       -6.04548
| 10> H          4.43892       -2.93511       -5.97393
| 11> *
| 12>
| 13> %MaxCore 64000
| 14>
| 15> %pal nprocs 8
| 16> end
| 17>
| 18> %scf
| 19>   MaxIter 150
| 20> end
| 21>
| 22>
| 23>                          ****END OF INPUT****

CARTESIAN COORDINATES (ANGSTROEM)
---------------------------------
  C      3.511770   -2.806210   -6.492280
  S      3.004620   -1.096210   -6.389260
  F      4.128860   -0.329650   -6.953720
  O      1.781280   -1.000780   -7.136400
  O      2.851550   -0.783680   -4.956790
  H      3.636150   -3.080100   -7.519130
  H      2.763970   -3.427550   -6.045480
  H      4.438920   -2.935110   -5.973930

 Total Charge           Charge          ....    0
 Multiplicity           Mult            ....    1
 Number of Electrons    NEL             ....   50
 Basis Dimension        Dim             ....   89

ORBITAL ENERGIES
----------------

  NO   OCC          E(Eh)            E(eV)
   0   2.0000     -89.217783     -2427.7393
   1   2.0000     -24.895236      -677.4338
   2   2.0000     -19.246639      -523.7277
   3   2.0000     -19.234425      -523.3953
   4   2.0000     -10.347412      -281.5674
   5   2.0000      -8.300171      -225.8591
   6   2.0000      -6.263185      -170.4299
   7   2.0000      -6.256716      -170.2539
   8   2.0000      -6.255944      -170.2329
   9   2.0000      -1.464680       -39.8560
  10   2.0000      -1.222398       -33.2631
  11   2.0000      -1.116612       -30.3846
  12   2.0000      -0.916679       -24.9441
  13   2.0000      -0.809630       -22.0312
  14   2.0000      -0.697610       -18.9829
  15   2.0000      -0.673288       -18.3211
  16   2.0000      -0.651554       -17.7297
  17   2.0000      -0.580211       -15.7883
  18   2.0000      -0.574951       -15.6452
  19   2.0000      -0.565076       -15.3765
  20   2.0000      -0.529940       -14.4204
  21   2.0000      -0.480302       -13.0697
  22   2.0000      -0.430059       -11.7025
  23   2.0000      -0.418292       -11.3823
  24   2.0000      -0.398683       -10.8487
  25   0.0000       0.116913         3.1814
  26   0.0000       0.147331         4.0091
  27   0.0000       0.164556         4.4778
  28   0.0000       0.172847         4.7034
  29   0.0000       0.185289         5.0420

MULLIKEN ATOMIC CHARGES
-----------------------
   0 C :   -0.096643
   1 S :    0.939472
   2 F :   -0.205642
   3 O :   -0.442031
   4 O :   -0.480053
   5 H :    0.085819
   6 H :    0.113280
   7 H :    0.085799
Sum of atomic charges:    0.0000000

LOEWDIN ATOMIC CHARGES
----------------------
   0 C :   -0.156540
   1 S :    1.171468
   2 F :   -0.149743
   3 O :   -0.482304
   4 O :   -0.521748
   5 H :    0.040566
   6 H :    0.057528
   7 H :    0.040773

  Mayer bond orders larger than 0.100000
B(  0-C ,  1-S ) :   0.9416 B(  0-C ,  5-H ) :   0.9528 B(  0-C ,  6-H ) :   0.9571
B(  0-C ,  7-H ) :   0.9540 B(  1-S ,  2-F ) :   0.9883 B(  1-S ,  3-O ) :   1.7965
B(  1-S ,  4-O ) :   1.7577

Dispersion correction           -0.001527781
FINAL SINGLE POINT ENERGY      -687.870513777538

DIPOLE MOMENT
-------------
                                X             Y             Z
Electronic contribution:      0.59746       5.26031      -0.78866
Nuclear contribution   :      0.51040      -6.36905       0.21167
                        -----------------------------------------
Total Dipole Moment    :      1.10786      -1.10873      -0.57700
                        -----------------------------------------
Magnitude (a.u.)       :      1.67020
Magnitude (Debye)      :      4.24531

Rotational constants in cm-1:     0.163860     0.154073     0.147119
Rotational constants in MHz :  4912.396151  4618.979177  4410.507958

                             ****ORCA TERMINATED NORMALLY****
TOTAL RUN TIME: 0 days 0 hours 0 minutes 6 seconds 166 msec
