                         Program Version 5.0.0 -  RELEASE  -
|  1> !wB97X-D3 RIJCOSX def2-SVP def2/J TightSCF
|  2> *xyz 0 1
|  3> C          4.49059        1.15590       -2.46929
|  4> C          4.30539        1.22276       -3.90832
|  5> C          4.63192        2.24637       -4.67096
|  6> N          4.54169        2.14399       -5.98714
|  7> N          5.08409        3.39358       -4.11855
|  8> H          4.92067        3.57050       -3.13587
|  9> H          5.25465        4.19739       -4.70696
| 10> H          3.82453        0.44911       -4.35093
| 11> H          4.34337        1.24932       -6.41665
| 12> H          4.67671        2.95662       -6.57411
| 13> H          5.00867        2.03053       -2.13534
| 14> H          5.06354        0.28631       -2.22344
| 15> H          3.53600        1.10160       -1.98897
| 16> *
| 17>
| 18> %MaxCore 64000
| 19>
| 20> %pal nprocs 8
| 21> end
| 22>
| 23> %scf
| 24>   MaxIter 150
| 25> end
| 26>
| 27>
| 28>                          ****END OF INPUT****

CARTESIAN COORDINATES (ANGSTROEM)
---------------------------------
  C      4.490590    1.155900   -2.469290
  C      4.305390    1.222760   -3.908320
  C      4.631920    2.246370   -4.670960
  N      4.541690    2.143990   -5.987140
  N      5.084090    3.393580   -4.118550
  H      4.920670    3.570500   -3.135870
  H      5.254650    4.197390   -4.706960
  H      3.824530    0.449110   -4.350930
  H      4.343370    1.249320   -6.416650
  H      4.676710    2.956620   -6.574110
  H      5.008670    2.030530   -2.135340
  H      5.063540    0.286310   -2.223440
  H      3.536000    1.101600   -1.988970

 Total Charge           Charge          ....    0
 Multiplicity           Mult            ....    1
 Number of Electrons    NEL             ....   40
 Basis Dimension        Dim             ....  110

ORBITAL ENERGIES
----------------

  NO   OCC          E(Eh)            E(eV)
   0   2.0000     -14.424422      -392.5085
   1   2.0000     -14.424323      -392.5058
   2   2.0000     -10.322697      -280.8949
   3   2.0000     -10.246663      -278.8259
   4   2.0000     -10.198389      -277.5123
   5   2.0000      -1.058093       -28.7922
   6   2.0000      -0.965229       -26.2652
   7   2.0000      -0.853378       -23.2216
   8   2.0000      -0.755761       -20.5653
   9   2.0000      -0.678108       -18.4523
  10   2.0000      -0.634881       -17.2760
  11   2.0000      -0.606214       -16.4959
  12   2.0000      -0.564472       -15.3601
  13   2.0000      -0.514248       -13.9934
  14   2.0000      -0.500941       -13.6313
  15   2.0000      -0.465899       -12.6777
  16   2.0000      -0.449566       -12.2333
  17   2.0000      -0.429660       -11.6916
  18   2.0000      -0.349093        -9.4993
  19   2.0000      -0.232192        -6.3183
  20   0.0000       0.136334         3.7098
  21   0.0000       0.169892         4.6230
  22   0.0000       0.184741         5.0270
  23   0.0000       0.198101         5.3906
  24   0.0000       0.211044         5.7428

MULLIKEN ATOMIC CHARGES
-----------------------
   0 C :    0.092214
   1 C :   -0.270111
   2 C :    0.014505
   3 N :   -0.105108
   4 N :   -0.144487
   5 H :    0.130671
   6 H :    0.110244
   7 H :   -0.076892
   8 H :    0.131353
   9 H :    0.110525
  10 H :   -0.024087
  11 H :    0.016927
  12 H :    0.014247
Sum of atomic charges:   -0.0000000

LOEWDIN ATOMIC CHARGES
----------------------
   0 C :   -0.051212
   1 C :   -0.232352
   2 C :    0.028969
   3 N :   -0.031240
   4 N :   -0.044520
   5 H :    0.076030
   6 H :    0.064821
   7 H :   -0.009660
   8 H :    0.084805
   9 H :    0.065876
  10 H :    0.010110
  11 H :    0.021326
  12 H :    0.017049

  Mayer bond orders larger than 0.100000
B(  0-C ,  1-C ) :   1.0541 B(  0-C , 10-H ) :   0.9652 B(  0-C , 11-H ) :   0.9586
B(  0-C , 12-H ) :   0.9636 B(  1-C ,  2-C ) :   1.7180 B(  1-C ,  7-H ) :   0.9639
B(  2-C ,  3-N ) :   1.2296 B(  2-C ,  4-N ) :   1.2122 B(  3-N ,  8-H ) :   0.9414
B(  3-N ,  9-H ) :   0.9525 B(  4-N ,  5-H ) :   0.9423 B(  4-N ,  6-H ) :   0.9535

Dispersion correction           -0.002331427
FINAL SINGLE POINT ENERGY      -228.367785321754

DIPOLE MOMENT
-------------
                                X             Y             Z
Electronic contribution:      0.33060       1.47916      -2.97115
Nuclear contribution   :     -0.29662      -0.64714       2.26125
                        -----------------------------------------
Total Dipole Moment    :      0.03398       0.83202      -0.70990
                        -----------------------------------------
Magnitude (a.u.)       :      1.09424
Magnitude (Debye)      :      2.78134

Rotational constants in cm-1:     0.320965     0.135060     0.096994
Rotational constants in MHz :  9622.302637  4048.999301  2907.812202

                             ****ORCA TERMINATED NORMALLY****
TOTAL RUN TIME: 0 days 0 hours 0 minutes 8 seconds 554 msec
