                         Program Version 5.0.0 -  RELEASE  -
|  1> !wB97X-D3 RIJCOSX def2-SVP def2/J TightSCF
|  2> *xyz 0 1
|  3> C          3.51177       -2.80621       -6.49228
|  4> S          3.00462       -1.09621       -6.38926
|  5> O          4.12886       -0.32965       -6.95372
|  6> F          1.78128       -1.00078       -7.13640
|  7> O          2.85155       -0.78368       -4.95679
|  8> H          3.63615       -3.08010       -7.51913
|  9> H          2.76397       -3.42755       -6.04548
| 10> H          4.43892       -2.93511       -5.97393
| 11> *
| 12>
| 13> %MaxCore 64000
| 14>
| 15> %pal nprocs 8
| 16> end
| 17>
| 18> %scf
| 19>   MaxIter 150
| 20> end
| 21>
| 22>
| 23>                          ****END OF INPUT****

CARTESIAN COORDINATES (ANGSTROEM)
---------------------------------
  C      3.511770   -2.806210   -6.492280
  S      3.004620   -1.096210   -6.389260
  O      4.128860   -0.329650   -6.953720
  F      1.781280   -1.000780   -7.136400
  O      2.851550   -0.783680   -4.956790
  H      3.636150   -3.080100   -7.519130
  H      2.763970   -3.427550   -6.045480
  H      4.438920   -2.935110   -5.973930

 Total Charge           Charge          ....    0
 Multiplicity           Mult            ....    1
 Number of Electrons    NEL             ....   50
 Basis Dimension        Dim             ....   89

ORBITAL ENERGIES
----------------

  NO   OCC          E(Eh)            E(eV)
   0   2.0000     -89.219051     -2427.7738
   1   2.0000     -24.913680      -677.9357
   2   2.0000     -19.234445      -523.3959
   3   2.0000     -19.233745      -523.3768
   4   2.0000     -10.347874      -281.5800
   5   2.0000      -8.301565      -225.8971
   6   2.0000      -6.264800      -170.4739
   7   2.0000      -6.257868      -170.2853
   8   2.0000      -6.257145      -170.2656
   9   2.0000      -1.496353       -40.7178
  10   2.0000      -1.208365       -32.8813
  11   2.0000      -1.102036       -29.9879
  12   2.0000      -0.918215       -24.9859
  13   2.0000      -0.825306       -22.4577
  14   2.0000      -0.712449       -19.3867
  15   2.0000      -0.695437       -18.9238
  16   2.0000      -0.655176       -17.8283
  17   2.0000      -0.580208       -15.7883
  18   2.0000      -0.572674       -15.5832
  19   2.0000      -0.564520       -15.3614
  20   2.0000      -0.522789       -14.2258
  21   2.0000      -0.472311       -12.8522
  22   2.0000      -0.419453       -11.4139
  23   2.0000      -0.413023       -11.2389
  24   2.0000      -0.387166       -10.5353
  25   0.0000       0.118095         3.2135
  26   0.0000       0.149220         4.0605
  27   0.0000       0.162309         4.4167
  28   0.0000       0.166502         4.5308
  29   0.0000       0.186442         5.0733

MULLIKEN ATOMIC CHARGES
-----------------------
   0 C :   -0.094444
   1 S :    0.931054
   2 O :   -0.476973
   3 F :   -0.168841
   4 O :   -0.475479
   5 H :    0.085084
   6 H :    0.084056
   7 H :    0.115542
Sum of atomic charges:    0.0000000

LOEWDIN ATOMIC CHARGES
----------------------
   0 C :   -0.155669
   1 S :    1.166530
   2 O :   -0.518321
   3 F :   -0.112918
   4 O :   -0.518256
   5 H :    0.040219
   6 H :    0.039279
   7 H :    0.059136

  Mayer bond orders larger than 0.100000
B(  0-C ,  1-S ) :   0.9403 B(  0-C ,  5-H ) :   0.9526 B(  0-C ,  6-H ) :   0.9530
B(  0-C ,  7-H ) :   0.9571 B(  1-S ,  2-O ) :   1.7527 B(  1-S ,  3-F ) :   1.0298
B(  1-S ,  4-O ) :   1.7546

Dispersion correction           -0.001528726
FINAL SINGLE POINT ENERGY      -687.854319631501

DIPOLE MOMENT
-------------
                                X             Y             Z
Electronic contribution:     -3.35539       4.13329      -1.08882
Nuclear contribution   :      2.85578      -5.69854       0.39418
                        -----------------------------------------
Total Dipole Moment    :     -0.49961      -1.56526      -0.69464
                        -----------------------------------------
Magnitude (a.u.)       :      1.78386
Magnitude (Debye)      :      4.53421

Rotational constants in cm-1:     0.163257     0.155833     0.146211
Rotational constants in MHz :  4894.333085  4671.750883  4383.281537

                             ****ORCA TERMINATED NORMALLY****
TOTAL RUN TIME: 0 days 0 hours 0 minutes 6 seconds 256 msec
