                         Program Version 5.0.0 -  RELEASE  -
|  1> !wB97X-D3 RIJCOSX def2-SVP def2/J TightSCF
|  2> *xyz 0 1
|  3> C          4.49059        1.15590       -2.46929
|  4> N          4.30539        1.22276       -3.90832
|  5> C          4.63192        2.24637       -4.67096
|  6> C          4.54169        2.14399       -5.98714
|  7> N          5.08409        3.39358       -4.11855
|  8> H          4.92067        3.57050       -3.13587
|  9> H          5.25465        4.19739       -4.70696
| 10> H          3.82453        0.44911       -4.35093
| 11> H          4.34337        1.24932       -6.41665
| 12> H          4.67671        2.95662       -6.57411
| 13> H          5.00867        2.03053       -2.13534
| 14> H          5.06354        0.28631       -2.22344
| 15> H          3.53600        1.10160       -1.98897
| 16> *
| 17>
| 18> %MaxCore 64000
| 19>
| 20> %pal nprocs 8
| 21> end
| 22>
| 23> %scf
| 24>   MaxIter 150
| 25> end
| 26>
| 27>
| 28>                          ****END OF INPUT****

CARTESIAN COORDINATES (ANGSTROEM)
---------------------------------
  C      4.490590    1.155900   -2.469290
  N      4.305390    1.222760   -3.908320
  C      4.631920    2.246370   -4.670960
  C      4.541690    2.143990   -5.987140
  N      5.084090    3.393580   -4.118550
  H      4.920670    3.570500   -3.135870
  H      5.254650    4.197390   -4.706960
  H      3.824530    0.449110   -4.350930
  H      4.343370    1.249320   -6.416650
  H      4.676710    2.956620   -6.574110
  H      5.008670    2.030530   -2.135340
  H      5.063540    0.286310   -2.223440
  H      3.536000    1.101600   -1.988970

 Total Charge           Charge          ....    0
 Multiplicity           Mult            ....    1
 Number of Electrons    NEL             ....   40
 Basis Dimension        Dim             ....  110

ORBITAL ENERGIES
----------------

  NO   OCC          E(Eh)            E(eV)
   0   2.0000     -14.429354      -392.6427
   1   2.0000     -14.426349      -392.5609
   2   2.0000     -10.328173      -281.0439
   3   2.0000     -10.319627      -280.8113
   4   2.0000     -10.190271      -277.2914
   5   2.0000      -1.070216       -29.1220
   6   2.0000      -0.979609       -26.6565
   7   2.0000      -0.848760       -23.0959
   8   2.0000      -0.766780       -20.8651
   9   2.0000      -0.700054       -19.0494
  10   2.0000      -0.633637       -17.2421
  11   2.0000      -0.587162       -15.9775
  12   2.0000      -0.568571       -15.4716
  13   2.0000      -0.551561       -15.0087
  14   2.0000      -0.503469       -13.7001
  15   2.0000      -0.481464       -13.1013
  16   2.0000      -0.475030       -12.9262
  17   2.0000      -0.451232       -12.2787
  18   2.0000      -0.339119        -9.2279
  19   2.0000      -0.239790        -6.5250
  20   0.0000       0.136753         3.7212
  21   0.0000       0.167891         4.5686
  22   0.0000       0.179906         4.8955
  23   0.0000       0.190556         5.1853
  24   0.0000       0.216932         5.9030

MULLIKEN ATOMIC CHARGES
-----------------------
   0 C :    0.106975
   1 N :   -0.217639
   2 C :    0.017913
   3 C :   -0.128727
   4 N :   -0.148462
   5 H :    0.111268
   6 H :    0.133186
   7 H :    0.134642
   8 H :   -0.047327
   9 H :   -0.048067
  10 H :    0.019222
  11 H :    0.034994
  12 H :    0.032022
Sum of atomic charges:   -0.0000000

LOEWDIN ATOMIC CHARGES
----------------------
   0 C :    0.033555
   1 N :   -0.041610
   2 C :    0.046473
   3 C :   -0.266320
   4 N :   -0.040649
   5 H :    0.060103
   6 H :    0.083680
   7 H :    0.085847
   8 H :   -0.008629
   9 H :   -0.008828
  10 H :    0.020851
  11 H :    0.019923
  12 H :    0.015603

  Mayer bond orders larger than 0.100000
B(  0-C ,  1-N ) :   0.9939 B(  0-C , 10-H ) :   0.9747 B(  0-C , 11-H ) :   0.9769
B(  0-C , 12-H ) :   0.9788 B(  1-N ,  2-C ) :   1.1982 B(  1-N ,  7-H ) :   0.9313
B(  2-C ,  3-C ) :   1.7536 B(  2-C ,  4-N ) :   1.2040 B(  3-C ,  8-H ) :   0.9468
B(  3-C ,  9-H ) :   0.9472 B(  4-N ,  5-H ) :   0.9516 B(  4-N ,  6-H ) :   0.9454

Dispersion correction           -0.002342100
FINAL SINGLE POINT ENERGY      -228.357747301690

DIPOLE MOMENT
-------------
                                X             Y             Z
Electronic contribution:      0.09246       0.54984      -0.68498
Nuclear contribution   :     -0.24876      -0.46055       1.84019
                        -----------------------------------------
Total Dipole Moment    :     -0.15630       0.08929       1.15521
                        -----------------------------------------
Magnitude (a.u.)       :      1.16915
Magnitude (Debye)      :      2.97175

Rotational constants in cm-1:     0.322158     0.139919     0.099594
Rotational constants in MHz :  9658.057362  4194.660927  2985.745059

                             ****ORCA TERMINATED NORMALLY****
TOTAL RUN TIME: 0 days 0 hours 0 minutes 8 seconds 748 msec
