                         Program Version 5.0.0 -  RELEASE  -
|  1> !wB97X-D3 RIJCOSX def2-SVP def2/J TightSCF
|  2> *xyz 0 1
|  3> C          3.51177       -2.80621       -6.49228
|  4> S          3.00462       -1.09621       -6.38926
|  5> O          4.12886       -0.32965       -6.95372
|  6> O          1.78128       -1.00078       -7.13640
|  7> F          2.85155       -0.78368       -4.95679
|  8> H          3.63615       -3.08010       -7.51913
|  9> H          2.76397       -3.42755       -6.04548
| 10> H          4.43892       -2.93511       -5.97393
| 11> *
| 12>
| 13> %MaxCore 64000
| 14>
| 15> %pal nprocs 8
| 16> end
| 17>
| 18> %scf
| 19>   MaxIter 150
| 20> end
| 21>
| 22>
| 23>                          ****END OF INPUT****

CARTESIAN COORDINATES (ANGSTROEM)
---------------------------------
  C      3.511770   -2.806210   -6.492280
  S      3.004620   -1.096210   -6.389260
  O      4.128860   -0.329650   -6.953720
  O      1.781280   -1.000780   -7.136400
  F      2.851550   -0.783680   -4.956790
  H      3.636150   -3.080100   -7.519130
  H      2.763970   -3.427550   -6.045480
  H      4.438920   -2.935110   -5.973930

 Total Charge           Charge          ....    0
 Multiplicity           Mult            ....    1
 Number of Electrons    NEL             ....   50
 Basis Dimension        Dim             ....   89

ORBITAL ENERGIES
----------------

  NO   OCC          E(Eh)            E(eV)
   0   2.0000     -89.217808     -2427.7400
   1   2.0000     -24.895329      -677.4363
   2   2.0000     -19.246906      -523.7349
   3   2.0000     -19.234050      -523.3851
   4   2.0000     -10.347277      -281.5637
   5   2.0000      -8.300192      -225.8597
   6   2.0000      -6.263201      -170.4304
   7   2.0000      -6.256688      -170.2531
   8   2.0000      -6.256018      -170.2349
   9   2.0000      -1.464127       -39.8409
  10   2.0000      -1.222345       -33.2617
  11   2.0000      -1.117835       -30.4178
  12   2.0000      -0.915434       -24.9102
  13   2.0000      -0.809611       -22.0306
  14   2.0000      -0.697548       -18.9813
  15   2.0000      -0.672585       -18.3020
  16   2.0000      -0.651575       -17.7303
  17   2.0000      -0.579976       -15.7819
  18   2.0000      -0.574085       -15.6216
  19   2.0000      -0.566341       -15.4109
  20   2.0000      -0.530156       -14.4263
  21   2.0000      -0.479727       -13.0540
  22   2.0000      -0.429984       -11.7004
  23   2.0000      -0.417371       -11.3573
  24   2.0000      -0.399748       -10.8777
  25   0.0000       0.113117         3.0781
  26   0.0000       0.147179         4.0049
  27   0.0000       0.166143         4.5210
  28   0.0000       0.174414         4.7460
  29   0.0000       0.186371         5.0714

MULLIKEN ATOMIC CHARGES
-----------------------
   0 C :   -0.095152
   1 S :    0.940138
   2 O :   -0.481925
   3 O :   -0.442611
   4 F :   -0.205029
   5 H :    0.114705
   6 H :    0.083209
   7 H :    0.086665
Sum of atomic charges:   -0.0000000

LOEWDIN ATOMIC CHARGES
----------------------
   0 C :   -0.155201
   1 S :    1.171399
   2 O :   -0.522032
   3 O :   -0.482698
   4 F :   -0.150013
   5 H :    0.058395
   6 H :    0.038926
   7 H :    0.041224

  Mayer bond orders larger than 0.100000
B(  0-C ,  1-S ) :   0.9427 B(  0-C ,  5-H ) :   0.9566 B(  0-C ,  6-H ) :   0.9532
B(  0-C ,  7-H ) :   0.9543 B(  1-S ,  2-O ) :   1.7564 B(  1-S ,  3-O ) :   1.7968
B(  1-S ,  4-F ) :   0.9888

Dispersion correction           -0.001524852
FINAL SINGLE POINT ENERGY      -687.870218402655

DIPOLE MOMENT
-------------
                                X             Y             Z
Electronic contribution:     -1.55976       4.49112       2.58537
Nuclear contribution   :      1.78651      -5.91544      -1.78339
                        -----------------------------------------
Total Dipole Moment    :      0.22675      -1.42432       0.80198
                        -----------------------------------------
Magnitude (a.u.)       :      1.65024
Magnitude (Debye)      :      4.19457

Rotational constants in cm-1:     0.165193     0.152051     0.147788
Rotational constants in MHz :  4952.361749  4558.380225  4430.570551

                             ****ORCA TERMINATED NORMALLY****
TOTAL RUN TIME: 0 days 0 hours 0 minutes 6 seconds 206 msec
