                         Program Version 5.0.0 -  RELEASE  -
|  1> !wB97X-D3 RIJCOSX def2-SVP def2/J TightSCF
|  2> *xyz 0 1
|  3> C          4.49059        1.15590       -2.46929
|  4> N          4.30539        1.22276       -3.90832
|  5> C          4.63192        2.24637       -4.67096
|  6> N          4.54169        2.14399       -5.98714
|  7> C          5.08409        3.39358       -4.11855
|  8> H          4.92067        3.57050       -3.13587
|  9> H          5.25465        4.19739       -4.70696
| 10> H          3.82453        0.44911       -4.35093
| 11> H          4.34337        1.24932       -6.41665
| 12> H          4.67671        2.95662       -6.57411
| 13> H          5.00867        2.03053       -2.13534
| 14> H          5.06354        0.28631       -2.22344
| 15> H          3.53600        1.10160       -1.98897
| 16> *
| 17>
| 18> %MaxCore 64000
| 19>
| 20> %pal nprocs 8
| 21> end
| 22>
| 23> %scf
| 24>   MaxIter 150
| 25> end
| 26>
| 27>
| 28>                          ****END OF INPUT****

CARTESIAN COORDINATES (ANGSTROEM)
---------------------------------
  C      4.490590    1.155900   -2.469290
  N      4.305390    1.222760   -3.908320
  C      4.631920    2.246370   -4.670960
  N      4.541690    2.143990   -5.987140
  C      5.084090    3.393580   -4.118550
  H      4.920670    3.570500   -3.135870
  H      5.254650    4.197390   -4.706960
  H      3.824530    0.449110   -4.350930
  H      4.343370    1.249320   -6.416650
  H      4.676710    2.956620   -6.574110
  H      5.008670    2.030530   -2.135340
  H      5.063540    0.286310   -2.223440
  H      3.536000    1.101600   -1.988970

 Total Charge           Charge          ....    0
 Multiplicity           Mult            ....    1
 Number of Electrons    NEL             ....   40
 Basis Dimension        Dim             ....  110

ORBITAL ENERGIES
----------------

  NO   OCC          E(Eh)            E(eV)
   0   2.0000     -14.432015      -392.7151
   1   2.0000     -14.429737      -392.6531
   2   2.0000     -10.331070      -281.1227
   3   2.0000     -10.308223      -280.5010
   4   2.0000     -10.188058      -277.2311
   5   2.0000      -1.073347       -29.2073
   6   2.0000      -0.986376       -26.8407
   7   2.0000      -0.819214       -22.2920
   8   2.0000      -0.796133       -21.6639
   9   2.0000      -0.667640       -18.1674
  10   2.0000      -0.648374       -17.6432
  11   2.0000      -0.615375       -16.7452
  12   2.0000      -0.550645       -14.9838
  13   2.0000      -0.537912       -14.6373
  14   2.0000      -0.507858       -13.8195
  15   2.0000      -0.472507       -12.8576
  16   2.0000      -0.469391       -12.7728
  17   2.0000      -0.446540       -12.1510
  18   2.0000      -0.336724        -9.1627
  19   2.0000      -0.237794        -6.4707
  20   0.0000       0.137004         3.7281
  21   0.0000       0.170545         4.6408
  22   0.0000       0.184425         5.0185
  23   0.0000       0.188082         5.1180
  24   0.0000       0.208252         5.6668

MULLIKEN ATOMIC CHARGES
-----------------------
   0 C :    0.124221
   1 N :   -0.237683
   2 C :    0.025662
   3 N :   -0.116337
   4 C :   -0.180553
   5 H :   -0.031783
   6 H :   -0.054069
   7 H :    0.111687
   8 H :    0.111872
   9 H :    0.138708
  10 H :    0.053441
  11 H :    0.026877
  12 H :    0.027958
Sum of atomic charges:   -0.0000000

LOEWDIN ATOMIC CHARGES
----------------------
   0 C :    0.044320
   1 N :   -0.042675
   2 C :    0.045340
   3 N :   -0.025044
   4 C :   -0.289663
   5 H :   -0.010999
   6 H :   -0.012335
   7 H :    0.066433
   8 H :    0.066432
   9 H :    0.087093
  10 H :    0.036392
  11 H :    0.018005
  12 H :    0.016701

  Mayer bond orders larger than 0.100000
B(  0-C ,  1-N ) :   0.9735 B(  0-C , 10-H ) :   0.9692 B(  0-C , 11-H ) :   0.9807
B(  0-C , 12-H ) :   0.9826 B(  1-N ,  2-C ) :   1.1812 B(  1-N ,  7-H ) :   0.9405
B(  2-C ,  3-N ) :   1.2328 B(  2-C ,  4-C ) :   1.7192 B(  3-N ,  8-H ) :   0.9532
B(  3-N ,  9-H ) :   0.9435 B(  4-C ,  5-H ) :   0.9504 B(  4-C ,  6-H ) :   0.9513

Dispersion correction           -0.002335114
FINAL SINGLE POINT ENERGY      -228.355597001258

DIPOLE MOMENT
-------------
                                X             Y             Z
Electronic contribution:     -0.42300      -0.81535      -2.70685
Nuclear contribution   :     -0.13890      -0.20745       2.21867
                        -----------------------------------------
Total Dipole Moment    :     -0.56190      -1.02280      -0.48818
                        -----------------------------------------
Magnitude (a.u.)       :      1.26498
Magnitude (Debye)      :      3.21532

Rotational constants in cm-1:     0.339212     0.134625     0.098371
Rotational constants in MHz : 10169.318272  4035.946597  2949.073953

                             ****ORCA TERMINATED NORMALLY****
TOTAL RUN TIME: 0 days 0 hours 0 minutes 9 seconds 86 msec
