                         Program Version 5.0.0 -  RELEASE  -
|  1> !wB97X-D3 RIJCOSX def2-SVP def2/J TightSCF xyzfile
|  2>
|  3> *xyzfile 0 1 D4.xyz
|  4>
|  5> %MaxCore 64000
|  6>
|  7> %pal nprocs 18
|  8> end
|  9>
| 10> %scf
| 11>   MaxIter 150
| 12> end
| 13>
| 14>
| 15>                          ****END OF INPUT****

CARTESIAN COORDINATES (ANGSTROEM)
---------------------------------
  C      4.490588    1.155899   -2.469290
  C      4.305394    1.222762   -3.908317
  C      4.906458   -3.102816   -5.954844
  C      3.511771   -2.806215   -6.492283
  H      2.736044   -3.373445   -5.973736
  H      3.444904   -3.040831   -7.555281
  S      3.004618   -1.096206   -6.389259
  C      4.631918    2.246365   -4.670958
  N      4.541686    2.143990   -5.987139
  N      5.084086    3.393584   -4.118545
  H      4.920675    3.570501   -3.135870
  H      5.254652    4.197390   -4.706956
  H      3.824530    0.449113   -4.350926
  H      4.343373    1.249318   -6.416646
  H      4.676712    2.956624   -6.574113
  O      4.128856   -0.329647   -6.953717
  F      1.781285   -1.000779   -7.136399
  C      5.942129    0.939500   -2.036893
  H      3.864305    0.328532   -2.136611
  H      4.076233    2.049994   -1.989010
  C      6.462677   -3.117775   -3.944671
  C      5.024977   -3.025679   -4.437625
  H      4.423321   -3.818693   -3.977648
  H      4.579350   -2.087131   -4.108727
  H      5.201533   -4.100207   -6.296905
  H      5.605922   -2.397822   -6.413368
  C      6.559957   -0.356290   -2.559086
  H      5.967976    0.952567   -0.942444
  H      6.547184    1.788331   -2.368849
  C      6.006283   -1.615917   -1.899301
  H      7.642360   -0.318000   -2.402059
  H      6.414855   -0.403433   -3.642587
  C      6.608718   -2.917014   -2.435655
  H      6.190324   -1.561115   -0.820948
  H      4.919250   -1.651245   -2.016586
  H      7.066975   -2.374258   -4.475514
  H      6.887808   -4.089747   -4.215332
  H      6.135197   -3.755573   -1.915159
  H      7.671142   -2.955503   -2.172291
  O      2.851546   -0.783683   -4.956789

 Total Charge           Charge          ....    0
 Multiplicity           Mult            ....    1
 Number of Electrons    NEL             ....  144
 Basis Dimension        Dim             ....  357

ORBITAL ENERGIES
----------------

  NO   OCC          E(Eh)            E(eV)
   0   2.0000     -89.233242     -2428.1600
   1   2.0000     -24.927178      -678.3030
   2   2.0000     -19.258977      -524.0634
   3   2.0000     -19.249079      -523.7941
   4   2.0000     -14.404020      -391.9533
   5   2.0000     -14.382130      -391.3576
   6   2.0000     -10.358622      -281.8724
   7   2.0000     -10.317093      -280.7424
   8   2.0000     -10.294276      -280.1215
   9   2.0000     -10.283610      -279.8312
  10   2.0000     -10.277874      -279.6752
  11   2.0000     -10.271146      -279.4921
  12   2.0000     -10.260280      -279.1964
  13   2.0000     -10.250199      -278.9221
  14   2.0000     -10.243933      -278.7516
  15   2.0000     -10.234987      -278.5082
  16   2.0000     -10.156290      -276.3667
  17   2.0000      -8.315997      -226.2898
  18   2.0000      -6.279166      -170.8648
  19   2.0000      -6.272744      -170.6900
  20   2.0000      -6.271059      -170.6442
  21   2.0000      -1.509417       -41.0733
  22   2.0000      -1.231167       -33.5018
  23   2.0000      -1.125981       -30.6395
  24   2.0000      -1.029649       -28.0182
  25   2.0000      -0.957363       -26.0512
  26   2.0000      -0.936661       -25.4878
  27   2.0000      -0.912884       -24.8408
  28   2.0000      -0.881630       -23.9904
  29   2.0000      -0.860355       -23.4115
  30   2.0000      -0.830054       -22.5869
  31   2.0000      -0.802534       -21.8381
  32   2.0000      -0.768859       -20.9217
  33   2.0000      -0.739543       -20.1240
  34   2.0000      -0.716548       -19.4983
  35   2.0000      -0.710727       -19.3399
  36   2.0000      -0.695071       -18.9138
  37   2.0000      -0.685751       -18.6602
  38   2.0000      -0.670439       -18.2436
  39   2.0000      -0.648766       -17.6538
  40   2.0000      -0.632987       -17.2244
  41   2.0000      -0.613809       -16.7026
  42   2.0000      -0.603417       -16.4198
  43   2.0000      -0.595863       -16.2143
  44   2.0000      -0.575548       -15.6615
  45   2.0000      -0.567752       -15.4493
  46   2.0000      -0.560622       -15.2553
  47   2.0000      -0.550692       -14.9851
  48   2.0000      -0.542745       -14.7688
  49   2.0000      -0.525614       -14.3027
  50   2.0000      -0.518100       -14.0982
  51   2.0000      -0.507454       -13.8085
  52   2.0000      -0.505838       -13.7646
  53   2.0000      -0.498802       -13.5731
  54   2.0000      -0.475281       -12.9331
  55   2.0000      -0.470732       -12.8093
  56   2.0000      -0.466875       -12.7043
  57   2.0000      -0.458598       -12.4791
  58   2.0000      -0.445499       -12.1226
  59   2.0000      -0.439246       -11.9525
  60   2.0000      -0.435567       -11.8524
  61   2.0000      -0.425397       -11.5756
  62   2.0000      -0.418029       -11.3751
  63   2.0000      -0.410739       -11.1768
  64   2.0000      -0.407306       -11.0834
  65   2.0000      -0.403377       -10.9764
  66   2.0000      -0.390371       -10.6225
  67   2.0000      -0.381747       -10.3879
  68   2.0000      -0.372298       -10.1307
  69   2.0000      -0.354281        -9.6405
  70   2.0000      -0.320640        -8.7251
  71   2.0000      -0.204965        -5.5774
  72   0.0000       0.107646         2.9292
  73   0.0000       0.122488         3.3331
  74   0.0000       0.147496         4.0136
  75   0.0000       0.149704         4.0736
  76   0.0000       0.154514         4.2045

MULLIKEN ATOMIC CHARGES
-----------------------
   0 C :    0.055036
   1 C :   -0.198661
   2 C :   -0.035172
   3 C :   -0.103662
   4 H :    0.084526
   5 H :    0.081180
   6 S :    1.002855
   7 C :   -0.003946
   8 N :   -0.097876
   9 N :   -0.132198
  10 H :    0.123650
  11 H :    0.102609
  12 H :   -0.120565
  13 H :    0.110401
  14 H :    0.093180
  15 O :   -0.472896
  16 F :   -0.158293
  17 C :    0.030399
  18 H :   -0.006573
  19 H :   -0.021126
  20 C :   -0.042771
  21 C :   -0.077212
  22 H :    0.014369
  23 H :    0.056650
  24 H :    0.048836
  25 H :    0.060790
  26 C :   -0.033376
  27 H :   -0.011853
  28 H :   -0.000290
  29 C :   -0.064130
  30 H :    0.001017
  31 H :    0.022659
  32 C :    0.017877
  33 H :    0.010654
  34 H :    0.021694
  35 H :    0.027574
  36 H :    0.011036
  37 H :    0.009880
  38 H :    0.015601
  39 O :   -0.421873
Sum of atomic charges:   -0.0000000

LOEWDIN ATOMIC CHARGES
----------------------
   0 C :   -0.041153
   1 C :   -0.243431
   2 C :   -0.038804
   3 C :   -0.141969
   4 H :    0.040159
   5 H :    0.037694
   6 S :    1.191724
   7 C :    0.031823
   8 N :   -0.041601
   9 N :   -0.044359
  10 H :    0.073608
  11 H :    0.060924
  12 H :   -0.032889
  13 H :    0.032621
  14 H :    0.055766
  15 O :   -0.469888
  16 F :   -0.104177
  17 C :   -0.039071
  18 H :    0.019757
  19 H :    0.001941
  20 C :   -0.039540
  21 C :   -0.045384
  22 H :    0.021087
  23 H :    0.025184
  24 H :    0.037642
  25 H :    0.036997
  26 C :   -0.040252
  27 H :    0.008040
  28 H :    0.014111
  29 C :   -0.041946
  30 H :    0.015926
  31 H :    0.018649
  32 C :   -0.036533
  33 H :    0.020966
  34 H :    0.017470
  35 H :    0.022614
  36 H :    0.018607
  37 H :    0.019023
  38 H :    0.021685
  39 O :   -0.443020

  Mayer bond orders larger than 0.100000
B(  0-C ,  1-C ) :   1.0594 B(  0-C , 17-C ) :   1.0555 B(  0-C , 18-H ) :   0.9277
B(  0-C , 19-H ) :   0.9371 B(  1-C ,  7-C ) :   1.6766 B(  1-C , 12-H ) :   0.9390
B(  2-C ,  3-C ) :   1.0414 B(  2-C , 21-C ) :   1.0608 B(  2-C , 24-H ) :   0.9413
B(  2-C , 25-H ) :   0.9448 B(  3-C ,  4-H ) :   0.9250 B(  3-C ,  5-H ) :   0.9282
B(  3-C ,  6-S ) :   0.9201 B(  6-S , 15-O ) :   1.6490 B(  6-S , 16-F ) :   1.0455
B(  6-S , 39-O ) :   1.7109 B(  7-C ,  8-N ) :   1.2675 B(  7-C ,  9-N ) :   1.2154
B(  8-N , 13-H ) :   0.8988 B(  8-N , 14-H ) :   0.9509 B(  9-N , 10-H ) :   0.9383
B(  9-N , 11-H ) :   0.9529 B( 12-H , 39-O ) :   0.1062 B( 13-H , 15-O ) :   0.1099
B( 17-C , 26-C ) :   1.0824 B( 17-C , 27-H ) :   0.9447 B( 17-C , 28-H ) :   0.9438
B( 20-C , 21-C ) :   1.0624 B( 20-C , 32-C ) :   1.0769 B( 20-C , 35-H ) :   0.9482
B( 20-C , 36-H ) :   0.9467 B( 21-C , 22-H ) :   0.9455 B( 21-C , 23-H ) :   0.9405
B( 26-C , 29-C ) :   1.0546 B( 26-C , 30-H ) :   0.9474 B( 26-C , 31-H ) :   0.9345
B( 29-C , 32-C ) :   1.0797 B( 29-C , 33-H ) :   0.9434 B( 29-C , 34-H ) :   0.9457
B( 32-C , 37-H ) :   0.9471 B( 32-C , 38-H ) :   0.9465

Dispersion correction           -0.021960216
FINAL SINGLE POINT ENERGY     -1189.965129731831

DIPOLE MOMENT
-------------
                                X             Y             Z
Electronic contribution:    -20.68408       3.63912     -22.20002
Nuclear contribution   :     19.99734      -4.67125      20.55522
                        -----------------------------------------
Total Dipole Moment    :     -0.68674      -1.03213      -1.64480
                        -----------------------------------------
Magnitude (a.u.)       :      2.05968
Magnitude (Debye)      :      5.23528

Rotational constants in cm-1:     0.014213     0.012058     0.007367
Rotational constants in MHz :   426.102180   361.491761   220.844824

                             ****ORCA TERMINATED NORMALLY****
TOTAL RUN TIME: 0 days 0 hours 1 minutes 12 seconds 486 msec
