                         Program Version 5.0.0 -  RELEASE  -
|  1> !wB97X-D3 RIJCOSX def2-SVP def2/J TightSCF xyzfile
|  2>
|  3> *xyzfile 0 1 D5.xyz
|  4>
|  5> %MaxCore 64000
|  6>
|  7> %pal nprocs 18
|  8> end
|  9>
| 10> %scf
| 11>   MaxIter 150
| 12> end
| 13>
| 14>
| 15>                          ****END OF INPUT****

CARTESIAN COORDINATES (ANGSTROEM)
---------------------------------
  C      4.490588    1.155899   -2.469290
  N      4.305394    1.222762   -3.908317
  C      4.906458   -3.102816   -5.954844
  C      3.511771   -2.806215   -6.492283
  H      2.736044   -3.373445   -5.973736
  H      3.444904   -3.040831   -7.555281
  S      3.004618   -1.096206   -6.389259
  C      4.631918    2.246365   -4.670958
  C      4.541686    2.143990   -5.987139
  N      5.084086    3.393584   -4.118545
  H      4.920675    3.570501   -3.135870
  H      5.254652    4.197390   -4.706956
  H      3.824530    0.449113   -4.350926
  H      4.343373    1.249318   -6.416646
  H      4.676712    2.956624   -6.574113
  O      4.128856   -0.329647   -6.953717
  F      1.781285   -1.000779   -7.136399
  C      5.942129    0.939500   -2.036893
  H      3.864305    0.328532   -2.136611
  H      4.076233    2.049994   -1.989010
  C      6.462677   -3.117775   -3.944671
  C      5.024977   -3.025679   -4.437625
  H      4.423321   -3.818693   -3.977648
  H      4.579350   -2.087131   -4.108727
  H      5.201533   -4.100207   -6.296905
  H      5.605922   -2.397822   -6.413368
  C      6.559957   -0.356290   -2.559086
  H      5.967976    0.952567   -0.942444
  H      6.547184    1.788331   -2.368849
  C      6.006283   -1.615917   -1.899301
  H      7.642360   -0.318000   -2.402059
  H      6.414855   -0.403433   -3.642587
  C      6.608718   -2.917014   -2.435655
  H      6.190324   -1.561115   -0.820948
  H      4.919250   -1.651245   -2.016586
  H      7.066975   -2.374258   -4.475514
  H      6.887808   -4.089747   -4.215332
  H      6.135197   -3.755573   -1.915159
  H      7.671142   -2.955503   -2.172291
  O      2.851546   -0.783683   -4.956789

 Total Charge           Charge          ....    0
 Multiplicity           Mult            ....    1
 Number of Electrons    NEL             ....  144
 Basis Dimension        Dim             ....  357

ORBITAL ENERGIES
----------------

  NO   OCC          E(Eh)            E(eV)
   0   2.0000     -89.233327     -2428.1623
   1   2.0000     -24.926451      -678.2832
   2   2.0000     -19.258679      -524.0553
   3   2.0000     -19.248006      -523.7649
   4   2.0000     -14.400814      -391.8661
   5   2.0000     -14.385400      -391.4466
   6   2.0000     -10.359769      -281.9036
   7   2.0000     -10.320417      -280.8328
   8   2.0000     -10.301389      -280.3150
   9   2.0000     -10.294562      -280.1293
  10   2.0000     -10.291398      -280.0432
  11   2.0000     -10.285753      -279.8896
  12   2.0000     -10.281530      -279.7747
  13   2.0000     -10.275480      -279.6100
  14   2.0000     -10.268950      -279.4323
  15   2.0000     -10.267714      -279.3987
  16   2.0000     -10.149229      -276.1746
  17   2.0000      -8.316095      -226.2925
  18   2.0000      -6.279270      -170.8676
  19   2.0000      -6.272825      -170.6923
  20   2.0000      -6.271174      -170.6473
  21   2.0000      -1.508496       -41.0483
  22   2.0000      -1.230941       -33.4956
  23   2.0000      -1.125615       -30.6295
  24   2.0000      -1.038980       -28.2721
  25   2.0000      -0.959917       -26.1207
  26   2.0000      -0.953582       -25.9483
  27   2.0000      -0.920804       -25.0564
  28   2.0000      -0.890702       -24.2372
  29   2.0000      -0.860172       -23.4065
  30   2.0000      -0.833906       -22.6917
  31   2.0000      -0.804896       -21.9023
  32   2.0000      -0.774612       -21.0783
  33   2.0000      -0.747565       -20.3423
  34   2.0000      -0.725856       -19.7515
  35   2.0000      -0.710219       -19.3260
  36   2.0000      -0.696759       -18.9598
  37   2.0000      -0.692300       -18.8384
  38   2.0000      -0.679843       -18.4995
  39   2.0000      -0.660174       -17.9642
  40   2.0000      -0.648278       -17.6405
  41   2.0000      -0.611415       -16.6375
  42   2.0000      -0.605695       -16.4818
  43   2.0000      -0.592261       -16.1162
  44   2.0000      -0.577275       -15.7084
  45   2.0000      -0.574046       -15.6206
  46   2.0000      -0.562086       -15.2951
  47   2.0000      -0.556453       -15.1419
  48   2.0000      -0.545491       -14.8436
  49   2.0000      -0.540354       -14.7038
  50   2.0000      -0.528717       -14.3871
  51   2.0000      -0.521663       -14.1952
  52   2.0000      -0.510313       -13.8863
  53   2.0000      -0.491572       -13.3764
  54   2.0000      -0.483565       -13.1585
  55   2.0000      -0.481127       -13.0921
  56   2.0000      -0.469472       -12.7750
  57   2.0000      -0.463794       -12.6205
  58   2.0000      -0.451026       -12.2730
  59   2.0000      -0.448513       -12.2046
  60   2.0000      -0.445305       -12.1174
  61   2.0000      -0.437457       -11.9038
  62   2.0000      -0.427869       -11.6429
  63   2.0000      -0.423722       -11.5301
  64   2.0000      -0.415969       -11.3191
  65   2.0000      -0.407897       -11.0994
  66   2.0000      -0.400223       -10.8906
  67   2.0000      -0.398182       -10.8351
  68   2.0000      -0.392477       -10.6798
  69   2.0000      -0.376067       -10.2333
  70   2.0000      -0.310458        -8.4480
  71   2.0000      -0.208098        -5.6626
  72   0.0000       0.106000         2.8844
  73   0.0000       0.121141         3.2964
  74   0.0000       0.143636         3.9085
  75   0.0000       0.146720         3.9925
  76   0.0000       0.150997         4.1088

MULLIKEN ATOMIC CHARGES
-----------------------
   0 C :    0.075722
   1 N :   -0.195019
   2 C :   -0.036627
   3 C :   -0.103794
   4 H :    0.080493
   5 H :    0.085836
   6 S :    1.009049
   7 C :    0.006856
   8 C :   -0.143303
   9 N :   -0.135668
  10 H :    0.105163
  11 H :    0.122864
  12 H :    0.135902
  13 H :   -0.049328
  14 H :   -0.072247
  15 O :   -0.422226
  16 F :   -0.157115
  17 C :    0.009712
  18 H :    0.015961
  19 H :    0.009848
  20 C :   -0.046158
  21 C :   -0.072966
  22 H :    0.016562
  23 H :    0.035435
  24 H :    0.050499
  25 H :    0.066512
  26 C :   -0.051224
  27 H :    0.003481
  28 H :    0.017133
  29 C :   -0.067614
  30 H :    0.015536
  31 H :    0.033659
  32 C :    0.017152
  33 H :    0.014960
  34 H :    0.019623
  35 H :    0.031337
  36 H :    0.016093
  37 H :    0.014037
  38 H :    0.020039
  39 O :   -0.476172
Sum of atomic charges:   -0.0000000

LOEWDIN ATOMIC CHARGES
----------------------
   0 C :    0.028969
   1 N :   -0.039551
   2 C :   -0.038675
   3 C :   -0.142816
   4 H :    0.037670
   5 H :    0.040221
   6 S :    1.195885
   7 C :    0.037788
   8 C :   -0.280043
   9 N :   -0.044452
  10 H :    0.057927
  11 H :    0.078532
  12 H :    0.037328
  13 H :   -0.034072
  14 H :   -0.018938
  15 O :   -0.444230
  16 F :   -0.101180
  17 C :   -0.051254
  18 H :    0.021757
  19 H :    0.007673
  20 C :   -0.039669
  21 C :   -0.045644
  22 H :    0.021828
  23 H :    0.018678
  24 H :    0.038537
  25 H :    0.038979
  26 C :   -0.041356
  27 H :    0.017420
  28 H :    0.021745
  29 C :   -0.043364
  30 H :    0.022070
  31 H :    0.022245
  32 C :   -0.035772
  33 H :    0.022360
  34 H :    0.015539
  35 H :    0.023809
  36 H :    0.021059
  37 H :    0.020824
  38 H :    0.023505
  39 O :   -0.471333

  Mayer bond orders larger than 0.100000
B(  0-C ,  1-N ) :   1.0321 B(  0-C , 17-C ) :   1.0443 B(  0-C , 18-H ) :   0.9538
B(  0-C , 19-H ) :   0.9538 B(  1-N ,  7-C ) :   1.1939 B(  1-N , 12-H ) :   0.8852
B(  2-C ,  3-C ) :   1.0427 B(  2-C , 21-C ) :   1.0624 B(  2-C , 24-H ) :   0.9415
B(  2-C , 25-H ) :   0.9444 B(  3-C ,  4-H ) :   0.9245 B(  3-C ,  5-H ) :   0.9286
B(  3-C ,  6-S ) :   0.9196 B(  6-S , 15-O ) :   1.7101 B(  6-S , 16-F ) :   1.0491
B(  6-S , 39-O ) :   1.6426 B(  7-C ,  8-C ) :   1.7674 B(  7-C ,  9-N ) :   1.1861
B(  8-C , 13-H ) :   0.9143 B(  8-C , 14-H ) :   0.9399 B(  9-N , 10-H ) :   0.9501
B(  9-N , 11-H ) :   0.9469 B( 13-H , 15-O ) :   0.1141 B( 17-C , 26-C ) :   1.0764
B( 17-C , 27-H ) :   0.9422 B( 17-C , 28-H ) :   0.9385 B( 20-C , 21-C ) :   1.0621
B( 20-C , 32-C ) :   1.0768 B( 20-C , 35-H ) :   0.9489 B( 20-C , 36-H ) :   0.9466
B( 21-C , 22-H ) :   0.9457 B( 21-C , 23-H ) :   0.9393 B( 26-C , 29-C ) :   1.0518
B( 26-C , 30-H ) :   0.9501 B( 26-C , 31-H ) :   0.9412 B( 29-C , 32-C ) :   1.0804
B( 29-C , 33-H ) :   0.9439 B( 29-C , 34-H ) :   0.9467 B( 32-C , 37-H ) :   0.9473
B( 32-C , 38-H ) :   0.9473

Dispersion correction           -0.022008519
FINAL SINGLE POINT ENERGY     -1189.958307577523

DIPOLE MOMENT
-------------
                                X             Y             Z
Electronic contribution:    -20.73238       2.66449     -20.26988
Nuclear contribution   :     20.03262      -4.53368      20.24480
                        -----------------------------------------
Total Dipole Moment    :     -0.69976      -1.86920      -0.02508
                        -----------------------------------------
Magnitude (a.u.)       :      1.99604
Magnitude (Debye)      :      5.07354

Rotational constants in cm-1:     0.014367     0.012055     0.007393
Rotational constants in MHz :   430.711297   361.391195   221.649333

                             ****ORCA TERMINATED NORMALLY****
TOTAL RUN TIME: 0 days 0 hours 0 minutes 51 seconds 616 msec
