                         Program Version 5.0.0 -  RELEASE  -
|  1> !wB97X-D3 RIJCOSX def2-SVP def2/J TightSCF xyzfile
|  2>
|  3> *xyzfile 0 1 D9.xyz
|  4>
|  5> %MaxCore 64000
|  6>
|  7> %pal nprocs 18
|  8> end
|  9>
| 10> %scf
| 11>   MaxIter 150
| 12> end
| 13>
| 14>
| 15>                          ****END OF INPUT****

CARTESIAN COORDINATES (ANGSTROEM)
---------------------------------
  C      4.490588    1.155899   -2.469290
  N      4.305394    1.222762   -3.908317
  C      4.906458   -3.102816   -5.954844
  C      3.511771   -2.806215   -6.492283
  H      2.736044   -3.373445   -5.973736
  H      3.444904   -3.040831   -7.555281
  S      3.004618   -1.096206   -6.389259
  C      4.631918    2.246365   -4.670958
  N      4.541686    2.143990   -5.987139
  C      5.084086    3.393584   -4.118545
  H      4.920675    3.570501   -3.135870
  H      5.254652    4.197390   -4.706956
  H      3.824530    0.449113   -4.350926
  H      4.343373    1.249318   -6.416646
  H      4.676712    2.956624   -6.574113
  O      4.128856   -0.329647   -6.953717
  O      1.781285   -1.000779   -7.136399
  C      5.942129    0.939500   -2.036893
  H      3.864305    0.328532   -2.136611
  H      4.076233    2.049994   -1.989010
  C      6.462677   -3.117775   -3.944671
  C      5.024977   -3.025679   -4.437625
  H      4.423321   -3.818693   -3.977648
  H      4.579350   -2.087131   -4.108727
  H      5.201533   -4.100207   -6.296905
  H      5.605922   -2.397822   -6.413368
  C      6.559957   -0.356290   -2.559086
  H      5.967976    0.952567   -0.942444
  H      6.547184    1.788331   -2.368849
  C      6.006283   -1.615917   -1.899301
  H      7.642360   -0.318000   -2.402059
  H      6.414855   -0.403433   -3.642587
  C      6.608718   -2.917014   -2.435655
  H      6.190324   -1.561115   -0.820948
  H      4.919250   -1.651245   -2.016586
  H      7.066975   -2.374258   -4.475514
  H      6.887808   -4.089747   -4.215332
  H      6.135197   -3.755573   -1.915159
  H      7.671142   -2.955503   -2.172291
  F      2.851546   -0.783683   -4.956789

 Total Charge           Charge          ....    0
 Multiplicity           Mult            ....    1
 Number of Electrons    NEL             ....  144
 Basis Dimension        Dim             ....  357

ORBITAL ENERGIES
----------------

  NO   OCC          E(Eh)            E(eV)
   0   2.0000     -89.244302     -2428.4609
   1   2.0000     -24.932449      -678.4464
   2   2.0000     -19.274499      -524.4858
   3   2.0000     -19.272616      -524.4345
   4   2.0000     -14.417110      -392.3095
   5   2.0000     -14.393195      -391.6588
   6   2.0000     -10.369030      -282.1556
   7   2.0000     -10.329447      -281.0785
   8   2.0000     -10.313020      -280.6315
   9   2.0000     -10.311628      -280.5937
  10   2.0000     -10.310912      -280.5742
  11   2.0000     -10.298561      -280.2381
  12   2.0000     -10.291478      -280.0454
  13   2.0000     -10.285374      -279.8793
  14   2.0000     -10.277008      -279.6516
  15   2.0000     -10.270510      -279.4748
  16   2.0000     -10.174656      -276.8665
  17   2.0000      -8.327384      -226.5996
  18   2.0000      -6.290650      -171.1773
  19   2.0000      -6.284112      -170.9994
  20   2.0000      -6.282360      -170.9517
  21   2.0000      -1.502977       -40.8981
  22   2.0000      -1.254772       -34.1441
  23   2.0000      -1.154430       -31.4136
  24   2.0000      -1.057988       -28.7893
  25   2.0000      -0.973569       -26.4922
  26   2.0000      -0.968816       -26.3628
  27   2.0000      -0.931750       -25.3542
  28   2.0000      -0.897430       -24.4203
  29   2.0000      -0.865299       -23.5460
  30   2.0000      -0.843516       -22.9532
  31   2.0000      -0.807312       -21.9681
  32   2.0000      -0.790578       -21.5127
  33   2.0000      -0.770126       -20.9562
  34   2.0000      -0.746826       -20.3222
  35   2.0000      -0.721703       -19.6385
  36   2.0000      -0.710940       -19.3456
  37   2.0000      -0.701150       -19.0793
  38   2.0000      -0.684394       -18.6233
  39   2.0000      -0.667497       -18.1635
  40   2.0000      -0.635720       -17.2988
  41   2.0000      -0.624586       -16.9959
  42   2.0000      -0.618580       -16.8324
  43   2.0000      -0.607565       -16.5327
  44   2.0000      -0.596534       -16.2325
  45   2.0000      -0.594088       -16.1660
  46   2.0000      -0.574304       -15.6276
  47   2.0000      -0.573037       -15.5931
  48   2.0000      -0.553073       -15.0499
  49   2.0000      -0.549108       -14.9420
  50   2.0000      -0.537454       -14.6249
  51   2.0000      -0.535721       -14.5777
  52   2.0000      -0.515821       -14.0362
  53   2.0000      -0.507906       -13.8208
  54   2.0000      -0.495055       -13.4711
  55   2.0000      -0.488486       -13.2924
  56   2.0000      -0.480105       -13.0643
  57   2.0000      -0.471483       -12.8297
  58   2.0000      -0.465051       -12.6547
  59   2.0000      -0.458038       -12.4638
  60   2.0000      -0.452138       -12.3033
  61   2.0000      -0.447016       -12.1639
  62   2.0000      -0.443211       -12.0604
  63   2.0000      -0.437643       -11.9089
  64   2.0000      -0.435978       -11.8636
  65   2.0000      -0.429480       -11.6867
  66   2.0000      -0.424418       -11.5490
  67   2.0000      -0.410425       -11.1682
  68   2.0000      -0.408618       -11.1191
  69   2.0000      -0.399537       -10.8720
  70   2.0000      -0.317392        -8.6367
  71   2.0000      -0.224157        -6.0996
  72   0.0000       0.085708         2.3322
  73   0.0000       0.115380         3.1397
  74   0.0000       0.132030         3.5927
  75   0.0000       0.138178         3.7600
  76   0.0000       0.141472         3.8497

MULLIKEN ATOMIC CHARGES
-----------------------
   0 C :    0.097898
   1 N :   -0.219605
   2 C :   -0.043181
   3 C :   -0.108974
   4 H :    0.086925
   5 H :    0.117938
   6 S :    0.989686
   7 C :    0.012445
   8 N :   -0.123234
   9 C :   -0.147008
  10 H :   -0.046245
  11 H :   -0.060213
  12 H :    0.099279
  13 H :    0.103145
  14 H :    0.127072
  15 O :   -0.466447
  16 O :   -0.410527
  17 C :    0.014033
  18 H :    0.001607
  19 H :    0.036976
  20 C :   -0.044544
  21 C :   -0.071977
  22 H :    0.025758
  23 H :   -0.007211
  24 H :    0.052899
  25 H :    0.064742
  26 C :   -0.055833
  27 H :    0.009345
  28 H :    0.038889
  29 C :   -0.066609
  30 H :    0.021346
  31 H :    0.017511
  32 C :    0.016005
  33 H :    0.021116
  34 H :    0.009483
  35 H :    0.034275
  36 H :    0.024102
  37 H :    0.016787
  38 H :    0.025274
  39 F :   -0.192928
Sum of atomic charges:   -0.0000000

LOEWDIN ATOMIC CHARGES
----------------------
   0 C :    0.042691
   1 N :   -0.042195
   2 C :   -0.050271
   3 C :   -0.137489
   4 H :    0.040333
   5 H :    0.060462
   6 S :    1.190161
   7 C :    0.044560
   8 N :   -0.035609
   9 C :   -0.291278
  10 H :   -0.014133
  11 H :   -0.013585
  12 H :    0.022934
  13 H :    0.019892
  14 H :    0.080610
  15 O :   -0.465888
  16 O :   -0.460136
  17 C :   -0.044624
  18 H :    0.013973
  19 H :    0.022680
  20 C :   -0.038361
  21 C :   -0.047462
  22 H :    0.024919
  23 H :    0.004691
  24 H :    0.039410
  25 H :    0.036403
  26 C :   -0.042755
  27 H :    0.020792
  28 H :    0.032889
  29 C :   -0.043998
  30 H :    0.024696
  31 H :    0.015273
  32 C :   -0.035994
  33 H :    0.025192
  34 H :    0.010504
  35 H :    0.024841
  36 H :    0.024985
  37 H :    0.021665
  38 H :    0.025926
  39 F :   -0.106708

  Mayer bond orders larger than 0.100000
B(  0-C ,  1-N ) :   1.0090 B(  0-C , 17-C ) :   1.0613 B(  0-C , 18-H ) :   0.9565
B(  0-C , 19-H ) :   0.9468 B(  1-N ,  7-C ) :   1.1604 B(  1-N , 12-H ) :   0.9206
B(  2-C ,  3-C ) :   1.0218 B(  2-C , 21-C ) :   1.0575 B(  2-C , 24-H ) :   0.9379
B(  2-C , 25-H ) :   0.9455 B(  3-C ,  4-H ) :   0.9304 B(  3-C ,  5-H ) :   0.9301
B(  3-C ,  6-S ) :   0.9233 B(  6-S , 15-O ) :   1.6531 B(  6-S , 16-O ) :   1.8323
B(  6-S , 39-F ) :   0.9380 B(  7-C ,  8-N ) :   1.2660 B(  7-C ,  9-C ) :   1.7129
B(  8-N , 13-H ) :   0.9085 B(  8-N , 14-H ) :   0.9435 B(  9-C , 10-H ) :   0.9385
B(  9-C , 11-H ) :   0.9501 B( 13-H , 15-O ) :   0.1084 B( 17-C , 26-C ) :   1.0747
B( 17-C , 27-H ) :   0.9453 B( 17-C , 28-H ) :   0.9349 B( 20-C , 21-C ) :   1.0619
B( 20-C , 32-C ) :   1.0751 B( 20-C , 35-H ) :   0.9492 B( 20-C , 36-H ) :   0.9475
B( 21-C , 22-H ) :   0.9461 B( 21-C , 23-H ) :   0.9438 B( 26-C , 29-C ) :   1.0489
B( 26-C , 30-H ) :   0.9505 B( 26-C , 31-H ) :   0.9417 B( 29-C , 32-C ) :   1.0791
B( 29-C , 33-H ) :   0.9439 B( 29-C , 34-H ) :   0.9459 B( 32-C , 37-H ) :   0.9480
B( 32-C , 38-H ) :   0.9472

Dispersion correction           -0.021750747
FINAL SINGLE POINT ENERGY     -1189.980055694726

DIPOLE MOMENT
-------------
                                X             Y             Z
Electronic contribution:    -19.10992       1.78020     -17.98083
Nuclear contribution   :     18.85717      -4.60195      17.96505
                        -----------------------------------------
Total Dipole Moment    :     -0.25275      -2.82175      -0.01578
                        -----------------------------------------
Magnitude (a.u.)       :      2.83309
Magnitude (Debye)      :      7.20114

Rotational constants in cm-1:     0.014436     0.012382     0.007563
Rotational constants in MHz :   432.785702   371.214592   226.743759

                             ****ORCA TERMINATED NORMALLY****
TOTAL RUN TIME: 0 days 0 hours 0 minutes 52 seconds 648 msec
