                         Program Version 5.0.0 -  RELEASE  -
|  1> !wB97X-D3 RIJCOSX def2-SVP def2/J TightSCF
|  2> *xyz -1 1
|  3> C          1.22302        2.46987       -3.75691
|  4> O          2.35381        1.71203       -3.93448
|  5> H          1.26998        3.33359       -4.38673
|  6> H          1.15671        2.77738       -2.73420
|  7> H          0.36099        1.88932       -4.01140
|  8> *
|  9>
| 10> %MaxCore 64000
| 11>
| 12> %pal nprocs 18
| 13> end
| 14>
| 15> %scf
| 16>   MaxIter 150
| 17> end
| 18>
| 19>
| 20>                          ****END OF INPUT****

CARTESIAN COORDINATES (ANGSTROEM)
---------------------------------
  C      1.223020    2.469870   -3.756910
  O      2.353810    1.712030   -3.934480
  H      1.269980    3.333590   -4.386730
  H      1.156710    2.777380   -2.734200
  H      0.360990    1.889320   -4.011400

 Total Charge           Charge          ....   -1
 Multiplicity           Mult            ....    1
 Number of Electrons    NEL             ....   18
 Basis Dimension        Dim             ....   43

ORBITAL ENERGIES
----------------

  NO   OCC          E(Eh)            E(eV)
   0   2.0000     -18.809546      -511.8338
   1   2.0000     -10.044488      -273.3244
   2   2.0000      -0.704787       -19.1782
   3   2.0000      -0.469151       -12.7662
   4   2.0000      -0.267031        -7.2663
   5   2.0000      -0.267011        -7.2657
   6   2.0000      -0.136927        -3.7260
   7   2.0000       0.020103         0.5470
   8   2.0000       0.020117         0.5474
   9   0.0000       0.370451        10.0805
  10   0.0000       0.445302        12.1173
  11   0.0000       0.445318        12.1177
  12   0.0000       0.537396        14.6233
  13   0.0000       0.815111        22.1803

MULLIKEN ATOMIC CHARGES
-----------------------
   0 C :    0.295743
   1 O :   -0.816712
   2 H :   -0.159674
   3 H :   -0.159702
   4 H :   -0.159655
Sum of atomic charges:   -1.0000000

LOEWDIN ATOMIC CHARGES
----------------------
   0 C :   -0.010108
   1 O :   -0.745485
   2 H :   -0.081463
   3 H :   -0.081478
   4 H :   -0.081466

  Mayer bond orders larger than 0.100000
B(  0-C ,  1-O ) :   1.3931 B(  0-C ,  2-H ) :   0.9150 B(  0-C ,  3-H ) :   0.9149
B(  0-C ,  4-H ) :   0.9149

Dispersion correction           -0.000091274
FINAL SINGLE POINT ENERGY      -114.929956917020

DIPOLE MOMENT
-------------
                                X             Y             Z
Electronic contribution:      1.75923      -1.17896      -0.27623
Nuclear contribution   :     -2.37854       1.59406       0.37350
                        -----------------------------------------
Total Dipole Moment    :     -0.61931       0.41510       0.09728
                        -----------------------------------------
Magnitude (a.u.)       :      0.75187
Magnitude (Debye)      :      1.91110

Rotational constants in cm-1:     5.477743     0.935515     0.935515
Rotational constants in MHz : 164218.600605 28046.042741 28046.034116

                             ****ORCA TERMINATED NORMALLY****
TOTAL RUN TIME: 0 days 0 hours 0 minutes 3 seconds 324 msec
