                         Program Version 5.0.0 -  RELEASE  -
|  1> !wB97X-D3 RIJCOSX def2-SVP def2/J TightSCF
|  2> *xyz 1 1
|  3> C          1.63556       -1.67040       -5.29211
|  4> N          2.48451       -0.50741       -5.14039
|  5> C          3.45115       -0.14953       -5.95259
|  6> N          3.92267        1.08956       -5.85071
|  7> N          3.96616       -1.00618       -6.86788
|  8> H          3.52139       -1.90647       -6.99527
|  9> H          4.44482       -0.62347       -7.67035
| 10> H          2.25200        0.24080       -4.49879
| 11> H          3.46428        1.64078       -5.13639
| 12> H          4.83447        1.31375       -6.22465
| 13> H          2.06372       -2.33262       -6.01532
| 14> H          0.66479       -1.36293       -5.62068
| 15> H          1.55078       -2.17513       -4.35245
| 16> *
| 17>
| 18> %MaxCore 64000
| 19>
| 20> %pal nprocs 18
| 21> end
| 22>
| 23> %scf
| 24>   MaxIter 150
| 25> end
| 26>
| 27>
| 28>                          ****END OF INPUT****

CARTESIAN COORDINATES (ANGSTROEM)
---------------------------------
  C      1.635560   -1.670400   -5.292110
  N      2.484510   -0.507410   -5.140390
  C      3.451150   -0.149530   -5.952590
  N      3.922670    1.089560   -5.850710
  N      3.966160   -1.006180   -6.867880
  H      3.521390   -1.906470   -6.995270
  H      4.444820   -0.623470   -7.670350
  H      2.252000    0.240800   -4.498790
  H      3.464280    1.640780   -5.136390
  H      4.834470    1.313750   -6.224650
  H      2.063720   -2.332620   -6.015320
  H      0.664790   -1.362930   -5.620680
  H      1.550780   -2.175130   -4.352450

 Total Charge           Charge          ....    1
 Multiplicity           Mult            ....    1
 Number of Electrons    NEL             ....   40
 Basis Dimension        Dim             ....  110

ORBITAL ENERGIES
----------------

  NO   OCC          E(Eh)            E(eV)
   0   2.0000     -14.670144      -399.1949
   1   2.0000     -14.662723      -398.9930
   2   2.0000     -14.658912      -398.8893
   3   2.0000     -10.629666      -289.2479
   4   2.0000     -10.499311      -285.7008
   5   2.0000      -1.335245       -36.3339
   6   2.0000      -1.218201       -33.1489
   7   2.0000      -1.203511       -32.7492
   8   2.0000      -1.022111       -27.8131
   9   2.0000      -0.933712       -25.4076
  10   2.0000      -0.890095       -24.2207
  11   2.0000      -0.863616       -23.5002
  12   2.0000      -0.794015       -21.6062
  13   2.0000      -0.790891       -21.5212
  14   2.0000      -0.763800       -20.7841
  15   2.0000      -0.747859       -20.3503
  16   2.0000      -0.693856       -18.8808
  17   2.0000      -0.684121       -18.6159
  18   2.0000      -0.574175       -15.6241
  19   2.0000      -0.552262       -15.0278
  20   0.0000      -0.080109        -2.1799
  21   0.0000      -0.055051        -1.4980
  22   0.0000      -0.023335        -0.6350
  23   0.0000      -0.001246        -0.0339
  24   0.0000       0.020908         0.5689

MULLIKEN ATOMIC CHARGES
-----------------------
   0 C :    0.089568
   1 N :   -0.174221
   2 C :    0.090982
   3 N :   -0.064554
   4 N :   -0.099831
   5 H :    0.172308
   6 H :    0.187541
   7 H :    0.174546
   8 H :    0.177405
   9 H :    0.194634
  10 H :    0.053651
  11 H :    0.097227
  12 H :    0.100745
Sum of atomic charges:    1.0000000

LOEWDIN ATOMIC CHARGES
----------------------
   0 C :    0.060726
   1 N :    0.026866
   2 C :    0.158785
   3 N :    0.041086
   4 N :    0.025248
   5 H :    0.103452
   6 H :    0.112930
   7 H :    0.107464
   8 H :    0.109476
   9 H :    0.117518
  10 H :    0.035307
  11 H :    0.048381
  12 H :    0.052761

  Mayer bond orders larger than 0.100000
B(  0-C ,  1-N ) :   0.9188 B(  0-C , 10-H ) :   0.9739 B(  0-C , 11-H ) :   0.9738
B(  0-C , 12-H ) :   0.9704 B(  1-N ,  2-C ) :   1.3987 B(  1-N ,  7-H ) :   0.9073
B(  2-C ,  3-N ) :   1.3924 B(  2-C ,  4-N ) :   1.3782 B(  3-N ,  8-H ) :   0.9214
B(  3-N ,  9-H ) :   0.9231 B(  4-N ,  5-H ) :   0.9281 B(  4-N ,  6-H ) :   0.9260

Dispersion correction           -0.002352595
FINAL SINGLE POINT ENERGY      -244.833131701942

DIPOLE MOMENT
-------------
                                X             Y             Z
Electronic contribution:      1.98127       1.94457      -0.28668
Nuclear contribution   :     -1.83770      -1.53167       0.12165
                        -----------------------------------------
Total Dipole Moment    :      0.14357       0.41291      -0.16502
                        -----------------------------------------
Magnitude (a.u.)       :      0.46727
Magnitude (Debye)      :      1.18770

Rotational constants in cm-1:     0.307545     0.135665     0.096412
Rotational constants in MHz :  9219.967860  4067.145400  2890.348280

                             ****ORCA TERMINATED NORMALLY****
TOTAL RUN TIME: 0 days 0 hours 0 minutes 7 seconds 5 msec
