                         Program Version 5.0.0 -  RELEASE  -
|  1> !wB97X-D3 RIJCOSX def2-SVP def2/J TightSCF
|  2> *xyz 0 1
|  3> C          1.22302        2.46987       -3.75691
|  4> F          2.35381        1.71203       -3.93448
|  5> H          1.26998        3.33359       -4.38673
|  6> H          1.15671        2.77738       -2.73420
|  7> H          0.36099        1.88932       -4.01140
|  8> *
|  9>
| 10> %MaxCore 64000
| 11>
| 12> %pal nprocs 18
| 13> end
| 14>
| 15> %scf
| 16>   MaxIter 150
| 17> end
| 18>
| 19>
| 20>                          ****END OF INPUT****

CARTESIAN COORDINATES (ANGSTROEM)
---------------------------------
  C      1.223020    2.469870   -3.756910
  F      2.353810    1.712030   -3.934480
  H      1.269980    3.333590   -4.386730
  H      1.156710    2.777380   -2.734200
  H      0.360990    1.889320   -4.011400

 Total Charge           Charge          ....    0
 Multiplicity           Mult            ....    1
 Number of Electrons    NEL             ....   18
 Basis Dimension        Dim             ....   43

ORBITAL ENERGIES
----------------

  NO   OCC          E(Eh)            E(eV)
   0   2.0000     -24.758590      -673.7155
   1   2.0000     -10.351781      -281.6863
   2   2.0000      -1.276508       -34.7355
   3   2.0000      -0.806825       -21.9548
   4   2.0000      -0.582422       -15.8485
   5   2.0000      -0.582398       -15.8479
   6   2.0000      -0.582157       -15.8413
   7   2.0000      -0.435595       -11.8531
   8   2.0000      -0.435574       -11.8526
   9   0.0000       0.165265         4.4971
  10   0.0000       0.217578         5.9206
  11   0.0000       0.225803         6.1444
  12   0.0000       0.225812         6.1446
  13   0.0000       0.544618        14.8198

MULLIKEN ATOMIC CHARGES
-----------------------
   0 C :    0.228901
   1 F :   -0.302125
   2 H :    0.024420
   3 H :    0.024380
   4 H :    0.024424
Sum of atomic charges:   -0.0000000

LOEWDIN ATOMIC CHARGES
----------------------
   0 C :    0.127201
   1 F :   -0.158749
   2 H :    0.010519
   3 H :    0.010509
   4 H :    0.010521

  Mayer bond orders larger than 0.100000
B(  0-C ,  1-F ) :   0.9691 B(  0-C ,  2-H ) :   0.9829 B(  0-C ,  3-H ) :   0.9828
B(  0-C ,  4-H ) :   0.9829

Dispersion correction           -0.000131037
FINAL SINGLE POINT ENERGY      -139.592165646603

DIPOLE MOMENT
-------------
                                X             Y             Z
Electronic contribution:      2.41558      -1.61883      -0.37933
Nuclear contribution   :     -3.01708       2.02200       0.47377
                        -----------------------------------------
Total Dipole Moment    :     -0.60151       0.40317       0.09444
                        -----------------------------------------
Magnitude (a.u.)       :      0.73026
Magnitude (Debye)      :      1.85618

Rotational constants in cm-1:     5.477743     0.870792     0.870792
Rotational constants in MHz : 164218.600605 26105.683059 26105.675587

                             ****ORCA TERMINATED NORMALLY****
TOTAL RUN TIME: 0 days 0 hours 0 minutes 2 seconds 572 msec
