                         Program Version 5.0.0 -  RELEASE  -
|  1> !wB97X-D3 RIJCOSX def2-SVP def2/J TightSCF
|  2> *xyz 0 1
|  3> C          1.63556       -1.67040       -5.29211
|  4> C          2.48451       -0.50741       -5.14039
|  5> C          3.45115       -0.14953       -5.95259
|  6> N          3.92267        1.08956       -5.85071
|  7> N          3.96616       -1.00618       -6.86788
|  8> H          3.52139       -1.90647       -6.99527
|  9> H          4.44482       -0.62347       -7.67035
| 10> H          2.25200        0.24080       -4.49879
| 11> H          3.46428        1.64078       -5.13639
| 12> H          4.83447        1.31375       -6.22465
| 13> H          2.06372       -2.33262       -6.01532
| 14> H          0.66479       -1.36293       -5.62068
| 15> H          1.55078       -2.17513       -4.35245
| 16> *
| 17>
| 18> %MaxCore 64000
| 19>
| 20> %pal nprocs 18
| 21> end
| 22>
| 23> %scf
| 24>   MaxIter 150
| 25> end
| 26>
| 27>
| 28>                          ****END OF INPUT****

CARTESIAN COORDINATES (ANGSTROEM)
---------------------------------
  C      1.635560   -1.670400   -5.292110
  C      2.484510   -0.507410   -5.140390
  C      3.451150   -0.149530   -5.952590
  N      3.922670    1.089560   -5.850710
  N      3.966160   -1.006180   -6.867880
  H      3.521390   -1.906470   -6.995270
  H      4.444820   -0.623470   -7.670350
  H      2.252000    0.240800   -4.498790
  H      3.464280    1.640780   -5.136390
  H      4.834470    1.313750   -6.224650
  H      2.063720   -2.332620   -6.015320
  H      0.664790   -1.362930   -5.620680
  H      1.550780   -2.175130   -4.352450

 Total Charge           Charge          ....    0
 Multiplicity           Mult            ....    1
 Number of Electrons    NEL             ....   40
 Basis Dimension        Dim             ....  110

ORBITAL ENERGIES
----------------

  NO   OCC          E(Eh)            E(eV)
   0   2.0000     -14.424285      -392.5048
   1   2.0000     -14.422182      -392.4475
   2   2.0000     -10.320585      -280.8374
   3   2.0000     -10.252037      -278.9721
   4   2.0000     -10.202248      -277.6173
   5   2.0000      -1.057239       -28.7689
   6   2.0000      -0.966700       -26.3052
   7   2.0000      -0.857625       -23.3372
   8   2.0000      -0.757581       -20.6148
   9   2.0000      -0.679275       -18.4840
  10   2.0000      -0.633508       -17.2386
  11   2.0000      -0.604327       -16.4446
  12   2.0000      -0.557874       -15.1805
  13   2.0000      -0.517784       -14.0896
  14   2.0000      -0.502853       -13.6833
  15   2.0000      -0.472523       -12.8580
  16   2.0000      -0.449979       -12.2445
  17   2.0000      -0.434309       -11.8181
  18   2.0000      -0.348671        -9.4878
  19   2.0000      -0.237626        -6.4661
  20   0.0000       0.138286         3.7630
  21   0.0000       0.167154         4.5485
  22   0.0000       0.184048         5.0082
  23   0.0000       0.190955         5.1962
  24   0.0000       0.209563         5.7025

MULLIKEN ATOMIC CHARGES
-----------------------
   0 C :    0.099662
   1 C :   -0.212955
   2 C :   -0.046735
   3 N :   -0.102145
   4 N :   -0.135427
   5 H :    0.118784
   6 H :    0.114130
   7 H :   -0.089925
   8 H :    0.129552
   9 H :    0.115609
  10 H :   -0.026745
  11 H :    0.019942
  12 H :    0.016253
Sum of atomic charges:    0.0000000

LOEWDIN ATOMIC CHARGES
----------------------
   0 C :   -0.048322
   1 C :   -0.227071
   2 C :    0.029365
   3 N :   -0.036020
   4 N :   -0.047605
   5 H :    0.073795
   6 H :    0.064540
   7 H :   -0.010919
   8 H :    0.083702
   9 H :    0.066572
  10 H :    0.010733
  11 H :    0.019523
  12 H :    0.021708

  Mayer bond orders larger than 0.100000
B(  0-C ,  1-C ) :   1.0482 B(  0-C , 10-H ) :   0.9681 B(  0-C , 11-H ) :   0.9647
B(  0-C , 12-H ) :   0.9554 B(  1-C ,  2-C ) :   1.7214 B(  1-C ,  7-H ) :   0.9408
B(  2-C ,  3-N ) :   1.2342 B(  2-C ,  4-N ) :   1.2258 B(  3-N ,  8-H ) :   0.9348
B(  3-N ,  9-H ) :   0.9493 B(  4-N ,  5-H ) :   0.9483 B(  4-N ,  6-H ) :   0.9501

Dispersion correction           -0.002355291
FINAL SINGLE POINT ENERGY      -228.366155553951

DIPOLE MOMENT
-------------
                                X             Y             Z
Electronic contribution:      2.51825       1.90829      -0.87855
Nuclear contribution   :     -1.96139      -1.54412       0.26148
                        -----------------------------------------
Total Dipole Moment    :      0.55686       0.36416      -0.61708
                        -----------------------------------------
Magnitude (a.u.)       :      0.90747
Magnitude (Debye)      :      2.30660

Rotational constants in cm-1:     0.312277     0.136708     0.097371
Rotational constants in MHz :  9361.815989  4098.393303  2919.105491

                             ****ORCA TERMINATED NORMALLY****
TOTAL RUN TIME: 0 days 0 hours 0 minutes 6 seconds 991 msec
