                         Program Version 5.0.0 -  RELEASE  -
|  1> !wB97X-D3 RIJCOSX def2-SVP def2/J TightSCF
|  2> *xyz 0 1
|  3> C          1.63556       -1.67040       -5.29211
|  4> N          2.48451       -0.50741       -5.14039
|  5> C          3.45115       -0.14953       -5.95259
|  6> C          3.92267        1.08956       -5.85071
|  7> N          3.96616       -1.00618       -6.86788
|  8> H          3.52139       -1.90647       -6.99527
|  9> H          4.44482       -0.62347       -7.67035
| 10> H          2.25200        0.24080       -4.49879
| 11> H          3.46428        1.64078       -5.13639
| 12> H          4.83447        1.31375       -6.22465
| 13> H          2.06372       -2.33262       -6.01532
| 14> H          0.66479       -1.36293       -5.62068
| 15> H          1.55078       -2.17513       -4.35245
| 16> *
| 17>
| 18> %MaxCore 64000
| 19>
| 20> %pal nprocs 18
| 21> end
| 22>
| 23> %scf
| 24>   MaxIter 150
| 25> end
| 26>
| 27>
| 28>                          ****END OF INPUT****

CARTESIAN COORDINATES (ANGSTROEM)
---------------------------------
  C      1.635560   -1.670400   -5.292110
  N      2.484510   -0.507410   -5.140390
  C      3.451150   -0.149530   -5.952590
  C      3.922670    1.089560   -5.850710
  N      3.966160   -1.006180   -6.867880
  H      3.521390   -1.906470   -6.995270
  H      4.444820   -0.623470   -7.670350
  H      2.252000    0.240800   -4.498790
  H      3.464280    1.640780   -5.136390
  H      4.834470    1.313750   -6.224650
  H      2.063720   -2.332620   -6.015320
  H      0.664790   -1.362930   -5.620680
  H      1.550780   -2.175130   -4.352450

 Total Charge           Charge          ....    0
 Multiplicity           Mult            ....    1
 Number of Electrons    NEL             ....   40
 Basis Dimension        Dim             ....  110

ORBITAL ENERGIES
----------------

  NO   OCC          E(Eh)            E(eV)
   0   2.0000     -14.430838      -392.6831
   1   2.0000     -14.427281      -392.5863
   2   2.0000     -10.327747      -281.0323
   3   2.0000     -10.323248      -280.9099
   4   2.0000     -10.190268      -277.2913
   5   2.0000      -1.073845       -29.2208
   6   2.0000      -0.982025       -26.7222
   7   2.0000      -0.855074       -23.2677
   8   2.0000      -0.766678       -20.8624
   9   2.0000      -0.697389       -18.9769
  10   2.0000      -0.634305       -17.2603
  11   2.0000      -0.589188       -16.0326
  12   2.0000      -0.570576       -15.5262
  13   2.0000      -0.553774       -15.0689
  14   2.0000      -0.504554       -13.7296
  15   2.0000      -0.482631       -13.1330
  16   2.0000      -0.470744       -12.8096
  17   2.0000      -0.454257       -12.3610
  18   2.0000      -0.342549        -9.3212
  19   2.0000      -0.240406        -6.5418
  20   0.0000       0.133364         3.6290
  21   0.0000       0.162357         4.4180
  22   0.0000       0.174148         4.7388
  23   0.0000       0.193643         5.2693
  24   0.0000       0.213928         5.8213

MULLIKEN ATOMIC CHARGES
-----------------------
   0 C :    0.118935
   1 N :   -0.196908
   2 C :   -0.020783
   3 C :   -0.124520
   4 N :   -0.144827
   5 H :    0.103666
   6 H :    0.138205
   7 H :    0.134043
   8 H :   -0.057633
   9 H :   -0.034100
  10 H :    0.013817
  11 H :    0.032764
  12 H :    0.037343
Sum of atomic charges:    0.0000000

LOEWDIN ATOMIC CHARGES
----------------------
   0 C :    0.036134
   1 N :   -0.038653
   2 C :    0.046614
   3 C :   -0.271353
   4 N :   -0.041268
   5 H :    0.059547
   6 H :    0.083479
   7 H :    0.086849
   8 H :   -0.011974
   9 H :   -0.007271
  10 H :    0.019682
  11 H :    0.016381
  12 H :    0.021834

  Mayer bond orders larger than 0.100000
B(  0-C ,  1-N ) :   0.9868 B(  0-C , 10-H ) :   0.9762 B(  0-C , 11-H ) :   0.9754
B(  0-C , 12-H ) :   0.9776 B(  1-N ,  2-C ) :   1.2216 B(  1-N ,  7-H ) :   0.9231
B(  2-C ,  3-C ) :   1.7332 B(  2-C ,  4-N ) :   1.2081 B(  3-C ,  8-H ) :   0.9366
B(  3-C ,  9-H ) :   0.9615 B(  4-N ,  5-H ) :   0.9590 B(  4-N ,  6-H ) :   0.9497

Dispersion correction           -0.002365914
FINAL SINGLE POINT ENERGY      -228.352592331762

DIPOLE MOMENT
-------------
                                X             Y             Z
Electronic contribution:      0.97880       0.20897      -0.27116
Nuclear contribution   :     -1.67010      -1.22066       0.11760
                        -----------------------------------------
Total Dipole Moment    :     -0.69129      -1.01169      -0.15356
                        -----------------------------------------
Magnitude (a.u.)       :      1.23490
Magnitude (Debye)      :      3.13887

Rotational constants in cm-1:     0.314526     0.141398     0.099973
Rotational constants in MHz :  9429.255015  4239.015262  2997.111162

                             ****ORCA TERMINATED NORMALLY****
TOTAL RUN TIME: 0 days 0 hours 0 minutes 7 seconds 110 msec
