                         Program Version 5.0.0 -  RELEASE  -
|  1> !wB97X-D3 RIJCOSX def2-SVP def2/J TightSCF
|  2> *xyz 0 1
|  3> C          1.63556       -1.67040       -5.29211
|  4> N          2.48451       -0.50741       -5.14039
|  5> C          3.45115       -0.14953       -5.95259
|  6> N          3.92267        1.08956       -5.85071
|  7> C          3.96616       -1.00618       -6.86788
|  8> H          3.52139       -1.90647       -6.99527
|  9> H          4.44482       -0.62347       -7.67035
| 10> H          2.25200        0.24080       -4.49879
| 11> H          3.46428        1.64078       -5.13639
| 12> H          4.83447        1.31375       -6.22465
| 13> H          2.06372       -2.33262       -6.01532
| 14> H          0.66479       -1.36293       -5.62068
| 15> H          1.55078       -2.17513       -4.35245
| 16> *
| 17>
| 18> %MaxCore 64000
| 19>
| 20> %pal nprocs 18
| 21> end
| 22>
| 23> %scf
| 24>   MaxIter 150
| 25> end
| 26>
| 27>
| 28>                          ****END OF INPUT****

CARTESIAN COORDINATES (ANGSTROEM)
---------------------------------
  C      1.635560   -1.670400   -5.292110
  N      2.484510   -0.507410   -5.140390
  C      3.451150   -0.149530   -5.952590
  N      3.922670    1.089560   -5.850710
  C      3.966160   -1.006180   -6.867880
  H      3.521390   -1.906470   -6.995270
  H      4.444820   -0.623470   -7.670350
  H      2.252000    0.240800   -4.498790
  H      3.464280    1.640780   -5.136390
  H      4.834470    1.313750   -6.224650
  H      2.063720   -2.332620   -6.015320
  H      0.664790   -1.362930   -5.620680
  H      1.550780   -2.175130   -4.352450

 Total Charge           Charge          ....    0
 Multiplicity           Mult            ....    1
 Number of Electrons    NEL             ....   40
 Basis Dimension        Dim             ....  110

ORBITAL ENERGIES
----------------

  NO   OCC          E(Eh)            E(eV)
   0   2.0000     -14.435424      -392.8079
   1   2.0000     -14.430612      -392.6769
   2   2.0000     -10.329606      -281.0829
   3   2.0000     -10.313061      -280.6327
   4   2.0000     -10.188349      -277.2391
   5   2.0000      -1.081382       -29.4259
   6   2.0000      -0.986822       -26.8528
   7   2.0000      -0.821534       -22.3551
   8   2.0000      -0.800938       -21.7946
   9   2.0000      -0.663103       -18.0439
  10   2.0000      -0.640689       -17.4340
  11   2.0000      -0.625315       -17.0157
  12   2.0000      -0.554331       -15.0841
  13   2.0000      -0.546500       -14.8710
  14   2.0000      -0.509859       -13.8740
  15   2.0000      -0.474819       -12.9205
  16   2.0000      -0.462774       -12.5927
  17   2.0000      -0.448958       -12.2168
  18   2.0000      -0.340539        -9.2665
  19   2.0000      -0.239503        -6.5172
  20   0.0000       0.129285         3.5180
  21   0.0000       0.171423         4.6647
  22   0.0000       0.176980         4.8159
  23   0.0000       0.187227         5.0947
  24   0.0000       0.217303         5.9131

MULLIKEN ATOMIC CHARGES
-----------------------
   0 C :    0.132610
   1 N :   -0.221616
   2 C :    0.001073
   3 N :   -0.117305
   4 C :   -0.173179
   5 H :   -0.052523
   6 H :   -0.036931
   7 H :    0.105181
   8 H :    0.106520
   9 H :    0.144378
  10 H :    0.053516
  11 H :    0.027691
  12 H :    0.030586
Sum of atomic charges:    0.0000000

LOEWDIN ATOMIC CHARGES
----------------------
   0 C :    0.046280
   1 N :   -0.037728
   2 C :    0.042972
   3 N :   -0.026671
   4 C :   -0.290716
   5 H :   -0.013411
   6 H :   -0.010108
   7 H :    0.063783
   8 H :    0.063312
   9 H :    0.088418
  10 H :    0.036636
  11 H :    0.016803
  12 H :    0.020430

  Mayer bond orders larger than 0.100000
B(  0-C ,  1-N ) :   0.9676 B(  0-C , 10-H ) :   0.9743 B(  0-C , 11-H ) :   0.9810
B(  0-C , 12-H ) :   0.9803 B(  1-N ,  2-C ) :   1.1879 B(  1-N ,  7-H ) :   0.9391
B(  2-C ,  3-N ) :   1.2272 B(  2-C ,  4-C ) :   1.7301 B(  3-N ,  8-H ) :   0.9527
B(  3-N ,  9-H ) :   0.9448 B(  4-C ,  5-H ) :   0.9551 B(  4-C ,  6-H ) :   0.9580

Dispersion correction           -0.002354049
FINAL SINGLE POINT ENERGY      -228.351033317411

DIPOLE MOMENT
-------------
                                X             Y             Z
Electronic contribution:      1.02753       2.41486       0.92812
Nuclear contribution   :     -1.66129      -1.64514      -0.08842
                        -----------------------------------------
Total Dipole Moment    :     -0.63376       0.76971       0.83971
                        -----------------------------------------
Magnitude (a.u.)       :      1.30354
Magnitude (Debye)      :      3.31334

Rotational constants in cm-1:     0.330436     0.136339     0.098902
Rotational constants in MHz :  9906.231858  4087.333233  2964.994979

                             ****ORCA TERMINATED NORMALLY****
TOTAL RUN TIME: 0 days 0 hours 0 minutes 5 seconds 728 msec
