                         Program Version 5.0.0 -  RELEASE  -
|  1> !wB97X-D3 RIJCOSX def2-SVP def2/J TightSCF xyzfile
|  2>
|  3> *xyzfile 0 1 D1.xyz
|  4>
|  5> %MaxCore 64000
|  6>
|  7> %pal nprocs 18
|  8> end
|  9>
| 10> %scf
| 11>   MaxIter 150
| 12> end
| 13>
| 14>
| 15>                          ****END OF INPUT****

CARTESIAN COORDINATES (ANGSTROEM)
---------------------------------
  C      1.635557   -1.670396   -5.292109
  C      0.338484   -1.500907   -4.505398
  C      2.484511   -0.507410   -5.140392
  C     -0.684873   -0.528026   -5.099889
  C     -0.290406    0.951335   -5.153423
  H      0.607991    1.070692   -5.764412
  C     -0.055168    1.619420   -3.788577
  H     -1.080912    1.483775   -5.689436
  H      0.045006    0.862302   -3.003015
  H     -0.922936    2.230329   -3.517028
  C      1.223022    2.469865   -3.756911
  H      1.114701    3.258074   -4.532999
  H      1.237732    3.011242   -2.792157
  F      2.353815    1.712032   -3.934477
  H      1.398337   -1.829239   -6.352591
  H      2.155864   -2.565398   -4.932091
  C      3.451149   -0.149530   -5.952589
  N      3.922667    1.089559   -5.850711
  N      3.966162   -1.006183   -6.867880
  H      3.521391   -1.906467   -6.995270
  H      4.444824   -0.623472   -7.670348
  H      2.251995    0.240804   -4.498792
  H      3.464277    1.640782   -5.136392
  H      4.834470    1.313745   -6.224653
  H     -0.937999   -0.869056   -6.110838
  H     -1.604638   -0.622496   -4.513132
  H      0.594887   -1.211578   -3.482312
  H     -0.126530   -2.487656   -4.434176

 Total Charge           Charge          ....    0
 Multiplicity           Mult            ....    1
 Number of Electrons    NEL             ....   88
 Basis Dimension        Dim             ....  239

ORBITAL ENERGIES
----------------

  NO   OCC          E(Eh)            E(eV)
   0   2.0000     -24.804620      -674.9680
   1   2.0000     -14.413627      -392.2147
   2   2.0000     -14.396490      -391.7484
   3   2.0000     -10.376530      -282.3597
   4   2.0000     -10.303063      -280.3606
   5   2.0000     -10.293206      -280.0924
   6   2.0000     -10.275383      -279.6074
   7   2.0000     -10.272208      -279.5210
   8   2.0000     -10.261484      -279.2292
   9   2.0000     -10.249629      -278.9066
  10   2.0000     -10.171233      -276.7733
  11   2.0000      -1.328068       -36.1386
  12   2.0000      -1.040418       -28.3112
  13   2.0000      -0.951067       -25.8798
  14   2.0000      -0.917095       -24.9554
  15   2.0000      -0.881158       -23.9775
  16   2.0000      -0.829863       -22.5817
  17   2.0000      -0.793815       -21.6008
  18   2.0000      -0.741333       -20.1727
  19   2.0000      -0.708622       -19.2826
  20   2.0000      -0.675977       -18.3943
  21   2.0000      -0.654708       -17.8155
  22   2.0000      -0.634757       -17.2726
  23   2.0000      -0.618417       -16.8280
  24   2.0000      -0.604673       -16.4540
  25   2.0000      -0.598679       -16.2909
  26   2.0000      -0.581460       -15.8223
  27   2.0000      -0.553917       -15.0729
  28   2.0000      -0.535467       -14.5708
  29   2.0000      -0.531047       -14.4505
  30   2.0000      -0.511357       -13.9147
  31   2.0000      -0.495259       -13.4767
  32   2.0000      -0.484301       -13.1785
  33   2.0000      -0.470855       -12.8126
  34   2.0000      -0.452290       -12.3074
  35   2.0000      -0.450301       -12.2533
  36   2.0000      -0.440703       -11.9921
  37   2.0000      -0.427434       -11.6311
  38   2.0000      -0.408079       -11.1044
  39   2.0000      -0.396396       -10.7865
  40   2.0000      -0.390305       -10.6207
  41   2.0000      -0.377001       -10.2587
  42   2.0000      -0.332733        -9.0541
  43   2.0000      -0.220215        -5.9924
  44   0.0000       0.142492         3.8774
  45   0.0000       0.152712         4.1555
  46   0.0000       0.161573         4.3966
  47   0.0000       0.172846         4.7034
  48   0.0000       0.184962         5.0331

MULLIKEN ATOMIC CHARGES
-----------------------
   0 C :    0.075221
   1 C :   -0.036586
   2 C :   -0.192065
   3 C :   -0.022978
   4 C :   -0.043619
   5 H :    0.045525
   6 C :   -0.113551
   7 H :    0.016494
   8 H :    0.043696
   9 H :    0.038702
  10 C :    0.244780
  11 H :    0.035233
  12 H :    0.034971
  13 F :   -0.233989
  14 H :   -0.017627
  15 H :    0.005593
  16 C :   -0.085870
  17 N :   -0.106735
  18 N :   -0.130899
  19 H :    0.123223
  20 H :    0.107130
  21 H :   -0.060369
  22 H :    0.124993
  23 H :    0.104392
  24 H :    0.015461
  25 H :    0.013863
  26 H :    0.010125
  27 H :    0.004887
Sum of atomic charges:   -0.0000000

LOEWDIN ATOMIC CHARGES
----------------------
   0 C :   -0.041847
   1 C :   -0.035332
   2 C :   -0.241335
   3 C :   -0.035489
   4 C :   -0.046414
   5 H :    0.025964
   6 C :   -0.061949
   7 H :    0.021086
   8 H :    0.027851
   9 H :    0.034745
  10 C :    0.120478
  11 H :    0.017961
  12 H :    0.018795
  13 F :   -0.050871
  14 H :    0.003655
  15 H :    0.011975
  16 C :    0.030131
  17 N :   -0.047399
  18 N :   -0.045959
  19 H :    0.076136
  20 H :    0.061401
  21 H :   -0.030090
  22 H :    0.050067
  23 H :    0.059373
  24 H :    0.023228
  25 H :    0.018584
  26 H :    0.016448
  27 H :    0.018805

  Mayer bond orders larger than 0.100000
B(  0-C ,  1-C ) :   1.0888 B(  0-C ,  2-C ) :   1.0102 B(  0-C , 14-H ) :   0.9362
B(  0-C , 15-H ) :   0.9230 B(  1-C ,  3-C ) :   1.0794 B(  1-C , 26-H ) :   0.9431
B(  1-C , 27-H ) :   0.9441 B(  2-C , 16-C ) :   1.7002 B(  2-C , 21-H ) :   0.9265
B(  3-C ,  4-C ) :   1.0805 B(  3-C , 24-H ) :   0.9441 B(  3-C , 25-H ) :   0.9519
B(  4-C ,  5-H ) :   0.9533 B(  4-C ,  6-C ) :   1.0194 B(  4-C ,  7-H ) :   0.9467
B(  6-C ,  8-H ) :   0.9558 B(  6-C ,  9-H ) :   0.9447 B(  6-C , 10-C ) :   1.0774
B( 10-C , 11-H ) :   0.9586 B( 10-C , 12-H ) :   0.9584 B( 10-C , 13-F ) :   0.9013
B( 13-F , 21-H ) :   0.1031 B( 16-C , 17-N ) :   1.2579 B( 16-C , 18-N ) :   1.2362
B( 17-N , 22-H ) :   0.9019 B( 17-N , 23-H ) :   0.9485 B( 18-N , 19-H ) :   0.9412
B( 18-N , 20-H ) :   0.9487

Dispersion correction           -0.011718809
FINAL SINGLE POINT ENERGY      -523.854665617399

DIPOLE MOMENT
-------------
                                X             Y             Z
Electronic contribution:      7.99386       3.93704       1.04910
Nuclear contribution   :     -8.11591      -2.99033      -1.35383
                        -----------------------------------------
Total Dipole Moment    :     -0.12205       0.94671      -0.30474
                        -----------------------------------------
Magnitude (a.u.)       :      1.00201
Magnitude (Debye)      :      2.54690

Rotational constants in cm-1:     0.043530     0.028984     0.019589
Rotational constants in MHz :  1305.007140   868.923804   587.262638

                             ****ORCA TERMINATED NORMALLY****
TOTAL RUN TIME: 0 days 0 hours 0 minutes 22 seconds 388 msec
