                         Program Version 5.0.0 -  RELEASE  -
|  1> !wB97X-D3 RIJCOSX def2-SVP def2/J TightSCF xyzfile
|  2>
|  3> *xyzfile 0 1 D3.xyz
|  4>
|  5> %MaxCore 64000
|  6>
|  7> %pal nprocs 18
|  8> end
|  9>
| 10> %scf
| 11>   MaxIter 150
| 12> end
| 13>
| 14>
| 15>                          ****END OF INPUT****

CARTESIAN COORDINATES (ANGSTROEM)
---------------------------------
  C      1.635557   -1.670396   -5.292109
  C      0.338484   -1.500907   -4.505398
  N      2.484511   -0.507410   -5.140392
  C     -0.684873   -0.528026   -5.099889
  C     -0.290406    0.951335   -5.153423
  H      0.607991    1.070692   -5.764412
  C     -0.055168    1.619420   -3.788577
  H     -1.080912    1.483775   -5.689436
  H      0.045006    0.862302   -3.003015
  H     -0.922936    2.230329   -3.517028
  C      1.223022    2.469865   -3.756911
  H      1.114701    3.258074   -4.532999
  H      1.237732    3.011242   -2.792157
  F      2.353815    1.712032   -3.934477
  H      1.398337   -1.829239   -6.352591
  H      2.155864   -2.565398   -4.932091
  C      3.451149   -0.149530   -5.952589
  N      3.922667    1.089559   -5.850711
  C      3.966162   -1.006183   -6.867880
  H      3.521391   -1.906467   -6.995270
  H      4.444824   -0.623472   -7.670348
  H      2.251995    0.240804   -4.498792
  H      3.464277    1.640782   -5.136392
  H      4.834470    1.313745   -6.224653
  H     -0.937999   -0.869056   -6.110838
  H     -1.604638   -0.622496   -4.513132
  H      0.594887   -1.211578   -3.482312
  H     -0.126530   -2.487656   -4.434176

 Total Charge           Charge          ....    0
 Multiplicity           Mult            ....    1
 Number of Electrons    NEL             ....   88
 Basis Dimension        Dim             ....  239

ORBITAL ENERGIES
----------------

  NO   OCC          E(Eh)            E(eV)
   0   2.0000     -24.837508      -675.8630
   1   2.0000     -14.405209      -391.9857
   2   2.0000     -14.400269      -391.8512
   3   2.0000     -10.397330      -282.9257
   4   2.0000     -10.313775      -280.6521
   5   2.0000     -10.308984      -280.5217
   6   2.0000     -10.307865      -280.4913
   7   2.0000     -10.296662      -280.1864
   8   2.0000     -10.292878      -280.0835
   9   2.0000     -10.289024      -279.9786
  10   2.0000     -10.173399      -276.8322
  11   2.0000      -1.359130       -36.9838
  12   2.0000      -1.060283       -28.8518
  13   2.0000      -0.970768       -26.4159
  14   2.0000      -0.933992       -25.4152
  15   2.0000      -0.888880       -24.1876
  16   2.0000      -0.836429       -22.7604
  17   2.0000      -0.795435       -21.6449
  18   2.0000      -0.763798       -20.7840
  19   2.0000      -0.739103       -20.1120
  20   2.0000      -0.682359       -18.5679
  21   2.0000      -0.673038       -18.3143
  22   2.0000      -0.657979       -17.9045
  23   2.0000      -0.635006       -17.2794
  24   2.0000      -0.628843       -17.1117
  25   2.0000      -0.595167       -16.1953
  26   2.0000      -0.587073       -15.9751
  27   2.0000      -0.573552       -15.6071
  28   2.0000      -0.561850       -15.2887
  29   2.0000      -0.531849       -14.4723
  30   2.0000      -0.526196       -14.3185
  31   2.0000      -0.516169       -14.0457
  32   2.0000      -0.497730       -13.5439
  33   2.0000      -0.471572       -12.8321
  34   2.0000      -0.471038       -12.8176
  35   2.0000      -0.458287       -12.4706
  36   2.0000      -0.452175       -12.3043
  37   2.0000      -0.444532       -12.0963
  38   2.0000      -0.432435       -11.7672
  39   2.0000      -0.425086       -11.5672
  40   2.0000      -0.415081       -11.2949
  41   2.0000      -0.412160       -11.2154
  42   2.0000      -0.315381        -8.5820
  43   2.0000      -0.224709        -6.1146
  44   0.0000       0.127280         3.4635
  45   0.0000       0.146045         3.9741
  46   0.0000       0.150926         4.1069
  47   0.0000       0.168625         4.5885
  48   0.0000       0.171740         4.6733

MULLIKEN ATOMIC CHARGES
-----------------------
   0 C :    0.150511
   1 C :   -0.079692
   2 N :   -0.221195
   3 C :   -0.026520
   4 C :   -0.063414
   5 H :    0.040344
   6 C :   -0.128698
   7 H :    0.031758
   8 H :    0.047169
   9 H :    0.050410
  10 C :    0.238280
  11 H :    0.049484
  12 H :    0.046961
  13 F :   -0.248359
  14 H :    0.023453
  15 H :    0.029469
  16 C :   -0.007284
  17 N :   -0.136855
  18 C :   -0.170198
  19 H :   -0.046958
  20 H :   -0.047404
  21 H :    0.121261
  22 H :    0.112406
  23 H :    0.130819
  24 H :    0.029648
  25 H :    0.023528
  26 H :    0.019376
  27 H :    0.031699
Sum of atomic charges:   -0.0000000

LOEWDIN ATOMIC CHARGES
----------------------
   0 C :    0.046410
   1 C :   -0.048215
   2 N :   -0.039511
   3 C :   -0.036600
   4 C :   -0.049956
   5 H :    0.022036
   6 C :   -0.064334
   7 H :    0.027997
   8 H :    0.027590
   9 H :    0.040257
  10 C :    0.121274
  11 H :    0.024156
  12 H :    0.024357
  13 F :   -0.052088
  14 H :    0.018255
  15 H :    0.018189
  16 C :    0.042527
  17 N :   -0.041825
  18 C :   -0.293899
  19 H :   -0.014363
  20 H :   -0.013110
  21 H :    0.025645
  22 H :    0.034622
  23 H :    0.079834
  24 H :    0.028692
  25 H :    0.022773
  26 H :    0.017177
  27 H :    0.032111

  Mayer bond orders larger than 0.100000
B(  0-C ,  1-C ) :   1.0659 B(  0-C ,  2-N ) :   0.9833 B(  0-C , 14-H ) :   0.9408
B(  0-C , 15-H ) :   0.9498 B(  1-C ,  3-C ) :   1.0731 B(  1-C , 26-H ) :   0.9464
B(  1-C , 27-H ) :   0.9445 B(  2-N , 16-C ) :   1.1943 B(  2-N , 21-H ) :   0.8966
B(  3-C ,  4-C ) :   1.0777 B(  3-C , 24-H ) :   0.9468 B(  3-C , 25-H ) :   0.9523
B(  4-C ,  5-H ) :   0.9579 B(  4-C ,  6-C ) :   1.0130 B(  4-C ,  7-H ) :   0.9465
B(  6-C ,  8-H ) :   0.9579 B(  6-C ,  9-H ) :   0.9431 B(  6-C , 10-C ) :   1.0785
B( 10-C , 11-H ) :   0.9599 B( 10-C , 12-H ) :   0.9597 B( 10-C , 13-F ) :   0.8783
B( 16-C , 17-N ) :   1.2333 B( 16-C , 18-C ) :   1.7237 B( 17-N , 22-H ) :   0.9238
B( 17-N , 23-H ) :   0.9477 B( 18-C , 19-H ) :   0.9489 B( 18-C , 20-H ) :   0.9562

Dispersion correction           -0.011867319
FINAL SINGLE POINT ENERGY      -523.859477878297

DIPOLE MOMENT
-------------
                                X             Y             Z
Electronic contribution:      6.30472       4.56005       2.86040
Nuclear contribution   :     -7.84660      -3.08098      -1.66782
                        -----------------------------------------
Total Dipole Moment    :     -1.54188       1.47906       1.19258
                        -----------------------------------------
Magnitude (a.u.)       :      2.44689
Magnitude (Debye)      :      6.21950

Rotational constants in cm-1:     0.043547     0.029898     0.020008
Rotational constants in MHz :  1305.520367   896.323854   599.829375

                             ****ORCA TERMINATED NORMALLY****
TOTAL RUN TIME: 0 days 0 hours 0 minutes 24 seconds 794 msec
