                         Program Version 5.0.0 -  RELEASE  -
|  1> !TPSS D3BJ RIJCOSX def2-SVPD def2/J TightSCF
|  2> *xyz -1 1
|  3> C         -0.95121        1.33498       -0.97250
|  4> C         -0.77455        2.78833       -0.54394
|  5> H         -1.35261        3.45937       -1.19259
|  6> H         -1.17101        2.90233        0.46997
|  7> C          0.69721        3.22791       -0.52513
|  8> O          1.48929        2.37470        0.19919
|  9> H          0.71600        4.26403       -0.13077
| 10> H          1.03615        3.33092       -1.58367
| 11> H         -0.56808        1.20618       -1.96322
| 12> H         -1.99081        1.08225       -0.95647
| 13> H         -0.41866        0.69710       -0.29841
| 14> *
| 15>
| 16> %MaxCore 64000
| 17> %pal nprocs 4
| 18> end
| 19>
| 20> %scf
| 21>   MaxIter 150
| 22> end
| 23>
| 24>
| 25>                          ****END OF INPUT****

CARTESIAN COORDINATES (ANGSTROEM)
---------------------------------
  C     -0.951210    1.334980   -0.972500
  C     -0.774550    2.788330   -0.543940
  H     -1.352610    3.459370   -1.192590
  H     -1.171010    2.902330    0.469970
  C      0.697210    3.227910   -0.525130
  O      1.489290    2.374700    0.199190
  H      0.716000    4.264030   -0.130770
  H      1.036150    3.330920   -1.583670
  H     -0.568080    1.206180   -1.963220
  H     -1.990810    1.082250   -0.956470
  H     -0.418660    0.697100   -0.298410

 Total Charge           Charge          ....   -1
 Multiplicity           Mult            ....    1
 Number of Electrons    NEL             ....   34
 Basis Dimension        Dim             ....  139

ORBITAL ENERGIES
----------------

  NO   OCC          E(Eh)            E(eV)
   0   2.0000     -18.577448      -505.5181
   1   2.0000      -9.818248      -267.1681
   2   2.0000      -9.817084      -267.1364
   3   2.0000      -9.808782      -266.9105
   4   2.0000      -0.612339       -16.6626
   5   2.0000      -0.518721       -14.1151
   6   2.0000      -0.410864       -11.1802
   7   2.0000      -0.313268        -8.5245
   8   2.0000      -0.232842        -6.3360
   9   2.0000      -0.223815        -6.0903
  10   2.0000      -0.177448        -4.8286
  11   2.0000      -0.150504        -4.0954
  12   2.0000      -0.123665        -3.3651
  13   2.0000      -0.114804        -3.1240
  14   2.0000      -0.073162        -1.9908
  15   2.0000       0.062543         1.7019
  16   2.0000       0.065868         1.7924
  17   0.0000       0.157629         4.2893
  18   0.0000       0.182171         4.9571
  19   0.0000       0.198020         5.3884
  20   0.0000       0.222026         6.0416
  21   0.0000       0.241031         6.5588

MULLIKEN ATOMIC CHARGES
-----------------------
   0 C :    0.544864
   1 C :   -0.602909
   2 H :   -0.046520
   3 H :   -0.025537
   4 C :    0.427647
   5 O :   -0.895148
   6 H :   -0.160768
   7 H :   -0.110063
   8 H :   -0.054282
   9 H :   -0.075643
  10 H :   -0.001642
Sum of atomic charges:   -1.0000000

LOEWDIN ATOMIC CHARGES
----------------------
   0 C :    0.091019
   1 C :   -0.111722
   2 H :   -0.019521
   3 H :   -0.004969
   4 C :   -0.210065
   5 O :   -0.536378
   6 H :   -0.042144
   7 H :   -0.036021
   8 H :   -0.037155
   9 H :   -0.054322
  10 H :   -0.038721

  Mayer bond orders larger than 0.100000
B(  0-C ,  1-C ) :   1.2573 B(  0-C ,  8-H ) :   0.8439 B(  0-C ,  9-H ) :   0.8116
B(  0-C , 10-H ) :   0.8366 B(  1-C ,  2-H ) :   1.0347 B(  1-C ,  3-H ) :   0.9835
B(  1-C ,  4-C ) :   1.0515 B(  1-C ,  5-O ) :   0.1949 B(  1-C ,  6-H ) :   0.1552
B(  1-C ,  7-H ) :   0.1453 B(  1-C ,  8-H ) :   0.2010 B(  1-C ,  9-H ) :   0.1962
B(  1-C , 10-H ) :   0.2064 B(  2-H ,  4-C ) :   0.1101 B(  3-H ,  4-C ) :   0.1199
B(  4-C ,  5-O ) :   1.1020 B(  4-C ,  6-H ) :   0.9592 B(  4-C ,  7-H ) :   0.9597

Dispersion correction           -0.008115843
FINAL SINGLE POINT ENERGY      -193.648439275447

DIPOLE MOMENT
-------------
                                X             Y             Z
Electronic contribution:      2.61703      -0.02835       1.50563
Nuclear contribution   :     -4.35230      -0.04018      -2.29108
                        -----------------------------------------
Total Dipole Moment    :     -1.73527      -0.06854      -0.78545
                        -----------------------------------------
Magnitude (a.u.)       :      1.90599
Magnitude (Debye)      :      4.84464

Rotational constants in cm-1:     0.489965     0.184028     0.151025
Rotational constants in MHz : 14688.769521  5517.006179  4527.605157

                             ****ORCA TERMINATED NORMALLY****
TOTAL RUN TIME: 0 days 0 hours 0 minutes 6 seconds 769 msec
