                         Program Version 5.0.0 -  RELEASE  -
|  1> !TPSS D3BJ RIJCOSX def2-SVPD def2/J TightSCF
|  2> *xyz 1 1
|  3> C          3.95643        0.50147       -0.37910
|  4> H          3.16840        0.02920        0.20738
|  5> N          3.80389        1.96157       -0.15675
|  6> C          3.84232        0.14849       -1.85406
|  7> H          4.92323        0.17798        0.00937
|  8> H          4.62002        0.69450       -2.40215
|  9> H          4.09601       -0.91093       -1.95510
| 10> C          2.47562        0.41271       -2.48538
| 11> H          4.20643        2.24441        0.74536
| 12> H          2.80827        2.21132       -0.09610
| 13> H          4.28076        2.50155       -0.89104
| 14> H          2.49958        0.13290       -3.51787
| 15> H          2.23992        1.45318       -2.40319
| 16> H          1.73061       -0.16300       -1.97702
| 17> *
| 18>
| 19> %MaxCore 64000
| 20> %pal nprocs 4
| 21> end
| 22>
| 23> %scf
| 24>   MaxIter 150
| 25> end
| 26>
| 27>
| 28>                          ****END OF INPUT****

CARTESIAN COORDINATES (ANGSTROEM)
---------------------------------
  C      3.956430    0.501470   -0.379100
  H      3.168400    0.029200    0.207380
  N      3.803890    1.961570   -0.156750
  C      3.842320    0.148490   -1.854060
  H      4.923230    0.177980    0.009370
  H      4.620020    0.694500   -2.402150
  H      4.096010   -0.910930   -1.955100
  C      2.475620    0.412710   -2.485380
  H      4.206430    2.244410    0.745360
  H      2.808270    2.211320   -0.096100
  H      4.280760    2.501550   -0.891040
  H      2.499580    0.132900   -3.517870
  H      2.239920    1.453180   -2.403190
  H      1.730610   -0.163000   -1.977020

 Total Charge           Charge          ....    1
 Multiplicity           Mult            ....    1
 Number of Electrons    NEL             ....   34
 Basis Dimension        Dim             ....  160

ORBITAL ENERGIES
----------------

  NO   OCC          E(Eh)            E(eV)
   0   2.0000     -14.448284      -393.1578
   1   2.0000     -10.248137      -278.8660
   2   2.0000     -10.180743      -277.0321
   3   2.0000     -10.148464      -276.1538
   4   2.0000      -1.143260       -31.1097
   5   2.0000      -0.911908       -24.8143
   6   2.0000      -0.826562       -22.4919
   7   2.0000      -0.761778       -20.7290
   8   2.0000      -0.743923       -20.2432
   9   2.0000      -0.722274       -19.6541
  10   2.0000      -0.648305       -17.6413
  11   2.0000      -0.592482       -16.1222
  12   2.0000      -0.569322       -15.4920
  13   2.0000      -0.548914       -14.9367
  14   2.0000      -0.490240       -13.3401
  15   2.0000      -0.484974       -13.1968
  16   2.0000      -0.479480       -13.0473
  17   0.0000      -0.203845        -5.5469
  18   0.0000      -0.150660        -4.0997
  19   0.0000      -0.147280        -4.0077
  20   0.0000      -0.130661        -3.5555
  21   0.0000      -0.105109        -2.8602

MULLIKEN ATOMIC CHARGES
-----------------------
   0 C :    0.562435
   1 H :   -0.037047
   2 N :   -0.792012
   3 C :   -0.406107
   4 H :   -0.035855
   5 H :   -0.023211
   6 H :   -0.045443
   7 C :    0.677088
   8 H :    0.339780
   9 H :    0.400601
  10 H :    0.429893
  11 H :   -0.021642
  12 H :   -0.074727
  13 H :    0.026248
Sum of atomic charges:    1.0000000

LOEWDIN ATOMIC CHARGES
----------------------
   0 C :    0.093668
   1 H :    0.050782
   2 N :    0.335344
   3 C :   -0.041828
   4 H :    0.050531
   5 H :    0.030813
   6 H :    0.042984
   7 C :    0.159173
   8 H :    0.103545
   9 H :    0.101535
  10 H :    0.103943
  11 H :    0.002309
  12 H :   -0.027859
  13 H :   -0.004939

  Mayer bond orders larger than 0.100000
B(  0-C ,  1-H ) :   0.8721 B(  0-C ,  2-N ) :   0.7831 B(  0-C ,  3-C ) :   1.1641
B(  0-C ,  4-H ) :   0.9204 B(  0-C ,  6-H ) :   0.1108 B(  1-H ,  2-N ) :   0.1210
B(  2-N ,  8-H ) :   0.7813 B(  2-N ,  9-H ) :   0.7356 B(  2-N , 10-H ) :   0.6555
B(  3-C ,  5-H ) :   0.9400 B(  3-C ,  6-H ) :   0.9863 B(  3-C ,  7-C ) :   1.2983
B(  3-C , 11-H ) :   0.1971 B(  3-C , 12-H ) :   0.1840 B(  3-C , 13-H ) :   0.1791
B(  7-C , 11-H ) :   0.8028 B(  7-C , 12-H ) :   0.8348 B(  7-C , 13-H ) :   0.8127

Dispersion correction           -0.011424273
FINAL SINGLE POINT ENERGY      -174.772420279852

DIPOLE MOMENT
-------------
                                X             Y             Z
Electronic contribution:      1.00979       1.15484       1.81547
Nuclear contribution   :     -0.57302       0.26376      -0.39709
                        -----------------------------------------
Total Dipole Moment    :      0.43677       1.41860       1.41838
                        -----------------------------------------
Magnitude (a.u.)       :      2.05304
Magnitude (Debye)      :      5.21842

Rotational constants in cm-1:     0.449370     0.157244     0.134525
Rotational constants in MHz : 13471.775278  4714.062641  4032.958796

                             ****ORCA TERMINATED NORMALLY****
TOTAL RUN TIME: 0 days 0 hours 0 minutes 7 seconds 337 msec
