                         Program Version 5.0.0 -  RELEASE  -
|  1> !TPSS D3BJ RIJCOSX def2-SVPD def2/J TightSCF
|  2> *xyz 0 1
|  3> C         -0.95121        1.33498       -0.97250
|  4> C         -0.77455        2.78833       -0.54394
|  5> H         -1.35261        3.45937       -1.19259
|  6> H         -1.17101        2.90233        0.46997
|  7> C          0.69721        3.22791       -0.52513
|  8> F          1.48929        2.37470        0.19919
|  9> H          0.71600        4.26403       -0.13077
| 10> H          1.03615        3.33092       -1.58367
| 11> H         -0.56808        1.20618       -1.96322
| 12> H         -1.99081        1.08225       -0.95647
| 13> H         -0.41866        0.69710       -0.29841
| 14> *
| 15>
| 16> %MaxCore 64000
| 17> %pal nprocs 4
| 18> end
| 19>
| 20> %scf
| 21>   MaxIter 150
| 22> end
| 23>
| 24>
| 25>                          ****END OF INPUT****

CARTESIAN COORDINATES (ANGSTROEM)
---------------------------------
  C     -0.951210    1.334980   -0.972500
  C     -0.774550    2.788330   -0.543940
  H     -1.352610    3.459370   -1.192590
  H     -1.171010    2.902330    0.469970
  C      0.697210    3.227910   -0.525130
  F      1.489290    2.374700    0.199190
  H      0.716000    4.264030   -0.130770
  H      1.036150    3.330920   -1.583670
  H     -0.568080    1.206180   -1.963220
  H     -1.990810    1.082250   -0.956470
  H     -0.418660    0.697100   -0.298410

 Total Charge           Charge          ....    0
 Multiplicity           Mult            ....    1
 Number of Electrons    NEL             ....   34
 Basis Dimension        Dim             ....  139

ORBITAL ENERGIES
----------------

  NO   OCC          E(Eh)            E(eV)
   0   2.0000     -24.417271      -664.4277
   1   2.0000     -10.078231      -274.2426
   2   2.0000     -10.007014      -272.3047
   3   2.0000      -9.988889      -271.8115
   4   2.0000      -1.107420       -30.1344
   5   2.0000      -0.725857       -19.7516
   6   2.0000      -0.632039       -17.1987
   7   2.0000      -0.543322       -14.7845
   8   2.0000      -0.462736       -12.5917
   9   2.0000      -0.444973       -12.1083
  10   2.0000      -0.424778       -11.5588
  11   2.0000      -0.393763       -10.7148
  12   2.0000      -0.354507        -9.6466
  13   2.0000      -0.333924        -9.0865
  14   2.0000      -0.319209        -8.6861
  15   2.0000      -0.286885        -7.8065
  16   2.0000      -0.285672        -7.7735
  17   0.0000       0.010799         0.2939
  18   0.0000       0.036385         0.9901
  19   0.0000       0.046285         1.2595
  20   0.0000       0.055700         1.5157
  21   0.0000       0.076081         2.0703

MULLIKEN ATOMIC CHARGES
-----------------------
   0 C :    0.564075
   1 C :   -0.553493
   2 H :   -0.045646
   3 H :   -0.035794
   4 C :    0.699440
   5 F :   -0.455684
   6 H :   -0.058009
   7 H :   -0.014061
   8 H :   -0.042512
   9 H :   -0.052529
  10 H :   -0.005789
Sum of atomic charges:   -0.0000000

LOEWDIN ATOMIC CHARGES
----------------------
   0 C :    0.129779
   1 C :   -0.061451
   2 H :    0.023638
   3 H :    0.017795
   4 C :    0.100218
   5 F :   -0.202640
   6 H :    0.024436
   7 H :    0.031187
   8 H :   -0.019590
   9 H :   -0.022555
  10 H :   -0.020815

  Mayer bond orders larger than 0.100000
B(  0-C ,  1-C ) :   1.3084 B(  0-C ,  8-H ) :   0.8343 B(  0-C ,  9-H ) :   0.8277
B(  0-C , 10-H ) :   0.8353 B(  1-C ,  2-H ) :   0.9783 B(  1-C ,  3-H ) :   0.9612
B(  1-C ,  4-C ) :   1.1917 B(  1-C ,  6-H ) :   0.1152 B(  1-C ,  7-H ) :   0.1098
B(  1-C ,  8-H ) :   0.1777 B(  1-C ,  9-H ) :   0.1821 B(  1-C , 10-H ) :   0.1778
B(  4-C ,  5-F ) :   0.7034 B(  4-C ,  6-H ) :   0.9142 B(  4-C ,  7-H ) :   0.9069

Dispersion correction           -0.007650315
FINAL SINGLE POINT ENERGY      -218.258464322835

DIPOLE MOMENT
-------------
                                X             Y             Z
Electronic contribution:      5.52220       0.33102       2.75529
Nuclear contribution   :     -6.00193       0.02246      -3.08821
                        -----------------------------------------
Total Dipole Moment    :     -0.47973       0.35349      -0.33292
                        -----------------------------------------
Magnitude (a.u.)       :      0.68259
Magnitude (Debye)      :      1.73501

Rotational constants in cm-1:     0.475356     0.173608     0.142756
Rotational constants in MHz : 14250.818869  5204.623090  4279.716550

                             ****ORCA TERMINATED NORMALLY****
TOTAL RUN TIME: 0 days 0 hours 0 minutes 5 seconds 875 msec
