                         Program Version 5.0.0 -  RELEASE  -
|  1> !TPSS D3BJ RIJCOSX def2-SVPD def2/J TightSCF
|  2> *xyz 0 1
|  3> C          3.95643        0.50147       -0.37910
|  4> H          3.16840        0.02920        0.20738
|  5> C          3.80389        1.96157       -0.15675
|  6> C          3.84232        0.14849       -1.85406
|  7> H          4.92323        0.17798        0.00937
|  8> H          4.62002        0.69450       -2.40215
|  9> H          4.09601       -0.91093       -1.95510
| 10> C          2.47562        0.41271       -2.48538
| 11> H          4.20643        2.24441        0.74536
| 12> H          2.80827        2.21132       -0.09610
| 13> H          4.28076        2.50155       -0.89104
| 14> H          2.49958        0.13290       -3.51787
| 15> H          2.23992        1.45318       -2.40319
| 16> H          1.73061       -0.16300       -1.97702
| 17> *
| 18>
| 19> %MaxCore 64000
| 20> %pal nprocs 4
| 21> end
| 22>
| 23> %scf
| 24>   MaxIter 150
| 25> end
| 26>
| 27>
| 28>                          ****END OF INPUT****

CARTESIAN COORDINATES (ANGSTROEM)
---------------------------------
  C      3.956430    0.501470   -0.379100
  H      3.168400    0.029200    0.207380
  C      3.803890    1.961570   -0.156750
  C      3.842320    0.148490   -1.854060
  H      4.923230    0.177980    0.009370
  H      4.620020    0.694500   -2.402150
  H      4.096010   -0.910930   -1.955100
  C      2.475620    0.412710   -2.485380
  H      4.206430    2.244410    0.745360
  H      2.808270    2.211320   -0.096100
  H      4.280760    2.501550   -0.891040
  H      2.499580    0.132900   -3.517870
  H      2.239920    1.453180   -2.403190
  H      1.730610   -0.163000   -1.977020

 Total Charge           Charge          ....    0
 Multiplicity           Mult            ....    1
 Number of Electrons    NEL             ....   34
 Basis Dimension        Dim             ....  160

ORBITAL ENERGIES
----------------

  NO   OCC          E(Eh)            E(eV)
   0   2.0000      -9.990096      -271.8443
   1   2.0000      -9.985777      -271.7268
   2   2.0000      -9.982595      -271.6402
   3   2.0000      -9.963464      -271.1196
   4   2.0000      -0.737715       -20.0743
   5   2.0000      -0.668584       -18.1931
   6   2.0000      -0.588613       -16.0170
   7   2.0000      -0.515859       -14.0372
   8   2.0000      -0.423043       -11.5116
   9   2.0000      -0.419433       -11.4134
  10   2.0000      -0.386448       -10.5158
  11   2.0000      -0.352154        -9.5826
  12   2.0000      -0.343559        -9.3487
  13   2.0000      -0.326016        -8.8713
  14   2.0000      -0.289561        -7.8794
  15   2.0000      -0.285666        -7.7734
  16   2.0000      -0.283126        -7.7042
  17   0.0000       0.015794         0.4298
  18   0.0000       0.042838         1.1657
  19   0.0000       0.043251         1.1769
  20   0.0000       0.051434         1.3996
  21   0.0000       0.082872         2.2551

MULLIKEN ATOMIC CHARGES
-----------------------
   0 C :   -0.272476
   1 H :   -0.043062
   2 C :    0.918649
   3 C :   -0.395884
   4 H :   -0.085608
   5 H :    0.024528
   6 H :   -0.100106
   7 C :    0.628869
   8 H :   -0.299397
   9 H :   -0.097708
  10 H :   -0.171129
  11 H :   -0.039296
  12 H :   -0.061490
  13 H :   -0.005891
Sum of atomic charges:   -0.0000000

LOEWDIN ATOMIC CHARGES
----------------------
   0 C :   -0.071961
   1 H :    0.019586
   2 C :    0.125517
   3 C :   -0.079006
   4 H :    0.018230
   5 H :    0.017986
   6 H :    0.010308
   7 C :    0.135673
   8 H :   -0.038869
   9 H :   -0.034305
  10 H :   -0.031593
  11 H :   -0.023504
  12 H :   -0.028037
  13 H :   -0.020025

  Mayer bond orders larger than 0.100000
B(  0-C ,  1-H ) :   0.8909 B(  0-C ,  2-C ) :   1.2634 B(  0-C ,  3-C ) :   1.1713
B(  0-C ,  4-H ) :   0.9395 B(  0-C ,  5-H ) :   0.1042 B(  0-C ,  6-H ) :   0.1361
B(  0-C ,  8-H ) :   0.2353 B(  0-C ,  9-H ) :   0.2555 B(  0-C , 10-H ) :   0.2382
B(  1-H ,  2-C ) :   0.1390 B(  1-H ,  3-C ) :   0.1186 B(  2-C ,  8-H ) :   0.7199
B(  2-C ,  9-H ) :   0.6943 B(  2-C , 10-H ) :   0.7469 B(  3-C ,  5-H ) :   0.9018
B(  3-C ,  6-H ) :   0.9780 B(  3-C ,  7-C ) :   1.2955 B(  3-C , 11-H ) :   0.2054
B(  3-C , 12-H ) :   0.1963 B(  3-C , 13-H ) :   0.1872 B(  7-C , 11-H ) :   0.7717
B(  7-C , 12-H ) :   0.8575 B(  7-C , 13-H ) :   0.8124

Dispersion correction           -0.011468922
FINAL SINGLE POINT ENERGY      -158.370215309115

DIPOLE MOMENT
-------------
                                X             Y             Z
Electronic contribution:      0.49542      -0.62563       0.09572
Nuclear contribution   :     -0.48267       0.62853      -0.07145
                        -----------------------------------------
Total Dipole Moment    :      0.01275       0.00290       0.02427
                        -----------------------------------------
Magnitude (a.u.)       :      0.02757
Magnitude (Debye)      :      0.07007

Rotational constants in cm-1:     0.457318     0.164089     0.140183
Rotational constants in MHz : 13710.038687  4919.250587  4202.581436

                             ****ORCA TERMINATED NORMALLY****
TOTAL RUN TIME: 0 days 0 hours 0 minutes 7 seconds 597 msec
