                         Program Version 5.0.0 -  RELEASE  -
|  1> !TPSS D3BJ RIJCOSX def2-SVPD def2/J TightSCF xyzfile
|  2>
|  3> *xyzfile 0 1 D.xyz
|  4>
|  5> %MaxCore 64000
|  6>
|  7> %pal nprocs 4
|  8> end
|  9>
| 10> %scf
| 11>   MaxIter 150
| 12> end
| 13>
| 14>
| 15>                          ****END OF INPUT****

CARTESIAN COORDINATES (ANGSTROEM)
---------------------------------
  C      3.956426    0.501466   -0.379100
  H      3.168398    0.029201    0.207383
  C      3.803893    1.961572   -0.156747
  C      3.842322    0.148490   -1.854058
  H      4.923231    0.177982    0.009371
  H      4.620021    0.694502   -2.402150
  H      4.096015   -0.910930   -1.955103
  C      2.475619    0.412708   -2.485377
  H      2.174689    1.445076   -2.287971
  C      1.383931   -0.532740   -1.995203
  H      2.575613    0.318574   -3.571460
  H      1.264698   -0.412309   -0.915491
  H      1.705223   -1.566885   -2.164984
  C      0.031398   -0.317260   -2.677791
  C     -0.587292    1.060853   -2.436460
  H     -0.662815   -1.089530   -2.329985
  H      0.149465   -0.478040   -3.755648
  H      0.104376    1.828590   -2.793130
  C     -0.951213    1.334978   -0.972500
  H     -1.478832    1.161355   -3.062484
  H     -0.317007    0.741648   -0.311389
  H     -1.980916    1.012842   -0.788958
  C     -0.774550    2.788332   -0.543943
  H     -1.352609    3.459372   -1.192585
  H     -1.171014    2.902331    0.469968
  C      0.697208    3.227911   -0.525126
  F      1.489294    2.374703    0.199189
  H      0.715998    4.264030   -0.130774
  H      1.036148    3.330920   -1.583669
  H      4.206425    2.244406    0.745359
  H      2.808269    2.211323   -0.096097
  H      4.280757    2.501552   -0.891037

 Total Charge           Charge          ....    0
 Multiplicity           Mult            ....    1
 Number of Electrons    NEL             ....   90
 Basis Dimension        Dim             ....  391

ORBITAL ENERGIES
----------------

  NO   OCC          E(Eh)            E(eV)
   0   2.0000     -24.436805      -664.9593
   1   2.0000     -10.088561      -274.5237
   2   2.0000     -10.012252      -272.4472
   3   2.0000      -9.999200      -272.0921
   4   2.0000      -9.995863      -272.0013
   5   2.0000      -9.992504      -271.9099
   6   2.0000      -9.987038      -271.7611
   7   2.0000      -9.985010      -271.7059
   8   2.0000      -9.978851      -271.5384
   9   2.0000      -9.968357      -271.2528
  10   2.0000      -9.917882      -269.8793
  11   2.0000      -1.139139       -30.9976
  12   2.0000      -0.755127       -20.5480
  13   2.0000      -0.736132       -20.0312
  14   2.0000      -0.704880       -19.1808
  15   2.0000      -0.675902       -18.3922
  16   2.0000      -0.630984       -17.1699
  17   2.0000      -0.607459       -16.5298
  18   2.0000      -0.568164       -15.4605
  19   2.0000      -0.547808       -14.9066
  20   2.0000      -0.513884       -13.9835
  21   2.0000      -0.502482       -13.6732
  22   2.0000      -0.480803       -13.0833
  23   2.0000      -0.465451       -12.6656
  24   2.0000      -0.447257       -12.1705
  25   2.0000      -0.425846       -11.5879
  26   2.0000      -0.414094       -11.2681
  27   2.0000      -0.407248       -11.0818
  28   2.0000      -0.389264       -10.5924
  29   2.0000      -0.383618       -10.4388
  30   2.0000      -0.370748       -10.0886
  31   2.0000      -0.353987        -9.6325
  32   2.0000      -0.346488        -9.4284
  33   2.0000      -0.337068        -9.1721
  34   2.0000      -0.328598        -8.9416
  35   2.0000      -0.317365        -8.6360
  36   2.0000      -0.312203        -8.4955
  37   2.0000      -0.305578        -8.3152
  38   2.0000      -0.289677        -7.8825
  39   2.0000      -0.285388        -7.7658
  40   2.0000      -0.278618        -7.5816
  41   2.0000      -0.277397        -7.5483
  42   2.0000      -0.264020        -7.1844
  43   2.0000      -0.263100        -7.1593
  44   2.0000      -0.236905        -6.4465
  45   0.0000       0.007948         0.2163
  46   0.0000       0.016658         0.4533
  47   0.0000       0.023849         0.6490
  48   0.0000       0.029417         0.8005
  49   0.0000       0.042129         1.1464

MULLIKEN ATOMIC CHARGES
-----------------------
   0 C :   -0.147359
   1 H :    0.066962
   2 C :    2.695693
   3 C :    0.264729
   4 H :   -0.313474
   5 H :    0.019173
   6 H :   -0.041800
   7 C :    0.290025
   8 H :   -0.499287
   9 C :   -0.077069
  10 H :   -0.023434
  11 H :   -0.048967
  12 H :   -0.133696
  13 C :    0.486632
  14 C :    0.109751
  15 H :   -0.178276
  16 H :    0.065520
  17 H :   -0.103850
  18 C :    0.051350
  19 H :   -0.196330
  20 H :   -0.010415
  21 H :   -0.111237
  22 C :    0.123504
  23 H :   -0.069117
  24 H :    0.041310
  25 C :    0.615097
  26 F :   -0.588368
  27 H :   -0.205792
  28 H :    0.149631
  29 H :    0.090616
  30 H :   -2.225802
  31 H :   -0.095720
Sum of atomic charges:   -0.0000000

LOEWDIN ATOMIC CHARGES
----------------------
   0 C :   -0.046121
   1 H :    0.009900
   2 C :    0.146590
   3 C :   -0.027820
   4 H :    0.014140
   5 H :    0.018986
   6 H :    0.011838
   7 C :   -0.014543
   8 H :   -0.011795
   9 C :   -0.021013
  10 H :    0.021950
  11 H :   -0.003812
  12 H :    0.022956
  13 C :   -0.023370
  14 C :   -0.013862
  15 H :    0.018485
  16 H :    0.018328
  17 H :   -0.008667
  18 C :   -0.013282
  19 H :    0.017225
  20 H :   -0.001874
  21 H :    0.021294
  22 C :   -0.006205
  23 H :    0.031192
  24 H :    0.022326
  25 C :    0.158903
  26 F :   -0.169536
  27 H :    0.035149
  28 H :    0.026033
  29 H :   -0.029236
  30 H :   -0.175258
  31 H :   -0.028898

  Mayer bond orders larger than 0.100000
B(  0-C ,  1-H ) :   0.7909 B(  0-C ,  2-C ) :   0.6327 B(  0-C ,  3-C ) :   1.1524
B(  0-C ,  4-H ) :   1.0192 B(  0-C ,  5-H ) :   0.1186 B(  0-C ,  6-H ) :   0.1622
B(  0-C , 29-H ) :   0.1366 B(  0-C , 30-H ) :   0.8602 B(  0-C , 31-H ) :   0.3458
B(  1-H ,  2-C ) :   0.2902 B(  1-H ,  3-C ) :   0.1669 B(  1-H ,  4-H ) :  -0.1702
B(  1-H , 30-H ) :  -0.1666 B(  1-H , 31-H ) :  -0.1011 B(  2-C ,  4-H ) :  -0.1565
B(  2-C , 26-F ) :  -0.2919 B(  2-C , 29-H ) :   0.7065 B(  2-C , 30-H ) :  -3.7838
B(  3-C ,  5-H ) :   0.7184 B(  3-C ,  6-H ) :   0.8607 B(  3-C ,  7-C ) :   1.2062
B(  3-C ,  8-H ) :   0.1268 B(  4-H , 29-H ) :  -0.1375 B(  4-H , 30-H ) :   0.1657
B(  4-H , 31-H ) :   0.2479 B(  5-H ,  6-H ) :  -0.1176 B(  5-H ,  7-C ) :   0.2386
B(  5-H , 31-H ) :   0.1294 B(  6-H , 31-H ) :  -0.1574 B(  7-C ,  8-H ) :   0.8615
B(  7-C ,  9-C ) :   1.1998 B(  7-C , 10-H ) :   0.6904 B(  7-C , 11-H ) :   0.1114
B(  7-C , 12-H ) :   0.1485 B(  8-H ,  9-C ) :   0.1933 B(  8-H , 10-H ) :   0.1193
B(  8-H , 30-H ) :   0.1060 B(  9-C , 10-H ) :   0.1616 B(  9-C , 11-H ) :   0.8674
B(  9-C , 12-H ) :   0.9076 B(  9-C , 13-C ) :   1.1864 B(  9-C , 14-C ) :   0.1069
B(  9-C , 15-H ) :   0.2659 B(  9-C , 16-H ) :   0.1358 B( 11-H , 20-H ) :   0.1341
B( 13-C , 14-C ) :   1.1852 B( 13-C , 15-H ) :   0.7648 B( 13-C , 16-H ) :   0.6898
B( 13-C , 17-H ) :   0.1324 B( 13-C , 19-H ) :   0.1098 B( 14-C , 15-H ) :   0.1086
B( 14-C , 16-H ) :   0.2031 B( 14-C , 17-H ) :   0.8617 B( 14-C , 18-C ) :   1.2154
B( 14-C , 19-H ) :   0.8411 B( 14-C , 20-H ) :   0.1012 B( 14-C , 21-H ) :   0.2077
B( 15-H , 16-H ) :  -0.1145 B( 17-H , 18-C ) :   0.1122 B( 18-C , 19-H ) :   0.1758
B( 18-C , 20-H ) :   0.8343 B( 18-C , 21-H ) :   0.8500 B( 18-C , 22-C ) :   1.2290
B( 18-C , 23-H ) :   0.1019 B( 18-C , 24-H ) :   0.1958 B( 20-H , 22-C ) :   0.1292
B( 22-C , 23-H ) :   0.8516 B( 22-C , 24-H ) :   0.7122 B( 22-C , 25-C ) :   1.2702
B( 22-C , 26-F ) :   0.1169 B( 22-C , 27-H ) :   0.1138 B( 23-H , 25-C ) :   0.1562
B( 24-H , 25-C ) :   0.1139 B( 25-C , 26-F ) :   0.5733 B( 25-C , 27-H ) :   0.9489
B( 25-C , 28-H ) :   0.7719 B( 25-C , 30-H ) :   0.2008 B( 26-F , 30-H ) :   0.4146
B( 29-H , 30-H ) :   0.1430 B( 29-H , 31-H ) :  -0.2089 B( 30-H , 31-H ) :   0.8029

Dispersion correction           -0.040209413
FINAL SINGLE POINT ENERGY      -493.282955247029

DIPOLE MOMENT
-------------
                                X             Y             Z
Electronic contribution:     -1.94644       3.27297       4.28554
Nuclear contribution   :      1.09293      -2.80761      -4.51228
                        -----------------------------------------
Total Dipole Moment    :     -0.85351       0.46535      -0.22674
                        -----------------------------------------
Magnitude (a.u.)       :      0.99822
Magnitude (Debye)      :      2.53728

Rotational constants in cm-1:     0.040502     0.027818     0.018259
Rotational constants in MHz :  1214.218058   833.972871   547.398614

                             ****ORCA TERMINATED NORMALLY****
TOTAL RUN TIME: 0 days 0 hours 0 minutes 53 seconds 640 msec
