                         Program Version 5.0.0 -  RELEASE  -
|  1> !wB97X-D3 RIJCOSX def2-SVPD def2/J TightSCF
|  2> *xyz -1 1
|  3> C          0.28725       -1.71177       -2.52740
|  4> O          0.71050       -0.92751       -1.48177
|  5> H          0.92384       -1.55316       -3.37267
|  6> H         -0.71828       -1.45137       -2.78433
|  7> H          0.32655       -2.74158       -2.23955
|  8> *
|  9> %MaxCore 64000
| 10>
| 11> %pal nprocs 18
| 12> end
| 13>
| 14> %scf
| 15>   MaxIter 150
| 16> end
| 17>
| 18>
| 19>                          ****END OF INPUT****

CARTESIAN COORDINATES (ANGSTROEM)
---------------------------------
  C      0.287250   -1.711770   -2.527400
  O      0.710500   -0.927510   -1.481770
  H      0.923840   -1.553160   -3.372670
  H     -0.718280   -1.451370   -2.784330
  H      0.326550   -2.741580   -2.239550

 Total Charge           Charge          ....   -1
 Multiplicity           Mult            ....    1
 Number of Electrons    NEL             ....   18
 Basis Dimension        Dim             ....   67

ORBITAL ENERGIES
----------------

  NO   OCC          E(Eh)            E(eV)
   0   2.0000     -18.887887      -513.9655
   1   2.0000     -10.074573      -274.1431
   2   2.0000      -0.759993       -20.6805
   3   2.0000      -0.500837       -13.6285
   4   2.0000      -0.295154        -8.0316
   5   2.0000      -0.295146        -8.0313
   6   2.0000      -0.193186        -5.2569
   7   2.0000      -0.040737        -1.1085
   8   2.0000      -0.040725        -1.1082
   9   0.0000       0.264164         7.1883
  10   0.0000       0.340243         9.2585
  11   0.0000       0.340247         9.2586
  12   0.0000       0.347892         9.4666
  13   0.0000       0.385350        10.4859

MULLIKEN ATOMIC CHARGES
-----------------------
   0 C :    0.777187
   1 O :   -1.047755
   2 H :   -0.242845
   3 H :   -0.243752
   4 H :   -0.242835
Sum of atomic charges:   -1.0000000

LOEWDIN ATOMIC CHARGES
----------------------
   0 C :   -0.112823
   1 O :   -0.662562
   2 H :   -0.074866
   3 H :   -0.074897
   4 H :   -0.074851

  Mayer bond orders larger than 0.100000
B(  0-C ,  1-O ) :   1.1974 B(  0-C ,  2-H ) :   0.9181 B(  0-C ,  3-H ) :   0.9181
B(  0-C ,  4-H ) :   0.9182

Dispersion correction           -0.000091576
FINAL SINGLE POINT ENERGY      -114.980484384328

DIPOLE MOMENT
-------------
                                X             Y             Z
Electronic contribution:      0.55321       1.02499       1.36668
Nuclear contribution   :     -0.89006      -1.64923      -2.19886
                        -----------------------------------------
Total Dipole Moment    :     -0.33685      -0.62424      -0.83218
                        -----------------------------------------
Magnitude (a.u.)       :      1.09346
Magnitude (Debye)      :      2.77936

Rotational constants in cm-1:     5.477712     0.934243     0.934241
Rotational constants in MHz : 164217.678885 28007.889263 28007.851448

                             ****ORCA TERMINATED NORMALLY****
TOTAL RUN TIME: 0 days 0 hours 0 minutes 2 seconds 921 msec
