                         Program Version 5.0.0 -  RELEASE  -
|  1> !wB97X-D3 RIJCOSX def2-SVPD def2/J TightSCF
|  2> *xyz 1 1
|  3> C          3.48828        1.60092       -1.52204
|  4> N          2.81029        0.42878       -1.01420
|  5> C          3.29098       -0.41802       -0.12908
|  6> N          2.51754       -1.43202        0.23936
|  7> N          4.53549       -0.28441        0.39580
|  8> H          5.04363        0.57189        0.22290
|  9> H          4.72335       -0.73327        1.28180
| 10> H          1.93479        0.10230       -1.40379
| 11> H          1.67464       -1.50562       -0.31610
| 12> H          2.92850       -2.21850        0.72549
| 13> H          2.85802        2.09943       -2.22855
| 14> H          4.39853        1.30677       -2.00144
| 15> H          3.70992        2.26379       -0.71187
| 16> *
| 17> %MaxCore 64000
| 18>
| 19> %pal nprocs 18
| 20> end
| 21>
| 22> %scf
| 23>   MaxIter 150
| 24> end
| 25>
| 26>
| 27>                          ****END OF INPUT****

CARTESIAN COORDINATES (ANGSTROEM)
---------------------------------
  C      3.488280    1.600920   -1.522040
  N      2.810290    0.428780   -1.014200
  C      3.290980   -0.418020   -0.129080
  N      2.517540   -1.432020    0.239360
  N      4.535490   -0.284410    0.395800
  H      5.043630    0.571890    0.222900
  H      4.723350   -0.733270    1.281800
  H      1.934790    0.102300   -1.403790
  H      1.674640   -1.505620   -0.316100
  H      2.928500   -2.218500    0.725490
  H      2.858020    2.099430   -2.228550
  H      4.398530    1.306770   -2.001440
  H      3.709920    2.263790   -0.711870

 Total Charge           Charge          ....    1
 Multiplicity           Mult            ....    1
 Number of Electrons    NEL             ....   40
 Basis Dimension        Dim             ....  164

ORBITAL ENERGIES
----------------

  NO   OCC          E(Eh)            E(eV)
   0   2.0000     -14.673818      -399.2949
   1   2.0000     -14.666180      -399.0871
   2   2.0000     -14.665557      -399.0701
   3   2.0000     -10.633489      -289.3519
   4   2.0000     -10.498790      -285.6866
   5   2.0000      -1.337295       -36.3897
   6   2.0000      -1.221407       -33.2362
   7   2.0000      -1.207382       -32.8545
   8   2.0000      -1.023236       -27.8437
   9   2.0000      -0.937169       -25.5017
  10   2.0000      -0.891095       -24.2479
  11   2.0000      -0.865628       -23.5549
  12   2.0000      -0.799868       -21.7655
  13   2.0000      -0.788713       -21.4620
  14   2.0000      -0.768713       -20.9178
  15   2.0000      -0.749773       -20.4024
  16   2.0000      -0.696862       -18.9626
  17   2.0000      -0.682366       -18.5681
  18   2.0000      -0.580845       -15.8056
  19   2.0000      -0.555448       -15.1145
  20   0.0000      -0.095961        -2.6112
  21   0.0000      -0.082703        -2.2505
  22   0.0000      -0.045223        -1.2306
  23   0.0000      -0.036570        -0.9951
  24   0.0000      -0.009014        -0.2453

MULLIKEN ATOMIC CHARGES
-----------------------
   0 C :    0.954018
   1 N :   -0.610380
   2 C :    1.231364
   3 N :   -0.069854
   4 N :   -0.109481
   5 H :   -0.013193
   6 H :   -0.028873
   7 H :   -0.165605
   8 H :    0.058384
   9 H :   -0.047242
  10 H :   -0.231904
  11 H :    0.023016
  12 H :    0.009750
Sum of atomic charges:    1.0000000

LOEWDIN ATOMIC CHARGES
----------------------
   0 C :    0.253134
   1 N :    0.005520
   2 C :   -0.024816
   3 N :    0.255980
   4 N :    0.275166
   5 H :    0.018077
   6 H :    0.038633
   7 H :    0.056981
   8 H :    0.036258
   9 H :    0.048849
  10 H :    0.017325
  11 H :    0.009842
  12 H :    0.009052

  Mayer bond orders larger than 0.100000
B(  0-C ,  1-N ) :   0.9295 B(  0-C ,  7-H ) :  -0.1112 B(  0-C , 10-H ) :   0.8913
B(  0-C , 11-H ) :   0.8369 B(  0-C , 12-H ) :   0.8237 B(  1-N ,  2-C ) :   1.0540
B(  1-N ,  3-N ) :   0.2277 B(  1-N ,  4-N ) :   0.1886 B(  1-N ,  7-H ) :   1.2767
B(  1-N , 10-H ) :   0.1655 B(  1-N , 11-H ) :   0.1415 B(  1-N , 12-H ) :   0.1542
B(  2-C ,  3-N ) :   0.9481 B(  2-C ,  4-N ) :   0.9863 B(  2-C ,  7-H ) :  -0.2061
B(  3-N ,  4-N ) :   0.1317 B(  3-N ,  8-H ) :   1.0430 B(  3-N ,  9-H ) :   1.1803
B(  4-N ,  5-H ) :   1.0502 B(  4-N ,  6-H ) :   1.1574 B(  5-H ,  6-H ) :  -0.1276
B(  8-H ,  9-H ) :  -0.1292

Dispersion correction           -0.002381218
FINAL SINGLE POINT ENERGY      -244.852251117544

DIPOLE MOMENT
-------------
                                X             Y             Z
Electronic contribution:     -0.68685      -2.29362       1.33966
Nuclear contribution   :      0.56176       1.95858      -1.15445
                        -----------------------------------------
Total Dipole Moment    :     -0.12509      -0.33504       0.18521
                        -----------------------------------------
Magnitude (a.u.)       :      0.40274
Magnitude (Debye)      :      1.02369

Rotational constants in cm-1:     0.309570     0.135399     0.096056
Rotational constants in MHz :  9280.673410  4059.171112  2879.675555

                             ****ORCA TERMINATED NORMALLY****
TOTAL RUN TIME: 0 days 0 hours 0 minutes 8 seconds 437 msec
