                         Program Version 5.0.0 -  RELEASE  -
|  1> !wB97X-D3 RIJCOSX def2-SVPD def2/J TightSCF xyzfile
|  2>
|  3> *xyzfile 0 1 B.xyz
|  4>
|  5> %MaxCore 64000
|  6>
|  7> %pal nprocs 18
|  8> end
|  9>
| 10> %scf
| 11>   MaxIter 150
| 12> end
| 13>
| 14>
| 15>                          ****END OF INPUT****

CARTESIAN COORDINATES (ANGSTROEM)
---------------------------------
  C      3.488276    1.600919   -1.522040
  C      4.342970    1.313419   -2.756826
  N      2.810285    0.428783   -1.014196
  H      5.132033    0.604994   -2.484466
  C      3.535896    0.749253   -3.924604
  H      4.841247    2.242136   -3.054083
  H      2.991617   -0.132199   -3.574137
  H      4.225505    0.392784   -4.695962
  C      2.564776    1.750890   -4.544523
  H      1.918749    2.171679   -3.769419
  C      1.686235    1.161657   -5.650111
  H      3.132494    2.594775   -4.951604
  C      0.839616   -0.037582   -5.220473
  H      2.323886    0.866395   -6.490796
  H      1.029518    1.951850   -6.029329
  C     -0.151019    0.254955   -4.094256
  H      1.499442   -0.857141   -4.922958
  H      0.290097   -0.410143   -6.091131
  H      0.328265    0.833022   -3.299125
  C     -0.721843   -0.999513   -3.439309
  H     -0.957367    0.884951   -4.485450
  H     -1.083403   -1.697555   -4.205656
  H     -1.581056   -0.723848   -2.820490
  C      0.287250   -1.711771   -2.527405
  H      1.131780   -2.067380   -3.159396
  H     -0.204137   -2.637326   -2.170480
  O      0.710505   -0.927506   -1.481767
  H      2.714548    2.331455   -1.760302
  H      4.090991    2.063151   -0.733382
  C      3.290978   -0.418021   -0.129083
  N      2.517536   -1.432017    0.239360
  N      4.535490   -0.284410    0.395800
  H      5.043627    0.571888    0.222899
  H      4.723346   -0.733273    1.281800
  H      1.934787    0.102305   -1.403788
  H      1.674638   -1.505616   -0.316095
  H      2.928503   -2.218502    0.725494

 Total Charge           Charge          ....    0
 Multiplicity           Mult            ....    1
 Number of Electrons    NEL             ....  112
 Basis Dimension        Dim             ....  467

ORBITAL ENERGIES
----------------

  NO   OCC          E(Eh)            E(eV)
   0   2.0000     -19.111600      -520.0531
   1   2.0000     -14.498703      -394.5298
   2   2.0000     -14.458423      -393.4337
   3   2.0000     -14.451770      -393.2527
   4   2.0000     -10.442403      -284.1522
   5   2.0000     -10.344558      -281.4897
   6   2.0000     -10.299605      -280.2665
   7   2.0000     -10.282510      -279.8013
   8   2.0000     -10.276931      -279.6495
   9   2.0000     -10.269999      -279.4609
  10   2.0000     -10.267820      -279.4016
  11   2.0000     -10.258123      -279.1377
  12   2.0000     -10.247279      -278.8426
  13   2.0000     -10.234697      -278.5003
  14   2.0000      -1.145869       -31.1807
  15   2.0000      -1.038524       -28.2597
  16   2.0000      -1.018933       -27.7266
  17   2.0000      -0.986092       -26.8329
  18   2.0000      -0.923856       -25.1394
  19   2.0000      -0.888906       -24.1884
  20   2.0000      -0.849623       -23.1194
  21   2.0000      -0.811242       -22.0750
  22   2.0000      -0.769009       -20.9258
  23   2.0000      -0.756400       -20.5827
  24   2.0000      -0.718455       -19.5501
  25   2.0000      -0.705850       -19.2071
  26   2.0000      -0.702210       -19.1081
  27   2.0000      -0.669844       -18.2274
  28   2.0000      -0.648607       -17.6495
  29   2.0000      -0.623747       -16.9730
  30   2.0000      -0.614223       -16.7139
  31   2.0000      -0.597474       -16.2581
  32   2.0000      -0.586390       -15.9565
  33   2.0000      -0.574594       -15.6355
  34   2.0000      -0.564254       -15.3541
  35   2.0000      -0.556883       -15.1535
  36   2.0000      -0.535764       -14.5789
  37   2.0000      -0.521529       -14.1915
  38   2.0000      -0.514011       -13.9869
  39   2.0000      -0.493028       -13.4160
  40   2.0000      -0.487752       -13.2724
  41   2.0000      -0.476607       -12.9691
  42   2.0000      -0.455944       -12.4069
  43   2.0000      -0.448847       -12.2138
  44   2.0000      -0.441607       -12.0167
  45   2.0000      -0.428700       -11.6655
  46   2.0000      -0.415747       -11.3130
  47   2.0000      -0.406684       -11.0664
  48   2.0000      -0.405242       -11.0272
  49   2.0000      -0.400617       -10.9013
  50   2.0000      -0.382101       -10.3975
  51   2.0000      -0.378510       -10.2998
  52   2.0000      -0.372481       -10.1357
  53   2.0000      -0.358349        -9.7512
  54   2.0000      -0.270566        -7.3625
  55   2.0000      -0.264151        -7.1879
  56   0.0000       0.063555         1.7294
  57   0.0000       0.082765         2.2521
  58   0.0000       0.095032         2.5860
  59   0.0000       0.107437         2.9235
  60   0.0000       0.108359         2.9486

MULLIKEN ATOMIC CHARGES
-----------------------
   0 C :    1.188386
   1 C :    0.270413
   2 N :    0.121711
   3 H :   -0.053676
   4 C :    0.296847
   5 H :   -0.086820
   6 H :   -0.333040
   7 H :   -0.125302
   8 C :   -0.098590
   9 H :    0.053260
  10 C :    0.602039
  11 H :   -0.207734
  12 C :   -0.018264
  13 H :   -0.024964
  14 H :   -0.115334
  15 C :    0.166260
  16 H :   -0.046732
  17 H :   -0.194169
  18 H :   -0.295917
  19 C :    0.248904
  20 H :   -0.101937
  21 H :   -0.046736
  22 H :   -0.023734
  23 C :    0.676156
  24 H :   -0.150318
  25 H :   -0.263967
  26 O :   -0.893135
  27 H :   -0.257407
  28 H :   -0.272835
  29 C :    1.192290
  30 N :    0.292356
  31 N :    0.076024
  32 H :   -0.063599
  33 H :   -0.137784
  34 H :   -0.983224
  35 H :   -0.233093
  36 H :   -0.156336
Sum of atomic charges:    0.0000000

LOEWDIN ATOMIC CHARGES
----------------------
   0 C :    0.076465
   1 C :   -0.018791
   2 N :    0.069064
   3 H :    0.017161
   4 C :   -0.025024
   5 H :    0.026043
   6 H :    0.006048
   7 H :    0.029990
   8 C :   -0.036139
   9 H :   -0.000867
  10 C :   -0.033476
  11 H :    0.023801
  12 C :   -0.036020
  13 H :    0.020752
  14 H :    0.022535
  15 C :   -0.032063
  16 H :   -0.003265
  17 H :    0.022993
  18 H :   -0.003809
  19 C :   -0.034125
  20 H :    0.021796
  21 H :    0.019691
  22 H :    0.021710
  23 C :   -0.065402
  24 H :   -0.001257
  25 H :    0.008715
  26 O :   -0.437933
  27 H :    0.024364
  28 H :    0.011855
  29 C :   -0.025214
  30 N :    0.264339
  31 N :    0.238832
  32 H :   -0.012643
  33 H :    0.013025
  34 H :   -0.091143
  35 H :   -0.102503
  36 H :    0.020496

  Mayer bond orders larger than 0.100000
B(  0-C ,  1-C ) :   1.0523 B(  0-C ,  2-N ) :   0.8171 B(  0-C , 27-H ) :   0.7068
B(  0-C , 28-H ) :   0.8049 B(  0-C , 34-H ) :  -0.5981 B(  1-C ,  3-H ) :   0.7653
B(  1-C ,  4-C ) :   1.2134 B(  1-C ,  5-H ) :   0.9231 B(  1-C , 27-H ) :   0.1119
B(  1-C , 28-H ) :   0.1277 B(  2-N , 27-H ) :   0.2034 B(  2-N , 29-C ) :   1.2329
B(  2-N , 31-N ) :   0.1817 B(  2-N , 34-H ) :   1.1206 B(  3-H ,  4-C ) :   0.1928
B(  4-C ,  6-H ) :   0.8403 B(  4-C ,  7-H ) :   0.7924 B(  4-C ,  8-C ) :   1.1742
B(  4-C , 11-H ) :   0.1651 B(  6-H ,  8-C ) :   0.1612 B(  7-H ,  8-C ) :   0.1452
B(  8-C ,  9-H ) :   0.8409 B(  8-C , 10-C ) :   1.1689 B(  8-C , 11-H ) :   0.9365
B(  8-C , 13-H ) :   0.1156 B(  8-C , 14-H ) :   0.2849 B( 10-C , 12-C ) :   1.1720
B( 10-C , 13-H ) :   0.7243 B( 10-C , 14-H ) :   0.6994 B( 12-C , 13-H ) :   0.2222
B( 12-C , 14-H ) :   0.1226 B( 12-C , 15-C ) :   1.1919 B( 12-C , 16-H ) :   0.8996
B( 12-C , 17-H ) :   0.8678 B( 12-C , 18-H ) :   0.1413 B( 12-C , 20-H ) :   0.1987
B( 13-H , 14-H ) :  -0.1139 B( 15-C , 17-H ) :   0.2486 B( 15-C , 18-H ) :   0.8815
B( 15-C , 19-C ) :   1.1889 B( 15-C , 20-H ) :   0.7959 B( 15-C , 21-H ) :   0.1105
B( 15-C , 22-H ) :   0.2110 B( 18-H , 19-C ) :   0.1541 B( 19-C , 21-H ) :   0.8074
B( 19-C , 22-H ) :   0.7385 B( 19-C , 23-C ) :   1.1255 B( 19-C , 24-H ) :   0.1115
B( 19-C , 25-H ) :   0.1205 B( 21-H , 23-C ) :   0.1508 B( 22-H , 23-C ) :   0.1548
B( 23-C , 24-H ) :   0.8708 B( 23-C , 25-H ) :   0.9384 B( 23-C , 26-O ) :   0.9296
B( 26-O , 34-H ) :   0.2342 B( 26-O , 35-H ) :   0.3110 B( 27-H , 28-H ) :  -0.1017
B( 27-H , 34-H ) :   0.1447 B( 29-C , 30-N ) :   0.9242 B( 29-C , 31-N ) :   0.9161
B( 29-C , 34-H ) :  -0.6890 B( 29-C , 35-H ) :  -0.1238 B( 30-N , 31-N ) :   0.1067
B( 30-N , 35-H ) :   0.9941 B( 30-N , 36-H ) :   1.2047 B( 31-N , 32-H ) :   1.0432
B( 31-N , 33-H ) :   1.1841 B( 32-H , 33-H ) :  -0.1444 B( 35-H , 36-H ) :  -0.1574

Dispersion correction           -0.017848657
FINAL SINGLE POINT ENERGY      -633.826737804962

DIPOLE MOMENT
-------------
                                X             Y             Z
Electronic contribution:      3.64533      -2.05463      11.34750
Nuclear contribution   :     -0.74583       2.62534      -9.91488
                        -----------------------------------------
Total Dipole Moment    :      2.89950       0.57072       1.43262
                        -----------------------------------------
Magnitude (a.u.)       :      3.28408
Magnitude (Debye)      :      8.34747

Rotational constants in cm-1:     0.027028     0.016098     0.010898
Rotational constants in MHz :   810.278072   482.590922   326.703462

                             ****ORCA TERMINATED NORMALLY****
TOTAL RUN TIME: 0 days 0 hours 1 minutes 59 seconds 924 msec
