                         Program Version 5.0.0 -  RELEASE  -
|  1> !wB97X-D3 RIJCOSX def2-SVPD def2/J TightSCF
|  2> *xyz 0 1
|  3> C          0.28725       -1.71177       -2.52740
|  4> F          0.71050       -0.92751       -1.48177
|  5> H          0.92384       -1.55316       -3.37267
|  6> H         -0.71828       -1.45137       -2.78433
|  7> H          0.32655       -2.74158       -2.23955
|  8> *
|  9> %MaxCore 64000
| 10>
| 11> %pal nprocs 18
| 12> end
| 13>
| 14> %scf
| 15>   MaxIter 150
| 16> end
| 17>
| 18>
| 19>                          ****END OF INPUT****

CARTESIAN COORDINATES (ANGSTROEM)
---------------------------------
  C      0.287250   -1.711770   -2.527400
  F      0.710500   -0.927510   -1.481770
  H      0.923840   -1.553160   -3.372670
  H     -0.718280   -1.451370   -2.784330
  H      0.326550   -2.741580   -2.239550

 Total Charge           Charge          ....    0
 Multiplicity           Mult            ....    1
 Number of Electrons    NEL             ....   18
 Basis Dimension        Dim             ....   67

ORBITAL ENERGIES
----------------

  NO   OCC          E(Eh)            E(eV)
   0   2.0000     -24.785828      -674.4567
   1   2.0000     -10.360959      -281.9360
   2   2.0000      -1.296114       -35.2691
   3   2.0000      -0.815486       -22.1905
   4   2.0000      -0.599201       -16.3051
   5   2.0000      -0.594382       -16.1739
   6   2.0000      -0.594364       -16.1735
   7   2.0000      -0.451086       -12.2747
   8   2.0000      -0.451058       -12.2739
   9   0.0000       0.095818         2.6073
  10   0.0000       0.145358         3.9554
  11   0.0000       0.178693         4.8625
  12   0.0000       0.178699         4.8626
  13   0.0000       0.217140         5.9087

MULLIKEN ATOMIC CHARGES
-----------------------
   0 C :    0.770803
   1 F :   -0.498821
   2 H :   -0.090289
   3 H :   -0.091364
   4 H :   -0.090330
Sum of atomic charges:   -0.0000000

LOEWDIN ATOMIC CHARGES
----------------------
   0 C :    0.270894
   1 F :   -0.259080
   2 H :   -0.003922
   3 H :   -0.003981
   4 H :   -0.003913

  Mayer bond orders larger than 0.100000
B(  0-C ,  1-F ) :   0.8258 B(  0-C ,  2-H ) :   0.9562 B(  0-C ,  3-H ) :   0.9563
B(  0-C ,  4-H ) :   0.9561

Dispersion correction           -0.000131477
FINAL SINGLE POINT ENERGY      -139.606950802682

DIPOLE MOMENT
-------------
                                X             Y             Z
Electronic contribution:      0.89905       1.66592       2.22105
Nuclear contribution   :     -1.12906      -2.09208      -2.78929
                        -----------------------------------------
Total Dipole Moment    :     -0.23001      -0.42616      -0.56824
                        -----------------------------------------
Magnitude (a.u.)       :      0.74660
Magnitude (Debye)      :      1.89771

Rotational constants in cm-1:     5.477712     0.869598     0.869597
Rotational constants in MHz : 164217.678885 26069.889584 26069.856821

                             ****ORCA TERMINATED NORMALLY****
TOTAL RUN TIME: 0 days 0 hours 0 minutes 2 seconds 836 msec
