                         Program Version 5.0.0 -  RELEASE  -
|  1> !wB97X-D3 RIJCOSX def2-SVPD def2/J TightSCF
|  2> *xyz 0 1
|  3> C          3.48828        1.60092       -1.52204
|  4> C          2.81029        0.42878       -1.01420
|  5> C          3.29098       -0.41802       -0.12908
|  6> N          2.51754       -1.43202        0.23936
|  7> N          4.53549       -0.28441        0.39580
|  8> H          5.04363        0.57189        0.22290
|  9> H          4.72335       -0.73327        1.28180
| 10> H          1.93479        0.10230       -1.40379
| 11> H          1.67464       -1.50562       -0.31610
| 12> H          2.92850       -2.21850        0.72549
| 13> H          2.85802        2.09943       -2.22855
| 14> H          4.39853        1.30677       -2.00144
| 15> H          3.70992        2.26379       -0.71187
| 16> *
| 17> %MaxCore 64000
| 18>
| 19> %pal nprocs 18
| 20> end
| 21>
| 22> %scf
| 23>   MaxIter 150
| 24> end
| 25>
| 26>
| 27>                          ****END OF INPUT****

CARTESIAN COORDINATES (ANGSTROEM)
---------------------------------
  C      3.488280    1.600920   -1.522040
  C      2.810290    0.428780   -1.014200
  C      3.290980   -0.418020   -0.129080
  N      2.517540   -1.432020    0.239360
  N      4.535490   -0.284410    0.395800
  H      5.043630    0.571890    0.222900
  H      4.723350   -0.733270    1.281800
  H      1.934790    0.102300   -1.403790
  H      1.674640   -1.505620   -0.316100
  H      2.928500   -2.218500    0.725490
  H      2.858020    2.099430   -2.228550
  H      4.398530    1.306770   -2.001440
  H      3.709920    2.263790   -0.711870

 Total Charge           Charge          ....    0
 Multiplicity           Mult            ....    1
 Number of Electrons    NEL             ....   40
 Basis Dimension        Dim             ....  164

ORBITAL ENERGIES
----------------

  NO   OCC          E(Eh)            E(eV)
   0   2.0000     -14.439321      -392.9139
   1   2.0000     -14.431863      -392.7109
   2   2.0000     -10.328635      -281.0564
   3   2.0000     -10.255663      -279.0708
   4   2.0000     -10.212234      -277.8890
   5   2.0000      -1.068397       -29.0726
   6   2.0000      -0.977355       -26.5952
   7   2.0000      -0.865824       -23.5603
   8   2.0000      -0.764404       -20.8005
   9   2.0000      -0.688967       -18.7478
  10   2.0000      -0.640149       -17.4193
  11   2.0000      -0.610896       -16.6233
  12   2.0000      -0.564179       -15.3521
  13   2.0000      -0.529550       -14.4098
  14   2.0000      -0.514200       -13.9921
  15   2.0000      -0.474062       -12.8999
  16   2.0000      -0.463612       -12.6155
  17   2.0000      -0.438124       -11.9220
  18   2.0000      -0.361774        -9.8444
  19   2.0000      -0.248010        -6.7487
  20   0.0000       0.090440         2.4610
  21   0.0000       0.116169         3.1611
  22   0.0000       0.127486         3.4691
  23   0.0000       0.150129         4.0852
  24   0.0000       0.159029         4.3274

MULLIKEN ATOMIC CHARGES
-----------------------
   0 C :    0.777921
   1 C :   -0.586177
   2 C :    0.610432
   3 N :    0.018298
   4 N :   -0.111486
   5 H :   -0.010544
   6 H :   -0.157374
   7 H :   -0.380858
   8 H :    0.062351
   9 H :   -0.161850
  10 H :   -0.034133
  11 H :   -0.018836
  12 H :   -0.007745
Sum of atomic charges:   -0.0000000

LOEWDIN ATOMIC CHARGES
----------------------
   0 C :    0.083033
   1 C :   -0.075224
   2 C :   -0.229994
   3 N :    0.163804
   4 N :    0.196531
   5 H :   -0.014454
   6 H :   -0.010820
   7 H :   -0.054541
   8 H :    0.001708
   9 H :   -0.003937
  10 H :   -0.015390
  11 H :   -0.019714
  12 H :   -0.021001

  Mayer bond orders larger than 0.100000
B(  0-C ,  1-C ) :   1.1787 B(  0-C ,  7-H ) :   0.1263 B(  0-C , 10-H ) :   0.7836
B(  0-C , 11-H ) :   0.7070 B(  0-C , 12-H ) :   0.6778 B(  1-C ,  2-C ) :   1.6362
B(  1-C ,  3-N ) :   0.2795 B(  1-C ,  4-N ) :   0.1840 B(  1-C ,  5-H ) :  -0.1169
B(  1-C ,  7-H ) :   1.0002 B(  1-C , 10-H ) :   0.2849 B(  1-C , 11-H ) :   0.2187
B(  1-C , 12-H ) :   0.2818 B(  2-C ,  3-N ) :   0.9775 B(  2-C ,  4-N ) :   0.9365
B(  2-C ,  7-H ) :   0.1820 B(  3-N ,  8-H ) :   1.0298 B(  3-N ,  9-H ) :   1.1460
B(  4-N ,  5-H ) :   1.0196 B(  4-N ,  6-H ) :   1.1855 B(  5-H ,  6-H ) :  -0.1103
B(  7-H , 10-H ) :  -0.1285 B(  8-H ,  9-H ) :  -0.1215

Dispersion correction           -0.002384138
FINAL SINGLE POINT ENERGY      -228.389364549778

DIPOLE MOMENT
-------------
                                X             Y             Z
Electronic contribution:     -0.23555      -2.55127       1.79522
Nuclear contribution   :      0.45569       2.05070      -1.27895
                        -----------------------------------------
Total Dipole Moment    :      0.22014      -0.50058       0.51627
                        -----------------------------------------
Magnitude (a.u.)       :      0.75205
Magnitude (Debye)      :      1.91155

Rotational constants in cm-1:     0.314404     0.136412     0.097030
Rotational constants in MHz :  9425.600285  4089.541372  2908.875289

                             ****ORCA TERMINATED NORMALLY****
TOTAL RUN TIME: 0 days 0 hours 0 minutes 8 seconds 166 msec
