                         Program Version 5.0.0 -  RELEASE  -
|  1> !wB97X-D3 RIJCOSX def2-SVPD def2/J TightSCF
|  2> *xyz 0 1
|  3> C          3.48828        1.60092       -1.52204
|  4> N          2.81029        0.42878       -1.01420
|  5> C          3.29098       -0.41802       -0.12908
|  6> C          2.51754       -1.43202        0.23936
|  7> N          4.53549       -0.28441        0.39580
|  8> H          5.04363        0.57189        0.22290
|  9> H          4.72335       -0.73327        1.28180
| 10> H          1.93479        0.10230       -1.40379
| 11> H          1.67464       -1.50562       -0.31610
| 12> H          2.92850       -2.21850        0.72549
| 13> H          2.85802        2.09943       -2.22855
| 14> H          4.39853        1.30677       -2.00144
| 15> H          3.70992        2.26379       -0.71187
| 16> *
| 17> %MaxCore 64000
| 18>
| 19> %pal nprocs 18
| 20> end
| 21>
| 22> %scf
| 23>   MaxIter 150
| 24> end
| 25>
| 26>
| 27>                          ****END OF INPUT****

CARTESIAN COORDINATES (ANGSTROEM)
---------------------------------
  C      3.488280    1.600920   -1.522040
  N      2.810290    0.428780   -1.014200
  C      3.290980   -0.418020   -0.129080
  C      2.517540   -1.432020    0.239360
  N      4.535490   -0.284410    0.395800
  H      5.043630    0.571890    0.222900
  H      4.723350   -0.733270    1.281800
  H      1.934790    0.102300   -1.403790
  H      1.674640   -1.505620   -0.316100
  H      2.928500   -2.218500    0.725490
  H      2.858020    2.099430   -2.228550
  H      4.398530    1.306770   -2.001440
  H      3.709920    2.263790   -0.711870

 Total Charge           Charge          ....    0
 Multiplicity           Mult            ....    1
 Number of Electrons    NEL             ....   40
 Basis Dimension        Dim             ....  164

ORBITAL ENERGIES
----------------

  NO   OCC          E(Eh)            E(eV)
   0   2.0000     -14.439152      -392.9093
   1   2.0000     -14.439115      -392.9083
   2   2.0000     -10.336116      -281.2600
   3   2.0000     -10.324795      -280.9520
   4   2.0000     -10.197082      -277.4767
   5   2.0000      -1.080309       -29.3967
   6   2.0000      -0.991104       -26.9693
   7   2.0000      -0.860520       -23.4159
   8   2.0000      -0.774140       -21.0654
   9   2.0000      -0.704224       -19.1629
  10   2.0000      -0.637742       -17.3538
  11   2.0000      -0.595224       -16.1969
  12   2.0000      -0.580184       -15.7876
  13   2.0000      -0.560047       -15.2396
  14   2.0000      -0.505490       -13.7551
  15   2.0000      -0.484565       -13.1857
  16   2.0000      -0.474717       -12.9177
  17   2.0000      -0.467168       -12.7123
  18   2.0000      -0.355409        -9.6712
  19   2.0000      -0.249146        -6.7796
  20   0.0000       0.082867         2.2549
  21   0.0000       0.118240         3.2175
  22   0.0000       0.124311         3.3827
  23   0.0000       0.146451         3.9851
  24   0.0000       0.155686         4.2364

MULLIKEN ATOMIC CHARGES
-----------------------
   0 C :    1.005494
   1 N :   -0.517704
   2 C :    0.566450
   3 C :    0.423580
   4 N :   -0.032280
   5 H :   -0.150689
   6 H :   -0.036060
   7 H :   -0.210162
   8 H :   -0.242089
   9 H :   -0.410364
  10 H :   -0.292929
  11 H :   -0.043087
  12 H :   -0.060159
Sum of atomic charges:    0.0000000

LOEWDIN ATOMIC CHARGES
----------------------
   0 C :    0.200350
   1 N :   -0.059844
   2 C :   -0.229031
   3 C :    0.125577
   4 N :    0.194024
   5 H :   -0.026441
   6 H :    0.005899
   7 H :    0.029226
   8 H :   -0.103376
   9 H :   -0.095632
  10 H :   -0.008736
  11 H :   -0.015693
  12 H :   -0.016321

  Mayer bond orders larger than 0.100000
B(  0-C ,  1-N ) :   0.9376 B(  0-C ,  7-H ) :  -0.1266 B(  0-C , 10-H ) :   0.8767
B(  0-C , 11-H ) :   0.8381 B(  0-C , 12-H ) :   0.8295 B(  1-N ,  2-C ) :   1.0894
B(  1-N ,  3-C ) :   0.2223 B(  1-N ,  4-N ) :   0.1087 B(  1-N ,  7-H ) :   1.2384
B(  1-N , 10-H ) :   0.1660 B(  1-N , 11-H ) :   0.1631 B(  1-N , 12-H ) :   0.1553
B(  2-C ,  3-C ) :   1.7137 B(  2-C ,  4-N ) :   0.9222 B(  2-C ,  7-H ) :  -0.1393
B(  2-C ,  8-H ) :   0.2121 B(  2-C ,  9-H ) :   0.1933 B(  3-C ,  4-N ) :   0.2175
B(  3-C ,  8-H ) :   0.8078 B(  3-C ,  9-H ) :   0.7669 B(  4-N ,  5-H ) :   1.0748
B(  4-N ,  6-H ) :   1.1172 B(  5-H ,  6-H ) :  -0.1216

Dispersion correction           -0.002394858
FINAL SINGLE POINT ENERGY      -228.374375169304

DIPOLE MOMENT
-------------
                                X             Y             Z
Electronic contribution:      0.10557      -0.71041       0.63325
Nuclear contribution   :      0.39640       1.67380      -1.02505
                        -----------------------------------------
Total Dipole Moment    :      0.50197       0.96340      -0.39179
                        -----------------------------------------
Magnitude (a.u.)       :      1.15482
Magnitude (Debye)      :      2.93532

Rotational constants in cm-1:     0.316500     0.141146     0.099607
Rotational constants in MHz :  9488.425850  4231.454938  2986.155520

                             ****ORCA TERMINATED NORMALLY****
TOTAL RUN TIME: 0 days 0 hours 0 minutes 8 seconds 885 msec
