                         Program Version 5.0.0 -  RELEASE  -
|  1> !wB97X-D3 RIJCOSX def2-SVPD def2/J TightSCF
|  2> *xyz 0 1
|  3> C          3.48828        1.60092       -1.52204
|  4> N          2.81029        0.42878       -1.01420
|  5> C          3.29098       -0.41802       -0.12908
|  6> N          2.51754       -1.43202        0.23936
|  7> C          4.53549       -0.28441        0.39580
|  8> H          5.04363        0.57189        0.22290
|  9> H          4.72335       -0.73327        1.28180
| 10> H          1.93479        0.10230       -1.40379
| 11> H          1.67464       -1.50562       -0.31610
| 12> H          2.92850       -2.21850        0.72549
| 13> H          2.85802        2.09943       -2.22855
| 14> H          4.39853        1.30677       -2.00144
| 15> H          3.70992        2.26379       -0.71187
| 16> *
| 17> %MaxCore 64000
| 18>
| 19> %pal nprocs 18
| 20> end
| 21>
| 22> %scf
| 23>   MaxIter 150
| 24> end
| 25>
| 26>
| 27>                          ****END OF INPUT****

CARTESIAN COORDINATES (ANGSTROEM)
---------------------------------
  C      3.488280    1.600920   -1.522040
  N      2.810290    0.428780   -1.014200
  C      3.290980   -0.418020   -0.129080
  N      2.517540   -1.432020    0.239360
  C      4.535490   -0.284410    0.395800
  H      5.043630    0.571890    0.222900
  H      4.723350   -0.733270    1.281800
  H      1.934790    0.102300   -1.403790
  H      1.674640   -1.505620   -0.316100
  H      2.928500   -2.218500    0.725490
  H      2.858020    2.099430   -2.228550
  H      4.398530    1.306770   -2.001440
  H      3.709920    2.263790   -0.711870

 Total Charge           Charge          ....    0
 Multiplicity           Mult            ....    1
 Number of Electrons    NEL             ....   40
 Basis Dimension        Dim             ....  164

ORBITAL ENERGIES
----------------

  NO   OCC          E(Eh)            E(eV)
   0   2.0000     -14.446848      -393.1187
   1   2.0000     -14.440237      -392.9388
   2   2.0000     -10.338955      -281.3373
   3   2.0000     -10.317908      -280.7645
   4   2.0000     -10.200608      -277.5726
   5   2.0000      -1.090014       -29.6608
   6   2.0000      -0.996230       -27.1088
   7   2.0000      -0.828879       -22.5549
   8   2.0000      -0.809468       -22.0267
   9   2.0000      -0.672828       -18.3086
  10   2.0000      -0.648090       -17.6354
  11   2.0000      -0.632780       -17.2188
  12   2.0000      -0.560191       -15.2436
  13   2.0000      -0.551477       -15.0064
  14   2.0000      -0.514468       -13.9994
  15   2.0000      -0.485459       -13.2100
  16   2.0000      -0.468528       -12.7493
  17   2.0000      -0.463449       -12.6111
  18   2.0000      -0.347271        -9.4497
  19   2.0000      -0.254944        -6.9374
  20   0.0000       0.085321         2.3217
  21   0.0000       0.107102         2.9144
  22   0.0000       0.125263         3.4086
  23   0.0000       0.149338         4.0637
  24   0.0000       0.160076         4.3559

MULLIKEN ATOMIC CHARGES
-----------------------
   0 C :    0.968063
   1 N :   -0.532583
   2 C :    0.447541
   3 N :   -0.004032
   4 C :    0.469419
   5 H :   -0.193735
   6 H :   -0.411836
   7 H :   -0.320746
   8 H :   -0.098522
   9 H :   -0.051534
  10 H :   -0.315949
  11 H :    0.027934
  12 H :    0.015979
Sum of atomic charges:    0.0000000

LOEWDIN ATOMIC CHARGES
----------------------
   0 C :    0.208005
   1 N :   -0.061093
   2 C :   -0.241412
   3 N :    0.177339
   4 C :    0.150671
   5 H :   -0.123964
   6 H :   -0.106366
   7 H :    0.017164
   8 H :   -0.010847
   9 H :    0.016221
  10 H :   -0.010342
  11 H :   -0.007991
  12 H :   -0.007385

  Mayer bond orders larger than 0.100000
B(  0-C ,  1-N ) :   0.9525 B(  0-C ,  7-H ) :  -0.1259 B(  0-C , 10-H ) :   0.8904
B(  0-C , 11-H ) :   0.8324 B(  0-C , 12-H ) :   0.8231 B(  1-N ,  2-C ) :   1.0398
B(  1-N ,  3-N ) :   0.1519 B(  1-N ,  4-C ) :   0.2981 B(  1-N ,  7-H ) :   1.3293
B(  1-N , 10-H ) :   0.1602 B(  1-N , 11-H ) :   0.1334 B(  1-N , 12-H ) :   0.1424
B(  2-C ,  3-N ) :   0.9140 B(  2-C ,  4-C ) :   1.8316 B(  2-C ,  5-H ) :   0.2953
B(  2-C ,  6-H ) :   0.2463 B(  2-C ,  7-H ) :  -0.2001 B(  3-N ,  4-C ) :   0.2384
B(  3-N ,  8-H ) :   1.0910 B(  3-N ,  9-H ) :   1.1498 B(  4-C ,  5-H ) :   0.7131
B(  4-C ,  6-H ) :   0.7601 B(  5-H ,  6-H ) :   0.1806 B(  8-H ,  9-H ) :  -0.1201

Dispersion correction           -0.002378018
FINAL SINGLE POINT ENERGY      -228.376403097285

DIPOLE MOMENT
-------------
                                X             Y             Z
Electronic contribution:     -1.85400      -1.94398       0.39359
Nuclear contribution   :      0.80512       1.90624      -0.99336
                        -----------------------------------------
Total Dipole Moment    :     -1.04887      -0.03774      -0.59977
                        -----------------------------------------
Magnitude (a.u.)       :      1.20884
Magnitude (Debye)      :      3.07262

Rotational constants in cm-1:     0.332728     0.136065     0.098521
Rotational constants in MHz :  9974.927067  4079.126590  2953.598000

                             ****ORCA TERMINATED NORMALLY****
TOTAL RUN TIME: 0 days 0 hours 0 minutes 8 seconds 174 msec
