                         Program Version 5.0.0 -  RELEASE  -
|  1> !CAM-B3LYP RIJCOSX def2-SVPD def2/J TightSCF
|  2> *xyz -1 1
|  3> C         -0.91495        0.61511        2.50554
|  4> C         -0.05915        1.50352        3.41058
|  5> H          0.36536        2.34431        2.86116
|  6> H         -0.69226        1.92021        4.19898
|  7> C          1.08303        0.74964        4.08571
|  8> O          2.22817        1.26348        4.01983
|  9> O          0.81003       -0.34541        4.63627
| 10> H         -0.30401        0.20228        1.73015
| 11> H         -1.69811        1.19946        2.06954
| 12> H         -1.34124       -0.17772        3.08397
| 13> *
| 14>
| 15> %MaxCore 64000
| 16>
| 17> %pal nprocs 4
| 18> end
| 19>
| 20> %scf
| 21>   MaxIter 150
| 22> end
| 23>
| 24>
| 25>                          ****END OF INPUT****

CARTESIAN COORDINATES (ANGSTROEM)
---------------------------------
  C     -0.914950    0.615110    2.505540
  C     -0.059150    1.503520    3.410580
  H      0.365360    2.344310    2.861160
  H     -0.692260    1.920210    4.198980
  C      1.083030    0.749640    4.085710
  O      2.228170    1.263480    4.019830
  O      0.810030   -0.345410    4.636270
  H     -0.304010    0.202280    1.730150
  H     -1.698110    1.199460    2.069540
  H     -1.341240   -0.177720    3.083970

 Total Charge           Charge          ....   -1
 Multiplicity           Mult            ....    1
 Number of Electrons    NEL             ....   40
 Basis Dimension        Dim             ....  146

ORBITAL ENERGIES
----------------

  NO   OCC          E(Eh)            E(eV)
   0   2.0000     -18.952627      -515.7272
   1   2.0000     -18.951997      -515.7100
   2   2.0000     -10.148051      -276.1425
   3   2.0000     -10.097126      -274.7568
   4   2.0000     -10.085889      -274.4510
   5   2.0000      -0.895325       -24.3630
   6   2.0000      -0.799693       -21.7608
   7   2.0000      -0.683593       -18.6015
   8   2.0000      -0.549448       -14.9513
   9   2.0000      -0.392422       -10.6783
  10   2.0000      -0.365616        -9.9489
  11   2.0000      -0.329841        -8.9754
  12   2.0000      -0.302246        -8.2245
  13   2.0000      -0.285215        -7.7611
  14   2.0000      -0.278347        -7.5742
  15   2.0000      -0.248372        -6.7585
  16   2.0000      -0.231103        -6.2886
  17   2.0000      -0.115252        -3.1362
  18   2.0000      -0.110593        -3.0094
  19   2.0000      -0.097676        -2.6579
  20   0.0000       0.182755         4.9730
  21   0.0000       0.216789         5.8991
  22   0.0000       0.230388         6.2692
  23   0.0000       0.248112         6.7515
  24   0.0000       0.275422         7.4946

MULLIKEN ATOMIC CHARGES
-----------------------
   0 C :    0.767000
   1 C :   -0.135720
   2 H :   -0.139273
   3 H :   -0.074028
   4 C :    0.368524
   5 O :   -0.670739
   6 O :   -0.701867
   7 H :   -0.147699
   8 H :   -0.163555
   9 H :   -0.102644
Sum of atomic charges:   -1.0000000

LOEWDIN ATOMIC CHARGES
----------------------
   0 C :    0.099675
   1 C :   -0.040117
   2 H :   -0.000390
   3 H :    0.010804
   4 C :   -0.315434
   5 O :   -0.333364
   6 O :   -0.324085
   7 H :   -0.023272
   8 H :   -0.044319
   9 H :   -0.029500

  Mayer bond orders larger than 0.100000
B(  0-C ,  1-C ) :   1.2553 B(  0-C ,  7-H ) :   0.8103 B(  0-C ,  8-H ) :   0.7925
B(  0-C ,  9-H ) :   0.7942 B(  1-C ,  2-H ) :   0.9449 B(  1-C ,  3-H ) :   0.8584
B(  1-C ,  4-C ) :   1.0210 B(  1-C ,  7-H ) :   0.1821 B(  1-C ,  8-H ) :   0.1935
B(  1-C ,  9-H ) :   0.2124 B(  2-H ,  4-C ) :   0.2082 B(  4-C ,  5-O ) :   1.4928
B(  4-C ,  6-O ) :   1.5137

FINAL SINGLE POINT ENERGY      -267.545569389686

DIPOLE MOMENT
-------------
                                X             Y             Z
Electronic contribution:      4.67070      -0.97729       3.32638
Nuclear contribution   :     -6.38408       1.63097      -4.40540
                        -----------------------------------------
Total Dipole Moment    :     -1.71338       0.65368      -1.07902
                        -----------------------------------------
Magnitude (a.u.)       :      2.12774
Magnitude (Debye)      :      5.40827

Rotational constants in cm-1:     0.319732     0.134414     0.104753
Rotational constants in MHz :  9585.336550  4029.633034  3140.404334

                             ****ORCA TERMINATED NORMALLY****
TOTAL RUN TIME: 0 days 0 hours 0 minutes 22 seconds 928 msec
