                         Program Version 5.0.0 -  RELEASE  -
|  1> !CAM-B3LYP RIJCOSX def2-SVPD def2/J TightSCF
|  2> *xyz 1 1
|  3> C          4.60295       -2.44010        2.63478
|  4> C          3.86085       -1.59157        3.62289
|  5> N          2.75650       -2.04616        4.16633
|  6> N          4.25433       -0.36291        3.86046
|  7> H          3.56526        0.31099        4.16898
|  8> H          5.05429       -0.01606        3.33784
|  9> H          2.43970       -2.97389        3.89740
| 10> H          2.06687       -1.41253        4.54981
| 11> C          3.74469       -2.58056        1.36188
| 12> H          5.56156       -1.97135        2.40708
| 13> H          4.81050       -3.42255        3.06310
| 14> H          4.26314       -3.18477        0.64702
| 15> H          3.56325       -1.61180        0.94535
| 16> H          2.81197       -3.04259        1.60980
| 17> *
| 18>
| 19> %MaxCore 64000
| 20>
| 21> %pal nprocs 4
| 22> end
| 23>
| 24> %scf
| 25>   MaxIter 150
| 26> end
| 27>
| 28>
| 29>                          ****END OF INPUT****

CARTESIAN COORDINATES (ANGSTROEM)
---------------------------------
  C      4.602950   -2.440100    2.634780
  C      3.860850   -1.591570    3.622890
  N      2.756500   -2.046160    4.166330
  N      4.254330   -0.362910    3.860460
  H      3.565260    0.310990    4.168980
  H      5.054290   -0.016060    3.337840
  H      2.439700   -2.973890    3.897400
  H      2.066870   -1.412530    4.549810
  C      3.744690   -2.580560    1.361880
  H      5.561560   -1.971350    2.407080
  H      4.810500   -3.422550    3.063100
  H      4.263140   -3.184770    0.647020
  H      3.563250   -1.611800    0.945350
  H      2.811970   -3.042590    1.609800

 Total Charge           Charge          ....    1
 Multiplicity           Mult            ....    1
 Number of Electrons    NEL             ....   40
 Basis Dimension        Dim             ....  172

ORBITAL ENERGIES
----------------

  NO   OCC          E(Eh)            E(eV)
   0   2.0000     -14.653497      -398.7419
   1   2.0000     -14.652595      -398.7174
   2   2.0000     -10.587093      -288.0894
   3   2.0000     -10.462190      -284.6907
   4   2.0000     -10.421774      -283.5909
   5   2.0000      -1.287327       -35.0300
   6   2.0000      -1.186523       -32.2869
   7   2.0000      -1.050633       -28.5892
   8   2.0000      -0.936441       -25.4819
   9   2.0000      -0.892845       -24.2955
  10   2.0000      -0.848682       -23.0938
  11   2.0000      -0.826645       -22.4941
  12   2.0000      -0.770099       -20.9554
  13   2.0000      -0.738521       -20.0962
  14   2.0000      -0.697783       -18.9877
  15   2.0000      -0.673630       -18.3304
  16   2.0000      -0.618140       -16.8205
  17   2.0000      -0.611985       -16.6530
  18   2.0000      -0.598925       -16.2976
  19   2.0000      -0.562591       -15.3089
  20   0.0000      -0.171641        -4.6706
  21   0.0000      -0.126221        -3.4347
  22   0.0000      -0.083738        -2.2786
  23   0.0000      -0.080835        -2.1996
  24   0.0000      -0.055371        -1.5067

MULLIKEN ATOMIC CHARGES
-----------------------
   0 C :   -0.040188
   1 C :    0.348842
   2 N :    0.238285
   3 N :    0.149272
   4 H :   -0.096401
   5 H :    0.049043
   6 H :    0.042043
   7 H :   -0.163728
   8 C :    0.846914
   9 H :   -0.067456
  10 H :   -0.012108
  11 H :   -0.073687
  12 H :   -0.101315
  13 H :   -0.119515
Sum of atomic charges:    1.0000000

LOEWDIN ATOMIC CHARGES
----------------------
   0 C :    0.020157
   1 C :   -0.057982
   2 N :    0.287598
   3 N :    0.286689
   4 H :    0.049799
   5 H :    0.053161
   6 H :    0.052257
   7 H :    0.051741
   8 C :    0.173508
   9 H :    0.037944
  10 H :    0.050395
  11 H :    0.008956
  12 H :    0.000413
  13 H :   -0.014635

  Mayer bond orders larger than 0.100000
B(  0-C ,  1-C ) :   1.2439 B(  0-C ,  8-C ) :   1.2384 B(  0-C ,  9-H ) :   0.8720
B(  0-C , 10-H ) :   0.8115 B(  0-C , 11-H ) :   0.1635 B(  0-C , 12-H ) :   0.1599
B(  0-C , 13-H ) :   0.1937 B(  1-C ,  2-N ) :   1.1974 B(  1-C ,  3-N ) :   1.1483
B(  1-C ,  4-H ) :  -0.1144 B(  1-C ,  7-H ) :  -0.1228 B(  1-C ,  9-H ) :   0.1866
B(  1-C , 10-H ) :   0.1770 B(  2-N ,  3-N ) :   0.1525 B(  2-N ,  6-H ) :   1.0268
B(  2-N ,  7-H ) :   1.2526 B(  3-N ,  4-H ) :   1.2090 B(  3-N ,  5-H ) :   1.0216
B(  4-H ,  5-H ) :  -0.1414 B(  6-H ,  7-H ) :  -0.1592 B(  8-C , 11-H ) :   0.8379
B(  8-C , 12-H ) :   0.8050 B(  8-C , 13-H ) :   0.7682

FINAL SINGLE POINT ENERGY      -228.751296876600

DIPOLE MOMENT
-------------
                                X             Y             Z
Electronic contribution:     -0.23695       1.79096       3.73584
Nuclear contribution   :     -0.22400      -1.16268      -3.30447
                        -----------------------------------------
Total Dipole Moment    :     -0.46095       0.62828       0.43137
                        -----------------------------------------
Magnitude (a.u.)       :      0.89067
Magnitude (Debye)      :      2.26390

Rotational constants in cm-1:     0.258103     0.130571     0.102508
Rotational constants in MHz :  7737.732062  3914.431392  3073.119154

                             ****ORCA TERMINATED NORMALLY****
TOTAL RUN TIME: 0 days 0 hours 0 minutes 31 seconds 65 msec
