                         Program Version 5.0.0 -  RELEASE  -
|  1> !CAM-B3LYP RIJCOSX def2-SVPD def2/J TightSCF
|  2> *xyz 0 1
|  3> C         -0.91495        0.61511        2.50554
|  4> C         -0.05915        1.50352        3.41058
|  5> H          0.36536        2.34431        2.86116
|  6> H         -0.69226        1.92021        4.19898
|  7> C          1.08303        0.74964        4.08571
|  8> F          2.22817        1.26348        4.01983
|  9> O          0.81003       -0.34541        4.63627
| 10> H         -0.30401        0.20228        1.73015
| 11> H         -1.69811        1.19946        2.06954
| 12> H         -1.34124       -0.17772        3.08397
| 13> *
| 14>
| 15> %MaxCore 64000
| 16>
| 17> %pal nprocs 4
| 18> end
| 19>
| 20> %scf
| 21>   MaxIter 150
| 22> end
| 23>
| 24>
| 25>                          ****END OF INPUT****

CARTESIAN COORDINATES (ANGSTROEM)
---------------------------------
  C     -0.914950    0.615110    2.505540
  C     -0.059150    1.503520    3.410580
  H      0.365360    2.344310    2.861160
  H     -0.692260    1.920210    4.198980
  C      1.083030    0.749640    4.085710
  F      2.228170    1.263480    4.019830
  O      0.810030   -0.345410    4.636270
  H     -0.304010    0.202280    1.730150
  H     -1.698110    1.199460    2.069540
  H     -1.341240   -0.177720    3.083970

 Total Charge           Charge          ....    0
 Multiplicity           Mult            ....    1
 Number of Electrons    NEL             ....   40
 Basis Dimension        Dim             ....  146

ORBITAL ENERGIES
----------------

  NO   OCC          E(Eh)            E(eV)
   0   2.0000     -24.848109      -676.1514
   1   2.0000     -19.227265      -523.2005
   2   2.0000     -10.447932      -284.3027
   3   2.0000     -10.294409      -280.1251
   4   2.0000     -10.265029      -279.3256
   5   2.0000      -1.391561       -37.8663
   6   2.0000      -1.111012       -30.2322
   7   2.0000      -0.880775       -23.9671
   8   2.0000      -0.768589       -20.9144
   9   2.0000      -0.716617       -19.5001
  10   2.0000      -0.630500       -17.1568
  11   2.0000      -0.614727       -16.7276
  12   2.0000      -0.583925       -15.8894
  13   2.0000      -0.539928       -14.6922
  14   2.0000      -0.508505       -13.8371
  15   2.0000      -0.469917       -12.7871
  16   2.0000      -0.449431       -12.2297
  17   2.0000      -0.444677       -12.1003
  18   2.0000      -0.418559       -11.3896
  19   2.0000      -0.367806       -10.0085
  20   0.0000       0.012880         0.3505
  21   0.0000       0.043892         1.1944
  22   0.0000       0.072381         1.9696
  23   0.0000       0.084408         2.2968
  24   0.0000       0.104144         2.8339

MULLIKEN ATOMIC CHARGES
-----------------------
   0 C :    0.785247
   1 C :   -0.195563
   2 H :   -0.102362
   3 H :   -0.000056
   4 C :    0.655689
   5 F :   -0.348497
   6 O :   -0.461843
   7 H :   -0.121358
   8 H :   -0.125177
   9 H :   -0.086080
Sum of atomic charges:    0.0000000

LOEWDIN ATOMIC CHARGES
----------------------
   0 C :    0.141866
   1 C :    0.003532
   2 H :    0.023069
   3 H :    0.041994
   4 C :   -0.015710
   5 F :   -0.033071
   6 O :   -0.130728
   7 H :   -0.008262
   8 H :   -0.012922
   9 H :   -0.009768

  Mayer bond orders larger than 0.100000
B(  0-C ,  1-C ) :   1.3033 B(  0-C ,  7-H ) :   0.8099 B(  0-C ,  8-H ) :   0.7977
B(  0-C ,  9-H ) :   0.7947 B(  1-C ,  2-H ) :   0.9441 B(  1-C ,  3-H ) :   0.8496
B(  1-C ,  4-C ) :   1.0847 B(  1-C ,  7-H ) :   0.1734 B(  1-C ,  8-H ) :   0.1852
B(  1-C ,  9-H ) :   0.1941 B(  2-H ,  4-C ) :   0.1148 B(  4-C ,  5-F ) :   0.7868
B(  4-C ,  6-O ) :   1.8614

FINAL SINGLE POINT ENERGY      -292.079191420176

DIPOLE MOMENT
-------------
                                X             Y             Z
Electronic contribution:      7.70684      -0.14043       4.07325
Nuclear contribution   :     -8.12386       1.06915      -4.71960
                        -----------------------------------------
Total Dipole Moment    :     -0.41702       0.92871      -0.64634
                        -----------------------------------------
Magnitude (a.u.)       :      1.20589
Magnitude (Debye)      :      3.06513

Rotational constants in cm-1:     0.309513     0.127560     0.099675
Rotational constants in MHz :  9278.979128  3824.146597  2988.174827

                             ****ORCA TERMINATED NORMALLY****
TOTAL RUN TIME: 0 days 0 hours 0 minutes 23 seconds 632 msec
