                         Program Version 5.0.0 -  RELEASE  -
|  1> !CAM-B3LYP RIJCOSX def2-SVPD def2/J TightSCF
|  2> *xyz 0 1
|  3> C          4.60295       -2.44010        2.63478
|  4> C          3.86085       -1.59157        3.62289
|  5> C          2.75650       -2.04616        4.16633
|  6> N          4.25433       -0.36291        3.86046
|  7> H          3.56526        0.31099        4.16898
|  8> H          5.05429       -0.01606        3.33784
|  9> H          2.43970       -2.97389        3.89740
| 10> H          2.06687       -1.41253        4.54981
| 11> C          3.74469       -2.58056        1.36188
| 12> H          5.56156       -1.97135        2.40708
| 13> H          4.81050       -3.42255        3.06310
| 14> H          4.26314       -3.18477        0.64702
| 15> H          3.56325       -1.61180        0.94535
| 16> H          2.81197       -3.04259        1.60980
| 17> *
| 18>
| 19> %MaxCore 64000
| 20>
| 21> %pal nprocs 4
| 22> end
| 23>
| 24> %scf
| 25>   MaxIter 150
| 26> end
| 27>
| 28>
| 29>                          ****END OF INPUT****

CARTESIAN COORDINATES (ANGSTROEM)
---------------------------------
  C      4.602950   -2.440100    2.634780
  C      3.860850   -1.591570    3.622890
  C      2.756500   -2.046160    4.166330
  N      4.254330   -0.362910    3.860460
  H      3.565260    0.310990    4.168980
  H      5.054290   -0.016060    3.337840
  H      2.439700   -2.973890    3.897400
  H      2.066870   -1.412530    4.549810
  C      3.744690   -2.580560    1.361880
  H      5.561560   -1.971350    2.407080
  H      4.810500   -3.422550    3.063100
  H      4.263140   -3.184770    0.647020
  H      3.563250   -1.611800    0.945350
  H      2.811970   -3.042590    1.609800

 Total Charge           Charge          ....    0
 Multiplicity           Mult            ....    1
 Number of Electrons    NEL             ....   40
 Basis Dimension        Dim             ....  172

ORBITAL ENERGIES
----------------

  NO   OCC          E(Eh)            E(eV)
   0   2.0000     -14.406921      -392.0322
   1   2.0000     -10.278739      -279.6987
   2   2.0000     -10.261433      -279.2278
   3   2.0000     -10.245533      -278.7951
   4   2.0000     -10.188658      -277.2475
   5   2.0000      -1.009794       -27.4779
   6   2.0000      -0.859367       -23.3846
   7   2.0000      -0.787870       -21.4390
   8   2.0000      -0.714569       -19.4444
   9   2.0000      -0.635446       -17.2914
  10   2.0000      -0.596405       -16.2290
  11   2.0000      -0.554557       -15.0903
  12   2.0000      -0.519515       -14.1367
  13   2.0000      -0.483334       -13.1522
  14   2.0000      -0.457890       -12.4598
  15   2.0000      -0.446263       -12.1434
  16   2.0000      -0.419946       -11.4273
  17   2.0000      -0.409796       -11.1511
  18   2.0000      -0.396500       -10.7893
  19   2.0000      -0.250121        -6.8062
  20   0.0000       0.048200         1.3116
  21   0.0000       0.072214         1.9650
  22   0.0000       0.081124         2.2075
  23   0.0000       0.091178         2.4811
  24   0.0000       0.099519         2.7080

MULLIKEN ATOMIC CHARGES
-----------------------
   0 C :    0.117635
   1 C :   -0.211863
   2 C :    0.511678
   3 N :    0.248292
   4 H :   -0.125648
   5 H :   -0.088103
   6 H :   -0.196668
   7 H :   -0.504947
   8 C :    0.832269
   9 H :   -0.149552
  10 H :   -0.034790
  11 H :   -0.089399
  12 H :   -0.147705
  13 H :   -0.161200
Sum of atomic charges:    0.0000000

LOEWDIN ATOMIC CHARGES
----------------------
   0 C :   -0.022259
   1 C :   -0.270484
   2 C :    0.167622
   3 N :    0.171097
   4 H :    0.008251
   5 H :   -0.002109
   6 H :   -0.079984
   7 H :   -0.083932
   8 C :    0.136253
   9 H :    0.010124
  10 H :    0.027152
  11 H :   -0.021828
  12 H :   -0.014492
  13 H :   -0.025411

  Mayer bond orders larger than 0.100000
B(  0-C ,  1-C ) :   1.2207 B(  0-C ,  2-C ) :   0.1174 B(  0-C ,  8-C ) :   1.2562
B(  0-C ,  9-H ) :   0.7632 B(  0-C , 10-H ) :   0.7976 B(  0-C , 11-H ) :   0.1786
B(  0-C , 12-H ) :   0.1851 B(  0-C , 13-H ) :   0.1987 B(  1-C ,  2-C ) :   1.8438
B(  1-C ,  3-N ) :   1.1158 B(  1-C ,  6-H ) :   0.1325 B(  1-C ,  7-H ) :   0.1433
B(  1-C ,  9-H ) :   0.2209 B(  1-C , 10-H ) :   0.2112 B(  2-C ,  3-N ) :   0.2609
B(  2-C ,  6-H ) :   0.6977 B(  2-C ,  7-H ) :   0.7890 B(  3-N ,  4-H ) :   1.1163
B(  3-N ,  5-H ) :   1.0169 B(  4-H ,  5-H ) :  -0.1280 B(  8-C ,  9-H ) :   0.1065
B(  8-C , 11-H ) :   0.7834 B(  8-C , 12-H ) :   0.7994 B(  8-C , 13-H ) :   0.8191

FINAL SINGLE POINT ENERGY      -212.290910183073

DIPOLE MOMENT
-------------
                                X             Y             Z
Electronic contribution:      0.80213       1.76835       2.54376
Nuclear contribution   :     -0.47010      -1.22282      -3.06417
                        -----------------------------------------
Total Dipole Moment    :      0.33202       0.54553      -0.52041
                        -----------------------------------------
Magnitude (a.u.)       :      0.82381
Magnitude (Debye)      :      2.09397

Rotational constants in cm-1:     0.271862     0.131962     0.105499
Rotational constants in MHz :  8150.219120  3956.123671  3162.785522

                             ****ORCA TERMINATED NORMALLY****
TOTAL RUN TIME: 0 days 0 hours 0 minutes 30 seconds 427 msec
