                         Program Version 5.0.0 -  RELEASE  -
|  1> !CAM-B3LYP RIJCOSX def2-SVPD def2/J TightSCF
|  2> *xyz 0 1
|  3> C         -0.91495        0.61511        2.50554
|  4> C         -0.05915        1.50352        3.41058
|  5> H          0.36536        2.34431        2.86116
|  6> H         -0.69226        1.92021        4.19898
|  7> C          1.08303        0.74964        4.08571
|  8> O          2.22817        1.26348        4.01983
|  9> F          0.81003       -0.34541        4.63627
| 10> H         -0.30401        0.20228        1.73015
| 11> H         -1.69811        1.19946        2.06954
| 12> H         -1.34124       -0.17772        3.08397
| 13> *
| 14>
| 15> %MaxCore 64000
| 16>
| 17> %pal nprocs 4
| 18> end
| 19>
| 20> %scf
| 21>   MaxIter 150
| 22> end
| 23>
| 24>
| 25>                          ****END OF INPUT****

CARTESIAN COORDINATES (ANGSTROEM)
---------------------------------
  C     -0.914950    0.615110    2.505540
  C     -0.059150    1.503520    3.410580
  H      0.365360    2.344310    2.861160
  H     -0.692260    1.920210    4.198980
  C      1.083030    0.749640    4.085710
  O      2.228170    1.263480    4.019830
  F      0.810030   -0.345410    4.636270
  H     -0.304010    0.202280    1.730150
  H     -1.698110    1.199460    2.069540
  H     -1.341240   -0.177720    3.083970

 Total Charge           Charge          ....    0
 Multiplicity           Mult            ....    1
 Number of Electrons    NEL             ....   40
 Basis Dimension        Dim             ....  146

ORBITAL ENERGIES
----------------

  NO   OCC          E(Eh)            E(eV)
   0   2.0000     -24.849466      -676.1884
   1   2.0000     -19.226167      -523.1706
   2   2.0000     -10.447317      -284.2859
   3   2.0000     -10.293858      -280.1101
   4   2.0000     -10.270703      -279.4800
   5   2.0000      -1.393208       -37.9111
   6   2.0000      -1.109075       -30.1795
   7   2.0000      -0.885133       -24.0857
   8   2.0000      -0.764320       -20.7982
   9   2.0000      -0.723560       -19.6891
  10   2.0000      -0.633065       -17.2266
  11   2.0000      -0.622353       -16.9351
  12   2.0000      -0.574551       -15.6343
  13   2.0000      -0.540879       -14.7181
  14   2.0000      -0.508580       -13.8392
  15   2.0000      -0.475671       -12.9437
  16   2.0000      -0.456889       -12.4326
  17   2.0000      -0.448123       -12.1940
  18   2.0000      -0.420555       -11.4439
  19   2.0000      -0.362365        -9.8605
  20   0.0000       0.015533         0.4227
  21   0.0000       0.041630         1.1328
  22   0.0000       0.074001         2.0137
  23   0.0000       0.082416         2.2427
  24   0.0000       0.104249         2.8368

MULLIKEN ATOMIC CHARGES
-----------------------
   0 C :    0.784493
   1 C :   -0.171724
   2 H :   -0.115549
   3 H :   -0.013706
   4 C :    0.668417
   5 O :   -0.433772
   6 F :   -0.372958
   7 H :   -0.123369
   8 H :   -0.122584
   9 H :   -0.099248
Sum of atomic charges:   -0.0000000

LOEWDIN ATOMIC CHARGES
----------------------
   0 C :    0.135006
   1 C :    0.009089
   2 H :    0.034554
   3 H :    0.039089
   4 C :   -0.019685
   5 O :   -0.134527
   6 F :   -0.028363
   7 H :   -0.008154
   8 H :   -0.012401
   9 H :   -0.014608

  Mayer bond orders larger than 0.100000
B(  0-C ,  1-C ) :   1.2736 B(  0-C ,  7-H ) :   0.8190 B(  0-C ,  8-H ) :   0.8055
B(  0-C ,  9-H ) :   0.7865 B(  1-C ,  2-H ) :   0.9699 B(  1-C ,  3-H ) :   0.8495
B(  1-C ,  4-C ) :   1.0521 B(  1-C ,  7-H ) :   0.1678 B(  1-C ,  8-H ) :   0.1865
B(  1-C ,  9-H ) :   0.1846 B(  2-H ,  4-C ) :   0.1509 B(  4-C ,  5-O ) :   1.8581
B(  4-C ,  6-F ) :   0.7611 B(  5-O ,  6-F ) :   0.1076

FINAL SINGLE POINT ENERGY      -292.078235316507

DIPOLE MOMENT
-------------
                                X             Y             Z
Electronic contribution:      5.30749      -2.82689       5.08923
Nuclear contribution   :     -6.57765       2.82334      -5.39171
                        -----------------------------------------
Total Dipole Moment    :     -1.27015      -0.00355      -0.30248
                        -----------------------------------------
Magnitude (a.u.)       :      1.30568
Magnitude (Debye)      :      3.31877

Rotational constants in cm-1:     0.294245     0.132994     0.101060
Rotational constants in MHz :  8821.228602  3987.049251  3029.696815

                             ****ORCA TERMINATED NORMALLY****
TOTAL RUN TIME: 0 days 0 hours 0 minutes 25 seconds 433 msec
