                         Program Version 5.0.0 -  RELEASE  -
|  1> !CAM-B3LYP RIJCOSX def2-SVPD def2/J TightSCF
|  2> *xyz 0 1
|  3> C          4.60295       -2.44010        2.63478
|  4> C          3.86085       -1.59157        3.62289
|  5> N          2.75650       -2.04616        4.16633
|  6> C          4.25433       -0.36291        3.86046
|  7> H          3.56526        0.31099        4.16898
|  8> H          5.05429       -0.01606        3.33784
|  9> H          2.43970       -2.97389        3.89740
| 10> H          2.06687       -1.41253        4.54981
| 11> C          3.74469       -2.58056        1.36188
| 12> H          5.56156       -1.97135        2.40708
| 13> H          4.81050       -3.42255        3.06310
| 14> H          4.26314       -3.18477        0.64702
| 15> H          3.56325       -1.61180        0.94535
| 16> H          2.81197       -3.04259        1.60980
| 17> *
| 18>
| 19> %MaxCore 64000
| 20>
| 21> %pal nprocs 4
| 22> end
| 23>
| 24> %scf
| 25>   MaxIter 150
| 26> end
| 27>
| 28>
| 29>                          ****END OF INPUT****

CARTESIAN COORDINATES (ANGSTROEM)
---------------------------------
  C      4.602950   -2.440100    2.634780
  C      3.860850   -1.591570    3.622890
  N      2.756500   -2.046160    4.166330
  C      4.254330   -0.362910    3.860460
  H      3.565260    0.310990    4.168980
  H      5.054290   -0.016060    3.337840
  H      2.439700   -2.973890    3.897400
  H      2.066870   -1.412530    4.549810
  C      3.744690   -2.580560    1.361880
  H      5.561560   -1.971350    2.407080
  H      4.810500   -3.422550    3.063100
  H      4.263140   -3.184770    0.647020
  H      3.563250   -1.611800    0.945350
  H      2.811970   -3.042590    1.609800

 Total Charge           Charge          ....    0
 Multiplicity           Mult            ....    1
 Number of Electrons    NEL             ....   40
 Basis Dimension        Dim             ....  172

ORBITAL ENERGIES
----------------

  NO   OCC          E(Eh)            E(eV)
   0   2.0000     -14.406830      -392.0298
   1   2.0000     -10.279668      -279.7240
   2   2.0000     -10.260933      -279.2142
   3   2.0000     -10.249271      -278.8969
   4   2.0000     -10.189849      -277.2799
   5   2.0000      -1.009556       -27.4714
   6   2.0000      -0.857282       -23.3278
   7   2.0000      -0.796197       -21.6656
   8   2.0000      -0.709708       -19.3121
   9   2.0000      -0.642579       -17.4855
  10   2.0000      -0.597928       -16.2704
  11   2.0000      -0.549642       -14.9565
  12   2.0000      -0.509741       -13.8707
  13   2.0000      -0.500420       -13.6171
  14   2.0000      -0.457815       -12.4578
  15   2.0000      -0.448821       -12.2130
  16   2.0000      -0.423647       -11.5280
  17   2.0000      -0.407585       -11.0909
  18   2.0000      -0.392386       -10.6774
  19   2.0000      -0.252636        -6.8746
  20   0.0000       0.046228         1.2579
  21   0.0000       0.074385         2.0241
  22   0.0000       0.085165         2.3175
  23   0.0000       0.088433         2.4064
  24   0.0000       0.098261         2.6738

MULLIKEN ATOMIC CHARGES
-----------------------
   0 C :   -0.021892
   1 C :   -0.300572
   2 N :    0.373445
   3 C :    0.509731
   4 H :   -0.434174
   5 H :   -0.156247
   6 H :   -0.111306
   7 H :   -0.220411
   8 C :    0.896842
   9 H :   -0.014501
  10 H :   -0.106829
  11 H :   -0.159276
  12 H :   -0.123895
  13 H :   -0.130917
Sum of atomic charges:    0.0000000

LOEWDIN ATOMIC CHARGES
----------------------
   0 C :   -0.023414
   1 C :   -0.275455
   2 N :    0.174286
   3 C :    0.169528
   4 H :   -0.084918
   5 H :   -0.083887
   6 H :   -0.000019
   7 H :    0.010112
   8 C :    0.135756
   9 H :    0.022009
  10 H :    0.019450
  11 H :   -0.020414
  12 H :   -0.011738
  13 H :   -0.031297

  Mayer bond orders larger than 0.100000
B(  0-C ,  1-C ) :   1.3263 B(  0-C ,  3-C ) :   0.1091 B(  0-C ,  8-C ) :   1.2235
B(  0-C ,  9-H ) :   0.8681 B(  0-C , 10-H ) :   0.7990 B(  0-C , 11-H ) :   0.2183
B(  0-C , 12-H ) :   0.1700 B(  0-C , 13-H ) :   0.2255 B(  1-C ,  2-N ) :   1.1613
B(  1-C ,  3-C ) :   1.9676 B(  1-C ,  4-H ) :   0.2543 B(  1-C ,  5-H ) :   0.1361
B(  1-C ,  9-H ) :   0.2137 B(  1-C , 10-H ) :   0.2085 B(  2-N ,  3-C ) :   0.2488
B(  2-N ,  6-H ) :   1.0437 B(  2-N ,  7-H ) :   1.1496 B(  3-C ,  4-H ) :   0.6848
B(  3-C ,  5-H ) :   0.8554 B(  4-H ,  5-H ) :   0.1032 B(  6-H ,  7-H ) :  -0.1284
B(  8-C ,  9-H ) :   0.1099 B(  8-C , 11-H ) :   0.8003 B(  8-C , 12-H ) :   0.8091
B(  8-C , 13-H ) :   0.7559

FINAL SINGLE POINT ENERGY      -212.291647784845

DIPOLE MOMENT
-------------
                                X             Y             Z
Electronic contribution:     -0.48549       0.31397       2.81824
Nuclear contribution   :     -0.12319      -0.83296      -3.13501
                        -----------------------------------------
Total Dipole Moment    :     -0.60868      -0.51899      -0.31677
                        -----------------------------------------
Magnitude (a.u.)       :      0.86034
Magnitude (Debye)      :      2.18681

Rotational constants in cm-1:     0.266453     0.134423     0.106086
Rotational constants in MHz :  7988.053142  4029.892766  3180.375228

                             ****ORCA TERMINATED NORMALLY****
TOTAL RUN TIME: 0 days 0 hours 0 minutes 29 seconds 274 msec
