                         Program Version 5.0.0 -  RELEASE  -
|  1> !CAM-B3LYP RIJCOSX def2-SVPD def2/J TightSCF xyzfile
|  2>
|  3> *xyzfile 0 1 D1.xyz
|  4>
|  5> %MaxCore 64000
|  6>
|  7> %pal nprocs 4
|  8> end
|  9>
| 10> %scf
| 11>   MaxIter 150
| 12> end
| 13>
| 14>
| 15>                          ****END OF INPUT****

CARTESIAN COORDINATES (ANGSTROEM)
---------------------------------
  C      4.602954   -2.440100    2.634780
  C     -0.914947    0.615112    2.505538
  C     -0.059146    1.503524    3.410578
  H      0.365364    2.344315    2.861161
  H     -0.692261    1.920207    4.198985
  C      1.083027    0.749640    4.085705
  C      3.860851   -1.591565    3.622893
  C      2.756502   -2.046159    4.166333
  N      4.254325   -0.362905    3.860455
  H      3.565256    0.310994    4.168983
  H      5.054292   -0.016059    3.337838
  H      2.439696   -2.973894    3.897395
  H      2.066869   -1.412532    4.549813
  F      2.228167    1.263475    4.019826
  O      0.810034   -0.345411    4.636269
  C      3.744685   -2.580557    1.361882
  C      0.772139    0.636882    0.562129
  C     -0.130740   -0.193985    1.470763
  H     -0.840563   -0.760165    0.856377
  H      0.466691   -0.938942    2.006959
  H     -1.647961    1.245963    1.991076
  H     -1.478180   -0.081046    3.130424
  C      3.203721   -1.256004    0.826211
  H      2.898939   -3.239289    1.583074
  H      4.334962   -3.095523    0.600188
  C      2.107815   -1.442385   -0.216865
  H      2.786775   -0.672760    1.650711
  H      4.021008   -0.652993    0.414046
  C      1.390662   -0.145912   -0.602422
  H      1.372179   -2.152184    0.176151
  H      2.523302   -1.906787   -1.117115
  H      1.561361    1.100094    1.161831
  H      0.195516    1.468325    0.142758
  H      0.602893   -0.398214   -1.319716
  H      2.087247    0.508272   -1.137335
  H      5.561557   -1.971347    2.407084
  H      4.810498   -3.422552    3.063099

 Total Charge           Charge          ....    0
 Multiplicity           Mult            ....    1
 Number of Electrons    NEL             ....  118
 Basis Dimension        Dim             ....  482

ORBITAL ENERGIES
----------------

  NO   OCC          E(Eh)            E(eV)
   0   2.0000     -24.873475      -676.8417
   1   2.0000     -19.238675      -523.5110
   2   2.0000     -14.382485      -391.3673
   3   2.0000     -10.461669      -284.6765
   4   2.0000     -10.297857      -280.2189
   5   2.0000     -10.275070      -279.5989
   6   2.0000     -10.259472      -279.1744
   7   2.0000     -10.259272      -279.1690
   8   2.0000     -10.257156      -279.1114
   9   2.0000     -10.254073      -279.0275
  10   2.0000     -10.247697      -278.8540
  11   2.0000     -10.245875      -278.8044
  12   2.0000     -10.245509      -278.7945
  13   2.0000     -10.243810      -278.7482
  14   2.0000     -10.155955      -276.3576
  15   2.0000      -1.419288       -38.6208
  16   2.0000      -1.129216       -30.7275
  17   2.0000      -0.991914       -26.9913
  18   2.0000      -0.910948       -24.7882
  19   2.0000      -0.884798       -24.0766
  20   2.0000      -0.859311       -23.3830
  21   2.0000      -0.821306       -22.3489
  22   2.0000      -0.797676       -21.7059
  23   2.0000      -0.767230       -20.8774
  24   2.0000      -0.754534       -20.5319
  25   2.0000      -0.723095       -19.6764
  26   2.0000      -0.689357       -18.7584
  27   2.0000      -0.665122       -18.0989
  28   2.0000      -0.655723       -17.8431
  29   2.0000      -0.644698       -17.5431
  30   2.0000      -0.627498       -17.0751
  31   2.0000      -0.612346       -16.6628
  32   2.0000      -0.599354       -16.3092
  33   2.0000      -0.570899       -15.5349
  34   2.0000      -0.556202       -15.1350
  35   2.0000      -0.552886       -15.0448
  36   2.0000      -0.542446       -14.7607
  37   2.0000      -0.523264       -14.2387
  38   2.0000      -0.516951       -14.0670
  39   2.0000      -0.498741       -13.5714
  40   2.0000      -0.495111       -13.4727
  41   2.0000      -0.480906       -13.0861
  42   2.0000      -0.473808       -12.8930
  43   2.0000      -0.460561       -12.5325
  44   2.0000      -0.455958       -12.4073
  45   2.0000      -0.441527       -12.0146
  46   2.0000      -0.438054       -11.9201
  47   2.0000      -0.429497       -11.6872
  48   2.0000      -0.421007       -11.4562
  49   2.0000      -0.411327       -11.1928
  50   2.0000      -0.408728       -11.1221
  51   2.0000      -0.400839       -10.9074
  52   2.0000      -0.390026       -10.6131
  53   2.0000      -0.386144       -10.5075
  54   2.0000      -0.377146       -10.2627
  55   2.0000      -0.374450       -10.1893
  56   2.0000      -0.368532       -10.0283
  57   2.0000      -0.343900        -9.3580
  58   2.0000      -0.228963        -6.2304
  59   0.0000      -0.002243        -0.0610
  60   0.0000       0.039407         1.0723
  61   0.0000       0.056967         1.5502
  62   0.0000       0.059058         1.6071
  63   0.0000       0.062953         1.7130

MULLIKEN ATOMIC CHARGES
-----------------------
   0 C :    1.016675
   1 C :    0.685927
   2 C :    0.321000
   3 H :    0.131260
   4 H :   -0.244633
   5 C :    0.525787
   6 C :   -0.591111
   7 C :    1.191398
   8 N :    0.564443
   9 H :   -0.436798
  10 H :    0.058635
  11 H :   -0.302545
  12 H :   -1.043598
  13 F :   -0.442825
  14 O :   -0.479189
  15 C :    0.209419
  16 C :   -0.038624
  17 C :    0.020625
  18 H :   -0.241427
  19 H :   -0.164905
  20 H :   -0.145662
  21 H :   -0.000107
  22 C :    0.299114
  23 H :    0.011041
  24 H :   -0.350896
  25 C :    0.138800
  26 H :   -0.457395
  27 H :   -0.053765
  28 C :    0.957824
  29 H :    0.118978
  30 H :   -0.431662
  31 H :    0.077904
  32 H :   -0.611223
  33 H :    0.005158
  34 H :   -0.093910
  35 H :   -0.131300
  36 H :   -0.072410
Sum of atomic charges:    0.0000000

LOEWDIN ATOMIC CHARGES
----------------------
   0 C :    0.018477
   1 C :   -0.012403
   2 C :    0.056114
   3 H :    0.023834
   4 H :    0.044370
   5 C :    0.046743
   6 C :   -0.258709
   7 C :    0.200889
   8 N :    0.195934
   9 H :   -0.070844
  10 H :    0.002611
  11 H :   -0.069648
  12 H :   -0.171719
  13 F :   -0.027859
  14 O :   -0.108355
  15 C :   -0.019404
  16 C :   -0.038096
  17 C :   -0.026917
  18 H :    0.033073
  19 H :    0.013704
  20 H :    0.028878
  21 H :    0.030459
  22 C :   -0.033242
  23 H :    0.018252
  24 H :    0.020165
  25 C :   -0.037198
  26 H :   -0.016921
  27 H :    0.032745
  28 C :   -0.028510
  29 H :    0.017327
  30 H :    0.024496
  31 H :    0.005888
  32 H :    0.023285
  33 H :    0.021641
  34 H :    0.022333
  35 H :    0.011789
  36 H :    0.026818

  Mayer bond orders larger than 0.100000
B(  0-C ,  6-C ) :   1.1958 B(  0-C ,  8-N ) :   0.1147 B(  0-C , 15-C ) :   1.0569
B(  0-C , 35-H ) :   0.4098 B(  0-C , 36-H ) :   0.5739 B(  1-C ,  2-C ) :   1.1598
B(  1-C ,  3-H ) :   0.1130 B(  1-C ,  4-H ) :   0.1812 B(  1-C , 17-C ) :   1.2089
B(  1-C , 19-H ) :   0.1053 B(  1-C , 20-H ) :   0.6983 B(  1-C , 21-H ) :   0.5818
B(  1-C , 28-C ) :   0.1007 B(  2-C ,  3-H ) :   0.8107 B(  2-C ,  4-H ) :   0.6260
B(  2-C ,  5-C ) :   1.2020 B(  2-C , 17-C ) :   0.1544 B(  2-C , 20-H ) :   0.1728
B(  2-C , 21-H ) :   0.1178 B(  3-H ,  5-C ) :   0.1643 B(  4-H ,  5-C ) :   0.2777
B(  5-C , 13-F ) :   0.6721 B(  5-C , 14-O ) :   1.8170 B(  6-C ,  7-C ) :   2.0025
B(  6-C ,  8-N ) :   0.9197 B(  6-C , 10-H ) :   0.1595 B(  6-C , 12-H ) :   0.3758
B(  6-C , 15-C ) :   0.1712 B(  6-C , 35-H ) :   0.4148 B(  6-C , 36-H ) :   0.2676
B(  7-C ,  8-N ) :   0.4101 B(  7-C , 11-H ) :   0.5445 B(  7-C , 12-H ) :  -0.2590
B(  8-N ,  9-H ) :   1.0021 B(  8-N , 10-H ) :   0.9059 B(  8-N , 11-H ) :   0.2812
B(  8-N , 12-H ) :  -0.2555 B(  9-H , 10-H ) :  -0.2341 B(  9-H , 13-F ) :   0.1062
B( 11-H , 12-H ) :  -0.1146 B( 12-H , 14-O ) :   0.2193 B( 13-F , 14-O ) :   0.1269
B( 15-C , 22-C ) :   1.1207 B( 15-C , 23-H ) :   0.8365 B( 15-C , 24-H ) :   0.8728
B( 15-C , 25-C ) :   0.1156 B( 15-C , 26-H ) :   0.1947 B( 15-C , 27-H ) :   0.1109
B( 15-C , 35-H ) :   0.2263 B( 15-C , 36-H ) :   0.1855 B( 16-C , 17-C ) :   1.2391
B( 16-C , 18-H ) :   0.1981 B( 16-C , 19-H ) :   0.1471 B( 16-C , 25-C ) :   0.1795
B( 16-C , 28-C ) :   1.0452 B( 16-C , 31-H ) :   0.8061 B( 16-C , 32-H ) :   1.0516
B( 16-C , 33-H ) :   0.1665 B( 16-C , 34-H ) :   0.3259 B( 17-C , 18-H ) :   0.8103
B( 17-C , 19-H ) :   0.8912 B( 17-C , 20-H ) :   0.2187 B( 17-C , 21-H ) :   0.2956
B( 17-C , 31-H ) :   0.1166 B( 17-C , 32-H ) :   0.1261 B( 20-H , 21-H ) :  -0.1492
B( 22-C , 23-H ) :   0.1476 B( 22-C , 24-H ) :   0.2613 B( 22-C , 25-C ) :   1.1796
B( 22-C , 26-H ) :   0.8742 B( 22-C , 27-H ) :   0.6771 B( 22-C , 29-H ) :   0.1409
B( 22-C , 30-H ) :   0.2589 B( 23-H , 30-H ) :  -0.1092 B( 25-C , 26-H ) :   0.1162
B( 25-C , 27-H ) :   0.1156 B( 25-C , 28-C ) :   1.1188 B( 25-C , 29-H ) :   0.7978
B( 25-C , 30-H ) :   0.8825 B( 25-C , 33-H ) :   0.2569 B( 25-C , 34-H ) :   0.1736
B( 26-H , 27-H ) :   0.1830 B( 26-H , 31-H ) :   0.2000 B( 26-H , 32-H ) :  -0.1395
B( 28-C , 29-H ) :   0.1088 B( 28-C , 33-H ) :   0.5915 B( 28-C , 34-H ) :   0.5471
B( 33-H , 34-H ) :  -0.1402

FINAL SINGLE POINT ENERGY      -699.462099936291

DIPOLE MOMENT
-------------
                                X             Y             Z
Electronic contribution:      1.16662       7.39173      14.93128
Nuclear contribution   :     -1.66567      -5.90236     -15.95042
                        -----------------------------------------
Total Dipole Moment    :     -0.49905       1.48937      -1.01914
                        -----------------------------------------
Magnitude (a.u.)       :      1.87241
Magnitude (Debye)      :      4.75929

Rotational constants in cm-1:     0.021600     0.017292     0.011381
Rotational constants in MHz :   647.565282   518.410024   341.193038

                             ****ORCA TERMINATED NORMALLY****
TOTAL RUN TIME: 0 days 0 hours 6 minutes 25 seconds 168 msec
