                         Program Version 5.0.0 -  RELEASE  -
|  1> !CAM-B3LYP RIJCOSX def2-SVPD def2/J TightSCF xyzfile
|  2>
|  3> *xyzfile 0 1 D4.xyz
|  4>
|  5> %MaxCore 64000
|  6>
|  7> %pal nprocs 4
|  8> end
|  9>
| 10> %scf
| 11>   MaxIter 150
| 12> end
| 13>
| 14>
| 15>                          ****END OF INPUT****

CARTESIAN COORDINATES (ANGSTROEM)
---------------------------------
  C      4.602954   -2.440100    2.634780
  C     -0.914947    0.615112    2.505538
  C     -0.059146    1.503524    3.410578
  H      0.365364    2.344315    2.861161
  H     -0.692261    1.920207    4.198985
  C      1.083027    0.749640    4.085705
  C      3.860851   -1.591565    3.622893
  N      2.756502   -2.046159    4.166333
  C      4.254325   -0.362905    3.860455
  H      3.565256    0.310994    4.168983
  H      5.054292   -0.016059    3.337838
  H      2.439696   -2.973894    3.897395
  H      2.066869   -1.412532    4.549813
  O      2.228167    1.263475    4.019826
  F      0.810034   -0.345411    4.636269
  C      3.744685   -2.580557    1.361882
  C      0.772139    0.636882    0.562129
  C     -0.130740   -0.193985    1.470763
  H     -0.840563   -0.760165    0.856377
  H      0.466691   -0.938942    2.006959
  H     -1.647961    1.245963    1.991076
  H     -1.478180   -0.081046    3.130424
  C      3.203721   -1.256004    0.826211
  H      2.898939   -3.239289    1.583074
  H      4.334962   -3.095523    0.600188
  C      2.107815   -1.442385   -0.216865
  H      2.786775   -0.672760    1.650711
  H      4.021008   -0.652993    0.414046
  C      1.390662   -0.145912   -0.602422
  H      1.372179   -2.152184    0.176151
  H      2.523302   -1.906787   -1.117115
  H      1.561361    1.100094    1.161831
  H      0.195516    1.468325    0.142758
  H      0.602893   -0.398214   -1.319716
  H      2.087247    0.508272   -1.137335
  H      5.561557   -1.971347    2.407084
  H      4.810498   -3.422552    3.063099

 Total Charge           Charge          ....    0
 Multiplicity           Mult            ....    1
 Number of Electrons    NEL             ....  118
 Basis Dimension        Dim             ....  482

ORBITAL ENERGIES
----------------

  NO   OCC          E(Eh)            E(eV)
   0   2.0000     -24.875624      -676.9001
   1   2.0000     -19.239626      -523.5368
   2   2.0000     -14.383955      -391.4073
   3   2.0000     -10.463053      -284.7141
   4   2.0000     -10.298533      -280.2373
   5   2.0000     -10.281411      -279.7714
   6   2.0000     -10.266841      -279.3749
   7   2.0000     -10.257507      -279.1209
   8   2.0000     -10.255015      -279.0531
   9   2.0000     -10.252839      -278.9939
  10   2.0000     -10.247927      -278.8603
  11   2.0000     -10.247067      -278.8369
  12   2.0000     -10.243130      -278.7297
  13   2.0000     -10.239505      -278.6311
  14   2.0000     -10.154241      -276.3109
  15   2.0000      -1.422044       -38.6958
  16   2.0000      -1.129218       -30.7276
  17   2.0000      -0.991305       -26.9748
  18   2.0000      -0.915687       -24.9171
  19   2.0000      -0.884844       -24.0778
  20   2.0000      -0.858451       -23.3596
  21   2.0000      -0.820564       -22.3287
  22   2.0000      -0.795164       -21.6375
  23   2.0000      -0.770232       -20.9591
  24   2.0000      -0.757922       -20.6241
  25   2.0000      -0.722587       -19.6626
  26   2.0000      -0.690959       -18.8020
  27   2.0000      -0.666101       -18.1255
  28   2.0000      -0.657585       -17.8938
  29   2.0000      -0.651389       -17.7252
  30   2.0000      -0.627335       -17.0707
  31   2.0000      -0.616725       -16.7819
  32   2.0000      -0.593679       -16.1548
  33   2.0000      -0.573857       -15.6155
  34   2.0000      -0.560180       -15.2433
  35   2.0000      -0.556216       -15.1354
  36   2.0000      -0.533080       -14.5058
  37   2.0000      -0.518472       -14.1083
  38   2.0000      -0.513626       -13.9765
  39   2.0000      -0.507493       -13.8096
  40   2.0000      -0.491231       -13.3671
  41   2.0000      -0.485827       -13.2200
  42   2.0000      -0.479290       -13.0422
  43   2.0000      -0.460426       -12.5288
  44   2.0000      -0.452170       -12.3042
  45   2.0000      -0.444535       -12.0964
  46   2.0000      -0.441800       -12.0220
  47   2.0000      -0.429500       -11.6873
  48   2.0000      -0.424132       -11.5412
  49   2.0000      -0.415704       -11.3119
  50   2.0000      -0.411466       -11.1966
  51   2.0000      -0.396592       -10.7918
  52   2.0000      -0.389932       -10.6106
  53   2.0000      -0.387742       -10.5510
  54   2.0000      -0.377101       -10.2614
  55   2.0000      -0.373761       -10.1706
  56   2.0000      -0.367338        -9.9958
  57   2.0000      -0.338626        -9.2145
  58   2.0000      -0.228802        -6.2260
  59   0.0000      -0.001005        -0.0274
  60   0.0000       0.036321         0.9883
  61   0.0000       0.052436         1.4268
  62   0.0000       0.058688         1.5970
  63   0.0000       0.063879         1.7382

MULLIKEN ATOMIC CHARGES
-----------------------
   0 C :    0.794325
   1 C :    0.685984
   2 C :    0.331265
   3 H :    0.104348
   4 H :   -0.232639
   5 C :    0.609590
   6 C :   -0.546866
   7 N :    0.605258
   8 C :    1.123401
   9 H :   -0.867683
  10 H :   -0.209656
  11 H :   -0.004160
  12 H :   -0.591867
  13 O :   -0.451981
  14 F :   -0.452423
  15 C :    0.322650
  16 C :   -0.037752
  17 C :    0.036699
  18 H :   -0.250127
  19 H :   -0.195713
  20 H :   -0.153100
  21 H :   -0.063216
  22 C :    0.463941
  23 H :    0.009698
  24 H :   -0.422502
  25 C :    0.156821
  26 H :   -0.608152
  27 H :   -0.080495
  28 C :    0.965081
  29 H :    0.083708
  30 H :   -0.447625
  31 H :    0.074252
  32 H :   -0.581162
  33 H :    0.003150
  34 H :   -0.088649
  35 H :    0.079033
  36 H :   -0.163434
Sum of atomic charges:   -0.0000000

LOEWDIN ATOMIC CHARGES
----------------------
   0 C :    0.016517
   1 C :   -0.022796
   2 C :    0.062322
   3 H :    0.036256
   4 H :    0.042063
   5 C :    0.045199
   6 C :   -0.263085
   7 N :    0.205493
   8 C :    0.193382
   9 H :   -0.171788
  10 H :   -0.071661
  11 H :    0.004003
  12 H :   -0.073321
  13 O :   -0.107404
  14 F :   -0.024647
  15 C :   -0.022124
  16 C :   -0.032219
  17 C :   -0.031897
  18 H :    0.032062
  19 H :    0.008409
  20 H :    0.029154
  21 H :    0.024111
  22 C :   -0.026540
  23 H :    0.009515
  24 H :    0.021164
  25 C :   -0.040823
  26 H :   -0.014506
  27 H :    0.039606
  28 C :   -0.027698
  29 H :    0.013290
  30 H :    0.023561
  31 H :    0.012903
  32 H :    0.024500
  33 H :    0.020458
  34 H :    0.024143
  35 H :    0.023913
  36 H :    0.018485

  Mayer bond orders larger than 0.100000
B(  0-C ,  6-C ) :   1.3136 B(  0-C ,  8-C ) :   0.1299 B(  0-C , 15-C ) :   1.0685
B(  0-C , 23-H ) :   0.1155 B(  0-C , 24-H ) :   0.1414 B(  0-C , 35-H ) :   0.6950
B(  0-C , 36-H ) :   0.4511 B(  1-C ,  2-C ) :   1.1451 B(  1-C ,  4-H ) :   0.1770
B(  1-C , 17-C ) :   1.1886 B(  1-C , 19-H ) :   0.1116 B(  1-C , 20-H ) :   0.7148
B(  1-C , 21-H ) :   0.5867 B(  1-C , 28-C ) :   0.1087 B(  2-C ,  3-H ) :   0.8529
B(  2-C ,  4-H ) :   0.6345 B(  2-C ,  5-C ) :   1.1511 B(  2-C , 17-C ) :   0.1232
B(  2-C , 20-H ) :   0.1671 B(  2-C , 21-H ) :   0.1145 B(  3-H ,  5-C ) :   0.1608
B(  4-H ,  5-C ) :   0.2640 B(  5-C , 13-O ) :   1.8103 B(  5-C , 14-F ) :   0.5764
B(  6-C ,  7-N ) :   0.9652 B(  6-C ,  8-C ) :   2.0024 B(  6-C ,  9-H ) :   0.3855
B(  6-C , 10-H ) :   0.3175 B(  6-C , 24-H ) :  -0.1238 B(  6-C , 35-H ) :   0.2070
B(  6-C , 36-H ) :   0.3401 B(  7-N ,  8-C ) :   0.3884 B(  7-N , 11-H ) :   0.9950
B(  7-N , 12-H ) :   1.0315 B(  8-C , 10-H ) :   0.6029 B(  9-H , 13-O ) :   0.1581
B(  9-H , 24-H ) :  -0.1118 B( 11-H , 12-H ) :  -0.2387 B( 12-H , 14-F ) :   0.1260
B( 13-O , 14-F ) :   0.1219 B( 15-C , 22-C ) :   1.1077 B( 15-C , 23-H ) :   0.7906
B( 15-C , 24-H ) :   0.8437 B( 15-C , 25-C ) :   0.1314 B( 15-C , 26-H ) :   0.1695
B( 15-C , 27-H ) :   0.1061 B( 15-C , 35-H ) :   0.1582 B( 15-C , 36-H ) :   0.2149
B( 16-C , 17-C ) :   1.2569 B( 16-C , 18-H ) :   0.1869 B( 16-C , 19-H ) :   0.1516
B( 16-C , 25-C ) :   0.1850 B( 16-C , 28-C ) :   1.0532 B( 16-C , 31-H ) :   0.8138
B( 16-C , 32-H ) :   1.0414 B( 16-C , 33-H ) :   0.1667 B( 16-C , 34-H ) :   0.3285
B( 17-C , 18-H ) :   0.8351 B( 17-C , 19-H ) :   0.8703 B( 17-C , 20-H ) :   0.2165
B( 17-C , 21-H ) :   0.2928 B( 17-C , 31-H ) :   0.1151 B( 17-C , 32-H ) :   0.1227
B( 20-H , 21-H ) :  -0.1554 B( 22-C , 23-H ) :   0.1357 B( 22-C , 24-H ) :   0.2031
B( 22-C , 25-C ) :   1.1498 B( 22-C , 26-H ) :   0.7453 B( 22-C , 27-H ) :   0.6630
B( 22-C , 29-H ) :   0.1421 B( 22-C , 30-H ) :   0.2533 B( 25-C , 26-H ) :   0.1030
B( 25-C , 27-H ) :   0.1246 B( 25-C , 28-C ) :   1.1239 B( 25-C , 29-H ) :   0.8014
B( 25-C , 30-H ) :   0.8786 B( 25-C , 33-H ) :   0.2541 B( 25-C , 34-H ) :   0.1670
B( 26-H , 27-H ) :   0.2307 B( 26-H , 31-H ) :   0.2065 B( 26-H , 32-H ) :  -0.1266
B( 28-C , 29-H ) :   0.1087 B( 28-C , 33-H ) :   0.5909 B( 28-C , 34-H ) :   0.5451
B( 33-H , 34-H ) :  -0.1389

FINAL SINGLE POINT ENERGY      -699.460530063037

DIPOLE MOMENT
-------------
                                X             Y             Z
Electronic contribution:     -2.29132       3.59320      16.18125
Nuclear contribution   :      0.32481      -3.64700     -16.75441
                        -----------------------------------------
Total Dipole Moment    :     -1.96652      -0.05380      -0.57315
                        -----------------------------------------
Magnitude (a.u.)       :      2.04904
Magnitude (Debye)      :      5.20826

Rotational constants in cm-1:     0.021629     0.017327     0.011372
Rotational constants in MHz :   648.414821   519.443407   340.925013

                             ****ORCA TERMINATED NORMALLY****
TOTAL RUN TIME: 0 days 0 hours 6 minutes 29 seconds 896 msec
