                         Program Version 5.0.0 -  RELEASE  -
|  1> !wB97X-D3 RIJCOSX def2-SVPD def2/J TightSCF
|  2> *xyz -1 1
|  3> C         -5.57236       -5.80780       -0.81644
|  4> S         -6.90318       -4.61903       -0.52846
|  5> O         -8.11485       -5.25093       -0.95701
|  6> O         -6.53271       -3.42684       -1.31485
|  7> O         -6.86563       -4.29496        0.91412
|  8> C         -4.45780       -5.94187        0.22919
|  9> H         -5.17735       -5.54257       -1.79771
| 10> H         -6.07420       -6.76889       -0.92127
| 11> H         -3.75515       -6.68239       -0.09144
| 12> H         -4.88182       -6.23486        1.16689
| 13> H         -3.95908       -5.00189        0.34143
| 14> *
| 15> %MaxCore 64000
| 16>
| 17> %pal nprocs 18
| 18> end
| 19>
| 20> %scf
| 21>   MaxIter 150
| 22> end
| 23>
| 24>                          ****END OF INPUT****

CARTESIAN COORDINATES (ANGSTROEM)
---------------------------------
  C     -5.572360   -5.807800   -0.816440
  S     -6.903180   -4.619030   -0.528460
  O     -8.114850   -5.250930   -0.957010
  O     -6.532710   -3.426840   -1.314850
  O     -6.865630   -4.294960    0.914120
  C     -4.457800   -5.941870    0.229190
  H     -5.177350   -5.542570   -1.797710
  H     -6.074200   -6.768890   -0.921270
  H     -3.755150   -6.682390   -0.091440
  H     -4.881820   -6.234860    1.166890
  H     -3.959080   -5.001890    0.341430

 Total Charge           Charge          ....   -1
 Multiplicity           Mult            ....    1
 Number of Electrons    NEL             ....   58
 Basis Dimension        Dim             ....  176

ORBITAL ENERGIES
----------------

  NO   OCC          E(Eh)            E(eV)
   0   2.0000     -88.977062     -2421.1889
   1   2.0000     -19.030913      -517.8575
   2   2.0000     -19.016600      -517.4680
   3   2.0000     -19.015937      -517.4500
   4   2.0000     -10.156378      -276.3691
   5   2.0000     -10.152855      -276.2732
   6   2.0000      -8.050562      -219.0669
   7   2.0000      -6.010081      -163.5426
   8   2.0000      -6.010015      -163.5408
   9   2.0000      -6.009644      -163.5307
  10   2.0000      -1.046227       -28.4693
  11   2.0000      -0.903471       -24.5847
  12   2.0000      -0.879076       -23.9209
  13   2.0000      -0.746986       -20.3265
  14   2.0000      -0.621956       -16.9243
  15   2.0000      -0.489271       -13.3137
  16   2.0000      -0.424390       -11.5482
  17   2.0000      -0.420804       -11.4506
  18   2.0000      -0.381943       -10.3932
  19   2.0000      -0.365189        -9.9373
  20   2.0000      -0.362519        -9.8647
  21   2.0000      -0.326727        -8.8907
  22   2.0000      -0.319024        -8.6811
  23   2.0000      -0.249146        -6.7796
  24   2.0000      -0.247956        -6.7472
  25   2.0000      -0.211948        -5.7674
  26   2.0000      -0.199357        -5.4248
  27   2.0000      -0.196396        -5.3442
  28   2.0000      -0.158288        -4.3072
  29   0.0000       0.205457         5.5908
  30   0.0000       0.229093         6.2339
  31   0.0000       0.233129         6.3438
  32   0.0000       0.239066         6.5053
  33   0.0000       0.259691         7.0666

MULLIKEN ATOMIC CHARGES
-----------------------
   0 C :   -0.375864
   1 S :    1.322186
   2 O :   -0.777648
   3 O :   -0.833580
   4 O :   -0.844518
   5 C :    0.679855
   6 H :   -0.007501
   7 H :    0.006873
   8 H :   -0.087997
   9 H :   -0.030937
  10 H :   -0.050869
Sum of atomic charges:   -1.0000000

LOEWDIN ATOMIC CHARGES
----------------------
   0 C :   -0.123518
   1 S :    0.874442
   2 O :   -0.577029
   3 O :   -0.604677
   4 O :   -0.597325
   5 C :    0.100561
   6 H :   -0.000301
   7 H :   -0.005964
   8 H :   -0.031939
   9 H :   -0.020106
  10 H :   -0.014143

  Mayer bond orders larger than 0.100000
B(  0-C ,  1-S ) :   0.9019 B(  0-C ,  5-C ) :   1.2691 B(  0-C ,  6-H ) :   0.9777
B(  0-C ,  7-H ) :   0.9791 B(  0-C ,  8-H ) :   0.1889 B(  0-C ,  9-H ) :   0.1912
B(  0-C , 10-H ) :   0.1798 B(  1-S ,  2-O ) :   1.3612 B(  1-S ,  3-O ) :   1.2967
B(  1-S ,  4-O ) :   1.2897 B(  5-C ,  8-H ) :   0.7821 B(  5-C ,  9-H ) :   0.8251
B(  5-C , 10-H ) :   0.8360

Dispersion correction           -0.002821806
FINAL SINGLE POINT ENERGY      -702.689389219378

DIPOLE MOMENT
-------------
                                X             Y             Z
Electronic contribution:     -6.59808       4.23949      -0.92620
Nuclear contribution   :      8.13140      -5.68016       0.80206
                        -----------------------------------------
Total Dipole Moment    :      1.53333      -1.44067      -0.12414
                        -----------------------------------------
Magnitude (a.u.)       :      2.10761
Magnitude (Debye)      :      5.35712

Rotational constants in cm-1:     0.162101     0.080498     0.079099
Rotational constants in MHz :  4859.669771  2413.267251  2371.338602

                             ****ORCA TERMINATED NORMALLY****
TOTAL RUN TIME: 0 days 0 hours 0 minutes 10 seconds 75 msec
