                         Program Version 5.0.0 -  RELEASE  -
|  1> !wB97X-D3 RIJCOSX def2-SVPD def2/J TightSCF
|  2> *xyz 1 1
|  3> C         -4.38262       -1.67089        1.21620
|  4> N         -5.76354       -1.91517        0.70501
|  5> C         -3.28173       -2.19127        0.29436
|  6> H         -5.84081       -2.11520       -0.30065
|  7> H         -6.40882       -1.14866        0.93612
|  8> H         -6.17478       -2.79061        1.05143
|  9> H         -4.32862       -2.13922        2.19810
| 10> H         -4.26158       -0.59740        1.35725
| 11> H         -3.36057       -1.71407       -0.66008
| 12> H         -3.38775       -3.24919        0.17403
| 13> H         -2.32559       -1.97514        0.72329
| 14> *
| 15> %MaxCore 64000
| 16>
| 17> %pal nprocs 18
| 18> end
| 19>
| 20> %scf
| 21>   MaxIter 150
| 22> end
| 23>
| 24>                          ****END OF INPUT****

CARTESIAN COORDINATES (ANGSTROEM)
---------------------------------
  C     -4.382620   -1.670890    1.216200
  N     -5.763540   -1.915170    0.705010
  C     -3.281730   -2.191270    0.294360
  H     -5.840810   -2.115200   -0.300650
  H     -6.408820   -1.148660    0.936120
  H     -6.174780   -2.790610    1.051430
  H     -4.328620   -2.139220    2.198100
  H     -4.261580   -0.597400    1.357250
  H     -3.360570   -1.714070   -0.660080
  H     -3.387750   -3.249190    0.174030
  H     -2.325590   -1.975140    0.723290

 Total Charge           Charge          ....    1
 Multiplicity           Mult            ....    1
 Number of Electrons    NEL             ....   26
 Basis Dimension        Dim             ....  124

ORBITAL ENERGIES
----------------

  NO   OCC          E(Eh)            E(eV)
   0   2.0000     -14.775347      -402.0576
   1   2.0000     -10.545155      -286.9483
   2   2.0000     -10.464268      -284.7472
   3   2.0000      -1.325455       -36.0675
   4   2.0000      -1.077254       -29.3136
   5   2.0000      -0.956904       -26.0387
   6   2.0000      -0.901539       -24.5321
   7   2.0000      -0.880269       -23.9533
   8   2.0000      -0.804120       -21.8812
   9   2.0000      -0.741041       -20.1648
  10   2.0000      -0.680725       -18.5235
  11   2.0000      -0.662879       -18.0379
  12   2.0000      -0.643850       -17.5201
  13   0.0000      -0.112328        -3.0566
  14   0.0000      -0.056661        -1.5418
  15   0.0000      -0.053250        -1.4490
  16   0.0000      -0.043585        -1.1860
  17   0.0000      -0.014923        -0.4061

MULLIKEN ATOMIC CHARGES
-----------------------
   0 C :    0.157943
   1 N :   -0.854949
   2 C :    0.435330
   3 H :    0.402666
   4 H :    0.416502
   5 H :    0.391977
   6 H :   -0.015953
   7 H :    0.016517
   8 H :   -0.009762
   9 H :    0.022971
  10 H :    0.036758
Sum of atomic charges:    1.0000000

LOEWDIN ATOMIC CHARGES
----------------------
   0 C :    0.065015
   1 N :    0.323413
   2 C :    0.165532
   3 H :    0.105162
   4 H :    0.111598
   5 H :    0.107878
   6 H :    0.051606
   7 H :    0.051056
   8 H :    0.001485
   9 H :    0.001422
  10 H :    0.015833

  Mayer bond orders larger than 0.100000
B(  0-C ,  1-N ) :   0.6747 B(  0-C ,  2-C ) :   1.3257 B(  0-C ,  6-H ) :   0.9402
B(  0-C ,  7-H ) :   0.9375 B(  0-C ,  8-H ) :   0.1527 B(  0-C ,  9-H ) :   0.1363
B(  0-C , 10-H ) :   0.1558 B(  1-N ,  3-H ) :   0.7284 B(  1-N ,  4-H ) :   0.7205
B(  1-N ,  5-H ) :   0.7748 B(  2-C ,  8-H ) :   0.8640 B(  2-C ,  9-H ) :   0.8506
B(  2-C , 10-H ) :   0.8667

Dispersion correction           -0.001548224
FINAL SINGLE POINT ENERGY      -135.405683268446

DIPOLE MOMENT
-------------
                                X             Y             Z
Electronic contribution:     -1.81581       0.23949       0.30582
Nuclear contribution   :      0.19437      -0.25358      -0.32106
                        -----------------------------------------
Total Dipole Moment    :     -1.62144      -0.01409      -0.01524
                        -----------------------------------------
Magnitude (a.u.)       :      1.62157
Magnitude (Debye)      :      4.12171

Rotational constants in cm-1:     1.030014     0.272489     0.242697
Rotational constants in MHz : 30879.030706  8169.007780  7275.865152

                             ****ORCA TERMINATED NORMALLY****
TOTAL RUN TIME: 0 days 0 hours 0 minutes 5 seconds 285 msec
