                         Program Version 5.0.0 -  RELEASE  -
|  1> !wB97X-D3 RIJCOSX def2-SVPD def2/J TightSCF
|  2> *xyz 0 1
|  3> C         -5.57236       -5.80780       -0.81644
|  4> S         -6.90318       -4.61903       -0.52846
|  5> F         -8.11485       -5.25093       -0.95701
|  6> O         -6.53271       -3.42684       -1.31485
|  7> O         -6.86563       -4.29496        0.91412
|  8> C         -4.45780       -5.94187        0.22919
|  9> H         -5.17735       -5.54257       -1.79771
| 10> H         -6.07420       -6.76889       -0.92127
| 11> H         -3.75515       -6.68239       -0.09144
| 12> H         -4.88182       -6.23486        1.16689
| 13> H         -3.95908       -5.00189        0.34143
| 14> *
| 15> %MaxCore 64000
| 16>
| 17> %pal nprocs 18
| 18> end
| 19>
| 20> %scf
| 21>   MaxIter 150
| 22> end
| 23>
| 24>                          ****END OF INPUT****

CARTESIAN COORDINATES (ANGSTROEM)
---------------------------------
  C     -5.572360   -5.807800   -0.816440
  S     -6.903180   -4.619030   -0.528460
  F     -8.114850   -5.250930   -0.957010
  O     -6.532710   -3.426840   -1.314850
  O     -6.865630   -4.294960    0.914120
  C     -4.457800   -5.941870    0.229190
  H     -5.177350   -5.542570   -1.797710
  H     -6.074200   -6.768890   -0.921270
  H     -3.755150   -6.682390   -0.091440
  H     -4.881820   -6.234860    1.166890
  H     -3.959080   -5.001890    0.341430

 Total Charge           Charge          ....    0
 Multiplicity           Mult            ....    1
 Number of Electrons    NEL             ....   58
 Basis Dimension        Dim             ....  176

ORBITAL ENERGIES
----------------

  NO   OCC          E(Eh)            E(eV)
   0   2.0000     -89.238224     -2428.2955
   1   2.0000     -24.929679      -678.3711
   2   2.0000     -19.251178      -523.8512
   3   2.0000     -19.251081      -523.8485
   4   2.0000     -10.359341      -281.8920
   5   2.0000     -10.314103      -280.6610
   6   2.0000      -8.312591      -226.1971
   7   2.0000      -6.276387      -170.7892
   8   2.0000      -6.269665      -170.6063
   9   2.0000      -6.268523      -170.5752
  10   2.0000      -1.506393       -40.9910
  11   2.0000      -1.215013       -33.0622
  12   2.0000      -1.110463       -30.2172
  13   2.0000      -0.938613       -25.5409
  14   2.0000      -0.855332       -23.2748
  15   2.0000      -0.793327       -21.5875
  16   2.0000      -0.705794       -19.2056
  17   2.0000      -0.703143       -19.1335
  18   2.0000      -0.664193       -18.0736
  19   2.0000      -0.599655       -16.3174
  20   2.0000      -0.586615       -15.9626
  21   2.0000      -0.548000       -14.9118
  22   2.0000      -0.531668       -14.4674
  23   2.0000      -0.507113       -13.7992
  24   2.0000      -0.490389       -13.3442
  25   2.0000      -0.481603       -13.1051
  26   2.0000      -0.423194       -11.5157
  27   2.0000      -0.420366       -11.4387
  28   2.0000      -0.398584       -10.8460
  29   0.0000       0.063502         1.7280
  30   0.0000       0.083352         2.2681
  31   0.0000       0.095980         2.6117
  32   0.0000       0.099490         2.7072
  33   0.0000       0.113607         3.0914

MULLIKEN ATOMIC CHARGES
-----------------------
   0 C :   -0.429512
   1 S :    1.498126
   2 F :   -0.387440
   3 O :   -0.693706
   4 O :   -0.705236
   5 C :    0.636016
   6 H :    0.052718
   7 H :    0.070676
   8 H :   -0.033605
   9 H :    0.004509
  10 H :   -0.012547
Sum of atomic charges:   -0.0000000

LOEWDIN ATOMIC CHARGES
----------------------
   0 C :   -0.087482
   1 S :    1.144101
   2 F :   -0.255023
   3 O :   -0.488544
   4 O :   -0.485647
   5 C :    0.143035
   6 H :    0.021759
   7 H :    0.011595
   8 H :   -0.002496
   9 H :   -0.004035
  10 H :    0.002737

  Mayer bond orders larger than 0.100000
B(  0-C ,  1-S ) :   0.9526 B(  0-C ,  5-C ) :   1.3277 B(  0-C ,  6-H ) :   0.9802
B(  0-C ,  7-H ) :   0.9420 B(  0-C ,  8-H ) :   0.1784 B(  0-C ,  9-H ) :   0.1841
B(  0-C , 10-H ) :   0.1675 B(  1-S ,  2-F ) :   0.6974 B(  1-S ,  3-O ) :   1.5087
B(  1-S ,  4-O ) :   1.4987 B(  5-C ,  8-H ) :   0.7938 B(  5-C ,  9-H ) :   0.8283
B(  5-C , 10-H ) :   0.8454

Dispersion correction           -0.002828600
FINAL SINGLE POINT ENERGY      -727.167030804572

DIPOLE MOMENT
-------------
                                X             Y             Z
Electronic contribution:     -9.35414       3.51563      -1.87228
Nuclear contribution   :      9.80704      -5.24335       1.35017
                        -----------------------------------------
Total Dipole Moment    :      0.45290      -1.72772      -0.52211
                        -----------------------------------------
Magnitude (a.u.)       :      1.86084
Magnitude (Debye)      :      4.72988

Rotational constants in cm-1:     0.156316     0.078308     0.076228
Rotational constants in MHz :  4686.224999  2347.601204  2285.245115

                             ****ORCA TERMINATED NORMALLY****
TOTAL RUN TIME: 0 days 0 hours 0 minutes 10 seconds 967 msec
