                         Program Version 5.0.0 -  RELEASE  -
|  1> !wB97X-D3 RIJCOSX def2-SVPD def2/J TightSCF
|  2> *xyz 0 1
|  3> C         -4.38262       -1.67089        1.21620
|  4> C         -5.76354       -1.91517        0.70501
|  5> C         -3.28173       -2.19127        0.29436
|  6> H         -5.84081       -2.11520       -0.30065
|  7> H         -6.40882       -1.14866        0.93612
|  8> H         -6.17478       -2.79061        1.05143
|  9> H         -4.32862       -2.13922        2.19810
| 10> H         -4.26158       -0.59740        1.35725
| 11> H         -3.36057       -1.71407       -0.66008
| 12> H         -3.38775       -3.24919        0.17403
| 13> H         -2.32559       -1.97514        0.72329
| 14> *
| 15> %MaxCore 64000
| 16>
| 17> %pal nprocs 18
| 18> end
| 19>
| 20> %scf
| 21>   MaxIter 150
| 22> end
| 23>
| 24>                          ****END OF INPUT****

CARTESIAN COORDINATES (ANGSTROEM)
---------------------------------
  C     -4.382620   -1.670890    1.216200
  C     -5.763540   -1.915170    0.705010
  C     -3.281730   -2.191270    0.294360
  H     -5.840810   -2.115200   -0.300650
  H     -6.408820   -1.148660    0.936120
  H     -6.174780   -2.790610    1.051430
  H     -4.328620   -2.139220    2.198100
  H     -4.261580   -0.597400    1.357250
  H     -3.360570   -1.714070   -0.660080
  H     -3.387750   -3.249190    0.174030
  H     -2.325590   -1.975140    0.723290

 Total Charge           Charge          ....    0
 Multiplicity           Mult            ....    1
 Number of Electrons    NEL             ....   26
 Basis Dimension        Dim             ....  124

ORBITAL ENERGIES
----------------

  NO   OCC          E(Eh)            E(eV)
   0   2.0000     -10.277265      -279.6586
   1   2.0000     -10.268386      -279.4170
   2   2.0000     -10.249714      -278.9089
   3   2.0000      -0.899035       -24.4640
   4   2.0000      -0.799785       -21.7633
   5   2.0000      -0.694833       -18.9074
   6   2.0000      -0.564722       -15.3669
   7   2.0000      -0.542818       -14.7708
   8   2.0000      -0.508553       -13.8384
   9   2.0000      -0.482535       -13.1304
  10   2.0000      -0.435160       -11.8413
  11   2.0000      -0.428061       -11.6481
  12   2.0000      -0.414648       -11.2832
  13   0.0000       0.097608         2.6561
  14   0.0000       0.124572         3.3898
  15   0.0000       0.131844         3.5877
  16   0.0000       0.164198         4.4681
  17   0.0000       0.185605         5.0506

MULLIKEN ATOMIC CHARGES
-----------------------
   0 C :   -0.567965
   1 C :    0.840520
   2 C :    0.557564
   3 H :   -0.283823
   4 H :   -0.129399
   5 H :   -0.166548
   6 H :   -0.102065
   7 H :   -0.042970
   8 H :   -0.010670
   9 H :   -0.048579
  10 H :   -0.046065
Sum of atomic charges:   -0.0000000

LOEWDIN ATOMIC CHARGES
----------------------
   0 C :   -0.106977
   1 C :    0.111813
   2 C :    0.111104
   3 H :   -0.036526
   4 H :   -0.030893
   5 H :   -0.034076
   6 H :    0.018957
   7 H :    0.018238
   8 H :   -0.015441
   9 H :   -0.015294
  10 H :   -0.020906

  Mayer bond orders larger than 0.100000
B(  0-C ,  1-C ) :   1.2672 B(  0-C ,  2-C ) :   1.2446 B(  0-C ,  3-H ) :   0.1760
B(  0-C ,  4-H ) :   0.1774 B(  0-C ,  5-H ) :   0.2127 B(  0-C ,  6-H ) :   0.9534
B(  0-C ,  7-H ) :   0.9427 B(  0-C ,  8-H ) :   0.1447 B(  0-C ,  9-H ) :   0.1626
B(  0-C , 10-H ) :   0.1910 B(  1-C ,  3-H ) :   0.6950 B(  1-C ,  4-H ) :   0.7665
B(  1-C ,  5-H ) :   0.6538 B(  1-C ,  6-H ) :   0.1112 B(  2-C ,  8-H ) :   0.8502
B(  2-C ,  9-H ) :   0.8547 B(  2-C , 10-H ) :   0.8225 B(  3-H ,  5-H ) :   0.3022

Dispersion correction           -0.001494968
FINAL SINGLE POINT ENERGY      -119.009713606155

DIPOLE MOMENT
-------------
                                X             Y             Z
Electronic contribution:      0.18463       0.23662       0.33729
Nuclear contribution   :     -0.21528      -0.24783      -0.32864
                        -----------------------------------------
Total Dipole Moment    :     -0.03064      -0.01121       0.00865
                        -----------------------------------------
Magnitude (a.u.)       :      0.03375
Magnitude (Debye)      :      0.08580

Rotational constants in cm-1:     1.037566     0.286459     0.254172
Rotational constants in MHz : 31105.431429  8587.814531  7619.871198

                             ****ORCA TERMINATED NORMALLY****
TOTAL RUN TIME: 0 days 0 hours 0 minutes 5 seconds 693 msec
