                         Program Version 5.0.0 -  RELEASE  -
|  1> !wB97X-D3 RIJCOSX def2-SVPD def2/J TightSCF
|  2> *xyz 0 1
|  3> C         -5.57236       -5.80780       -0.81644
|  4> S         -6.90318       -4.61903       -0.52846
|  5> O         -8.11485       -5.25093       -0.95701
|  6> F         -6.53271       -3.42684       -1.31485
|  7> O         -6.86563       -4.29496        0.91412
|  8> C         -4.45780       -5.94187        0.22919
|  9> H         -5.17735       -5.54257       -1.79771
| 10> H         -6.07420       -6.76889       -0.92127
| 11> H         -3.75515       -6.68239       -0.09144
| 12> H         -4.88182       -6.23486        1.16689
| 13> H         -3.95908       -5.00189        0.34143
| 14> *
| 15> %MaxCore 64000
| 16>
| 17> %pal nprocs 18
| 18> end
| 19>
| 20> %scf
| 21>   MaxIter 150
| 22> end
| 23>
| 24>                          ****END OF INPUT****

CARTESIAN COORDINATES (ANGSTROEM)
---------------------------------
  C     -5.572360   -5.807800   -0.816440
  S     -6.903180   -4.619030   -0.528460
  O     -8.114850   -5.250930   -0.957010
  F     -6.532710   -3.426840   -1.314850
  O     -6.865630   -4.294960    0.914120
  C     -4.457800   -5.941870    0.229190
  H     -5.177350   -5.542570   -1.797710
  H     -6.074200   -6.768890   -0.921270
  H     -3.755150   -6.682390   -0.091440
  H     -4.881820   -6.234860    1.166890
  H     -3.959080   -5.001890    0.341430

 Total Charge           Charge          ....    0
 Multiplicity           Mult            ....    1
 Number of Electrons    NEL             ....   58
 Basis Dimension        Dim             ....  176

ORBITAL ENERGIES
----------------

  NO   OCC          E(Eh)            E(eV)
   0   2.0000     -89.236106     -2428.2379
   1   2.0000     -24.907502      -677.7676
   2   2.0000     -19.265890      -524.2515
   3   2.0000     -19.250807      -523.8411
   4   2.0000     -10.358491      -281.8689
   5   2.0000     -10.313717      -280.6505
   6   2.0000      -8.310377      -226.1369
   7   2.0000      -6.273992      -170.7240
   8   2.0000      -6.267658      -170.5517
   9   2.0000      -6.266519      -170.5207
  10   2.0000      -1.468853       -39.9695
  11   2.0000      -1.231957       -33.5233
  12   2.0000      -1.126572       -30.6556
  13   2.0000      -0.938142       -25.5281
  14   2.0000      -0.841073       -22.8868
  15   2.0000      -0.785352       -21.3705
  16   2.0000      -0.689798       -18.7704
  17   2.0000      -0.677857       -18.4454
  18   2.0000      -0.659679       -17.9508
  19   2.0000      -0.598394       -16.2831
  20   2.0000      -0.586931       -15.9712
  21   2.0000      -0.560164       -15.2428
  22   2.0000      -0.534811       -14.5529
  23   2.0000      -0.504055       -13.7160
  24   2.0000      -0.501383       -13.6433
  25   2.0000      -0.483578       -13.1588
  26   2.0000      -0.436322       -11.8729
  27   2.0000      -0.424029       -11.5384
  28   2.0000      -0.411410       -11.1950
  29   0.0000       0.064452         1.7538
  30   0.0000       0.086965         2.3664
  31   0.0000       0.097005         2.6396
  32   0.0000       0.098874         2.6905
  33   0.0000       0.113315         3.0835

MULLIKEN ATOMIC CHARGES
-----------------------
   0 C :   -0.430481
   1 S :    1.494688
   2 O :   -0.651697
   3 F :   -0.420015
   4 O :   -0.714233
   5 C :    0.663043
   6 H :    0.051140
   7 H :    0.072160
   8 H :   -0.035070
   9 H :    0.005064
  10 H :   -0.034601
Sum of atomic charges:   -0.0000000

LOEWDIN ATOMIC CHARGES
----------------------
   0 C :   -0.082273
   1 S :    1.140389
   2 O :   -0.464050
   3 F :   -0.275963
   4 O :   -0.484867
   5 C :    0.135847
   6 H :    0.016844
   7 H :    0.023892
   8 H :   -0.003902
   9 H :   -0.002662
  10 H :   -0.003254

  Mayer bond orders larger than 0.100000
B(  0-C ,  1-S ) :   0.9632 B(  0-C ,  5-C ) :   1.3152 B(  0-C ,  6-H ) :   0.9511
B(  0-C ,  7-H ) :   0.9811 B(  0-C ,  8-H ) :   0.1807 B(  0-C ,  9-H ) :   0.1829
B(  0-C , 10-H ) :   0.1728 B(  1-S ,  2-O ) :   1.5702 B(  1-S ,  3-F ) :   0.6383
B(  1-S ,  4-O ) :   1.5039 B(  5-C ,  8-H ) :   0.7918 B(  5-C ,  9-H ) :   0.8324
B(  5-C , 10-H ) :   0.8397

Dispersion correction           -0.002806319
FINAL SINGLE POINT ENERGY      -727.186472201244

DIPOLE MOMENT
-------------
                                X             Y             Z
Electronic contribution:     -6.66019       6.63898      -2.50247
Nuclear contribution   :      8.15840      -7.14411       1.72305
                        -----------------------------------------
Total Dipole Moment    :      1.49821      -0.50513      -0.77942
                        -----------------------------------------
Magnitude (a.u.)       :      1.76274
Magnitude (Debye)      :      4.48054

Rotational constants in cm-1:     0.153926     0.078297     0.077402
Rotational constants in MHz :  4614.585804  2347.272644  2320.438903

                             ****ORCA TERMINATED NORMALLY****
TOTAL RUN TIME: 0 days 0 hours 0 minutes 10 seconds 605 msec
