                         Program Version 5.0.0 -  RELEASE  -
|  1> !wB97X-D3 RIJCOSX def2-SVPD def2/J TightSCF
|  2> *xyz 0 1
|  3> C         -5.57236       -5.80780       -0.81644
|  4> S         -6.90318       -4.61903       -0.52846
|  5> O         -8.11485       -5.25093       -0.95701
|  6> O         -6.53271       -3.42684       -1.31485
|  7> F         -6.86563       -4.29496        0.91412
|  8> C         -4.45780       -5.94187        0.22919
|  9> H         -5.17735       -5.54257       -1.79771
| 10> H         -6.07420       -6.76889       -0.92127
| 11> H         -3.75515       -6.68239       -0.09144
| 12> H         -4.88182       -6.23486        1.16689
| 13> H         -3.95908       -5.00189        0.34143
| 14> *
| 15> %MaxCore 64000
| 16>
| 17> %pal nprocs 18
| 18> end
| 19>
| 20> %scf
| 21>   MaxIter 150
| 22> end
| 23>
| 24>                          ****END OF INPUT****

CARTESIAN COORDINATES (ANGSTROEM)
---------------------------------
  C     -5.572360   -5.807800   -0.816440
  S     -6.903180   -4.619030   -0.528460
  O     -8.114850   -5.250930   -0.957010
  O     -6.532710   -3.426840   -1.314850
  F     -6.865630   -4.294960    0.914120
  C     -4.457800   -5.941870    0.229190
  H     -5.177350   -5.542570   -1.797710
  H     -6.074200   -6.768890   -0.921270
  H     -3.755150   -6.682390   -0.091440
  H     -4.881820   -6.234860    1.166890
  H     -3.959080   -5.001890    0.341430

 Total Charge           Charge          ....    0
 Multiplicity           Mult            ....    1
 Number of Electrons    NEL             ....   58
 Basis Dimension        Dim             ....  176

ORBITAL ENERGIES
----------------

  NO   OCC          E(Eh)            E(eV)
   0   2.0000     -89.235609     -2428.2244
   1   2.0000     -24.906339      -677.7359
   2   2.0000     -19.265598      -524.2436
   3   2.0000     -19.250159      -523.8235
   4   2.0000     -10.357756      -281.8489
   5   2.0000     -10.320983      -280.8482
   6   2.0000      -8.309888      -226.1236
   7   2.0000      -6.273571      -170.7125
   8   2.0000      -6.267208      -170.5394
   9   2.0000      -6.265951      -170.5052
  10   2.0000      -1.465933       -39.8901
  11   2.0000      -1.232592       -33.5405
  12   2.0000      -1.127342       -30.6765
  13   2.0000      -0.940964       -25.6049
  14   2.0000      -0.837939       -22.8015
  15   2.0000      -0.790085       -21.4993
  16   2.0000      -0.695506       -18.9257
  17   2.0000      -0.677037       -18.4231
  18   2.0000      -0.651419       -17.7260
  19   2.0000      -0.602946       -16.4070
  20   2.0000      -0.580672       -15.8009
  21   2.0000      -0.556206       -15.1351
  22   2.0000      -0.548887       -14.9360
  23   2.0000      -0.514353       -13.9963
  24   2.0000      -0.497801       -13.5459
  25   2.0000      -0.488061       -13.2808
  26   2.0000      -0.436450       -11.8764
  27   2.0000      -0.422900       -11.5077
  28   2.0000      -0.410950       -11.1825
  29   0.0000       0.060823         1.6551
  30   0.0000       0.092513         2.5174
  31   0.0000       0.096904         2.6369
  32   0.0000       0.099437         2.7058
  33   0.0000       0.119290         3.2461

MULLIKEN ATOMIC CHARGES
-----------------------
   0 C :   -0.415170
   1 S :    1.482790
   2 O :   -0.647499
   3 O :   -0.703131
   4 F :   -0.431310
   5 C :    0.642634
   6 H :    0.058958
   7 H :    0.074708
   8 H :   -0.026844
   9 H :   -0.011789
  10 H :   -0.023349
Sum of atomic charges:   -0.0000000

LOEWDIN ATOMIC CHARGES
----------------------
   0 C :   -0.076391
   1 S :    1.139121
   2 O :   -0.463694
   3 O :   -0.489854
   4 F :   -0.274159
   5 C :    0.130329
   6 H :    0.029724
   7 H :    0.018690
   8 H :   -0.002985
   9 H :   -0.008215
  10 H :   -0.002567

  Mayer bond orders larger than 0.100000
B(  0-C ,  1-S ) :   0.9693 B(  0-C ,  5-C ) :   1.2893 B(  0-C ,  6-H ) :   0.9736
B(  0-C ,  7-H ) :   0.9781 B(  0-C ,  8-H ) :   0.1835 B(  0-C ,  9-H ) :   0.1722
B(  0-C , 10-H ) :   0.1610 B(  1-S ,  2-O ) :   1.5670 B(  1-S ,  3-O ) :   1.5069
B(  1-S ,  4-F ) :   0.6392 B(  5-C ,  8-H ) :   0.7929 B(  5-C ,  9-H ) :   0.8348
B(  5-C , 10-H ) :   0.8480

Dispersion correction           -0.002793676
FINAL SINGLE POINT ENERGY      -727.186761021538

DIPOLE MOMENT
-------------
                                X             Y             Z
Electronic contribution:     -7.21009       5.12433       1.31102
Nuclear contribution   :      8.50531      -6.23950      -0.59960
                        -----------------------------------------
Total Dipole Moment    :      1.29523      -1.11517       0.71142
                        -----------------------------------------
Magnitude (a.u.)       :      1.85131
Magnitude (Debye)      :      4.70565

Rotational constants in cm-1:     0.152799     0.080212     0.076962
Rotational constants in MHz :  4580.804531  2404.707790  2307.252710

                             ****ORCA TERMINATED NORMALLY****
TOTAL RUN TIME: 0 days 0 hours 0 minutes 10 seconds 311 msec
