                         Program Version 5.0.0 -  RELEASE  -
|  1> !PBE0 D3BJ RIJCOSX def2-SVPD def2/J TightSCF
|  2> *xyz -1 1
|  3> C          3.51177       -2.80621       -6.49228
|  4> S          3.00462       -1.09621       -6.38926
|  5> O          4.12886       -0.32965       -6.95372
|  6> O          1.78128       -1.00078       -7.13640
|  7> O          2.85155       -0.78368       -4.95679
|  8> H          3.63615       -3.08010       -7.51913
|  9> H          2.76397       -3.42755       -6.04548
| 10> H          4.43892       -2.93511       -5.97393
| 11> *
| 12>
| 13> %MaxCore 64000
| 14>
| 15> %pal nprocs 8
| 16> end
| 17>
| 18> %scf
| 19>   MaxIter 150
| 20> end
| 21>
| 22>
| 23>                          ****END OF INPUT****

CARTESIAN COORDINATES (ANGSTROEM)
---------------------------------
  C      3.511770   -2.806210   -6.492280
  S      3.004620   -1.096210   -6.389260
  O      4.128860   -0.329650   -6.953720
  O      1.781280   -1.000780   -7.136400
  O      2.851550   -0.783680   -4.956790
  H      3.636150   -3.080100   -7.519130
  H      2.763970   -3.427550   -6.045480
  H      4.438920   -2.935110   -5.973930

 Total Charge           Charge          ....   -1
 Multiplicity           Mult            ....    1
 Number of Electrons    NEL             ....   50
 Basis Dimension        Dim             ....  140

ORBITAL ENERGIES
----------------

  NO   OCC          E(Eh)            E(eV)
   0   2.0000     -89.037470     -2422.8327
   1   2.0000     -18.998087      -516.9642
   2   2.0000     -18.987639      -516.6799
   3   2.0000     -18.987125      -516.6659
   4   2.0000     -10.087408      -274.4923
   5   2.0000      -7.996836      -217.6050
   6   2.0000      -5.939061      -161.6101
   7   2.0000      -5.938901      -161.6057
   8   2.0000      -5.938651      -161.5989
   9   2.0000      -0.954825       -25.9821
  10   2.0000      -0.812767       -22.1165
  11   2.0000      -0.792051       -21.5528
  12   2.0000      -0.604314       -16.4442
  13   2.0000      -0.405983       -11.0474
  14   2.0000      -0.317889        -8.6502
  15   2.0000      -0.306796        -8.3483
  16   2.0000      -0.305577        -8.3152
  17   2.0000      -0.262689        -7.1481
  18   2.0000      -0.260795        -7.0966
  19   2.0000      -0.163923        -4.4606
  20   2.0000      -0.163257        -4.4425
  21   2.0000      -0.127511        -3.4697
  22   2.0000      -0.121277        -3.3001
  23   2.0000      -0.114098        -3.1048
  24   2.0000      -0.075430        -2.0525
  25   0.0000       0.156871         4.2687
  26   0.0000       0.189942         5.1686
  27   0.0000       0.190026         5.1709
  28   0.0000       0.194340         5.2883
  29   0.0000       0.219603         5.9757

MULLIKEN ATOMIC CHARGES
-----------------------
   0 C :    0.305583
   1 S :    1.177229
   2 O :   -0.822718
   3 O :   -0.785912
   4 O :   -0.821400
   5 H :   -0.013460
   6 H :   -0.021116
   7 H :   -0.018207
Sum of atomic charges:   -1.0000000

LOEWDIN ATOMIC CHARGES
----------------------
   0 C :    0.047743
   1 S :    0.841907
   2 O :   -0.601692
   3 O :   -0.582445
   4 O :   -0.600008
   5 H :   -0.035062
   6 H :   -0.036033
   7 H :   -0.034410

  Mayer bond orders larger than 0.100000
B(  0-C ,  1-S ) :   0.9582 B(  0-C ,  5-H ) :   0.9339 B(  0-C ,  6-H ) :   0.9374
B(  0-C ,  7-H ) :   0.9396 B(  1-S ,  2-O ) :   1.2861 B(  1-S ,  3-O ) :   1.3131
B(  1-S ,  4-O ) :   1.2836 B(  1-S ,  5-H ) :   0.1029 B(  1-S ,  6-H ) :   0.1031
B(  1-S ,  7-H ) :   0.1100

Dispersion correction           -0.005340440
FINAL SINGLE POINT ENERGY      -663.077515150424

DIPOLE MOMENT
-------------
                                X             Y             Z
Electronic contribution:     -1.28653       4.01180       0.18208
Nuclear contribution   :      1.59265      -5.51967      -0.35565
                        -----------------------------------------
Total Dipole Moment    :      0.30611      -1.50787      -0.17357
                        -----------------------------------------
Magnitude (a.u.)       :      1.54839
Magnitude (Debye)      :      3.93569

Rotational constants in cm-1:     0.172598     0.157065     0.154689
Rotational constants in MHz :  5174.362736  4708.699947  4637.458896

                             ****ORCA TERMINATED NORMALLY****
TOTAL RUN TIME: 0 days 0 hours 0 minutes 6 seconds 925 msec
