                         Program Version 5.0.0 -  RELEASE  -
|  1> !PBE0 D3BJ RIJCOSX def2-SVPD def2/J TightSCF
|  2> *xyz 1 1
|  3> C          4.49059        1.15590       -2.46929
|  4> N          4.30539        1.22276       -3.90832
|  5> C          4.63192        2.24637       -4.67096
|  6> N          4.54169        2.14399       -5.98714
|  7> N          5.08409        3.39358       -4.11855
|  8> H          4.92067        3.57050       -3.13587
|  9> H          5.25465        4.19739       -4.70696
| 10> H          3.82453        0.44911       -4.35093
| 11> H          4.34337        1.24932       -6.41665
| 12> H          4.67671        2.95662       -6.57411
| 13> H          5.00867        2.03053       -2.13534
| 14> H          5.06354        0.28631       -2.22344
| 15> H          3.53600        1.10160       -1.98897
| 16> *
| 17>
| 18> %MaxCore 64000
| 19>
| 20> %pal nprocs 8
| 21> end
| 22>
| 23> %scf
| 24>   MaxIter 150
| 25> end
| 26>
| 27>
| 28>                          ****END OF INPUT****

CARTESIAN COORDINATES (ANGSTROEM)
---------------------------------
  C      4.490590    1.155900   -2.469290
  N      4.305390    1.222760   -3.908320
  C      4.631920    2.246370   -4.670960
  N      4.541690    2.143990   -5.987140
  N      5.084090    3.393580   -4.118550
  H      4.920670    3.570500   -3.135870
  H      5.254650    4.197390   -4.706960
  H      3.824530    0.449110   -4.350930
  H      4.343370    1.249320   -6.416650
  H      4.676710    2.956620   -6.574110
  H      5.008670    2.030530   -2.135340
  H      5.063540    0.286310   -2.223440
  H      3.536000    1.101600   -1.988970

 Total Charge           Charge          ....    1
 Multiplicity           Mult            ....    1
 Number of Electrons    NEL             ....   40
 Basis Dimension        Dim             ....  164

ORBITAL ENERGIES
----------------

  NO   OCC          E(Eh)            E(eV)
   0   2.0000     -14.629534      -398.0899
   1   2.0000     -14.623646      -397.9296
   2   2.0000     -14.620497      -397.8439
   3   2.0000     -10.572257      -287.6858
   4   2.0000     -10.439138      -284.0634
   5   2.0000      -1.240652       -33.7599
   6   2.0000      -1.128726       -30.7142
   7   2.0000      -1.111766       -30.2527
   8   2.0000      -0.928416       -25.2635
   9   2.0000      -0.847619       -23.0649
  10   2.0000      -0.810821       -22.0636
  11   2.0000      -0.776288       -21.1239
  12   2.0000      -0.711739       -19.3674
  13   2.0000      -0.709463       -19.3055
  14   2.0000      -0.673293       -18.3212
  15   2.0000      -0.660162       -17.9639
  16   2.0000      -0.608969       -16.5709
  17   2.0000      -0.597497       -16.2587
  18   2.0000      -0.494105       -13.4453
  19   2.0000      -0.470404       -12.8003
  20   0.0000      -0.165388        -4.5004
  21   0.0000      -0.147743        -4.0203
  22   0.0000      -0.114341        -3.1114
  23   0.0000      -0.107418        -2.9230
  24   0.0000      -0.083497        -2.2721

MULLIKEN ATOMIC CHARGES
-----------------------
   0 C :    1.089454
   1 N :   -0.713265
   2 C :    1.687836
   3 N :   -0.195037
   4 N :   -0.177895
   5 H :   -0.021680
   6 H :   -0.097595
   7 H :   -0.261068
   8 H :   -0.033249
   9 H :   -0.008096
  10 H :   -0.152430
  11 H :   -0.044353
  12 H :   -0.072622
Sum of atomic charges:    1.0000000

LOEWDIN ATOMIC CHARGES
----------------------
   0 C :    0.268800
   1 N :    0.006658
   2 C :   -0.024750
   3 N :    0.257135
   4 N :    0.269741
   5 H :    0.013335
   6 H :    0.037997
   7 H :    0.065387
   8 H :    0.043918
   9 H :    0.043498
  10 H :   -0.014780
  11 H :    0.017247
  12 H :    0.015814

  Mayer bond orders larger than 0.100000
B(  0-C ,  1-N ) :   0.8687 B(  0-C ,  7-H ) :  -0.1828 B(  0-C , 10-H ) :   0.8644
B(  0-C , 11-H ) :   0.7966 B(  0-C , 12-H ) :   0.8186 B(  1-N ,  2-C ) :   0.9205
B(  1-N ,  3-N ) :   0.2597 B(  1-N ,  4-N ) :   0.2614 B(  1-N ,  7-H ) :   1.3925
B(  1-N , 10-H ) :   0.1839 B(  1-N , 11-H ) :   0.1763 B(  1-N , 12-H ) :   0.1617
B(  2-C ,  3-N ) :   0.7502 B(  2-C ,  4-N ) :   0.8236 B(  2-C ,  5-H ) :  -0.1118
B(  2-C ,  6-H ) :  -0.1535 B(  2-C ,  7-H ) :  -0.2471 B(  2-C ,  8-H ) :  -0.1688
B(  2-C ,  9-H ) :  -0.1234 B(  3-N ,  4-N ) :   0.1870 B(  3-N ,  8-H ) :   1.1981
B(  3-N ,  9-H ) :   1.1918 B(  4-N ,  5-H ) :   1.0868 B(  4-N ,  6-H ) :   1.2237
B(  5-H ,  6-H ) :  -0.1458 B(  8-H ,  9-H ) :  -0.1658

Dispersion correction           -0.007586842
FINAL SINGLE POINT ENERGY      -244.647017296273

DIPOLE MOMENT
-------------
                                X             Y             Z
Electronic contribution:      0.02705       0.69001      -2.68485
Nuclear contribution   :     -0.23495      -0.48067       2.19509
                        -----------------------------------------
Total Dipole Moment    :     -0.20790       0.20935      -0.48976
                        -----------------------------------------
Magnitude (a.u.)       :      0.57176
Magnitude (Debye)      :      1.45330

Rotational constants in cm-1:     0.315679     0.134071     0.096006
Rotational constants in MHz :  9463.824527  4019.347586  2878.182223

                             ****ORCA TERMINATED NORMALLY****
TOTAL RUN TIME: 0 days 0 hours 0 minutes 9 seconds 771 msec
