                         Program Version 5.0.0 -  RELEASE  -
|  1> !PBE0 D3BJ RIJCOSX def2-SVPD def2/J TightSCF
|  2> *xyz 0 1
|  3> C          3.51177       -2.80621       -6.49228
|  4> S          3.00462       -1.09621       -6.38926
|  5> F          4.12886       -0.32965       -6.95372
|  6> O          1.78128       -1.00078       -7.13640
|  7> O          2.85155       -0.78368       -4.95679
|  8> H          3.63615       -3.08010       -7.51913
|  9> H          2.76397       -3.42755       -6.04548
| 10> H          4.43892       -2.93511       -5.97393
| 11> *
| 12>
| 13> %MaxCore 64000
| 14>
| 15> %pal nprocs 8
| 16> end
| 17>
| 18> %scf
| 19>   MaxIter 150
| 20> end
| 21>
| 22>
| 23>                          ****END OF INPUT****

CARTESIAN COORDINATES (ANGSTROEM)
---------------------------------
  C      3.511770   -2.806210   -6.492280
  S      3.004620   -1.096210   -6.389260
  F      4.128860   -0.329650   -6.953720
  O      1.781280   -1.000780   -7.136400
  O      2.851550   -0.783680   -4.956790
  H      3.636150   -3.080100   -7.519130
  H      2.763970   -3.427550   -6.045480
  H      4.438920   -2.935110   -5.973930

 Total Charge           Charge          ....    0
 Multiplicity           Mult            ....    1
 Number of Electrons    NEL             ....   50
 Basis Dimension        Dim             ....  140

ORBITAL ENERGIES
----------------

  NO   OCC          E(Eh)            E(eV)
   0   2.0000     -89.303392     -2430.0688
   1   2.0000     -24.894114      -677.4033
   2   2.0000     -19.238108      -523.4955
   3   2.0000     -19.227336      -523.2024
   4   2.0000     -10.297304      -280.2039
   5   2.0000      -8.263349      -224.8572
   6   2.0000      -6.209451      -168.9678
   7   2.0000      -6.203326      -168.8011
   8   2.0000      -6.202367      -168.7750
   9   2.0000      -1.389262       -37.8037
  10   2.0000      -1.145876       -31.1809
  11   2.0000      -1.042461       -28.3668
  12   2.0000      -0.828290       -22.5389
  13   2.0000      -0.732250       -19.9255
  14   2.0000      -0.616737       -16.7823
  15   2.0000      -0.596414       -16.2292
  16   2.0000      -0.577357       -15.7107
  17   2.0000      -0.500309       -13.6141
  18   2.0000      -0.498626       -13.5683
  19   2.0000      -0.486022       -13.2253
  20   2.0000      -0.461306       -12.5528
  21   2.0000      -0.409111       -11.1325
  22   2.0000      -0.361625        -9.8403
  23   2.0000      -0.350876        -9.5478
  24   2.0000      -0.331580        -9.0228
  25   0.0000      -0.001950        -0.0531
  26   0.0000       0.036177         0.9844
  27   0.0000       0.039926         1.0864
  28   0.0000       0.050770         1.3815
  29   0.0000       0.051672         1.4061

MULLIKEN ATOMIC CHARGES
-----------------------
   0 C :    0.282459
   1 S :    1.338669
   2 F :   -0.405311
   3 O :   -0.654669
   4 O :   -0.688395
   5 H :    0.051020
   6 H :    0.033134
   7 H :    0.043092
Sum of atomic charges:    0.0000000

LOEWDIN ATOMIC CHARGES
----------------------
   0 C :    0.117029
   1 S :    1.112938
   2 F :   -0.272207
   3 O :   -0.464145
   4 O :   -0.480244
   5 H :   -0.008753
   6 H :    0.004213
   7 H :   -0.008831

  Mayer bond orders larger than 0.100000
B(  0-C ,  1-S ) :   1.0179 B(  0-C ,  5-H ) :   0.9202 B(  0-C ,  6-H ) :   0.9264
B(  0-C ,  7-H ) :   0.9263 B(  1-S ,  2-F ) :   0.6442 B(  1-S ,  3-O ) :   1.5225
B(  1-S ,  4-O ) :   1.4920 B(  1-S ,  6-H ) :   0.1040

Dispersion correction           -0.005004854
FINAL SINGLE POINT ENERGY      -687.560977491783

DIPOLE MOMENT
-------------
                                X             Y             Z
Electronic contribution:      0.58683       5.22803      -0.77924
Nuclear contribution   :      0.51040      -6.36905       0.21167
                        -----------------------------------------
Total Dipole Moment    :      1.09723      -1.14102      -0.56757
                        -----------------------------------------
Magnitude (a.u.)       :      1.68166
Magnitude (Debye)      :      4.27443

Rotational constants in cm-1:     0.163860     0.154073     0.147119
Rotational constants in MHz :  4912.396151  4618.979177  4410.507958

                             ****ORCA TERMINATED NORMALLY****
TOTAL RUN TIME: 0 days 0 hours 0 minutes 7 seconds 562 msec
