                         Program Version 5.0.0 -  RELEASE  -
|  1> !PBE0 D3BJ RIJCOSX def2-SVPD def2/J TightSCF
|  2> *xyz 0 1
|  3> C          4.49059        1.15590       -2.46929
|  4> C          4.30539        1.22276       -3.90832
|  5> C          4.63192        2.24637       -4.67096
|  6> N          4.54169        2.14399       -5.98714
|  7> N          5.08409        3.39358       -4.11855
|  8> H          4.92067        3.57050       -3.13587
|  9> H          5.25465        4.19739       -4.70696
| 10> H          3.82453        0.44911       -4.35093
| 11> H          4.34337        1.24932       -6.41665
| 12> H          4.67671        2.95662       -6.57411
| 13> H          5.00867        2.03053       -2.13534
| 14> H          5.06354        0.28631       -2.22344
| 15> H          3.53600        1.10160       -1.98897
| 16> *
| 17>
| 18> %MaxCore 64000
| 19>
| 20> %pal nprocs 8
| 21> end
| 22>
| 23> %scf
| 24>   MaxIter 150
| 25> end
| 26>
| 27>
| 28>                          ****END OF INPUT****

CARTESIAN COORDINATES (ANGSTROEM)
---------------------------------
  C      4.490590    1.155900   -2.469290
  C      4.305390    1.222760   -3.908320
  C      4.631920    2.246370   -4.670960
  N      4.541690    2.143990   -5.987140
  N      5.084090    3.393580   -4.118550
  H      4.920670    3.570500   -3.135870
  H      5.254650    4.197390   -4.706960
  H      3.824530    0.449110   -4.350930
  H      4.343370    1.249320   -6.416650
  H      4.676710    2.956620   -6.574110
  H      5.008670    2.030530   -2.135340
  H      5.063540    0.286310   -2.223440
  H      3.536000    1.101600   -1.988970

 Total Charge           Charge          ....    0
 Multiplicity           Mult            ....    1
 Number of Electrons    NEL             ....   40
 Basis Dimension        Dim             ....  164

ORBITAL ENERGIES
----------------

  NO   OCC          E(Eh)            E(eV)
   0   2.0000     -14.393432      -391.6652
   1   2.0000     -14.392782      -391.6475
   2   2.0000     -10.270990      -279.4879
   3   2.0000     -10.195879      -277.4440
   4   2.0000     -10.154631      -276.3216
   5   2.0000      -0.975719       -26.5507
   6   2.0000      -0.883719       -24.0472
   7   2.0000      -0.769225       -20.9317
   8   2.0000      -0.672247       -18.2928
   9   2.0000      -0.598081       -16.2746
  10   2.0000      -0.556076       -15.1316
  11   2.0000      -0.526518       -14.3273
  12   2.0000      -0.488081       -13.2814
  13   2.0000      -0.436985       -11.8910
  14   2.0000      -0.421058       -11.4576
  15   2.0000      -0.387862       -10.5542
  16   2.0000      -0.374029       -10.1779
  17   2.0000      -0.354953        -9.6588
  18   2.0000      -0.275504        -7.4969
  19   2.0000      -0.166579        -4.5328
  20   0.0000       0.023776         0.6470
  21   0.0000       0.051224         1.3939
  22   0.0000       0.062489         1.7004
  23   0.0000       0.087629         2.3845
  24   0.0000       0.092457         2.5159

MULLIKEN ATOMIC CHARGES
-----------------------
   0 C :    0.809394
   1 C :   -0.794158
   2 C :    1.224991
   3 N :   -0.098309
   4 N :   -0.131520
   5 H :   -0.041824
   6 H :   -0.230092
   7 H :   -0.314677
   8 H :   -0.058904
   9 H :   -0.129631
  10 H :   -0.224447
  11 H :    0.023320
  12 H :   -0.034142
Sum of atomic charges:    0.0000000

LOEWDIN ATOMIC CHARGES
----------------------
   0 C :    0.096394
   1 C :   -0.074171
   2 C :   -0.223191
   3 N :    0.167084
   4 N :    0.186496
   5 H :   -0.018120
   6 H :   -0.012233
   7 H :   -0.046211
   8 H :    0.009262
   9 H :   -0.008213
  10 H :   -0.043497
  11 H :   -0.016414
  12 H :   -0.017185

  Mayer bond orders larger than 0.100000
B(  0-C ,  1-C ) :   1.0835 B(  0-C ,  7-H ) :   0.1529 B(  0-C , 10-H ) :   0.8387
B(  0-C , 11-H ) :   0.7313 B(  0-C , 12-H ) :   0.7506 B(  1-C ,  2-C ) :   1.5537
B(  1-C ,  3-N ) :   0.4033 B(  1-C ,  4-N ) :   0.2610 B(  1-C ,  7-H ) :   1.0236
B(  1-C , 10-H ) :   0.3393 B(  1-C , 11-H ) :   0.1786 B(  1-C , 12-H ) :   0.1608
B(  2-C ,  3-N ) :   0.7612 B(  2-C ,  4-N ) :   0.8532 B(  2-C ,  6-H ) :  -0.1626
B(  2-C ,  7-H ) :   0.1095 B(  2-C ,  8-H ) :  -0.1071 B(  2-C , 10-H ) :  -0.1152
B(  3-N ,  4-N ) :   0.1379 B(  3-N ,  8-H ) :   1.1920 B(  3-N ,  9-H ) :   1.1996
B(  4-N ,  5-H ) :   1.0704 B(  4-N ,  6-H ) :   1.2843 B(  5-H ,  6-H ) :  -0.1352
B(  8-H ,  9-H ) :  -0.1562 B( 10-H , 11-H ) :   0.1353

Dispersion correction           -0.007940448
FINAL SINGLE POINT ENERGY      -228.191356902643

DIPOLE MOMENT
-------------
                                X             Y             Z
Electronic contribution:      0.29841       1.34108      -2.87213
Nuclear contribution   :     -0.29662      -0.64714       2.26125
                        -----------------------------------------
Total Dipole Moment    :      0.00179       0.69394      -0.61088
                        -----------------------------------------
Magnitude (a.u.)       :      0.92452
Magnitude (Debye)      :      2.34994

Rotational constants in cm-1:     0.320965     0.135060     0.096994
Rotational constants in MHz :  9622.302637  4048.999301  2907.812202

                             ****ORCA TERMINATED NORMALLY****
TOTAL RUN TIME: 0 days 0 hours 0 minutes 8 seconds 808 msec
