                         Program Version 5.0.0 -  RELEASE  -
|  1> !PBE0 D3BJ RIJCOSX def2-SVPD def2/J TightSCF
|  2> *xyz 0 1
|  3> C          3.51177       -2.80621       -6.49228
|  4> S          3.00462       -1.09621       -6.38926
|  5> O          4.12886       -0.32965       -6.95372
|  6> F          1.78128       -1.00078       -7.13640
|  7> O          2.85155       -0.78368       -4.95679
|  8> H          3.63615       -3.08010       -7.51913
|  9> H          2.76397       -3.42755       -6.04548
| 10> H          4.43892       -2.93511       -5.97393
| 11> *
| 12>
| 13> %MaxCore 64000
| 14>
| 15> %pal nprocs 8
| 16> end
| 17>
| 18> %scf
| 19>   MaxIter 150
| 20> end
| 21>
| 22>
| 23>                          ****END OF INPUT****

CARTESIAN COORDINATES (ANGSTROEM)
---------------------------------
  C      3.511770   -2.806210   -6.492280
  S      3.004620   -1.096210   -6.389260
  O      4.128860   -0.329650   -6.953720
  F      1.781280   -1.000780   -7.136400
  O      2.851550   -0.783680   -4.956790
  H      3.636150   -3.080100   -7.519130
  H      2.763970   -3.427550   -6.045480
  H      4.438920   -2.935110   -5.973930

 Total Charge           Charge          ....    0
 Multiplicity           Mult            ....    1
 Number of Electrons    NEL             ....   50
 Basis Dimension        Dim             ....  140

ORBITAL ENERGIES
----------------

  NO   OCC          E(Eh)            E(eV)
   0   2.0000     -89.305408     -2430.1237
   1   2.0000     -24.911870      -677.8865
   2   2.0000     -19.227803      -523.2151
   3   2.0000     -19.227146      -523.1973
   4   2.0000     -10.298004      -280.2229
   5   2.0000      -8.265364      -224.9120
   6   2.0000      -6.211713      -169.0293
   7   2.0000      -6.205093      -168.8492
   8   2.0000      -6.204215      -168.8253
   9   2.0000      -1.420481       -38.6533
  10   2.0000      -1.132455       -30.8157
  11   2.0000      -1.028648       -27.9909
  12   2.0000      -0.830549       -22.6004
  13   2.0000      -0.747509       -20.3407
  14   2.0000      -0.631814       -17.1925
  15   2.0000      -0.618020       -16.8172
  16   2.0000      -0.580691       -15.8014
  17   2.0000      -0.499461       -13.5910
  18   2.0000      -0.495727       -13.4894
  19   2.0000      -0.487323       -13.2607
  20   2.0000      -0.455726       -12.4009
  21   2.0000      -0.401751       -10.9322
  22   2.0000      -0.351939        -9.5768
  23   2.0000      -0.346674        -9.4335
  24   2.0000      -0.320954        -8.7336
  25   0.0000      -0.003286        -0.0894
  26   0.0000       0.038194         1.0393
  27   0.0000       0.039119         1.0645
  28   0.0000       0.049350         1.3429
  29   0.0000       0.051931         1.4131

MULLIKEN ATOMIC CHARGES
-----------------------
   0 C :    0.284269
   1 S :    1.330554
   2 O :   -0.678754
   3 F :   -0.385989
   4 O :   -0.678741
   5 H :    0.050792
   6 H :    0.043625
   7 H :    0.034244
Sum of atomic charges:   -0.0000000

LOEWDIN ATOMIC CHARGES
----------------------
   0 C :    0.116446
   1 S :    1.114903
   2 O :   -0.481589
   3 F :   -0.256509
   4 O :   -0.479807
   5 H :   -0.009012
   6 H :   -0.009694
   7 H :    0.005262

  Mayer bond orders larger than 0.100000
B(  0-C ,  1-S ) :   1.0180 B(  0-C ,  5-H ) :   0.9185 B(  0-C ,  6-H ) :   0.9229
B(  0-C ,  7-H ) :   0.9297 B(  1-S ,  2-O ) :   1.4985 B(  1-S ,  3-F ) :   0.6820
B(  1-S ,  4-O ) :   1.4947 B(  1-S ,  7-H ) :   0.1091

Dispersion correction           -0.005004582
FINAL SINGLE POINT ENERGY      -687.545880771163

DIPOLE MOMENT
-------------
                                X             Y             Z
Electronic contribution:     -3.31836       4.11087      -1.07169
Nuclear contribution   :      2.85578      -5.69854       0.39418
                        -----------------------------------------
Total Dipole Moment    :     -0.46258      -1.58767      -0.67751
                        -----------------------------------------
Magnitude (a.u.)       :      1.78709
Magnitude (Debye)      :      4.54242

Rotational constants in cm-1:     0.163257     0.155833     0.146211
Rotational constants in MHz :  4894.333085  4671.750883  4383.281537

                             ****ORCA TERMINATED NORMALLY****
TOTAL RUN TIME: 0 days 0 hours 0 minutes 6 seconds 893 msec
