                         Program Version 5.0.0 -  RELEASE  -
|  1> !PBE0 D3BJ RIJCOSX def2-SVPD def2/J TightSCF
|  2> *xyz 0 1
|  3> C          4.49059        1.15590       -2.46929
|  4> N          4.30539        1.22276       -3.90832
|  5> C          4.63192        2.24637       -4.67096
|  6> C          4.54169        2.14399       -5.98714
|  7> N          5.08409        3.39358       -4.11855
|  8> H          4.92067        3.57050       -3.13587
|  9> H          5.25465        4.19739       -4.70696
| 10> H          3.82453        0.44911       -4.35093
| 11> H          4.34337        1.24932       -6.41665
| 12> H          4.67671        2.95662       -6.57411
| 13> H          5.00867        2.03053       -2.13534
| 14> H          5.06354        0.28631       -2.22344
| 15> H          3.53600        1.10160       -1.98897
| 16> *
| 17>
| 18> %MaxCore 64000
| 19>
| 20> %pal nprocs 8
| 21> end
| 22>
| 23> %scf
| 24>   MaxIter 150
| 25> end
| 26>
| 27>
| 28>                          ****END OF INPUT****

CARTESIAN COORDINATES (ANGSTROEM)
---------------------------------
  C      4.490590    1.155900   -2.469290
  N      4.305390    1.222760   -3.908320
  C      4.631920    2.246370   -4.670960
  C      4.541690    2.143990   -5.987140
  N      5.084090    3.393580   -4.118550
  H      4.920670    3.570500   -3.135870
  H      5.254650    4.197390   -4.706960
  H      3.824530    0.449110   -4.350930
  H      4.343370    1.249320   -6.416650
  H      4.676710    2.956620   -6.574110
  H      5.008670    2.030530   -2.135340
  H      5.063540    0.286310   -2.223440
  H      3.536000    1.101600   -1.988970

 Total Charge           Charge          ....    0
 Multiplicity           Mult            ....    1
 Number of Electrons    NEL             ....   40
 Basis Dimension        Dim             ....  164

ORBITAL ENERGIES
----------------

  NO   OCC          E(Eh)            E(eV)
   0   2.0000     -14.398861      -391.8129
   1   2.0000     -14.394647      -391.6983
   2   2.0000     -10.276280      -279.6318
   3   2.0000     -10.264257      -279.3046
   4   2.0000     -10.141639      -275.9680
   5   2.0000      -0.986677       -26.8489
   6   2.0000      -0.896953       -24.4073
   7   2.0000      -0.762131       -20.7386
   8   2.0000      -0.681555       -18.5461
   9   2.0000      -0.618919       -16.8417
  10   2.0000      -0.553490       -15.0612
  11   2.0000      -0.507993       -13.8232
  12   2.0000      -0.490188       -13.3387
  13   2.0000      -0.468235       -12.7413
  14   2.0000      -0.422303       -11.4915
  15   2.0000      -0.405826       -11.0431
  16   2.0000      -0.396068       -10.7775
  17   2.0000      -0.373288       -10.1577
  18   2.0000      -0.265587        -7.2270
  19   2.0000      -0.171640        -4.6706
  20   0.0000       0.021090         0.5739
  21   0.0000       0.052767         1.4359
  22   0.0000       0.056527         1.5382
  23   0.0000       0.082427         2.2429
  24   0.0000       0.096466         2.6250

MULLIKEN ATOMIC CHARGES
-----------------------
   0 C :    1.117439
   1 N :   -0.665629
   2 C :    0.986487
   3 C :    0.196372
   4 N :   -0.100167
   5 H :   -0.109910
   6 H :   -0.117485
   7 H :   -0.311362
   8 H :   -0.266993
   9 H :   -0.295155
  10 H :   -0.191089
  11 H :   -0.107861
  12 H :   -0.134648
Sum of atomic charges:   -0.0000000

LOEWDIN ATOMIC CHARGES
----------------------
   0 C :    0.215793
   1 N :   -0.054492
   2 C :   -0.234818
   3 C :    0.131258
   4 N :    0.187733
   5 H :   -0.032059
   6 H :    0.006383
   7 H :    0.039777
   8 H :   -0.098175
   9 H :   -0.099913
  10 H :   -0.032963
  11 H :   -0.013668
  12 H :   -0.014855

  Mayer bond orders larger than 0.100000
B(  0-C ,  1-N ) :   0.8603 B(  0-C ,  7-H ) :  -0.1854 B(  0-C , 10-H ) :   0.8635
B(  0-C , 11-H ) :   0.7983 B(  0-C , 12-H ) :   0.8201 B(  1-N ,  2-C ) :   0.9418
B(  1-N ,  3-C ) :   0.2406 B(  1-N ,  4-N ) :   0.2155 B(  1-N ,  7-H ) :   1.3628
B(  1-N , 10-H ) :   0.2064 B(  1-N , 11-H ) :   0.1792 B(  1-N , 12-H ) :   0.1778
B(  2-C ,  3-C ) :   1.4384 B(  2-C ,  4-N ) :   0.8450 B(  2-C ,  6-H ) :  -0.1011
B(  2-C ,  7-H ) :  -0.2291 B(  2-C ,  9-H ) :   0.1422 B(  3-C ,  4-N ) :   0.2137
B(  3-C ,  8-H ) :   0.9194 B(  3-C ,  9-H ) :   0.8526 B(  4-N ,  5-H ) :   1.0969
B(  4-N ,  6-H ) :   1.1894 B(  5-H ,  6-H ) :  -0.1372

Dispersion correction           -0.007893142
FINAL SINGLE POINT ENERGY      -228.178772229854

DIPOLE MOMENT
-------------
                                X             Y             Z
Electronic contribution:      0.09212       0.50441      -0.76997
Nuclear contribution   :     -0.24876      -0.46055       1.84019
                        -----------------------------------------
Total Dipole Moment    :     -0.15664       0.04386       1.07022
                        -----------------------------------------
Magnitude (a.u.)       :      1.08251
Magnitude (Debye)      :      2.75152

Rotational constants in cm-1:     0.322158     0.139919     0.099594
Rotational constants in MHz :  9658.057362  4194.660927  2985.745059

                             ****ORCA TERMINATED NORMALLY****
TOTAL RUN TIME: 0 days 0 hours 0 minutes 9 seconds 328 msec
