                         Program Version 5.0.0 -  RELEASE  -
|  1> !PBE0 D3BJ RIJCOSX def2-SVPD def2/J TightSCF
|  2> *xyz 0 1
|  3> C          3.51177       -2.80621       -6.49228
|  4> S          3.00462       -1.09621       -6.38926
|  5> O          4.12886       -0.32965       -6.95372
|  6> O          1.78128       -1.00078       -7.13640
|  7> F          2.85155       -0.78368       -4.95679
|  8> H          3.63615       -3.08010       -7.51913
|  9> H          2.76397       -3.42755       -6.04548
| 10> H          4.43892       -2.93511       -5.97393
| 11> *
| 12>
| 13> %MaxCore 64000
| 14>
| 15> %pal nprocs 8
| 16> end
| 17>
| 18> %scf
| 19>   MaxIter 150
| 20> end
| 21>
| 22>
| 23>                          ****END OF INPUT****

CARTESIAN COORDINATES (ANGSTROEM)
---------------------------------
  C      3.511770   -2.806210   -6.492280
  S      3.004620   -1.096210   -6.389260
  O      4.128860   -0.329650   -6.953720
  O      1.781280   -1.000780   -7.136400
  F      2.851550   -0.783680   -4.956790
  H      3.636150   -3.080100   -7.519130
  H      2.763970   -3.427550   -6.045480
  H      4.438920   -2.935110   -5.973930

 Total Charge           Charge          ....    0
 Multiplicity           Mult            ....    1
 Number of Electrons    NEL             ....   50
 Basis Dimension        Dim             ....  140

ORBITAL ENERGIES
----------------

  NO   OCC          E(Eh)            E(eV)
   0   2.0000     -89.303398     -2430.0690
   1   2.0000     -24.894291      -677.4081
   2   2.0000     -19.238320      -523.5013
   3   2.0000     -19.226907      -523.1907
   4   2.0000     -10.297132      -280.1992
   5   2.0000      -8.263349      -224.8572
   6   2.0000      -6.209444      -168.9676
   7   2.0000      -6.203285      -168.8000
   8   2.0000      -6.202415      -168.7763
   9   2.0000      -1.388761       -37.7901
  10   2.0000      -1.145778       -31.1782
  11   2.0000      -1.043647       -28.3991
  12   2.0000      -0.827015       -22.5042
  13   2.0000      -0.732339       -19.9279
  14   2.0000      -0.616682       -16.7808
  15   2.0000      -0.595797       -16.2125
  16   2.0000      -0.577432       -15.7127
  17   2.0000      -0.499699       -13.5975
  18   2.0000      -0.498274       -13.5587
  19   2.0000      -0.487238       -13.2584
  20   2.0000      -0.461393       -12.5551
  21   2.0000      -0.408541       -11.1170
  22   2.0000      -0.361593        -9.8395
  23   2.0000      -0.349758        -9.5174
  24   2.0000      -0.332630        -9.0513
  25   0.0000      -0.002889        -0.0786
  26   0.0000       0.033577         0.9137
  27   0.0000       0.039854         1.0845
  28   0.0000       0.050836         1.3833
  29   0.0000       0.051547         1.4027

MULLIKEN ATOMIC CHARGES
-----------------------
   0 C :    0.283883
   1 S :    1.339876
   2 O :   -0.689906
   3 O :   -0.656069
   4 F :   -0.404969
   5 H :    0.040051
   6 H :    0.042631
   7 H :    0.044503
Sum of atomic charges:    0.0000000

LOEWDIN ATOMIC CHARGES
----------------------
   0 C :    0.116937
   1 S :    1.113456
   2 O :   -0.481941
   3 O :   -0.464153
   4 F :   -0.270649
   5 H :    0.004859
   6 H :   -0.010005
   7 H :   -0.008505

  Mayer bond orders larger than 0.100000
B(  0-C ,  1-S ) :   1.0192 B(  0-C ,  5-H ) :   0.9224 B(  0-C ,  6-H ) :   0.9232
B(  0-C ,  7-H ) :   0.9266 B(  1-S ,  2-O ) :   1.4949 B(  1-S ,  3-O ) :   1.5219
B(  1-S ,  4-F ) :   0.6393 B(  1-S ,  5-H ) :   0.1032

Dispersion correction           -0.005006159
FINAL SINGLE POINT ENERGY      -687.560664882401

DIPOLE MOMENT
-------------
                                X             Y             Z
Electronic contribution:     -1.54767       4.46660       2.56177
Nuclear contribution   :      1.78651      -5.91544      -1.78339
                        -----------------------------------------
Total Dipole Moment    :      0.23884      -1.44884       0.77838
                        -----------------------------------------
Magnitude (a.u.)       :      1.66194
Magnitude (Debye)      :      4.22433

Rotational constants in cm-1:     0.165193     0.152051     0.147788
Rotational constants in MHz :  4952.361749  4558.380225  4430.570551

                             ****ORCA TERMINATED NORMALLY****
TOTAL RUN TIME: 0 days 0 hours 0 minutes 7 seconds 673 msec
