                         Program Version 5.0.0 -  RELEASE  -
|  1> !PBE0 D3BJ RIJCOSX def2-SVPD def2/J TightSCF
|  2> *xyz 0 1
|  3> C          4.49059        1.15590       -2.46929
|  4> N          4.30539        1.22276       -3.90832
|  5> C          4.63192        2.24637       -4.67096
|  6> N          4.54169        2.14399       -5.98714
|  7> C          5.08409        3.39358       -4.11855
|  8> H          4.92067        3.57050       -3.13587
|  9> H          5.25465        4.19739       -4.70696
| 10> H          3.82453        0.44911       -4.35093
| 11> H          4.34337        1.24932       -6.41665
| 12> H          4.67671        2.95662       -6.57411
| 13> H          5.00867        2.03053       -2.13534
| 14> H          5.06354        0.28631       -2.22344
| 15> H          3.53600        1.10160       -1.98897
| 16> *
| 17>
| 18> %MaxCore 64000
| 19>
| 20> %pal nprocs 8
| 21> end
| 22>
| 23> %scf
| 24>   MaxIter 150
| 25> end
| 26>
| 27>
| 28>                          ****END OF INPUT****

CARTESIAN COORDINATES (ANGSTROEM)
---------------------------------
  C      4.490590    1.155900   -2.469290
  N      4.305390    1.222760   -3.908320
  C      4.631920    2.246370   -4.670960
  N      4.541690    2.143990   -5.987140
  C      5.084090    3.393580   -4.118550
  H      4.920670    3.570500   -3.135870
  H      5.254650    4.197390   -4.706960
  H      3.824530    0.449110   -4.350930
  H      4.343370    1.249320   -6.416650
  H      4.676710    2.956620   -6.574110
  H      5.008670    2.030530   -2.135340
  H      5.063540    0.286310   -2.223440
  H      3.536000    1.101600   -1.988970

 Total Charge           Charge          ....    0
 Multiplicity           Mult            ....    1
 Number of Electrons    NEL             ....   40
 Basis Dimension        Dim             ....  164

ORBITAL ENERGIES
----------------

  NO   OCC          E(Eh)            E(eV)
   0   2.0000     -14.401988      -391.8980
   1   2.0000     -14.397765      -391.7831
   2   2.0000     -10.279461      -279.7184
   3   2.0000     -10.254278      -279.0331
   4   2.0000     -10.142336      -275.9870
   5   2.0000      -0.990512       -26.9532
   6   2.0000      -0.903869       -24.5955
   7   2.0000      -0.734589       -19.9892
   8   2.0000      -0.711532       -19.3618
   9   2.0000      -0.586805       -15.9678
  10   2.0000      -0.569460       -15.4958
  11   2.0000      -0.536069       -14.5872
  12   2.0000      -0.470582       -12.8052
  13   2.0000      -0.458606       -12.4793
  14   2.0000      -0.428711       -11.6658
  15   2.0000      -0.396927       -10.8009
  16   2.0000      -0.390151       -10.6165
  17   2.0000      -0.371164       -10.0999
  18   2.0000      -0.263132        -7.1602
  19   2.0000      -0.171738        -4.6732
  20   0.0000       0.022993         0.6257
  21   0.0000       0.046984         1.2785
  22   0.0000       0.060595         1.6489
  23   0.0000       0.079651         2.1674
  24   0.0000       0.092053         2.5049

MULLIKEN ATOMIC CHARGES
-----------------------
   0 C :    1.087174
   1 N :   -0.645270
   2 C :    0.932159
   3 N :   -0.070540
   4 C :    0.139175
   5 H :   -0.130995
   6 H :   -0.390227
   7 H :   -0.376121
   8 H :   -0.160430
   9 H :   -0.027655
  10 H :   -0.135466
  11 H :   -0.090533
  12 H :   -0.131270
Sum of atomic charges:    0.0000000

LOEWDIN ATOMIC CHARGES
----------------------
   0 C :    0.223858
   1 N :   -0.062241
   2 C :   -0.235639
   3 N :    0.174830
   4 C :    0.147248
   5 H :   -0.120655
   6 H :   -0.105505
   7 H :    0.024569
   8 H :   -0.005316
   9 H :    0.011886
  10 H :   -0.030253
  11 H :   -0.011848
  12 H :   -0.010933

  Mayer bond orders larger than 0.100000
B(  0-C ,  1-N ) :   0.8518 B(  0-C ,  7-H ) :  -0.1704 B(  0-C , 10-H ) :   0.8774
B(  0-C , 11-H ) :   0.7684 B(  0-C , 12-H ) :   0.7930 B(  1-N ,  2-C ) :   0.8895
B(  1-N ,  3-N ) :   0.1737 B(  1-N ,  4-C ) :   0.3062 B(  1-N ,  7-H ) :   1.4374
B(  1-N , 10-H ) :   0.1655 B(  1-N , 11-H ) :   0.2093 B(  1-N , 12-H ) :   0.1961
B(  2-C ,  3-N ) :   0.8689 B(  2-C ,  4-C ) :   1.6648 B(  2-C ,  5-H ) :   0.1641
B(  2-C ,  6-H ) :   0.1198 B(  2-C ,  7-H ) :  -0.2758 B(  2-C ,  8-H ) :  -0.1131
B(  3-N ,  4-C ) :   0.2273 B(  3-N ,  8-H ) :   1.2322 B(  3-N ,  9-H ) :   1.1727
B(  4-C ,  5-H ) :   0.7710 B(  4-C ,  6-H ) :   0.9951 B(  5-H ,  6-H ) :   0.1179
B(  5-H , 10-H ) :   0.1412 B(  8-H ,  9-H ) :  -0.1614

Dispersion correction           -0.007925956
FINAL SINGLE POINT ENERGY      -228.177707809361

DIPOLE MOMENT
-------------
                                X             Y             Z
Electronic contribution:     -0.39224      -0.72891      -2.64836
Nuclear contribution   :     -0.13890      -0.20745       2.21867
                        -----------------------------------------
Total Dipole Moment    :     -0.53114      -0.93636      -0.42970
                        -----------------------------------------
Magnitude (a.u.)       :      1.15910
Magnitude (Debye)      :      2.94621

Rotational constants in cm-1:     0.339212     0.134625     0.098371
Rotational constants in MHz : 10169.318272  4035.946597  2949.073953

                             ****ORCA TERMINATED NORMALLY****
TOTAL RUN TIME: 0 days 0 hours 0 minutes 9 seconds 545 msec
