                         Program Version 5.0.0 -  RELEASE  -
|  1> !PBE0 D3BJ RIJCOSX def2-SVPD def2/J TightSCF xyzfile
|  2>
|  3> *xyzfile 0 1 D3.xyz
|  4>
|  5> %MaxCore 64000
|  6>
|  7> %pal nprocs 4
|  8> end
|  9>
| 10> %scf
| 11>   MaxIter 150
| 12> end
| 13>
| 14>
| 15>                          ****END OF INPUT****

CARTESIAN COORDINATES (ANGSTROEM)
---------------------------------
  C      4.490588    1.155899   -2.469290
  N      4.305394    1.222762   -3.908317
  C      4.906458   -3.102816   -5.954844
  C      3.511771   -2.806215   -6.492283
  H      2.736044   -3.373445   -5.973736
  H      3.444904   -3.040831   -7.555281
  S      3.004618   -1.096206   -6.389259
  C      4.631918    2.246365   -4.670958
  N      4.541686    2.143990   -5.987139
  C      5.084086    3.393584   -4.118545
  H      4.920675    3.570501   -3.135870
  H      5.254652    4.197390   -4.706956
  H      3.824530    0.449113   -4.350926
  H      4.343373    1.249318   -6.416646
  H      4.676712    2.956624   -6.574113
  F      4.128856   -0.329647   -6.953717
  O      1.781285   -1.000779   -7.136399
  C      5.942129    0.939500   -2.036893
  H      3.864305    0.328532   -2.136611
  H      4.076233    2.049994   -1.989010
  C      6.462677   -3.117775   -3.944671
  C      5.024977   -3.025679   -4.437625
  H      4.423321   -3.818693   -3.977648
  H      4.579350   -2.087131   -4.108727
  H      5.201533   -4.100207   -6.296905
  H      5.605922   -2.397822   -6.413368
  C      6.559957   -0.356290   -2.559086
  H      5.967976    0.952567   -0.942444
  H      6.547184    1.788331   -2.368849
  C      6.006283   -1.615917   -1.899301
  H      7.642360   -0.318000   -2.402059
  H      6.414855   -0.403433   -3.642587
  C      6.608718   -2.917014   -2.435655
  H      6.190324   -1.561115   -0.820948
  H      4.919250   -1.651245   -2.016586
  H      7.066975   -2.374258   -4.475514
  H      6.887808   -4.089747   -4.215332
  H      6.135197   -3.755573   -1.915159
  H      7.671142   -2.955503   -2.172291
  O      2.851546   -0.783683   -4.956789

 Total Charge           Charge          ....    0
 Multiplicity           Mult            ....    1
 Number of Electrons    NEL             ....  144
 Basis Dimension        Dim             ....  540

ORBITAL ENERGIES
----------------

  NO   OCC          E(Eh)            E(eV)
   0   2.0000     -89.324220     -2430.6356
   1   2.0000     -24.924403      -678.2275
   2   2.0000     -19.259162      -524.0685
   3   2.0000     -19.255714      -523.9746
   4   2.0000     -14.381670      -391.3451
   5   2.0000     -14.370238      -391.0340
   6   2.0000     -10.315856      -280.7087
   7   2.0000     -10.277015      -279.6518
   8   2.0000     -10.262049      -279.2445
   9   2.0000     -10.248157      -278.8665
  10   2.0000     -10.246512      -278.8218
  11   2.0000     -10.239373      -278.6275
  12   2.0000     -10.232222      -278.4329
  13   2.0000     -10.224997      -278.2363
  14   2.0000     -10.218755      -278.0665
  15   2.0000     -10.212397      -277.8934
  16   2.0000     -10.128809      -275.6189
  17   2.0000      -8.283631      -225.4091
  18   2.0000      -6.230044      -169.5281
  19   2.0000      -6.223841      -169.3593
  20   2.0000      -6.222030      -169.3100
  21   2.0000      -1.420782       -38.6614
  22   2.0000      -1.169988       -31.8370
  23   2.0000      -1.070559       -29.1314
  24   2.0000      -0.972923       -26.4746
  25   2.0000      -0.890044       -24.2193
  26   2.0000      -0.878886       -23.9157
  27   2.0000      -0.835431       -22.7332
  28   2.0000      -0.801941       -21.8219
  29   2.0000      -0.777715       -21.1627
  30   2.0000      -0.748771       -20.3751
  31   2.0000      -0.717393       -19.5213
  32   2.0000      -0.705966       -19.2103
  33   2.0000      -0.675160       -18.3720
  34   2.0000      -0.649094       -17.6627
  35   2.0000      -0.637601       -17.3500
  36   2.0000      -0.630139       -17.1469
  37   2.0000      -0.609947       -16.5975
  38   2.0000      -0.600212       -16.3326
  39   2.0000      -0.576586       -15.6897
  40   2.0000      -0.556219       -15.1355
  41   2.0000      -0.545403       -14.8412
  42   2.0000      -0.536058       -14.5869
  43   2.0000      -0.520679       -14.1684
  44   2.0000      -0.512871       -13.9559
  45   2.0000      -0.501705       -13.6521
  46   2.0000      -0.493197       -13.4206
  47   2.0000      -0.483276       -13.1506
  48   2.0000      -0.473896       -12.8954
  49   2.0000      -0.462535       -12.5862
  50   2.0000      -0.452165       -12.3040
  51   2.0000      -0.448319       -12.1994
  52   2.0000      -0.437342       -11.9007
  53   2.0000      -0.425171       -11.5695
  54   2.0000      -0.409999       -11.1566
  55   2.0000      -0.404663       -11.0115
  56   2.0000      -0.401507       -10.9255
  57   2.0000      -0.392860       -10.6903
  58   2.0000      -0.383546       -10.4368
  59   2.0000      -0.381619       -10.3844
  60   2.0000      -0.374495       -10.1905
  61   2.0000      -0.365398        -9.9430
  62   2.0000      -0.364919        -9.9299
  63   2.0000      -0.357166        -9.7190
  64   2.0000      -0.350696        -9.5429
  65   2.0000      -0.347500        -9.4559
  66   2.0000      -0.342746        -9.3266
  67   2.0000      -0.326287        -8.8787
  68   2.0000      -0.324347        -8.8259
  69   2.0000      -0.315916        -8.5965
  70   2.0000      -0.244989        -6.6665
  71   2.0000      -0.158556        -4.3145
  72   0.0000      -0.016000        -0.4354
  73   0.0000       0.016808         0.4574
  74   0.0000       0.020307         0.5526
  75   0.0000       0.024089         0.6555
  76   0.0000       0.031424         0.8551

MULLIKEN ATOMIC CHARGES
-----------------------
   0 C :    0.850378
   1 N :    0.155482
   2 C :    0.095533
   3 C :    0.134316
   4 H :    0.118114
   5 H :    0.080582
   6 S :    1.533214
   7 C :    0.769386
   8 N :    0.384185
   9 C :    0.360351
  10 H :    0.147819
  11 H :   -0.585918
  12 H :   -1.087617
  13 H :   -0.350149
  14 H :   -0.179630
  15 F :   -0.482699
  16 O :   -0.751623
  17 C :    0.191518
  18 H :   -0.232801
  19 H :   -0.034327
  20 C :   -0.129564
  21 C :    0.075675
  22 H :    0.080222
  23 H :   -0.320929
  24 H :   -0.051702
  25 H :    0.093272
  26 C :   -0.057119
  27 H :   -0.065407
  28 H :    0.027146
  29 C :   -0.292057
  30 H :   -0.104570
  31 H :   -0.030047
  32 C :    0.533373
  33 H :   -0.274623
  34 H :    0.223438
  35 H :    0.187679
  36 H :   -0.270871
  37 H :    0.023568
  38 H :    0.065117
  39 O :   -0.828716
Sum of atomic charges:    0.0000000

LOEWDIN ATOMIC CHARGES
----------------------
   0 C :    0.068292
   1 N :    0.002459
   2 C :   -0.037278
   3 C :   -0.037637
   4 H :    0.047566
   5 H :    0.029563
   6 S :    1.172291
   7 C :   -0.212425
   8 N :    0.203727
   9 C :    0.152376
  10 H :   -0.114341
  11 H :   -0.108634
  12 H :   -0.098102
  13 H :   -0.087382
  14 H :    0.015353
  15 F :   -0.262981
  16 O :   -0.433141
  17 C :   -0.017488
  18 H :    0.018700
  19 H :    0.019972
  20 C :   -0.039143
  21 C :   -0.031403
  22 H :    0.045233
  23 H :   -0.013145
  24 H :    0.040709
  25 H :    0.029807
  26 C :   -0.036624
  27 H :    0.023943
  28 H :    0.013826
  29 C :   -0.041955
  30 H :    0.027976
  31 H :    0.007265
  32 C :   -0.033012
  33 H :    0.026784
  34 H :    0.007838
  35 H :    0.020104
  36 H :    0.025691
  37 H :    0.023776
  38 H :    0.025686
  39 O :   -0.444244

  Mayer bond orders larger than 0.100000
B(  0-C ,  1-N ) :   0.9552 B(  0-C , 10-H ) :   0.1162 B(  0-C , 12-H ) :  -0.4958
B(  0-C , 17-C ) :   1.1143 B(  0-C , 18-H ) :   0.7808 B(  0-C , 19-H ) :   0.8684
B(  1-N ,  7-C ) :   0.9305 B(  1-N ,  9-C ) :   0.2814 B(  1-N , 11-H ) :   0.1209
B(  1-N , 12-H ) :   0.9417 B(  1-N , 13-H ) :   0.1612 B(  1-N , 14-H ) :  -0.1048
B(  1-N , 18-H ) :   0.2564 B(  2-C ,  3-C ) :   1.2326 B(  2-C ,  5-H ) :   0.2142
B(  2-C , 21-C ) :   1.1329 B(  2-C , 24-H ) :   0.8869 B(  2-C , 25-H ) :   0.8555
B(  3-C ,  4-H ) :   0.9030 B(  3-C ,  5-H ) :   0.7753 B(  3-C ,  6-S ) :   1.0558
B(  6-S , 15-F ) :   0.5626 B(  6-S , 16-O ) :   1.4029 B(  6-S , 39-O ) :   1.3946
B(  7-C ,  8-N ) :   0.8694 B(  7-C ,  9-C ) :   1.7032 B(  7-C , 10-H ) :   0.3254
B(  7-C , 11-H ) :   0.3570 B(  7-C , 12-H ) :  -0.7044 B(  7-C , 13-H ) :  -0.1765
B(  7-C , 14-H ) :  -0.1278 B(  7-C , 18-H ) :   0.1063 B(  8-N ,  9-C ) :   0.2146
B(  8-N , 13-H ) :   0.9679 B(  8-N , 14-H ) :   1.2935 B(  9-C , 10-H ) :   0.5622
B(  9-C , 11-H ) :   0.7422 B( 10-H , 13-H ) :   0.1364 B( 10-H , 19-H ) :   0.1153
B( 11-H , 12-H ) :  -0.1136 B( 12-H , 39-O ) :   0.1223 B( 13-H , 14-H ) :  -0.2368
B( 13-H , 15-F ) :   0.1628 B( 16-O , 39-O ) :   0.1604 B( 17-C , 18-H ) :   0.1149
B( 17-C , 26-C ) :   1.2180 B( 17-C , 27-H ) :   0.9264 B( 17-C , 28-H ) :   0.7969
B( 17-C , 31-H ) :   0.1116 B( 18-H , 19-H ) :  -0.1702 B( 20-C , 21-C ) :   1.2386
B( 20-C , 22-H ) :   0.1106 B( 20-C , 32-C ) :   1.1670 B( 20-C , 35-H ) :   0.8507
B( 20-C , 36-H ) :   1.0150 B( 20-C , 37-H ) :   0.1130 B( 20-C , 38-H ) :   0.1849
B( 21-C , 22-H ) :   0.7513 B( 21-C , 23-H ) :   0.9316 B( 21-C , 24-H ) :   0.1707
B( 21-C , 36-H ) :   0.1864 B( 22-H , 23-H ) :   0.2067 B( 23-H , 34-H ) :   0.1018
B( 26-C , 27-H ) :   0.1038 B( 26-C , 28-H ) :   0.1750 B( 26-C , 29-C ) :   1.2248
B( 26-C , 30-H ) :   0.9122 B( 26-C , 31-H ) :   0.9381 B( 26-C , 33-H ) :   0.1349
B( 29-C , 30-H ) :   0.1457 B( 29-C , 31-H ) :   0.1018 B( 29-C , 32-C ) :   1.1665
B( 29-C , 33-H ) :   1.0850 B( 29-C , 34-H ) :   0.8276 B( 29-C , 37-H ) :   0.2475
B( 29-C , 38-H ) :   0.1323 B( 32-C , 37-H ) :   0.7117 B( 32-C , 38-H ) :   0.7307

Dispersion correction           -0.042574266
FINAL SINGLE POINT ENERGY     -1189.251380372724

DIPOLE MOMENT
-------------
                                X             Y             Z
Electronic contribution:    -16.86712       2.65940     -21.31009
Nuclear contribution   :     17.35766      -5.13497      20.30937
                        -----------------------------------------
Total Dipole Moment    :      0.49054      -2.47557      -1.00072
                        -----------------------------------------
Magnitude (a.u.)       :      2.71486
Magnitude (Debye)      :      6.90064

Rotational constants in cm-1:     0.014431     0.012329     0.007535
Rotational constants in MHz :   432.628327   369.619539   225.898827

                             ****ORCA TERMINATED NORMALLY****
TOTAL RUN TIME: 0 days 0 hours 5 minutes 9 seconds 738 msec
