                         Program Version 5.0.0 -  RELEASE  -
|  1> !PBE0 D3BJ RIJCOSX def2-SVPD def2/J TightSCF xyzfile
|  2>
|  3> *xyzfile 0 1 D5.xyz
|  4>
|  5> %MaxCore 64000
|  6>
|  7> %pal nprocs 4
|  8> end
|  9>
| 10> %scf
| 11>   MaxIter 150
| 12> end
| 13>
| 14>
| 15>                          ****END OF INPUT****

CARTESIAN COORDINATES (ANGSTROEM)
---------------------------------
  C      4.490588    1.155899   -2.469290
  N      4.305394    1.222762   -3.908317
  C      4.906458   -3.102816   -5.954844
  C      3.511771   -2.806215   -6.492283
  H      2.736044   -3.373445   -5.973736
  H      3.444904   -3.040831   -7.555281
  S      3.004618   -1.096206   -6.389259
  C      4.631918    2.246365   -4.670958
  C      4.541686    2.143990   -5.987139
  N      5.084086    3.393584   -4.118545
  H      4.920675    3.570501   -3.135870
  H      5.254652    4.197390   -4.706956
  H      3.824530    0.449113   -4.350926
  H      4.343373    1.249318   -6.416646
  H      4.676712    2.956624   -6.574113
  O      4.128856   -0.329647   -6.953717
  F      1.781285   -1.000779   -7.136399
  C      5.942129    0.939500   -2.036893
  H      3.864305    0.328532   -2.136611
  H      4.076233    2.049994   -1.989010
  C      6.462677   -3.117775   -3.944671
  C      5.024977   -3.025679   -4.437625
  H      4.423321   -3.818693   -3.977648
  H      4.579350   -2.087131   -4.108727
  H      5.201533   -4.100207   -6.296905
  H      5.605922   -2.397822   -6.413368
  C      6.559957   -0.356290   -2.559086
  H      5.967976    0.952567   -0.942444
  H      6.547184    1.788331   -2.368849
  C      6.006283   -1.615917   -1.899301
  H      7.642360   -0.318000   -2.402059
  H      6.414855   -0.403433   -3.642587
  C      6.608718   -2.917014   -2.435655
  H      6.190324   -1.561115   -0.820948
  H      4.919250   -1.651245   -2.016586
  H      7.066975   -2.374258   -4.475514
  H      6.887808   -4.089747   -4.215332
  H      6.135197   -3.755573   -1.915159
  H      7.671142   -2.955503   -2.172291
  O      2.851546   -0.783683   -4.956789

 Total Charge           Charge          ....    0
 Multiplicity           Mult            ....    1
 Number of Electrons    NEL             ....  144
 Basis Dimension        Dim             ....  540

ORBITAL ENERGIES
----------------

  NO   OCC          E(Eh)            E(eV)
   0   2.0000     -89.313451     -2430.3426
   1   2.0000     -24.918707      -678.0725
   2   2.0000     -19.243777      -523.6498
   3   2.0000     -19.233141      -523.3604
   4   2.0000     -14.370138      -391.0313
   5   2.0000     -14.356394      -390.6574
   6   2.0000     -10.306618      -280.4573
   7   2.0000     -10.265659      -279.3428
   8   2.0000     -10.248429      -278.8739
   9   2.0000     -10.244880      -278.7774
  10   2.0000     -10.237404      -278.5739
  11   2.0000     -10.231783      -278.4210
  12   2.0000     -10.227537      -278.3054
  13   2.0000     -10.221924      -278.1527
  14   2.0000     -10.215787      -277.9857
  15   2.0000     -10.214703      -277.9562
  16   2.0000     -10.103173      -274.9213
  17   2.0000      -8.272438      -225.1045
  18   2.0000      -6.218771      -169.2214
  19   2.0000      -6.212594      -169.0533
  20   2.0000      -6.210996      -169.0098
  21   2.0000      -1.425553       -38.7913
  22   2.0000      -1.146645       -31.2018
  23   2.0000      -1.043547       -28.3963
  24   2.0000      -0.956738       -26.0342
  25   2.0000      -0.871599       -23.7174
  26   2.0000      -0.866263       -23.5722
  27   2.0000      -0.829071       -22.5602
  28   2.0000      -0.800704       -21.7883
  29   2.0000      -0.772388       -21.0177
  30   2.0000      -0.746600       -20.3160
  31   2.0000      -0.717874       -19.5344
  32   2.0000      -0.687391       -18.7049
  33   2.0000      -0.660251       -17.9663
  34   2.0000      -0.637704       -17.3528
  35   2.0000      -0.626186       -17.0394
  36   2.0000      -0.610408       -16.6100
  37   2.0000      -0.608561       -16.5598
  38   2.0000      -0.594111       -16.1666
  39   2.0000      -0.576782       -15.6950
  40   2.0000      -0.562474       -15.3057
  41   2.0000      -0.531119       -14.4525
  42   2.0000      -0.522330       -14.2133
  43   2.0000      -0.507941       -13.8218
  44   2.0000      -0.494353       -13.4520
  45   2.0000      -0.490885       -13.3577
  46   2.0000      -0.478788       -13.0285
  47   2.0000      -0.477716       -12.9993
  48   2.0000      -0.465963       -12.6795
  49   2.0000      -0.458645       -12.4804
  50   2.0000      -0.446131       -12.1398
  51   2.0000      -0.439676       -11.9642
  52   2.0000      -0.429966       -11.7000
  53   2.0000      -0.413184       -11.2433
  54   2.0000      -0.403315       -10.9748
  55   2.0000      -0.400440       -10.8965
  56   2.0000      -0.390708       -10.6317
  57   2.0000      -0.385226       -10.4825
  58   2.0000      -0.373101       -10.1526
  59   2.0000      -0.369508       -10.0548
  60   2.0000      -0.366885        -9.9834
  61   2.0000      -0.360199        -9.8015
  62   2.0000      -0.350473        -9.5369
  63   2.0000      -0.345480        -9.4010
  64   2.0000      -0.339114        -9.2278
  65   2.0000      -0.332810        -9.0562
  66   2.0000      -0.322811        -8.7841
  67   2.0000      -0.320668        -8.7258
  68   2.0000      -0.315150        -8.5757
  69   2.0000      -0.304101        -8.2750
  70   2.0000      -0.238278        -6.4839
  71   2.0000      -0.142120        -3.8673
  72   0.0000      -0.001497        -0.0407
  73   0.0000       0.014940         0.4065
  74   0.0000       0.029857         0.8124
  75   0.0000       0.033112         0.9010
  76   0.0000       0.039813         1.0834

MULLIKEN ATOMIC CHARGES
-----------------------
   0 C :    0.905192
   1 N :    0.004602
   2 C :    0.014115
   3 C :    0.111660
   4 H :    0.109286
   5 H :    0.102044
   6 S :    1.737833
   7 C :    1.123138
   8 C :    0.380613
   9 N :    0.051815
  10 H :   -0.046641
  11 H :   -0.210003
  12 H :   -0.872860
  13 H :   -0.188292
  14 H :   -0.609014
  15 O :   -0.763541
  16 F :   -0.558508
  17 C :    0.161028
  18 H :   -0.220081
  19 H :   -0.125653
  20 C :   -0.125929
  21 C :    0.034011
  22 H :    0.078670
  23 H :   -0.324355
  24 H :   -0.029930
  25 H :    0.132731
  26 C :   -0.007453
  27 H :   -0.099305
  28 H :    0.025954
  29 C :   -0.284836
  30 H :   -0.103125
  31 H :   -0.029593
  32 C :    0.527941
  33 H :   -0.282779
  34 H :    0.230360
  35 H :    0.187913
  36 H :   -0.269872
  37 H :    0.022845
  38 H :    0.065612
  39 O :   -0.855593
Sum of atomic charges:    0.0000000

LOEWDIN ATOMIC CHARGES
----------------------
   0 C :    0.058150
   1 N :    0.005951
   2 C :   -0.021851
   3 C :   -0.052216
   4 H :    0.031106
   5 H :    0.026540
   6 S :    1.204696
   7 C :   -0.208940
   8 C :    0.165738
   9 N :    0.190599
  10 H :   -0.029412
  11 H :    0.000601
  12 H :   -0.084365
  13 H :   -0.189298
  14 H :   -0.097244
  15 O :   -0.447675
  16 F :   -0.238003
  17 C :   -0.026001
  18 H :    0.017974
  19 H :    0.010018
  20 C :   -0.037784
  21 C :   -0.029420
  22 H :    0.042477
  23 H :   -0.010348
  24 H :    0.042357
  25 H :    0.036092
  26 C :   -0.033720
  27 H :    0.020311
  28 H :    0.012982
  29 C :   -0.042366
  30 H :    0.027748
  31 H :    0.013767
  32 C :   -0.033670
  33 H :    0.025358
  34 H :    0.007724
  35 H :    0.022705
  36 H :    0.025213
  37 H :    0.023033
  38 H :    0.025040
  39 O :   -0.453868

  Mayer bond orders larger than 0.100000
B(  0-C ,  1-N ) :   0.9039 B(  0-C , 12-H ) :  -0.4588 B(  0-C , 17-C ) :   1.1185
B(  0-C , 18-H ) :   0.7052 B(  0-C , 19-H ) :   0.8844 B(  0-C , 27-H ) :   0.1021
B(  1-N ,  7-C ) :   1.0289 B(  1-N ,  8-C ) :   0.1654 B(  1-N ,  9-N ) :   0.3149
B(  1-N , 12-H ) :   1.0859 B(  1-N , 18-H ) :   0.2338 B(  2-C ,  3-C ) :   1.3029
B(  2-C ,  5-H ) :   0.2467 B(  2-C , 21-C ) :   1.1530 B(  2-C , 24-H ) :   0.8587
B(  2-C , 25-H ) :   0.8677 B(  3-C ,  4-H ) :   0.9051 B(  3-C ,  5-H ) :   0.7086
B(  3-C ,  6-S ) :   1.0050 B(  3-C , 16-F ) :   0.1206 B(  3-C , 25-H ) :   0.1063
B(  6-S , 15-O ) :   1.3914 B(  6-S , 16-F ) :   0.3963 B(  6-S , 39-O ) :   1.2877
B(  7-C ,  8-C ) :   1.3411 B(  7-C ,  9-N ) :   0.6771 B(  7-C , 11-H ) :  -0.1104
B(  7-C , 12-H ) :  -0.6781 B(  7-C , 14-H ) :   0.1190 B(  8-C ,  9-N ) :   0.3114
B(  8-C , 13-H ) :   0.5485 B(  8-C , 14-H ) :   0.8880 B(  9-N , 10-H ) :   0.9918
B(  9-N , 11-H ) :   1.2577 B( 10-H , 11-H ) :  -0.1816 B( 13-H , 14-H ) :  -0.1522
B( 13-H , 15-O ) :   0.1012 B( 16-F , 39-O ) :   0.1081 B( 17-C , 18-H ) :   0.1170
B( 17-C , 26-C ) :   1.2366 B( 17-C , 27-H ) :   0.9635 B( 17-C , 28-H ) :   0.7577
B( 17-C , 31-H ) :   0.1125 B( 18-H , 19-H ) :  -0.1466 B( 20-C , 21-C ) :   1.2461
B( 20-C , 22-H ) :   0.1123 B( 20-C , 32-C ) :   1.1668 B( 20-C , 35-H ) :   0.8498
B( 20-C , 36-H ) :   1.0072 B( 20-C , 37-H ) :   0.1117 B( 20-C , 38-H ) :   0.1848
B( 21-C , 22-H ) :   0.7468 B( 21-C , 23-H ) :   0.9407 B( 21-C , 24-H ) :   0.1786
B( 21-C , 36-H ) :   0.1880 B( 22-H , 23-H ) :   0.2156 B( 23-H , 34-H ) :   0.1044
B( 26-C , 28-H ) :   0.1757 B( 26-C , 29-C ) :   1.2221 B( 26-C , 30-H ) :   0.8998
B( 26-C , 31-H ) :   0.9269 B( 26-C , 33-H ) :   0.1317 B( 29-C , 30-H ) :   0.1455
B( 29-C , 32-C ) :   1.1660 B( 29-C , 33-H ) :   1.0887 B( 29-C , 34-H ) :   0.8209
B( 29-C , 37-H ) :   0.2441 B( 29-C , 38-H ) :   0.1326 B( 32-C , 37-H ) :   0.7136
B( 32-C , 38-H ) :   0.7297

Dispersion correction           -0.042910259
FINAL SINGLE POINT ENERGY     -1189.231300500370

DIPOLE MOMENT
-------------
                                X             Y             Z
Electronic contribution:    -20.58988       2.61474     -20.18153
Nuclear contribution   :     20.03262      -4.53368      20.24480
                        -----------------------------------------
Total Dipole Moment    :     -0.55726      -1.91895       0.06327
                        -----------------------------------------
Magnitude (a.u.)       :      1.99922
Magnitude (Debye)      :      5.08162

Rotational constants in cm-1:     0.014367     0.012055     0.007393
Rotational constants in MHz :   430.711297   361.391195   221.649333

                             ****ORCA TERMINATED NORMALLY****
TOTAL RUN TIME: 0 days 0 hours 5 minutes 5 seconds 122 msec
