                         Program Version 5.0.0 -  RELEASE  -
|  1> !PBE0 D3BJ RIJCOSX def2-SVPD def2/J TightSCF xyzfile
|  2>
|  3> *xyzfile 0 1 D6.xyz
|  4>
|  5> %MaxCore 64000
|  6>
|  7> %pal nprocs 4
|  8> end
|  9>
| 10> %scf
| 11>   MaxIter 150
| 12> end
| 13>
| 14>
| 15>                          ****END OF INPUT****

CARTESIAN COORDINATES (ANGSTROEM)
---------------------------------
  C      4.490588    1.155899   -2.469290
  N      4.305394    1.222762   -3.908317
  C      4.906458   -3.102816   -5.954844
  C      3.511771   -2.806215   -6.492283
  H      2.736044   -3.373445   -5.973736
  H      3.444904   -3.040831   -7.555281
  S      3.004618   -1.096206   -6.389259
  C      4.631918    2.246365   -4.670958
  N      4.541686    2.143990   -5.987139
  C      5.084086    3.393584   -4.118545
  H      4.920675    3.570501   -3.135870
  H      5.254652    4.197390   -4.706956
  H      3.824530    0.449113   -4.350926
  H      4.343373    1.249318   -6.416646
  H      4.676712    2.956624   -6.574113
  O      4.128856   -0.329647   -6.953717
  F      1.781285   -1.000779   -7.136399
  C      5.942129    0.939500   -2.036893
  H      3.864305    0.328532   -2.136611
  H      4.076233    2.049994   -1.989010
  C      6.462677   -3.117775   -3.944671
  C      5.024977   -3.025679   -4.437625
  H      4.423321   -3.818693   -3.977648
  H      4.579350   -2.087131   -4.108727
  H      5.201533   -4.100207   -6.296905
  H      5.605922   -2.397822   -6.413368
  C      6.559957   -0.356290   -2.559086
  H      5.967976    0.952567   -0.942444
  H      6.547184    1.788331   -2.368849
  C      6.006283   -1.615917   -1.899301
  H      7.642360   -0.318000   -2.402059
  H      6.414855   -0.403433   -3.642587
  C      6.608718   -2.917014   -2.435655
  H      6.190324   -1.561115   -0.820948
  H      4.919250   -1.651245   -2.016586
  H      7.066975   -2.374258   -4.475514
  H      6.887808   -4.089747   -4.215332
  H      6.135197   -3.755573   -1.915159
  H      7.671142   -2.955503   -2.172291
  O      2.851546   -0.783683   -4.956789

 Total Charge           Charge          ....    0
 Multiplicity           Mult            ....    1
 Number of Electrons    NEL             ....  144
 Basis Dimension        Dim             ....  540

ORBITAL ENERGIES
----------------

  NO   OCC          E(Eh)            E(eV)
   0   2.0000     -89.332618     -2430.8641
   1   2.0000     -24.935626      -678.5329
   2   2.0000     -19.259681      -524.0826
   3   2.0000     -19.259650      -524.0817
   4   2.0000     -14.358985      -390.7279
   5   2.0000     -14.353559      -390.5802
   6   2.0000     -10.320410      -280.8326
   7   2.0000     -10.275319      -279.6056
   8   2.0000     -10.246882      -278.8318
   9   2.0000     -10.243507      -278.7400
  10   2.0000     -10.240202      -278.6501
  11   2.0000     -10.235229      -278.5147
  12   2.0000     -10.228179      -278.3229
  13   2.0000     -10.220092      -278.1029
  14   2.0000     -10.211711      -277.8748
  15   2.0000     -10.204917      -277.6899
  16   2.0000     -10.114843      -275.2389
  17   2.0000      -8.291798      -225.6313
  18   2.0000      -6.238070      -169.7465
  19   2.0000      -6.232123      -169.5847
  20   2.0000      -6.230210      -169.5326
  21   2.0000      -1.442691       -39.2576
  22   2.0000      -1.167146       -31.7597
  23   2.0000      -1.064738       -28.9730
  24   2.0000      -0.956204       -26.0196
  25   2.0000      -0.878606       -23.9081
  26   2.0000      -0.871412       -23.7123
  27   2.0000      -0.833096       -22.6697
  28   2.0000      -0.802830       -21.8461
  29   2.0000      -0.776544       -21.1308
  30   2.0000      -0.747356       -20.3366
  31   2.0000      -0.709866       -19.3164
  32   2.0000      -0.694344       -18.8941
  33   2.0000      -0.672722       -18.3057
  34   2.0000      -0.646133       -17.5822
  35   2.0000      -0.643464       -17.5096
  36   2.0000      -0.624044       -16.9811
  37   2.0000      -0.611258       -16.6332
  38   2.0000      -0.601534       -16.3686
  39   2.0000      -0.569912       -15.5081
  40   2.0000      -0.553836       -15.0707
  41   2.0000      -0.538604       -14.6562
  42   2.0000      -0.535596       -14.5743
  43   2.0000      -0.519564       -14.1380
  44   2.0000      -0.510787       -13.8992
  45   2.0000      -0.495510       -13.4835
  46   2.0000      -0.489710       -13.3257
  47   2.0000      -0.477889       -13.0040
  48   2.0000      -0.468257       -12.7419
  49   2.0000      -0.453270       -12.3341
  50   2.0000      -0.445654       -12.1269
  51   2.0000      -0.442691       -12.0462
  52   2.0000      -0.435050       -11.8383
  53   2.0000      -0.419895       -11.4259
  54   2.0000      -0.405057       -11.0222
  55   2.0000      -0.399587       -10.8733
  56   2.0000      -0.397132       -10.8065
  57   2.0000      -0.386097       -10.5062
  58   2.0000      -0.379406       -10.3242
  59   2.0000      -0.371033       -10.0963
  60   2.0000      -0.365892        -9.9564
  61   2.0000      -0.361031        -9.8241
  62   2.0000      -0.355433        -9.6718
  63   2.0000      -0.350404        -9.5350
  64   2.0000      -0.345519        -9.4020
  65   2.0000      -0.341743        -9.2993
  66   2.0000      -0.335532        -9.1303
  67   2.0000      -0.320362        -8.7175
  68   2.0000      -0.318018        -8.6537
  69   2.0000      -0.309519        -8.4224
  70   2.0000      -0.228099        -6.2069
  71   2.0000      -0.144404        -3.9294
  72   0.0000      -0.014340        -0.3902
  73   0.0000       0.004491         0.1222
  74   0.0000       0.021874         0.5952
  75   0.0000       0.028023         0.7625
  76   0.0000       0.032310         0.8792

MULLIKEN ATOMIC CHARGES
-----------------------
   0 C :    0.861430
   1 N :    0.135665
   2 C :    0.017290
   3 C :    0.107803
   4 H :    0.120179
   5 H :    0.107462
   6 S :    1.719325
   7 C :    0.745059
   8 N :    0.371646
   9 C :    0.360056
  10 H :    0.140928
  11 H :   -0.597340
  12 H :   -1.058674
  13 H :   -0.333437
  14 H :   -0.190297
  15 O :   -0.763527
  16 F :   -0.548342
  17 C :    0.185911
  18 H :   -0.238226
  19 H :   -0.036320
  20 C :   -0.134315
  21 C :    0.042825
  22 H :    0.078320
  23 H :   -0.323981
  24 H :   -0.029332
  25 H :    0.133378
  26 C :   -0.047417
  27 H :   -0.069451
  28 H :    0.028810
  29 C :   -0.291140
  30 H :   -0.105959
  31 H :   -0.032972
  32 C :    0.535231
  33 H :   -0.278697
  34 H :    0.222882
  35 H :    0.193632
  36 H :   -0.273418
  37 H :    0.022165
  38 H :    0.067367
  39 O :   -0.844518
Sum of atomic charges:    0.0000000

LOEWDIN ATOMIC CHARGES
----------------------
   0 C :    0.065258
   1 N :    0.005026
   2 C :   -0.021176
   3 C :   -0.047892
   4 H :    0.034598
   5 H :    0.027638
   6 S :    1.209643
   7 C :   -0.213138
   8 N :    0.206776
   9 C :    0.145503
  10 H :   -0.119702
  11 H :   -0.112103
  12 H :   -0.092653
  13 H :   -0.123907
  14 H :    0.010385
  15 O :   -0.443961
  16 F :   -0.234462
  17 C :   -0.018070
  18 H :    0.016396
  19 H :    0.018108
  20 C :   -0.037672
  21 C :   -0.029024
  22 H :    0.043242
  23 H :   -0.010138
  24 H :    0.044043
  25 H :    0.035692
  26 C :   -0.035568
  27 H :    0.022535
  28 H :    0.013712
  29 C :   -0.042920
  30 H :    0.027553
  31 H :    0.010170
  32 C :   -0.033662
  33 H :    0.026019
  34 H :    0.006982
  35 H :    0.022432
  36 H :    0.025207
  37 H :    0.022755
  38 H :    0.025527
  39 O :   -0.449153

  Mayer bond orders larger than 0.100000
B(  0-C ,  1-N ) :   0.9381 B(  0-C , 10-H ) :   0.1201 B(  0-C , 12-H ) :  -0.4927
B(  0-C , 17-C ) :   1.1132 B(  0-C , 18-H ) :   0.7777 B(  0-C , 19-H ) :   0.8747
B(  1-N ,  7-C ) :   0.9236 B(  1-N ,  9-C ) :   0.2856 B(  1-N , 11-H ) :   0.1307
B(  1-N , 12-H ) :   0.9659 B(  1-N , 13-H ) :   0.1655 B(  1-N , 14-H ) :  -0.1079
B(  1-N , 18-H ) :   0.2566 B(  2-C ,  3-C ) :   1.3064 B(  2-C ,  5-H ) :   0.2497
B(  2-C , 21-C ) :   1.1480 B(  2-C , 24-H ) :   0.8627 B(  2-C , 25-H ) :   0.8626
B(  3-C ,  4-H ) :   0.9018 B(  3-C ,  5-H ) :   0.7004 B(  3-C ,  6-S ) :   1.0338
B(  3-C , 16-F ) :   0.1122 B(  3-C , 25-H ) :   0.1075 B(  6-S , 15-O ) :   1.3203
B(  6-S , 16-F ) :   0.4225 B(  6-S , 39-O ) :   1.3173 B(  7-C ,  8-N ) :   0.8831
B(  7-C ,  9-C ) :   1.6863 B(  7-C , 10-H ) :   0.3326 B(  7-C , 11-H ) :   0.3516
B(  7-C , 12-H ) :  -0.6832 B(  7-C , 13-H ) :  -0.1765 B(  7-C , 14-H ) :  -0.1262
B(  7-C , 18-H ) :   0.1088 B(  8-N ,  9-C ) :   0.2156 B(  8-N , 13-H ) :   0.9659
B(  8-N , 14-H ) :   1.2992 B(  9-C , 10-H ) :   0.5605 B(  9-C , 11-H ) :   0.7451
B( 10-H , 13-H ) :   0.1516 B( 10-H , 19-H ) :   0.1154 B( 11-H , 12-H ) :  -0.1150
B( 12-H , 39-O ) :   0.1187 B( 13-H , 14-H ) :  -0.2615 B( 13-H , 15-O ) :   0.1305
B( 16-F , 39-O ) :   0.1133 B( 17-C , 18-H ) :   0.1161 B( 17-C , 26-C ) :   1.2175
B( 17-C , 27-H ) :   0.9298 B( 17-C , 28-H ) :   0.8007 B( 17-C , 31-H ) :   0.1116
B( 18-H , 19-H ) :  -0.1725 B( 20-C , 21-C ) :   1.2482 B( 20-C , 22-H ) :   0.1119
B( 20-C , 32-C ) :   1.1658 B( 20-C , 35-H ) :   0.8482 B( 20-C , 36-H ) :   1.0130
B( 20-C , 37-H ) :   0.1128 B( 20-C , 38-H ) :   0.1844 B( 21-C , 22-H ) :   0.7489
B( 21-C , 23-H ) :   0.9369 B( 21-C , 24-H ) :   0.1748 B( 21-C , 36-H ) :   0.1884
B( 22-H , 23-H ) :   0.2133 B( 23-H , 34-H ) :   0.1035 B( 26-C , 27-H ) :   0.1023
B( 26-C , 28-H ) :   0.1751 B( 26-C , 29-C ) :   1.2210 B( 26-C , 30-H ) :   0.9113
B( 26-C , 31-H ) :   0.9345 B( 26-C , 33-H ) :   0.1339 B( 29-C , 30-H ) :   0.1473
B( 29-C , 31-H ) :   0.1006 B( 29-C , 32-C ) :   1.1647 B( 29-C , 33-H ) :   1.0879
B( 29-C , 34-H ) :   0.8278 B( 29-C , 37-H ) :   0.2482 B( 29-C , 38-H ) :   0.1328
B( 32-C , 37-H ) :   0.7112 B( 32-C , 38-H ) :   0.7306

Dispersion correction           -0.042837941
FINAL SINGLE POINT ENERGY     -1189.246186830515

DIPOLE MOMENT
-------------
                                X             Y             Z
Electronic contribution:    -21.11986       1.27781     -21.87053
Nuclear contribution   :     20.11362      -4.34709      20.52383
                        -----------------------------------------
Total Dipole Moment    :     -1.00624      -3.06928      -1.34670
                        -----------------------------------------
Magnitude (a.u.)       :      3.49951
Magnitude (Debye)      :      8.89505

Rotational constants in cm-1:     0.014449     0.012108     0.007447
Rotational constants in MHz :   433.168496   362.988632   223.260798

                             ****ORCA TERMINATED NORMALLY****
TOTAL RUN TIME: 0 days 0 hours 4 minutes 45 seconds 862 msec
