                         Program Version 5.0.0 -  RELEASE  -
|  1> !PBE0 D3BJ RIJCOSX def2-SVPD def2/J TightSCF xyzfile
|  2>
|  3> *xyzfile 0 1 D7.xyz
|  4>
|  5> %MaxCore 64000
|  6>
|  7> %pal nprocs 4
|  8> end
|  9>
| 10> %scf
| 11>   MaxIter 150
| 12> end
| 13>
| 14>
| 15>                          ****END OF INPUT****

CARTESIAN COORDINATES (ANGSTROEM)
---------------------------------
  C      4.490588    1.155899   -2.469290
  C      4.305394    1.222762   -3.908317
  C      4.906458   -3.102816   -5.954844
  C      3.511771   -2.806215   -6.492283
  H      2.736044   -3.373445   -5.973736
  H      3.444904   -3.040831   -7.555281
  S      3.004618   -1.096206   -6.389259
  C      4.631918    2.246365   -4.670958
  N      4.541686    2.143990   -5.987139
  N      5.084086    3.393584   -4.118545
  H      4.920675    3.570501   -3.135870
  H      5.254652    4.197390   -4.706956
  H      3.824530    0.449113   -4.350926
  H      4.343373    1.249318   -6.416646
  H      4.676712    2.956624   -6.574113
  O      4.128856   -0.329647   -6.953717
  O      1.781285   -1.000779   -7.136399
  C      5.942129    0.939500   -2.036893
  H      3.864305    0.328532   -2.136611
  H      4.076233    2.049994   -1.989010
  C      6.462677   -3.117775   -3.944671
  C      5.024977   -3.025679   -4.437625
  H      4.423321   -3.818693   -3.977648
  H      4.579350   -2.087131   -4.108727
  H      5.201533   -4.100207   -6.296905
  H      5.605922   -2.397822   -6.413368
  C      6.559957   -0.356290   -2.559086
  H      5.967976    0.952567   -0.942444
  H      6.547184    1.788331   -2.368849
  C      6.006283   -1.615917   -1.899301
  H      7.642360   -0.318000   -2.402059
  H      6.414855   -0.403433   -3.642587
  C      6.608718   -2.917014   -2.435655
  H      6.190324   -1.561115   -0.820948
  H      4.919250   -1.651245   -2.016586
  H      7.066975   -2.374258   -4.475514
  H      6.887808   -4.089747   -4.215332
  H      6.135197   -3.755573   -1.915159
  H      7.671142   -2.955503   -2.172291
  F      2.851546   -0.783683   -4.956789

 Total Charge           Charge          ....    0
 Multiplicity           Mult            ....    1
 Number of Electrons    NEL             ....  144
 Basis Dimension        Dim             ....  540

ORBITAL ENERGIES
----------------

  NO   OCC          E(Eh)            E(eV)
   0   2.0000     -89.308623     -2430.2112
   1   2.0000     -24.896258      -677.4616
   2   2.0000     -19.244238      -523.6623
   3   2.0000     -19.240520      -523.5612
   4   2.0000     -14.386656      -391.4808
   5   2.0000     -14.364109      -390.8673
   6   2.0000     -10.302692      -280.3505
   7   2.0000     -10.262236      -279.2496
   8   2.0000     -10.261449      -279.2282
   9   2.0000     -10.243009      -278.7265
  10   2.0000     -10.232976      -278.4534
  11   2.0000     -10.226426      -278.2752
  12   2.0000     -10.218590      -278.0620
  13   2.0000     -10.209510      -277.8149
  14   2.0000     -10.204812      -277.6870
  15   2.0000     -10.201458      -277.5958
  16   2.0000     -10.138095      -275.8716
  17   2.0000      -8.267583      -224.9724
  18   2.0000      -6.213776      -169.0854
  19   2.0000      -6.207939      -168.9266
  20   2.0000      -6.206238      -168.8803
  21   2.0000      -1.393262       -37.9126
  22   2.0000      -1.154130       -31.4055
  23   2.0000      -1.056414       -28.7465
  24   2.0000      -0.961803       -26.1720
  25   2.0000      -0.869644       -23.6642
  26   2.0000      -0.864731       -23.5305
  27   2.0000      -0.828577       -22.5467
  28   2.0000      -0.799906       -21.7666
  29   2.0000      -0.775579       -21.1046
  30   2.0000      -0.741545       -20.1785
  31   2.0000      -0.725995       -19.7553
  32   2.0000      -0.688315       -18.7300
  33   2.0000      -0.660862       -17.9830
  34   2.0000      -0.638884       -17.3849
  35   2.0000      -0.612815       -16.6755
  36   2.0000      -0.607656       -16.5352
  37   2.0000      -0.596827       -16.2405
  38   2.0000      -0.591835       -16.1046
  39   2.0000      -0.571555       -15.5528
  40   2.0000      -0.559794       -15.2328
  41   2.0000      -0.542534       -14.7631
  42   2.0000      -0.517922       -14.0934
  43   2.0000      -0.505343       -13.7511
  44   2.0000      -0.501506       -13.6467
  45   2.0000      -0.495762       -13.4904
  46   2.0000      -0.493385       -13.4257
  47   2.0000      -0.473950       -12.8968
  48   2.0000      -0.466438       -12.6924
  49   2.0000      -0.458322       -12.4716
  50   2.0000      -0.444915       -12.1068
  51   2.0000      -0.438394       -11.9293
  52   2.0000      -0.436128       -11.8677
  53   2.0000      -0.420414       -11.4400
  54   2.0000      -0.410983       -11.1834
  55   2.0000      -0.397552       -10.8179
  56   2.0000      -0.391189       -10.6448
  57   2.0000      -0.385899       -10.5008
  58   2.0000      -0.379430       -10.3248
  59   2.0000      -0.369819       -10.0633
  60   2.0000      -0.363110        -9.8807
  61   2.0000      -0.356742        -9.7075
  62   2.0000      -0.352620        -9.5953
  63   2.0000      -0.345503        -9.4016
  64   2.0000      -0.340917        -9.2768
  65   2.0000      -0.339895        -9.2490
  66   2.0000      -0.333301        -9.0696
  67   2.0000      -0.317151        -8.6301
  68   2.0000      -0.310561        -8.4508
  69   2.0000      -0.305679        -8.3179
  70   2.0000      -0.259862        -7.0712
  71   2.0000      -0.158783        -4.3207
  72   0.0000       0.001875         0.0510
  73   0.0000       0.024656         0.6709
  74   0.0000       0.027944         0.7604
  75   0.0000       0.030584         0.8322
  76   0.0000       0.039251         1.0681

MULLIKEN ATOMIC CHARGES
-----------------------
   0 C :   -0.016345
   1 C :    0.083664
   2 C :    0.088417
   3 C :    0.115198
   4 H :    0.099704
   5 H :    0.094788
   6 S :    1.664249
   7 C :    1.199875
   8 N :    0.033978
   9 N :   -0.144175
  10 H :   -0.024958
  11 H :   -0.249858
  12 H :   -0.502802
  13 H :   -0.171043
  14 H :   -0.198605
  15 O :   -0.758459
  16 O :   -0.757289
  17 C :    0.273161
  18 H :    0.181550
  19 H :   -0.144067
  20 C :   -0.133193
  21 C :    0.092952
  22 H :    0.073793
  23 H :   -0.412811
  24 H :   -0.028690
  25 H :    0.138858
  26 C :   -0.088357
  27 H :   -0.007174
  28 H :   -0.052566
  29 C :   -0.225149
  30 H :   -0.063309
  31 H :    0.043886
  32 C :    0.520949
  33 H :   -0.271612
  34 H :    0.175527
  35 H :    0.189714
  36 H :   -0.272711
  37 H :    0.021790
  38 H :    0.064751
  39 F :   -0.633632
Sum of atomic charges:   -0.0000000

LOEWDIN ATOMIC CHARGES
----------------------
   0 C :   -0.052284
   1 C :   -0.025242
   2 C :   -0.036321
   3 C :   -0.041268
   4 H :    0.033468
   5 H :    0.039268
   6 S :    1.171492
   7 C :   -0.184567
   8 N :    0.202861
   9 N :    0.200504
  10 H :   -0.013305
  11 H :   -0.011295
  12 H :   -0.114086
  13 H :   -0.112974
  14 H :   -0.002920
  15 O :   -0.443898
  16 O :   -0.441585
  17 C :   -0.033595
  18 H :    0.009396
  19 H :    0.007730
  20 C :   -0.036852
  21 C :   -0.033670
  22 H :    0.042076
  23 H :   -0.007892
  24 H :    0.040072
  25 H :    0.032657
  26 C :   -0.035058
  27 H :    0.017202
  28 H :    0.013348
  29 C :   -0.041428
  30 H :    0.026474
  31 H :    0.010338
  32 C :   -0.034695
  33 H :    0.025664
  34 H :    0.006402
  35 H :    0.022685
  36 H :    0.026308
  37 H :    0.022483
  38 H :    0.024945
  39 F :   -0.272437

  Mayer bond orders larger than 0.100000
B(  0-C ,  1-C ) :   1.1557 B(  0-C , 12-H ) :   0.7073 B(  0-C , 17-C ) :   1.1592
B(  0-C , 18-H ) :   0.7004 B(  0-C , 19-H ) :   0.9603 B(  0-C , 27-H ) :   0.1660
B(  0-C , 28-H ) :   0.1659 B(  1-C ,  7-C ) :   1.6341 B(  1-C ,  8-N ) :   0.3622
B(  1-C ,  9-N ) :   0.2900 B(  1-C , 12-H ) :  -0.1131 B(  1-C , 18-H ) :   0.3087
B(  1-C , 19-H ) :   0.1626 B(  2-C ,  3-C ) :   1.2676 B(  2-C ,  5-H ) :   0.2236
B(  2-C , 21-C ) :   1.1536 B(  2-C , 24-H ) :   0.8517 B(  2-C , 25-H ) :   0.8745
B(  3-C ,  4-H ) :   0.9191 B(  3-C ,  5-H ) :   0.7440 B(  3-C ,  6-S ) :   0.9999
B(  3-C , 16-O ) :   0.1045 B(  3-C , 25-H ) :   0.1063 B(  6-S , 15-O ) :   1.3397
B(  6-S , 16-O ) :   1.3674 B(  6-S , 39-F ) :   0.6135 B(  7-C ,  8-N ) :   0.6862
B(  7-C ,  9-N ) :   0.7026 B(  7-C , 11-H ) :  -0.1858 B(  7-C , 12-H ) :  -0.1122
B(  7-C , 13-H ) :  -0.2273 B(  7-C , 14-H ) :  -0.1801 B(  8-N ,  9-N ) :   0.1110
B(  8-N , 13-H ) :   1.1709 B(  8-N , 14-H ) :   1.3670 B(  9-N , 10-H ) :   1.0625
B(  9-N , 11-H ) :   1.3532 B( 10-H , 11-H ) :  -0.1868 B( 12-H , 18-H ) :  -0.1514
B( 12-H , 39-F ) :   0.1327 B( 13-H , 14-H ) :  -0.2489 B( 13-H , 15-O ) :   0.1024
B( 17-C , 18-H ) :   0.1181 B( 17-C , 26-C ) :   1.3124 B( 17-C , 27-H ) :   0.8276
B( 17-C , 28-H ) :   0.7537 B( 17-C , 31-H ) :   0.1364 B( 20-C , 21-C ) :   1.2477
B( 20-C , 22-H ) :   0.1102 B( 20-C , 23-H ) :   0.1067 B( 20-C , 32-C ) :   1.1628
B( 20-C , 35-H ) :   0.8474 B( 20-C , 36-H ) :   1.0157 B( 20-C , 37-H ) :   0.1077
B( 20-C , 38-H ) :   0.1877 B( 21-C , 22-H ) :   0.7481 B( 21-C , 23-H ) :   0.8703
B( 21-C , 24-H ) :   0.1745 B( 21-C , 36-H ) :   0.1854 B( 22-H , 23-H ) :   0.2308
B( 23-H , 34-H ) :   0.1081 B( 26-C , 27-H ) :   0.1325 B( 26-C , 28-H ) :   0.1902
B( 26-C , 29-C ) :   1.2124 B( 26-C , 30-H ) :   0.8684 B( 26-C , 31-H ) :   0.9049
B( 26-C , 33-H ) :   0.1276 B( 29-C , 30-H ) :   0.1281 B( 29-C , 32-C ) :   1.1556
B( 29-C , 33-H ) :   1.0721 B( 29-C , 34-H ) :   0.8426 B( 29-C , 37-H ) :   0.2454
B( 29-C , 38-H ) :   0.1333 B( 32-C , 37-H ) :   0.7192 B( 32-C , 38-H ) :   0.7281

Dispersion correction           -0.042751257
FINAL SINGLE POINT ENERGY     -1189.259751564773

DIPOLE MOMENT
-------------
                                X             Y             Z
Electronic contribution:    -18.40301       4.01234     -18.01597
Nuclear contribution   :     18.74089      -4.92611      17.99644
                        -----------------------------------------
Total Dipole Moment    :      0.33788      -0.91376      -0.01953
                        -----------------------------------------
Magnitude (a.u.)       :      0.97443
Magnitude (Debye)      :      2.47680

Rotational constants in cm-1:     0.014210     0.012324     0.007480
Rotational constants in MHz :   425.991442   369.455467   224.259162

                             ****ORCA TERMINATED NORMALLY****
TOTAL RUN TIME: 0 days 0 hours 4 minutes 49 seconds 900 msec
