                         Program Version 5.0.0 -  RELEASE  -
|  1> !PBE0 D3BJ RIJCOSX def2-SVPD def2/J TightSCF xyzfile
|  2>
|  3> *xyzfile 0 1 D8.xyz
|  4>
|  5> %MaxCore 64000
|  6>
|  7> %pal nprocs 4
|  8> end
|  9>
| 10> %scf
| 11>   MaxIter 150
| 12> end
| 13>
| 14>
| 15>                          ****END OF INPUT****

CARTESIAN COORDINATES (ANGSTROEM)
---------------------------------
  C      4.490588    1.155899   -2.469290
  N      4.305394    1.222762   -3.908317
  C      4.906458   -3.102816   -5.954844
  C      3.511771   -2.806215   -6.492283
  H      2.736044   -3.373445   -5.973736
  H      3.444904   -3.040831   -7.555281
  S      3.004618   -1.096206   -6.389259
  C      4.631918    2.246365   -4.670958
  C      4.541686    2.143990   -5.987139
  N      5.084086    3.393584   -4.118545
  H      4.920675    3.570501   -3.135870
  H      5.254652    4.197390   -4.706956
  H      3.824530    0.449113   -4.350926
  H      4.343373    1.249318   -6.416646
  H      4.676712    2.956624   -6.574113
  O      4.128856   -0.329647   -6.953717
  O      1.781285   -1.000779   -7.136399
  C      5.942129    0.939500   -2.036893
  H      3.864305    0.328532   -2.136611
  H      4.076233    2.049994   -1.989010
  C      6.462677   -3.117775   -3.944671
  C      5.024977   -3.025679   -4.437625
  H      4.423321   -3.818693   -3.977648
  H      4.579350   -2.087131   -4.108727
  H      5.201533   -4.100207   -6.296905
  H      5.605922   -2.397822   -6.413368
  C      6.559957   -0.356290   -2.559086
  H      5.967976    0.952567   -0.942444
  H      6.547184    1.788331   -2.368849
  C      6.006283   -1.615917   -1.899301
  H      7.642360   -0.318000   -2.402059
  H      6.414855   -0.403433   -3.642587
  C      6.608718   -2.917014   -2.435655
  H      6.190324   -1.561115   -0.820948
  H      4.919250   -1.651245   -2.016586
  H      7.066975   -2.374258   -4.475514
  H      6.887808   -4.089747   -4.215332
  H      6.135197   -3.755573   -1.915159
  H      7.671142   -2.955503   -2.172291
  F      2.851546   -0.783683   -4.956789

 Total Charge           Charge          ....    0
 Multiplicity           Mult            ....    1
 Number of Electrons    NEL             ....  144
 Basis Dimension        Dim             ....  540

ORBITAL ENERGIES
----------------

  NO   OCC          E(Eh)            E(eV)
   0   2.0000     -89.303571     -2430.0737
   1   2.0000     -24.907559      -677.7691
   2   2.0000     -19.240678      -523.5655
   3   2.0000     -19.228081      -523.2227
   4   2.0000     -14.381795      -391.3485
   5   2.0000     -14.381024      -391.3275
   6   2.0000     -10.301873      -280.3282
   7   2.0000     -10.265328      -279.3338
   8   2.0000     -10.264204      -279.3032
   9   2.0000     -10.257563      -279.1225
  10   2.0000     -10.250143      -278.9206
  11   2.0000     -10.240205      -278.6501
  12   2.0000     -10.236158      -278.5400
  13   2.0000     -10.232847      -278.4499
  14   2.0000     -10.227095      -278.2934
  15   2.0000     -10.226895      -278.2880
  16   2.0000     -10.114082      -275.2182
  17   2.0000      -8.262853      -224.8437
  18   2.0000      -6.209255      -168.9624
  19   2.0000      -6.202887      -168.7891
  20   2.0000      -6.201447      -168.7500
  21   2.0000      -1.402953       -38.1763
  22   2.0000      -1.148859       -31.2620
  23   2.0000      -1.047782       -28.5116
  24   2.0000      -0.974218       -26.5098
  25   2.0000      -0.886816       -24.1315
  26   2.0000      -0.867855       -23.6155
  27   2.0000      -0.835987       -22.7484
  28   2.0000      -0.807360       -21.9694
  29   2.0000      -0.773166       -21.0389
  30   2.0000      -0.751592       -20.4518
  31   2.0000      -0.727622       -19.7996
  32   2.0000      -0.693612       -18.8742
  33   2.0000      -0.669099       -18.2071
  34   2.0000      -0.647935       -17.6312
  35   2.0000      -0.629463       -17.1285
  36   2.0000      -0.615865       -16.7585
  37   2.0000      -0.606135       -16.4938
  38   2.0000      -0.589537       -16.0421
  39   2.0000      -0.580232       -15.7889
  40   2.0000      -0.572048       -15.5662
  41   2.0000      -0.533799       -14.5254
  42   2.0000      -0.519935       -14.1482
  43   2.0000      -0.506711       -13.7883
  44   2.0000      -0.501481       -13.6460
  45   2.0000      -0.499184       -13.5835
  46   2.0000      -0.488146       -13.2831
  47   2.0000      -0.485296       -13.2056
  48   2.0000      -0.478462       -13.0196
  49   2.0000      -0.461444       -12.5565
  50   2.0000      -0.457483       -12.4487
  51   2.0000      -0.448370       -12.2008
  52   2.0000      -0.432000       -11.7553
  53   2.0000      -0.419588       -11.4176
  54   2.0000      -0.408951       -11.1281
  55   2.0000      -0.406324       -11.0566
  56   2.0000      -0.399993       -10.8844
  57   2.0000      -0.391973       -10.6661
  58   2.0000      -0.383604       -10.4384
  59   2.0000      -0.378351       -10.2954
  60   2.0000      -0.377323       -10.2675
  61   2.0000      -0.361685        -9.8420
  62   2.0000      -0.360221        -9.8021
  63   2.0000      -0.354004        -9.6329
  64   2.0000      -0.351080        -9.5534
  65   2.0000      -0.336346        -9.1524
  66   2.0000      -0.334382        -9.0990
  67   2.0000      -0.331879        -9.0309
  68   2.0000      -0.326329        -8.8799
  69   2.0000      -0.309052        -8.4097
  70   2.0000      -0.254492        -6.9251
  71   2.0000      -0.154676        -4.2089
  72   0.0000      -0.001597        -0.0435
  73   0.0000       0.020128         0.5477
  74   0.0000       0.022885         0.6227
  75   0.0000       0.028678         0.7804
  76   0.0000       0.037250         1.0136

MULLIKEN ATOMIC CHARGES
-----------------------
   0 C :    0.908427
   1 N :    0.093778
   2 C :    0.075153
   3 C :    0.128061
   4 H :    0.090130
   5 H :    0.107356
   6 S :    1.589466
   7 C :    1.155768
   8 C :    0.332505
   9 N :    0.053206
  10 H :   -0.044605
  11 H :   -0.206677
  12 H :   -0.963544
  13 H :   -0.161354
  14 H :   -0.571991
  15 O :   -0.784549
  16 O :   -0.764753
  17 C :    0.158701
  18 H :   -0.236226
  19 H :   -0.123790
  20 C :   -0.135575
  21 C :    0.040459
  22 H :    0.078196
  23 H :   -0.373576
  24 H :   -0.026707
  25 H :    0.143098
  26 C :   -0.002771
  27 H :   -0.092138
  28 H :    0.029451
  29 C :   -0.274298
  30 H :   -0.099836
  31 H :   -0.029868
  32 C :    0.523071
  33 H :   -0.281289
  34 H :    0.214597
  35 H :    0.188289
  36 H :   -0.266526
  37 H :    0.024117
  38 H :    0.068998
  39 F :   -0.562753
Sum of atomic charges:    0.0000000

LOEWDIN ATOMIC CHARGES
----------------------
   0 C :    0.056767
   1 N :   -0.001909
   2 C :   -0.035828
   3 C :   -0.042989
   4 H :    0.030950
   5 H :    0.040353
   6 S :    1.165513
   7 C :   -0.210109
   8 C :    0.172321
   9 N :    0.192441
  10 H :   -0.028229
  11 H :    0.003770
  12 H :   -0.052753
  13 H :   -0.186376
  14 H :   -0.090123
  15 O :   -0.447198
  16 O :   -0.440368
  17 C :   -0.024102
  18 H :    0.015712
  19 H :    0.012620
  20 C :   -0.035538
  21 C :   -0.035808
  22 H :    0.042348
  23 H :   -0.011529
  24 H :    0.040558
  25 H :    0.034015
  26 C :   -0.033467
  27 H :    0.022363
  28 H :    0.014783
  29 C :   -0.043716
  30 H :    0.029739
  31 H :    0.013068
  32 C :   -0.032733
  33 H :    0.026514
  34 H :    0.004321
  35 H :    0.023751
  36 H :    0.028172
  37 H :    0.023946
  38 H :    0.026382
  39 F :   -0.267631

  Mayer bond orders larger than 0.100000
B(  0-C ,  1-N ) :   0.9203 B(  0-C , 12-H ) :  -0.4560 B(  0-C , 17-C ) :   1.1233
B(  0-C , 18-H ) :   0.6931 B(  0-C , 19-H ) :   0.8872 B(  0-C , 27-H ) :   0.1025
B(  0-C , 28-H ) :   0.1040 B(  1-N ,  7-C ) :   1.0449 B(  1-N ,  8-C ) :   0.1647
B(  1-N ,  9-N ) :   0.3253 B(  1-N , 12-H ) :   0.9112 B(  1-N , 18-H ) :   0.2262
B(  1-N , 39-F ) :  -0.1446 B(  2-C ,  3-C ) :   1.2696 B(  2-C ,  5-H ) :   0.2230
B(  2-C , 21-C ) :   1.1684 B(  2-C , 24-H ) :   0.8530 B(  2-C , 25-H ) :   0.8784
B(  3-C ,  4-H ) :   0.9237 B(  3-C ,  5-H ) :   0.7389 B(  3-C ,  6-S ) :   0.9968
B(  3-C , 16-O ) :   0.1128 B(  3-C , 25-H ) :   0.1054 B(  6-S , 15-O ) :   1.4282
B(  6-S , 16-O ) :   1.3679 B(  6-S , 39-F ) :   0.5478 B(  7-C ,  8-C ) :   1.3294
B(  7-C ,  9-N ) :   0.6825 B(  7-C , 11-H ) :  -0.1098 B(  7-C , 12-H ) :  -0.6691
B(  7-C , 14-H ) :   0.1315 B(  8-C ,  9-N ) :   0.3127 B(  8-C , 13-H ) :   0.5810
B(  8-C , 14-H ) :   0.8767 B(  9-N , 10-H ) :   0.9920 B(  9-N , 11-H ) :   1.2518
B( 10-H , 11-H ) :  -0.1819 B( 12-H , 39-F ) :   0.1649 B( 13-H , 14-H ) :  -0.1330
B( 17-C , 18-H ) :   0.1226 B( 17-C , 26-C ) :   1.2392 B( 17-C , 27-H ) :   0.9639
B( 17-C , 28-H ) :   0.7566 B( 17-C , 31-H ) :   0.1131 B( 18-H , 19-H ) :  -0.1443
B( 20-C , 21-C ) :   1.2540 B( 20-C , 22-H ) :   0.1107 B( 20-C , 23-H ) :   0.1023
B( 20-C , 32-C ) :   1.1666 B( 20-C , 35-H ) :   0.8501 B( 20-C , 36-H ) :   1.0081
B( 20-C , 37-H ) :   0.1105 B( 20-C , 38-H ) :   0.1859 B( 21-C , 22-H ) :   0.7523
B( 21-C , 23-H ) :   0.9061 B( 21-C , 24-H ) :   0.1771 B( 21-C , 36-H ) :   0.1857
B( 22-H , 23-H ) :   0.2215 B( 23-H , 34-H ) :   0.1080 B( 26-C , 28-H ) :   0.1738
B( 26-C , 29-C ) :   1.2168 B( 26-C , 30-H ) :   0.9015 B( 26-C , 31-H ) :   0.9286
B( 26-C , 33-H ) :   0.1308 B( 29-C , 30-H ) :   0.1442 B( 29-C , 32-C ) :   1.1683
B( 29-C , 33-H ) :   1.0868 B( 29-C , 34-H ) :   0.8247 B( 29-C , 37-H ) :   0.2446
B( 29-C , 38-H ) :   0.1316 B( 32-C , 37-H ) :   0.7139 B( 32-C , 38-H ) :   0.7303

Dispersion correction           -0.042549925
FINAL SINGLE POINT ENERGY     -1189.235476406348

DIPOLE MOMENT
-------------
                                X             Y             Z
Electronic contribution:    -18.42622       3.14764     -16.18729
Nuclear contribution   :     18.77618      -4.78855      17.68602
                        -----------------------------------------
Total Dipole Moment    :      0.34996      -1.64091       1.49874
                        -----------------------------------------
Magnitude (a.u.)       :      2.24972
Magnitude (Debye)      :      5.71835

Rotational constants in cm-1:     0.014368     0.012319     0.007509
Rotational constants in MHz :   430.738566   369.302170   225.105103

                             ****ORCA TERMINATED NORMALLY****
TOTAL RUN TIME: 0 days 0 hours 4 minutes 30 seconds 552 msec
