                         Program Version 5.0.0 -  RELEASE  -
|  1> !PBE0 D3BJ RIJCOSX def2-SVPD def2/J TightSCF xyzfile
|  2>
|  3> *xyzfile 0 1 D9.xyz
|  4>
|  5> %MaxCore 64000
|  6>
|  7> %pal nprocs 4
|  8> end
|  9>
| 10> %scf
| 11>   MaxIter 150
| 12> end
| 13>
| 14>
| 15>                          ****END OF INPUT****

CARTESIAN COORDINATES (ANGSTROEM)
---------------------------------
  C      4.490588    1.155899   -2.469290
  N      4.305394    1.222762   -3.908317
  C      4.906458   -3.102816   -5.954844
  C      3.511771   -2.806215   -6.492283
  H      2.736044   -3.373445   -5.973736
  H      3.444904   -3.040831   -7.555281
  S      3.004618   -1.096206   -6.389259
  C      4.631918    2.246365   -4.670958
  N      4.541686    2.143990   -5.987139
  C      5.084086    3.393584   -4.118545
  H      4.920675    3.570501   -3.135870
  H      5.254652    4.197390   -4.706956
  H      3.824530    0.449113   -4.350926
  H      4.343373    1.249318   -6.416646
  H      4.676712    2.956624   -6.574113
  O      4.128856   -0.329647   -6.953717
  O      1.781285   -1.000779   -7.136399
  C      5.942129    0.939500   -2.036893
  H      3.864305    0.328532   -2.136611
  H      4.076233    2.049994   -1.989010
  C      6.462677   -3.117775   -3.944671
  C      5.024977   -3.025679   -4.437625
  H      4.423321   -3.818693   -3.977648
  H      4.579350   -2.087131   -4.108727
  H      5.201533   -4.100207   -6.296905
  H      5.605922   -2.397822   -6.413368
  C      6.559957   -0.356290   -2.559086
  H      5.967976    0.952567   -0.942444
  H      6.547184    1.788331   -2.368849
  C      6.006283   -1.615917   -1.899301
  H      7.642360   -0.318000   -2.402059
  H      6.414855   -0.403433   -3.642587
  C      6.608718   -2.917014   -2.435655
  H      6.190324   -1.561115   -0.820948
  H      4.919250   -1.651245   -2.016586
  H      7.066975   -2.374258   -4.475514
  H      6.887808   -4.089747   -4.215332
  H      6.135197   -3.755573   -1.915159
  H      7.671142   -2.955503   -2.172291
  F      2.851546   -0.783683   -4.956789

 Total Charge           Charge          ....    0
 Multiplicity           Mult            ....    1
 Number of Electrons    NEL             ....  144
 Basis Dimension        Dim             ....  540

ORBITAL ENERGIES
----------------

  NO   OCC          E(Eh)            E(eV)
   0   2.0000     -89.323182     -2430.6074
   1   2.0000     -24.922276      -678.1696
   2   2.0000     -19.258197      -524.0422
   3   2.0000     -19.254765      -523.9488
   4   2.0000     -14.385192      -391.4410
   5   2.0000     -14.362427      -390.8215
   6   2.0000     -10.315284      -280.6931
   7   2.0000     -10.273638      -279.5599
   8   2.0000     -10.260847      -279.2118
   9   2.0000     -10.257516      -279.1212
  10   2.0000     -10.256000      -279.0799
  11   2.0000     -10.243536      -278.7408
  12   2.0000     -10.236767      -278.5566
  13   2.0000     -10.231072      -278.4016
  14   2.0000     -10.223080      -278.1842
  15   2.0000     -10.217645      -278.0363
  16   2.0000     -10.127803      -275.5915
  17   2.0000      -8.282559      -225.3799
  18   2.0000      -6.228923      -169.4976
  19   2.0000      -6.222763      -169.3300
  20   2.0000      -6.221019      -169.2825
  21   2.0000      -1.418149       -38.5898
  22   2.0000      -1.169077       -31.8122
  23   2.0000      -1.070578       -29.1319
  24   2.0000      -0.974072       -26.5058
  25   2.0000      -0.886253       -24.1162
  26   2.0000      -0.878263       -23.8988
  27   2.0000      -0.838830       -22.8257
  28   2.0000      -0.806311       -21.9408
  29   2.0000      -0.776604       -21.1325
  30   2.0000      -0.754416       -20.5287
  31   2.0000      -0.718530       -19.5522
  32   2.0000      -0.705725       -19.2038
  33   2.0000      -0.680408       -18.5148
  34   2.0000      -0.656514       -17.8646
  35   2.0000      -0.636056       -17.3080
  36   2.0000      -0.623332       -16.9617
  37   2.0000      -0.612438       -16.6653
  38   2.0000      -0.600404       -16.3378
  39   2.0000      -0.579882       -15.7794
  40   2.0000      -0.552794       -15.0423
  41   2.0000      -0.544372       -14.8131
  42   2.0000      -0.533238       -14.5101
  43   2.0000      -0.525599       -14.3023
  44   2.0000      -0.511055       -13.9065
  45   2.0000      -0.508877       -13.8472
  46   2.0000      -0.493768       -13.4361
  47   2.0000      -0.487816       -13.2742
  48   2.0000      -0.472021       -12.8443
  49   2.0000      -0.466604       -12.6969
  50   2.0000      -0.454183       -12.3589
  51   2.0000      -0.452709       -12.3189
  52   2.0000      -0.435080       -11.8391
  53   2.0000      -0.427304       -11.6275
  54   2.0000      -0.413103       -11.2411
  55   2.0000      -0.407423       -11.0865
  56   2.0000      -0.400273       -10.8920
  57   2.0000      -0.391458       -10.6521
  58   2.0000      -0.385264       -10.4836
  59   2.0000      -0.378901       -10.3104
  60   2.0000      -0.374645       -10.1946
  61   2.0000      -0.370143       -10.0721
  62   2.0000      -0.364125        -9.9083
  63   2.0000      -0.359408        -9.7800
  64   2.0000      -0.356844        -9.7102
  65   2.0000      -0.351957        -9.5772
  66   2.0000      -0.348714        -9.4890
  67   2.0000      -0.332049        -9.0355
  68   2.0000      -0.329954        -8.9785
  69   2.0000      -0.321709        -8.7541
  70   2.0000      -0.243947        -6.6381
  71   2.0000      -0.157738        -4.2923
  72   0.0000      -0.012439        -0.3385
  73   0.0000       0.013767         0.3746
  74   0.0000       0.017184         0.4676
  75   0.0000       0.027054         0.7362
  76   0.0000       0.032163         0.8752

MULLIKEN ATOMIC CHARGES
-----------------------
   0 C :    0.867501
   1 N :    0.210813
   2 C :    0.077731
   3 C :    0.120702
   4 H :    0.100718
   5 H :    0.113798
   6 S :    1.580296
   7 C :    0.758588
   8 N :    0.347999
   9 C :    0.371044
  10 H :    0.141949
  11 H :   -0.589066
  12 H :   -1.128548
  13 H :   -0.318746
  14 H :   -0.178821
  15 O :   -0.784118
  16 O :   -0.746121
  17 C :    0.182097
  18 H :   -0.253642
  19 H :   -0.035407
  20 C :   -0.144874
  21 C :    0.052307
  22 H :    0.076914
  23 H :   -0.375034
  24 H :   -0.026229
  25 H :    0.145366
  26 C :   -0.043106
  27 H :   -0.061233
  28 H :    0.032574
  29 C :   -0.282114
  30 H :   -0.102401
  31 H :   -0.031918
  32 C :    0.529601
  33 H :   -0.276586
  34 H :    0.208162
  35 H :    0.193952
  36 H :   -0.270200
  37 H :    0.023655
  38 H :    0.070671
  39 F :   -0.558273
Sum of atomic charges:    0.0000000

LOEWDIN ATOMIC CHARGES
----------------------
   0 C :    0.063899
   1 N :   -0.002174
   2 C :   -0.035187
   3 C :   -0.039059
   4 H :    0.034343
   5 H :    0.041614
   6 S :    1.170897
   7 C :   -0.213394
   8 N :    0.209133
   9 C :    0.151422
  10 H :   -0.116762
  11 H :   -0.106410
  12 H :   -0.061912
  13 H :   -0.123344
  14 H :    0.014692
  15 O :   -0.443182
  16 O :   -0.434174
  17 C :   -0.016162
  18 H :    0.014327
  19 H :    0.020598
  20 C :   -0.035475
  21 C :   -0.035421
  22 H :    0.043111
  23 H :   -0.011551
  24 H :    0.042151
  25 H :    0.033601
  26 C :   -0.035217
  27 H :    0.024579
  28 H :    0.015623
  29 C :   -0.044208
  30 H :    0.029570
  31 H :    0.009630
  32 C :   -0.032732
  33 H :    0.027161
  34 H :    0.003681
  35 H :    0.023463
  36 H :    0.028153
  37 H :    0.023688
  38 H :    0.026846
  39 F :   -0.265816

  Mayer bond orders larger than 0.100000
B(  0-C ,  1-N ) :   0.9491 B(  0-C , 10-H ) :   0.1156 B(  0-C , 12-H ) :  -0.4824
B(  0-C , 17-C ) :   1.1162 B(  0-C , 18-H ) :   0.7652 B(  0-C , 19-H ) :   0.8758
B(  1-N ,  7-C ) :   0.9382 B(  1-N ,  9-C ) :   0.2932 B(  1-N , 11-H ) :   0.1239
B(  1-N , 12-H ) :   0.8033 B(  1-N , 13-H ) :   0.1630 B(  1-N , 14-H ) :  -0.1085
B(  1-N , 18-H ) :   0.2550 B(  2-C ,  3-C ) :   1.2719 B(  2-C ,  5-H ) :   0.2254
B(  2-C , 21-C ) :   1.1621 B(  2-C , 24-H ) :   0.8572 B(  2-C , 25-H ) :   0.8721
B(  3-C ,  4-H ) :   0.9193 B(  3-C ,  5-H ) :   0.7332 B(  3-C ,  6-S ) :   1.0202
B(  3-C , 25-H ) :   0.1067 B(  6-S , 15-O ) :   1.3559 B(  6-S , 16-O ) :   1.3982
B(  6-S , 39-F ) :   0.5716 B(  7-C ,  8-N ) :   0.8726 B(  7-C ,  9-C ) :   1.7066
B(  7-C , 10-H ) :   0.3259 B(  7-C , 11-H ) :   0.3427 B(  7-C , 12-H ) :  -0.6666
B(  7-C , 13-H ) :  -0.1814 B(  7-C , 14-H ) :  -0.1314 B(  7-C , 18-H ) :   0.1029
B(  8-N ,  9-C ) :   0.2201 B(  8-N , 13-H ) :   0.9788 B(  8-N , 14-H ) :   1.2972
B(  9-C , 10-H ) :   0.5590 B(  9-C , 11-H ) :   0.7446 B( 10-H , 13-H ) :   0.1508
B( 10-H , 19-H ) :   0.1189 B( 11-H , 12-H ) :  -0.1065 B( 12-H , 39-F ) :   0.2023
B( 13-H , 14-H ) :  -0.2664 B( 13-H , 15-O ) :   0.1186 B( 17-C , 18-H ) :   0.1210
B( 17-C , 26-C ) :   1.2212 B( 17-C , 27-H ) :   0.9305 B( 17-C , 28-H ) :   0.7991
B( 17-C , 31-H ) :   0.1127 B( 18-H , 19-H ) :  -0.1700 B( 20-C , 21-C ) :   1.2564
B( 20-C , 22-H ) :   0.1098 B( 20-C , 23-H ) :   0.1059 B( 20-C , 32-C ) :   1.1656
B( 20-C , 35-H ) :   0.8481 B( 20-C , 36-H ) :   1.0148 B( 20-C , 37-H ) :   0.1118
B( 20-C , 38-H ) :   0.1853 B( 21-C , 22-H ) :   0.7548 B( 21-C , 23-H ) :   0.9002
B( 21-C , 24-H ) :   0.1742 B( 21-C , 36-H ) :   0.1855 B( 22-H , 23-H ) :   0.2190
B( 23-H , 34-H ) :   0.1076 B( 26-C , 27-H ) :   0.1025 B( 26-C , 28-H ) :   0.1729
B( 26-C , 29-C ) :   1.2160 B( 26-C , 30-H ) :   0.9128 B( 26-C , 31-H ) :   0.9362
B( 26-C , 33-H ) :   0.1336 B( 29-C , 30-H ) :   0.1461 B( 29-C , 32-C ) :   1.1670
B( 29-C , 33-H ) :   1.0863 B( 29-C , 34-H ) :   0.8312 B( 29-C , 37-H ) :   0.2484
B( 29-C , 38-H ) :   0.1319 B( 32-C , 37-H ) :   0.7117 B( 32-C , 38-H ) :   0.7315

Dispersion correction           -0.042479932
FINAL SINGLE POINT ENERGY     -1189.252520695075

DIPOLE MOMENT
-------------
                                X             Y             Z
Electronic contribution:    -18.94369       1.83289     -17.84187
Nuclear contribution   :     18.85717      -4.60195      17.96505
                        -----------------------------------------
Total Dipole Moment    :     -0.08651      -2.76906       0.12318
                        -----------------------------------------
Magnitude (a.u.)       :      2.77315
Magnitude (Debye)      :      7.04878

Rotational constants in cm-1:     0.014436     0.012382     0.007563
Rotational constants in MHz :   432.785702   371.214592   226.743759

                             ****ORCA TERMINATED NORMALLY****
TOTAL RUN TIME: 0 days 0 hours 4 minutes 50 seconds 524 msec
