                         Program Version 5.0.0 -  RELEASE  -
|  1> !wB97X-D3 RIJCOSX def2-TZVP def2/J TightSCF
|  2> *xyz -1 1
|  3> C          4.08422        1.74208       -2.11472
|  4> C          4.26524        2.50052       -0.79589
|  5> H          4.86853        3.39267       -0.98113
|  6> H          3.30764        2.82457       -0.38781
|  7> C          4.98224        1.65026        0.24742
|  8> O          4.36806        1.38927        1.31371
|  9> O          6.12892        1.23351       -0.04562
| 10> H          3.57911        2.36849       -2.81997
| 11> H          3.50424        0.85965       -1.94198
| 12> H          5.04288        1.46841       -2.50327
| 13> *
| 14> %MaxCore 64000
| 15> %pal nprocs 8
| 16> end
| 17> %scf
| 18>   MaxIter 150
| 19> end
| 20>
| 21>
| 22>                          ****END OF INPUT****

CARTESIAN COORDINATES (ANGSTROEM)
---------------------------------
  C      4.084220    1.742080   -2.114720
  C      4.265240    2.500520   -0.795890
  H      4.868530    3.392670   -0.981130
  H      3.307640    2.824570   -0.387810
  C      4.982240    1.650260    0.247420
  O      4.368060    1.389270    1.313710
  O      6.128920    1.233510   -0.045620
  H      3.579110    2.368490   -2.819970
  H      3.504240    0.859650   -1.941980
  H      5.042880    1.468410   -2.503270

 Total Charge           Charge          ....   -1
 Multiplicity           Mult            ....    1
 Number of Electrons    NEL             ....   40
 Basis Dimension        Dim             ....  185

ORBITAL ENERGIES
----------------

  NO   OCC          E(Eh)            E(eV)
   0   2.0000     -18.951575      -515.6986
   1   2.0000     -18.951325      -515.6918
   2   2.0000     -10.148228      -276.1473
   3   2.0000     -10.108068      -275.0545
   4   2.0000     -10.095509      -274.7128
   5   2.0000      -0.926174       -25.2025
   6   2.0000      -0.830514       -22.5994
   7   2.0000      -0.719023       -19.5656
   8   2.0000      -0.582760       -15.8577
   9   2.0000      -0.420914       -11.4537
  10   2.0000      -0.390782       -10.6337
  11   2.0000      -0.356200        -9.6927
  12   2.0000      -0.324169        -8.8211
  13   2.0000      -0.307008        -8.3541
  14   2.0000      -0.300327        -8.1723
  15   2.0000      -0.267454        -7.2778
  16   2.0000      -0.251470        -6.8429
  17   2.0000      -0.131237        -3.5711
  18   2.0000      -0.126546        -3.4435
  19   2.0000      -0.113463        -3.0875
  20   0.0000       0.263330         7.1656
  21   0.0000       0.305162         8.3039
  22   0.0000       0.326386         8.8814
  23   0.0000       0.329738         8.9726
  24   0.0000       0.344109         9.3637

MULLIKEN ATOMIC CHARGES
-----------------------
   0 C :   -0.320869
   1 C :   -0.121815
   2 H :    0.036211
   3 H :    0.043284
   4 C :    0.254685
   5 O :   -0.566593
   6 O :   -0.569941
   7 H :    0.054501
   8 H :    0.089376
   9 H :    0.101160
Sum of atomic charges:   -1.0000000

LOEWDIN ATOMIC CHARGES
----------------------
   0 C :   -0.321285
   1 C :   -0.288189
   2 H :    0.120386
   3 H :    0.117202
   4 C :   -0.695609
   5 O :   -0.125177
   6 O :   -0.120295
   7 H :    0.092472
   8 H :    0.108513
   9 H :    0.111982

  Mayer bond orders larger than 0.100000
B(  0-C ,  1-C ) :   0.9635 B(  0-C ,  7-H ) :   0.9776 B(  0-C ,  8-H ) :   0.9852
B(  0-C ,  9-H ) :   0.9749 B(  1-C ,  2-H ) :   0.9632 B(  1-C ,  3-H ) :   0.9642
B(  1-C ,  4-C ) :   0.9438 B(  4-C ,  5-O ) :   1.8515 B(  4-C ,  6-O ) :   1.8100

Dispersion correction           -0.001959198
FINAL SINGLE POINT ENERGY      -267.865926477045

DIPOLE MOMENT
-------------
                                X             Y             Z
Electronic contribution:      2.44080      -1.48271       5.13250
Nuclear contribution   :     -3.31311       2.28398      -6.76358
                        -----------------------------------------
Total Dipole Moment    :     -0.87232       0.80128      -1.63108
                        -----------------------------------------
Magnitude (a.u.)       :      2.01579
Magnitude (Debye)      :      5.12373

Rotational constants in cm-1:     0.309287     0.135287     0.107346
Rotational constants in MHz :  9272.201029  4055.789113  3218.155789

                             ****ORCA TERMINATED NORMALLY****
TOTAL RUN TIME: 0 days 0 hours 0 minutes 26 seconds 302 msec
