                         Program Version 5.0.0 -  RELEASE  -
|  1> !wB97X-D3 RIJCOSX def2-TZVP def2/J TightSCF
|  2> *xyz 1 1
|  3> C          3.91385       -1.65829        3.01513
|  4> N          5.03927       -0.90115        2.49282
|  5> C          6.21038       -1.41726        2.17824
|  6> N          6.53591       -2.67712        2.55608
|  7> N          7.07675       -0.70082        1.47891
|  8> H          7.95464       -1.12155        1.20755
|  9> H          6.75616        0.10664        0.96028
| 10> H          4.84217        0.01761        2.11519
| 11> H          5.99388       -3.12692        3.28278
| 12> C          3.13916       -2.37657        1.91061
| 13> H          3.26723       -0.93940        3.52069
| 14> H          4.24720       -2.35509        3.79006
| 15> H          7.49844       -2.97548        2.46878
| 16> H          2.82969       -1.66654        1.17238
| 17> H          2.27790       -2.85264        2.33072
| 18> H          3.76754       -3.11338        1.45548
| 19> *
| 20> %MaxCore 64000
| 21> %pal nprocs 8
| 22> end
| 23> %scf
| 24>   MaxIter 150
| 25> end
| 26>
| 27>
| 28>                          ****END OF INPUT****

CARTESIAN COORDINATES (ANGSTROEM)
---------------------------------
  C      3.913850   -1.658290    3.015130
  N      5.039270   -0.901150    2.492820
  C      6.210380   -1.417260    2.178240
  N      6.535910   -2.677120    2.556080
  N      7.076750   -0.700820    1.478910
  H      7.954640   -1.121550    1.207550
  H      6.756160    0.106640    0.960280
  H      4.842170    0.017610    2.115190
  H      5.993880   -3.126920    3.282780
  C      3.139160   -2.376570    1.910610
  H      3.267230   -0.939400    3.520690
  H      4.247200   -2.355090    3.790060
  H      7.498440   -2.975480    2.468780
  H      2.829690   -1.666540    1.172380
  H      2.277900   -2.852640    2.330720
  H      3.767540   -3.113380    1.455480

 Total Charge           Charge          ....    1
 Multiplicity           Mult            ....    1
 Number of Electrons    NEL             ....   48
 Basis Dimension        Dim             ....  246

ORBITAL ENERGIES
----------------

  NO   OCC          E(Eh)            E(eV)
   0   2.0000     -14.647257      -398.5721
   1   2.0000     -14.644907      -398.5082
   2   2.0000     -14.642621      -398.4460
   3   2.0000     -10.613650      -288.8121
   4   2.0000     -10.483364      -285.2668
   5   2.0000     -10.407798      -283.2106
   6   2.0000      -1.335725       -36.3469
   7   2.0000      -1.224164       -33.3112
   8   2.0000      -1.207043       -32.8453
   9   2.0000      -1.046428       -28.4748
  10   2.0000      -0.951957       -25.9041
  11   2.0000      -0.910846       -24.7854
  12   2.0000      -0.890582       -24.2340
  13   2.0000      -0.848123       -23.0786
  14   2.0000      -0.791651       -21.5419
  15   2.0000      -0.785131       -21.3645
  16   2.0000      -0.755934       -20.5700
  17   2.0000      -0.730878       -19.8882
  18   2.0000      -0.701450       -19.0874
  19   2.0000      -0.659814       -17.9544
  20   2.0000      -0.627968       -17.0879
  21   2.0000      -0.607431       -16.5290
  22   2.0000      -0.573044       -15.5933
  23   2.0000      -0.542194       -14.7539
  24   0.0000      -0.083699        -2.2776
  25   0.0000      -0.068419        -1.8618
  26   0.0000      -0.036556        -0.9947
  27   0.0000      -0.026400        -0.7184
  28   0.0000      -0.004141        -0.1127

MULLIKEN ATOMIC CHARGES
-----------------------
   0 C :   -0.169963
   1 N :   -0.284958
   2 C :    0.484000
   3 N :   -0.443133
   4 N :   -0.442955
   5 H :    0.297819
   6 H :    0.298039
   7 H :    0.269979
   8 H :    0.289797
   9 C :   -0.316736
  10 H :    0.171859
  11 H :    0.126266
  12 H :    0.289786
  13 H :    0.133773
  14 H :    0.164272
  15 H :    0.132156
Sum of atomic charges:    1.0000000

LOEWDIN ATOMIC CHARGES
----------------------
   0 C :   -0.281009
   1 N :    0.170852
   2 C :   -0.393727
   3 N :    0.046973
   4 N :    0.064414
   5 H :    0.199906
   6 H :    0.200246
   7 H :    0.213478
   8 H :    0.193608
   9 C :   -0.281532
  10 H :    0.151560
  11 H :    0.136408
  12 H :    0.196172
  13 H :    0.125104
  14 H :    0.135484
  15 H :    0.122062

  Mayer bond orders larger than 0.100000
B(  0-C ,  1-N ) :   0.8758 B(  0-C ,  9-C ) :   0.9753 B(  0-C , 10-H ) :   0.9571
B(  0-C , 11-H ) :   0.9747 B(  1-N ,  2-C ) :   1.4038 B(  1-N ,  7-H ) :   0.8989
B(  2-C ,  3-N ) :   1.3150 B(  2-C ,  4-N ) :   1.3361 B(  3-N ,  8-H ) :   0.8878
B(  3-N , 12-H ) :   0.8958 B(  4-N ,  5-H ) :   0.8923 B(  4-N ,  6-H ) :   0.8917
B(  9-C , 13-H ) :   0.9681 B(  9-C , 14-H ) :   0.9693 B(  9-C , 15-H ) :   0.9636

Dispersion correction           -0.003823302
FINAL SINGLE POINT ENERGY      -284.430292938765

DIPOLE MOMENT
-------------
                                X             Y             Z
Electronic contribution:      4.72938       1.92269       0.06809
Nuclear contribution   :     -3.67981      -1.62355      -0.28562
                        -----------------------------------------
Total Dipole Moment    :      1.04957       0.29914      -0.21753
                        -----------------------------------------
Magnitude (a.u.)       :      1.11284
Magnitude (Debye)      :      2.82861

Rotational constants in cm-1:     0.222027     0.074735     0.065694
Rotational constants in MHz :  6656.200457  2240.503315  1969.451902

                             ****ORCA TERMINATED NORMALLY****
TOTAL RUN TIME: 0 days 0 hours 0 minutes 38 seconds 757 msec
