                         Program Version 5.0.0 -  RELEASE  -
|  1> !wB97X-D3 RIJCOSX def2-TZVP def2/J TightSCF
|  2> *xyz 0 1
|  3> C          4.08422        1.74208       -2.11472
|  4> C          4.26524        2.50052       -0.79589
|  5> H          4.86853        3.39267       -0.98113
|  6> H          3.30764        2.82457       -0.38781
|  7> C          4.98224        1.65026        0.24742
|  8> F          4.36806        1.38927        1.31371
|  9> O          6.12892        1.23351       -0.04562
| 10> H          3.57911        2.36849       -2.81997
| 11> H          3.50424        0.85965       -1.94198
| 12> H          5.04288        1.46841       -2.50327
| 13> *
| 14> %MaxCore 64000
| 15> %pal nprocs 8
| 16> end
| 17> %scf
| 18>   MaxIter 150
| 19> end
| 20>
| 21>
| 22>                          ****END OF INPUT****

CARTESIAN COORDINATES (ANGSTROEM)
---------------------------------
  C      4.084220    1.742080   -2.114720
  C      4.265240    2.500520   -0.795890
  H      4.868530    3.392670   -0.981130
  H      3.307640    2.824570   -0.387810
  C      4.982240    1.650260    0.247420
  F      4.368060    1.389270    1.313710
  O      6.128920    1.233510   -0.045620
  H      3.579110    2.368490   -2.819970
  H      3.504240    0.859650   -1.941980
  H      5.042880    1.468410   -2.503270

 Total Charge           Charge          ....    0
 Multiplicity           Mult            ....    1
 Number of Electrons    NEL             ....   40
 Basis Dimension        Dim             ....  185

ORBITAL ENERGIES
----------------

  NO   OCC          E(Eh)            E(eV)
   0   2.0000     -24.853659      -676.3024
   1   2.0000     -19.233755      -523.3771
   2   2.0000     -10.453679      -284.4591
   3   2.0000     -10.307166      -280.4723
   4   2.0000     -10.278886      -279.7027
   5   2.0000      -1.433171       -38.9986
   6   2.0000      -1.148112       -31.2417
   7   2.0000      -0.918548       -24.9950
   8   2.0000      -0.801485       -21.8095
   9   2.0000      -0.746579       -20.3154
  10   2.0000      -0.652595       -17.7580
  11   2.0000      -0.638461       -17.3734
  12   2.0000      -0.612839       -16.6762
  13   2.0000      -0.566817       -15.4239
  14   2.0000      -0.534445       -14.5430
  15   2.0000      -0.496374       -13.5070
  16   2.0000      -0.475655       -12.9432
  17   2.0000      -0.470228       -12.7955
  18   2.0000      -0.440915       -11.9979
  19   2.0000      -0.388789       -10.5795
  20   0.0000       0.056639         1.5412
  21   0.0000       0.117958         3.2098
  22   0.0000       0.155751         4.2382
  23   0.0000       0.170380         4.6363
  24   0.0000       0.183209         4.9854

MULLIKEN ATOMIC CHARGES
-----------------------
   0 C :   -0.354059
   1 C :   -0.198491
   2 H :    0.130393
   3 H :    0.111588
   4 C :    0.397501
   5 F :   -0.107950
   6 O :   -0.362646
   7 H :    0.123222
   8 H :    0.117667
   9 H :    0.142775
Sum of atomic charges:   -0.0000000

LOEWDIN ATOMIC CHARGES
----------------------
   0 C :   -0.284598
   1 C :   -0.258503
   2 H :    0.154592
   3 H :    0.137693
   4 C :   -0.490808
   5 F :    0.318926
   6 O :    0.058866
   7 H :    0.118810
   8 H :    0.119334
   9 H :    0.125688

  Mayer bond orders larger than 0.100000
B(  0-C ,  1-C ) :   0.9734 B(  0-C ,  7-H ) :   0.9740 B(  0-C ,  8-H ) :   0.9763
B(  0-C ,  9-H ) :   0.9705 B(  1-C ,  2-H ) :   0.9486 B(  1-C ,  3-H ) :   0.9650
B(  1-C ,  4-C ) :   0.9849 B(  4-C ,  5-F ) :   1.1567 B(  4-C ,  6-O ) :   2.0239

Dispersion correction           -0.001915034
FINAL SINGLE POINT ENERGY      -292.437860530910

DIPOLE MOMENT
-------------
                                X             Y             Z
Electronic contribution:      1.90967      -2.03920       8.14866
Nuclear contribution   :     -2.87511       2.61564      -8.50037
                        -----------------------------------------
Total Dipole Moment    :     -0.96543       0.57644      -0.35171
                        -----------------------------------------
Magnitude (a.u.)       :      1.17815
Magnitude (Debye)      :      2.99462

Rotational constants in cm-1:     0.297822     0.128965     0.102219
Rotational constants in MHz :  8928.481997  3866.271686  3064.463504

                             ****ORCA TERMINATED NORMALLY****
TOTAL RUN TIME: 0 days 0 hours 0 minutes 26 seconds 901 msec
