                         Program Version 5.0.0 -  RELEASE  -
|  1> !wB97X-D3 RIJCOSX def2-TZVP def2/J TightSCF
|  2> *xyz 0 1
|  3> C          3.91385       -1.65829        3.01513
|  4> C          5.03927       -0.90115        2.49282
|  5> C          6.21038       -1.41726        2.17824
|  6> N          6.53591       -2.67712        2.55608
|  7> N          7.07675       -0.70082        1.47891
|  8> H          7.95464       -1.12155        1.20755
|  9> H          6.75616        0.10664        0.96028
| 10> H          4.84217        0.01761        2.11519
| 11> H          5.99388       -3.12692        3.28278
| 12> C          3.13916       -2.37657        1.91061
| 13> H          3.26723       -0.93940        3.52069
| 14> H          4.24720       -2.35509        3.79006
| 15> H          7.49844       -2.97548        2.46878
| 16> H          2.82969       -1.66654        1.17238
| 17> H          2.27790       -2.85264        2.33072
| 18> H          3.76754       -3.11338        1.45548
| 19> *
| 20> %MaxCore 64000
| 21> %pal nprocs 8
| 22> end
| 23> %scf
| 24>   MaxIter 150
| 25> end
| 26>
| 27>
| 28>                          ****END OF INPUT****

CARTESIAN COORDINATES (ANGSTROEM)
---------------------------------
  C      3.913850   -1.658290    3.015130
  C      5.039270   -0.901150    2.492820
  C      6.210380   -1.417260    2.178240
  N      6.535910   -2.677120    2.556080
  N      7.076750   -0.700820    1.478910
  H      7.954640   -1.121550    1.207550
  H      6.756160    0.106640    0.960280
  H      4.842170    0.017610    2.115190
  H      5.993880   -3.126920    3.282780
  C      3.139160   -2.376570    1.910610
  H      3.267230   -0.939400    3.520690
  H      4.247200   -2.355090    3.790060
  H      7.498440   -2.975480    2.468780
  H      2.829690   -1.666540    1.172380
  H      2.277900   -2.852640    2.330720
  H      3.767540   -3.113380    1.455480

 Total Charge           Charge          ....    0
 Multiplicity           Mult            ....    1
 Number of Electrons    NEL             ....   48
 Basis Dimension        Dim             ....  246

ORBITAL ENERGIES
----------------

  NO   OCC          E(Eh)            E(eV)
   0   2.0000     -14.419246      -392.3676
   1   2.0000     -14.416945      -392.3050
   2   2.0000     -10.316258      -280.7196
   3   2.0000     -10.247429      -278.8467
   4   2.0000     -10.234573      -278.4969
   5   2.0000     -10.190799      -277.3058
   6   2.0000      -1.076109       -29.2824
   7   2.0000      -0.983674       -26.7671
   8   2.0000      -0.888958       -24.1898
   9   2.0000      -0.805791       -21.9267
  10   2.0000      -0.725139       -19.7320
  11   2.0000      -0.680573       -18.5193
  12   2.0000      -0.640988       -17.4422
  13   2.0000      -0.611781       -16.6474
  14   2.0000      -0.569406       -15.4943
  15   2.0000      -0.535956       -14.5841
  16   2.0000      -0.517577       -14.0840
  17   2.0000      -0.486259       -13.2318
  18   2.0000      -0.477707       -12.9991
  19   2.0000      -0.448134       -12.1943
  20   2.0000      -0.420010       -11.4291
  21   2.0000      -0.411065       -11.1857
  22   2.0000      -0.360098        -9.7988
  23   2.0000      -0.244620        -6.6565
  24   0.0000       0.102565         2.7909
  25   0.0000       0.133578         3.6348
  26   0.0000       0.139546         3.7973
  27   0.0000       0.162152         4.4124
  28   0.0000       0.166727         4.5369

MULLIKEN ATOMIC CHARGES
-----------------------
   0 C :   -0.167904
   1 C :   -0.349954
   2 C :    0.362455
   3 N :   -0.517442
   4 N :   -0.512041
   5 H :    0.226904
   6 H :    0.255105
   7 H :    0.081281
   8 H :    0.245486
   9 C :   -0.296091
  10 H :    0.092183
  11 H :    0.052226
  12 H :    0.223696
  13 H :    0.099399
  14 H :    0.097704
  15 H :    0.106991
Sum of atomic charges:    0.0000000

LOEWDIN ATOMIC CHARGES
----------------------
   0 C :   -0.305476
   1 C :   -0.283083
   2 C :   -0.451125
   3 N :   -0.031960
   4 N :   -0.017342
   5 H :    0.162739
   6 H :    0.178974
   7 H :    0.119773
   8 H :    0.172293
   9 C :   -0.299933
  10 H :    0.137460
  11 H :    0.122871
  12 H :    0.160677
  13 H :    0.113437
  14 H :    0.107135
  15 H :    0.113561

  Mayer bond orders larger than 0.100000
B(  0-C ,  1-C ) :   1.0212 B(  0-C ,  9-C ) :   0.9473 B(  0-C , 10-H ) :   0.9910
B(  0-C , 11-H ) :   0.9817 B(  1-C ,  2-C ) :   1.6957 B(  1-C ,  7-H ) :   1.0155
B(  2-C ,  3-N ) :   1.1332 B(  2-C ,  4-N ) :   1.1403 B(  3-N ,  8-H ) :   0.9173
B(  3-N , 12-H ) :   0.9270 B(  4-N ,  5-H ) :   0.9276 B(  4-N ,  6-H ) :   0.9177
B(  9-C , 13-H ) :   0.9821 B(  9-C , 14-H ) :   0.9816 B(  9-C , 15-H ) :   0.9801

Dispersion correction           -0.003816138
FINAL SINGLE POINT ENERGY      -267.944765446719

DIPOLE MOMENT
-------------
                                X             Y             Z
Electronic contribution:      4.68572       1.20681      -0.05764
Nuclear contribution   :     -3.74303      -1.46908      -0.23637
                        -----------------------------------------
Total Dipole Moment    :      0.94269      -0.26227      -0.29401
                        -----------------------------------------
Magnitude (a.u.)       :      1.02171
Magnitude (Debye)      :      2.59699

Rotational constants in cm-1:     0.225937     0.074877     0.065953
Rotational constants in MHz :  6773.424301  2244.750632  1977.214101

                             ****ORCA TERMINATED NORMALLY****
TOTAL RUN TIME: 0 days 0 hours 0 minutes 40 seconds 627 msec
