                         Program Version 5.0.0 -  RELEASE  -
|  1> !wB97X-D3 RIJCOSX def2-TZVP def2/J TightSCF
|  2> *xyz 0 1
|  3> C          4.08422        1.74208       -2.11472
|  4> C          4.26524        2.50052       -0.79589
|  5> H          4.86853        3.39267       -0.98113
|  6> H          3.30764        2.82457       -0.38781
|  7> C          4.98224        1.65026        0.24742
|  8> O          4.36806        1.38927        1.31371
|  9> F          6.12892        1.23351       -0.04562
| 10> H          3.57911        2.36849       -2.81997
| 11> H          3.50424        0.85965       -1.94198
| 12> H          5.04288        1.46841       -2.50327
| 13> *
| 14> %MaxCore 64000
| 15> %pal nprocs 8
| 16> end
| 17> %scf
| 18>   MaxIter 150
| 19> end
| 20>
| 21>
| 22>                          ****END OF INPUT****

CARTESIAN COORDINATES (ANGSTROEM)
---------------------------------
  C      4.084220    1.742080   -2.114720
  C      4.265240    2.500520   -0.795890
  H      4.868530    3.392670   -0.981130
  H      3.307640    2.824570   -0.387810
  C      4.982240    1.650260    0.247420
  O      4.368060    1.389270    1.313710
  F      6.128920    1.233510   -0.045620
  H      3.579110    2.368490   -2.819970
  H      3.504240    0.859650   -1.941980
  H      5.042880    1.468410   -2.503270

 Total Charge           Charge          ....    0
 Multiplicity           Mult            ....    1
 Number of Electrons    NEL             ....   40
 Basis Dimension        Dim             ....  185

ORBITAL ENERGIES
----------------

  NO   OCC          E(Eh)            E(eV)
   0   2.0000     -24.854918      -676.3367
   1   2.0000     -19.233177      -523.3614
   2   2.0000     -10.453230      -284.4469
   3   2.0000     -10.306862      -280.4640
   4   2.0000     -10.283536      -279.8292
   5   2.0000      -1.435834       -39.0710
   6   2.0000      -1.145008       -31.1572
   7   2.0000      -0.922623       -25.1058
   8   2.0000      -0.799106       -21.7448
   9   2.0000      -0.752234       -20.4693
  10   2.0000      -0.655909       -17.8482
  11   2.0000      -0.644195       -17.5294
  12   2.0000      -0.605710       -16.4822
  13   2.0000      -0.567116       -15.4320
  14   2.0000      -0.535569       -14.5736
  15   2.0000      -0.499932       -13.6038
  16   2.0000      -0.480360       -13.0713
  17   2.0000      -0.473145       -12.8749
  18   2.0000      -0.443924       -12.0798
  19   2.0000      -0.383822       -10.4443
  20   0.0000       0.060007         1.6329
  21   0.0000       0.114169         3.1067
  22   0.0000       0.154231         4.1968
  23   0.0000       0.172363         4.6902
  24   0.0000       0.186975         5.0878

MULLIKEN ATOMIC CHARGES
-----------------------
   0 C :   -0.355239
   1 C :   -0.196589
   2 H :    0.116681
   3 H :    0.137534
   4 C :    0.386550
   5 O :   -0.359767
   6 F :   -0.109119
   7 H :    0.127591
   8 H :    0.128716
   9 H :    0.123643
Sum of atomic charges:    0.0000000

LOEWDIN ATOMIC CHARGES
----------------------
   0 C :   -0.290754
   1 C :   -0.254137
   2 H :    0.146965
   3 H :    0.150943
   4 C :   -0.494320
   5 O :    0.053186
   6 F :    0.326079
   7 H :    0.120636
   8 H :    0.121834
   9 H :    0.119568

  Mayer bond orders larger than 0.100000
B(  0-C ,  1-C ) :   0.9646 B(  0-C ,  7-H ) :   0.9740 B(  0-C ,  8-H ) :   0.9734
B(  0-C ,  9-H ) :   0.9735 B(  1-C ,  2-H ) :   0.9478 B(  1-C ,  3-H ) :   0.9673
B(  1-C ,  4-C ) :   1.0010 B(  4-C ,  5-O ) :   2.0410 B(  4-C ,  6-F ) :   1.1477

Dispersion correction           -0.001919580
FINAL SINGLE POINT ENERGY      -292.437091082345

DIPOLE MOMENT
-------------
                                X             Y             Z
Electronic contribution:      4.85108      -2.28968       5.84786
Nuclear contribution   :     -4.79499       2.78546      -7.01827
                        -----------------------------------------
Total Dipole Moment    :      0.05609       0.49578      -1.17042
                        -----------------------------------------
Magnitude (a.u.)       :      1.27233
Magnitude (Debye)      :      3.23400

Rotational constants in cm-1:     0.286098     0.133492     0.103343
Rotational constants in MHz :  8577.003657  4001.981591  3098.148068

                             ****ORCA TERMINATED NORMALLY****
TOTAL RUN TIME: 0 days 0 hours 0 minutes 15 seconds 510 msec
