                         Program Version 5.0.0 -  RELEASE  -
|  1> !wB97X-D3 RIJCOSX def2-TZVP def2/J TightSCF
|  2> *xyz 0 1
|  3> C          3.91385       -1.65829        3.01513
|  4> N          5.03927       -0.90115        2.49282
|  5> C          6.21038       -1.41726        2.17824
|  6> C          6.53591       -2.67712        2.55608
|  7> N          7.07675       -0.70082        1.47891
|  8> H          7.95464       -1.12155        1.20755
|  9> H          6.75616        0.10664        0.96028
| 10> H          4.84217        0.01761        2.11519
| 11> H          5.99388       -3.12692        3.28278
| 12> C          3.13916       -2.37657        1.91061
| 13> H          3.26723       -0.93940        3.52069
| 14> H          4.24720       -2.35509        3.79006
| 15> H          7.49844       -2.97548        2.46878
| 16> H          2.82969       -1.66654        1.17238
| 17> H          2.27790       -2.85264        2.33072
| 18> H          3.76754       -3.11338        1.45548
| 19> *
| 20> %MaxCore 64000
| 21> %pal nprocs 8
| 22> end
| 23> %scf
| 24>   MaxIter 150
| 25> end
| 26>
| 27>
| 28>                          ****END OF INPUT****

CARTESIAN COORDINATES (ANGSTROEM)
---------------------------------
  C      3.913850   -1.658290    3.015130
  N      5.039270   -0.901150    2.492820
  C      6.210380   -1.417260    2.178240
  C      6.535910   -2.677120    2.556080
  N      7.076750   -0.700820    1.478910
  H      7.954640   -1.121550    1.207550
  H      6.756160    0.106640    0.960280
  H      4.842170    0.017610    2.115190
  H      5.993880   -3.126920    3.282780
  C      3.139160   -2.376570    1.910610
  H      3.267230   -0.939400    3.520690
  H      4.247200   -2.355090    3.790060
  H      7.498440   -2.975480    2.468780
  H      2.829690   -1.666540    1.172380
  H      2.277900   -2.852640    2.330720
  H      3.767540   -3.113380    1.455480

 Total Charge           Charge          ....    0
 Multiplicity           Mult            ....    1
 Number of Electrons    NEL             ....   48
 Basis Dimension        Dim             ....  246

ORBITAL ENERGIES
----------------

  NO   OCC          E(Eh)            E(eV)
   0   2.0000     -14.424833      -392.5197
   1   2.0000     -14.421254      -392.4223
   2   2.0000     -10.323802      -280.9249
   3   2.0000     -10.307557      -280.4829
   4   2.0000     -10.253394      -279.0090
   5   2.0000     -10.180444      -277.0240
   6   2.0000      -1.090815       -29.6826
   7   2.0000      -1.005089       -27.3499
   8   2.0000      -0.868867       -23.6431
   9   2.0000      -0.818443       -22.2710
  10   2.0000      -0.751827       -20.4583
  11   2.0000      -0.669902       -18.2290
  12   2.0000      -0.653351       -17.7786
  13   2.0000      -0.622332       -16.9345
  14   2.0000      -0.565758       -15.3951
  15   2.0000      -0.539205       -14.6725
  16   2.0000      -0.517281       -14.0759
  17   2.0000      -0.494638       -13.4598
  18   2.0000      -0.474550       -12.9132
  19   2.0000      -0.461529       -12.5589
  20   2.0000      -0.459097       -12.4927
  21   2.0000      -0.438726       -11.9384
  22   2.0000      -0.344163        -9.3652
  23   2.0000      -0.249360        -6.7854
  24   0.0000       0.101706         2.7676
  25   0.0000       0.132316         3.6005
  26   0.0000       0.144902         3.9430
  27   0.0000       0.154865         4.2141
  28   0.0000       0.172357         4.6901

MULLIKEN ATOMIC CHARGES
-----------------------
   0 C :   -0.102974
   1 N :   -0.351269
   2 C :    0.376798
   3 C :   -0.523612
   4 N :   -0.509986
   5 H :    0.260119
   6 H :    0.225294
   7 H :    0.203037
   8 H :    0.081930
   9 C :   -0.308820
  10 H :    0.109413
  11 H :    0.115012
  12 H :    0.082347
  13 H :    0.089756
  14 H :    0.108722
  15 H :    0.144232
Sum of atomic charges:   -0.0000000

LOEWDIN ATOMIC CHARGES
----------------------
   0 C :   -0.294943
   1 N :    0.115377
   2 C :   -0.461744
   3 C :   -0.365342
   4 N :   -0.011692
   5 H :    0.180862
   6 H :    0.162191
   7 H :    0.180041
   8 H :    0.093761
   9 C :   -0.302648
  10 H :    0.128292
  11 H :    0.134811
  12 H :    0.092151
  13 H :    0.110757
  14 H :    0.115162
  15 H :    0.122965

  Mayer bond orders larger than 0.100000
B(  0-C ,  1-N ) :   0.9281 B(  0-C ,  9-C ) :   0.9680 B(  0-C , 10-H ) :   0.9778
B(  0-C , 11-H ) :   0.9727 B(  1-N ,  2-C ) :   1.1992 B(  1-N ,  7-H ) :   0.9289
B(  2-C ,  3-C ) :   1.6265 B(  2-C ,  4-N ) :   1.1471 B(  3-C ,  8-H ) :   1.0128
B(  3-C , 12-H ) :   1.0015 B(  4-N ,  5-H ) :   0.9189 B(  4-N ,  6-H ) :   0.9230
B(  9-C , 13-H ) :   0.9769 B(  9-C , 14-H ) :   0.9766 B(  9-C , 15-H ) :   0.9729

Dispersion correction           -0.003813183
FINAL SINGLE POINT ENERGY      -267.935965013065

DIPOLE MOMENT
-------------
                                X             Y             Z
Electronic contribution:      3.06164       2.88573      -0.24269
Nuclear contribution   :     -3.42552      -1.84584      -0.22295
                        -----------------------------------------
Total Dipole Moment    :     -0.36388       1.03989      -0.46564
                        -----------------------------------------
Magnitude (a.u.)       :      1.19608
Magnitude (Debye)      :      3.04018

Rotational constants in cm-1:     0.233526     0.075277     0.067092
Rotational constants in MHz :  7000.931279  2256.752901  2011.361214

                             ****ORCA TERMINATED NORMALLY****
TOTAL RUN TIME: 0 days 0 hours 0 minutes 26 seconds 670 msec
