                         Program Version 5.0.0 -  RELEASE  -
|  1> !wB97X-D3 RIJCOSX def2-TZVP def2/J TightSCF
|  2> *xyz 0 1
|  3> C          3.91385       -1.65829        3.01513
|  4> N          5.03927       -0.90115        2.49282
|  5> C          6.21038       -1.41726        2.17824
|  6> N          6.53591       -2.67712        2.55608
|  7> C          7.07675       -0.70082        1.47891
|  8> H          7.95464       -1.12155        1.20755
|  9> H          6.75616        0.10664        0.96028
| 10> H          4.84217        0.01761        2.11519
| 11> H          5.99388       -3.12692        3.28278
| 12> C          3.13916       -2.37657        1.91061
| 13> H          3.26723       -0.93940        3.52069
| 14> H          4.24720       -2.35509        3.79006
| 15> H          7.49844       -2.97548        2.46878
| 16> H          2.82969       -1.66654        1.17238
| 17> H          2.27790       -2.85264        2.33072
| 18> H          3.76754       -3.11338        1.45548
| 19> *
| 20> %MaxCore 64000
| 21> %pal nprocs 8
| 22> end
| 23> %scf
| 24>   MaxIter 150
| 25> end
| 26>
| 27>
| 28>                          ****END OF INPUT****

CARTESIAN COORDINATES (ANGSTROEM)
---------------------------------
  C      3.913850   -1.658290    3.015130
  N      5.039270   -0.901150    2.492820
  C      6.210380   -1.417260    2.178240
  N      6.535910   -2.677120    2.556080
  C      7.076750   -0.700820    1.478910
  H      7.954640   -1.121550    1.207550
  H      6.756160    0.106640    0.960280
  H      4.842170    0.017610    2.115190
  H      5.993880   -3.126920    3.282780
  C      3.139160   -2.376570    1.910610
  H      3.267230   -0.939400    3.520690
  H      4.247200   -2.355090    3.790060
  H      7.498440   -2.975480    2.468780
  H      2.829690   -1.666540    1.172380
  H      2.277900   -2.852640    2.330720
  H      3.767540   -3.113380    1.455480

 Total Charge           Charge          ....    0
 Multiplicity           Mult            ....    1
 Number of Electrons    NEL             ....   48
 Basis Dimension        Dim             ....  246

ORBITAL ENERGIES
----------------

  NO   OCC          E(Eh)            E(eV)
   0   2.0000     -14.421206      -392.4210
   1   2.0000     -14.419334      -392.3700
   2   2.0000     -10.320788      -280.8429
   3   2.0000     -10.316222      -280.7187
   4   2.0000     -10.261394      -279.2267
   5   2.0000     -10.179618      -277.0015
   6   2.0000      -1.085818       -29.5466
   7   2.0000      -0.997647       -27.1473
   8   2.0000      -0.886818       -24.1315
   9   2.0000      -0.815380       -22.1876
  10   2.0000      -0.740223       -20.1425
  11   2.0000      -0.705240       -19.1906
  12   2.0000      -0.638013       -17.3612
  13   2.0000      -0.599074       -16.3016
  14   2.0000      -0.575938       -15.6721
  15   2.0000      -0.538979       -14.6664
  16   2.0000      -0.531940       -14.4748
  17   2.0000      -0.502452       -13.6724
  18   2.0000      -0.476634       -12.9699
  19   2.0000      -0.465873       -12.6770
  20   2.0000      -0.456264       -12.4156
  21   2.0000      -0.451115       -12.2755
  22   2.0000      -0.348107        -9.4725
  23   2.0000      -0.249047        -6.7769
  24   0.0000       0.103169         2.8074
  25   0.0000       0.129188         3.5154
  26   0.0000       0.140490         3.8229
  27   0.0000       0.155322         4.2265
  28   0.0000       0.167938         4.5698

MULLIKEN ATOMIC CHARGES
-----------------------
   0 C :   -0.141338
   1 N :   -0.337939
   2 C :    0.388239
   3 N :   -0.512935
   4 C :   -0.524737
   5 H :    0.080958
   6 H :    0.087283
   7 H :    0.231956
   8 H :    0.223030
   9 C :   -0.287818
  10 H :    0.116708
  11 H :    0.090079
  12 H :    0.251801
  13 H :    0.104189
  14 H :    0.107379
  15 H :    0.123145
Sum of atomic charges:   -0.0000000

LOEWDIN ATOMIC CHARGES
----------------------
   0 C :   -0.311930
   1 N :    0.118337
   2 C :   -0.454424
   3 N :   -0.027700
   4 C :   -0.346684
   5 H :    0.095333
   6 H :    0.095673
   7 H :    0.196803
   8 H :    0.158513
   9 C :   -0.303334
  10 H :    0.131021
  11 H :    0.123119
  12 H :    0.177038
  13 H :    0.115290
  14 H :    0.114460
  15 H :    0.118486

  Mayer bond orders larger than 0.100000
B(  0-C ,  1-N ) :   0.9492 B(  0-C ,  9-C ) :   0.9571 B(  0-C , 10-H ) :   0.9792
B(  0-C , 11-H ) :   0.9849 B(  1-N ,  2-C ) :   1.2076 B(  1-N ,  7-H ) :   0.9231
B(  2-C ,  3-N ) :   1.1259 B(  2-C ,  4-C ) :   1.6394 B(  3-N ,  8-H ) :   0.9197
B(  3-N , 12-H ) :   0.9214 B(  4-C ,  5-H ) :   1.0171 B(  4-C ,  6-H ) :   1.0105
B(  9-C , 13-H ) :   0.9755 B(  9-C , 14-H ) :   0.9747 B(  9-C , 15-H ) :   0.9730

Dispersion correction           -0.003849970
FINAL SINGLE POINT ENERGY      -267.936354377166

DIPOLE MOMENT
-------------
                                X             Y             Z
Electronic contribution:      2.50930       0.89781       0.98357
Nuclear contribution   :     -3.31079      -1.42658      -0.45147
                        -----------------------------------------
Total Dipole Moment    :     -0.80149      -0.52877       0.53211
                        -----------------------------------------
Magnitude (a.u.)       :      1.09778
Magnitude (Debye)      :      2.79033

Rotational constants in cm-1:     0.225507     0.077571     0.068070
Rotational constants in MHz :  6760.542142  2325.533779  2040.680522

                             ****ORCA TERMINATED NORMALLY****
TOTAL RUN TIME: 0 days 0 hours 0 minutes 27 seconds 985 msec
