                         Program Version 5.0.0 -  RELEASE  -
|  1> !PBE0 D3BJ RIJCOSX def2-TZVP def2/J TightSCF
|  2> *xyz -1 1
|  3> C          0.13297        2.38587       -4.02462
|  4> C         -1.36646        2.47911       -4.31393
|  5> C         -2.35773        2.30686       -3.13675
|  6> H         -1.63680        1.72709       -5.06399
|  7> H         -1.58235        3.44561       -4.76869
|  8> O         -3.44376        2.84652       -3.25274
|  9> O         -1.97092        1.58304       -2.15123
| 10> H          0.68084        2.52514       -4.93310
| 11> H          0.35823        1.42282       -3.61633
| 12> H          0.40851        3.14443       -3.32208
| 13> *
| 14> %MaxCore 64000
| 15>
| 16> %pal nprocs 4
| 17> end
| 18>
| 19> %scf
| 20>   MaxIter 150
| 21> end
| 22>
| 23>
| 24>                          ****END OF INPUT****

CARTESIAN COORDINATES (ANGSTROEM)
---------------------------------
  C      0.132970    2.385870   -4.024620
  C     -1.366460    2.479110   -4.313930
  C     -2.357730    2.306860   -3.136750
  H     -1.636800    1.727090   -5.063990
  H     -1.582350    3.445610   -4.768690
  O     -3.443760    2.846520   -3.252740
  O     -1.970920    1.583040   -2.151230
  H      0.680840    2.525140   -4.933100
  H      0.358230    1.422820   -3.616330
  H      0.408510    3.144430   -3.322080

 Total Charge           Charge          ....   -1
 Multiplicity           Mult            ....    1
 Number of Electrons    NEL             ....   40
 Basis Dimension        Dim             ....  185

ORBITAL ENERGIES
----------------

  NO   OCC          E(Eh)            E(eV)
   0   2.0000     -18.933408      -515.2042
   1   2.0000     -18.923733      -514.9410
   2   2.0000     -10.092278      -274.6248
   3   2.0000     -10.049450      -273.4594
   4   2.0000     -10.040701      -273.2214
   5   2.0000      -0.846507       -23.0346
   6   2.0000      -0.744930       -20.2706
   7   2.0000      -0.620626       -16.8881
   8   2.0000      -0.487231       -13.2582
   9   2.0000      -0.325222        -8.8498
  10   2.0000      -0.302395        -8.2286
  11   2.0000      -0.270188        -7.3522
  12   2.0000      -0.236646        -6.4395
  13   2.0000      -0.222126        -6.0444
  14   2.0000      -0.215716        -5.8699
  15   2.0000      -0.185310        -5.0425
  16   2.0000      -0.167007        -4.5445
  17   2.0000      -0.052102        -1.4178
  18   2.0000      -0.045002        -1.2246
  19   2.0000      -0.032568        -0.8862
  20   0.0000       0.192264         5.2318
  21   0.0000       0.236225         6.4280
  22   0.0000       0.247380         6.7316
  23   0.0000       0.256951         6.9920
  24   0.0000       0.272309         7.4099

MULLIKEN ATOMIC CHARGES
-----------------------
   0 C :   -0.306989
   1 C :   -0.187762
   2 C :    0.204041
   3 H :    0.050256
   4 H :    0.052004
   5 O :   -0.482465
   6 O :   -0.567822
   7 H :    0.058849
   8 H :    0.094998
   9 H :    0.084891
Sum of atomic charges:   -1.0000000

LOEWDIN ATOMIC CHARGES
----------------------
   0 C :   -0.336087
   1 C :   -0.301139
   2 C :   -0.711525
   3 H :    0.124907
   4 H :    0.121067
   5 O :   -0.053981
   6 O :   -0.155224
   7 H :    0.093470
   8 H :    0.110478
   9 H :    0.108033

  Mayer bond orders larger than 0.100000
B(  0-C ,  1-C ) :   0.9655 B(  0-C ,  7-H ) :   0.9639 B(  0-C ,  8-H ) :   0.9720
B(  0-C ,  9-H ) :   0.9771 B(  1-C ,  2-C ) :   0.9525 B(  1-C ,  3-H ) :   0.9558
B(  1-C ,  4-H ) :   0.9557 B(  2-C ,  5-O ) :   1.9169 B(  2-C ,  6-O ) :   1.8221

Dispersion correction           -0.005397792
FINAL SINGLE POINT ENERGY      -267.641087603217

DIPOLE MOMENT
-------------
                                X             Y             Z
Electronic contribution:     -5.33770      -0.39024       3.27000
Nuclear contribution   :      6.75610       0.63068      -4.53972
                        -----------------------------------------
Total Dipole Moment    :      1.41839       0.24044      -1.26972
                        -----------------------------------------
Magnitude (a.u.)       :      1.91881
Magnitude (Debye)      :      4.87723

Rotational constants in cm-1:     0.335096     0.130241     0.099025
Rotational constants in MHz : 10045.924902  3904.536250  2968.708333

                             ****ORCA TERMINATED NORMALLY****
TOTAL RUN TIME: 0 days 0 hours 0 minutes 23 seconds 480 msec
