                         Program Version 5.0.0 -  RELEASE  -
|  1> !PBE0 D3BJ RIJCOSX def2-TZVP def2/J TightSCF
|  2> *xyz 1 1
|  3> C          0.64866        1.00359       -3.64560
|  4> N          0.28128        0.67645       -2.24018
|  5> C          0.13297        2.38587       -4.02462
|  6> H          0.39079       -0.31925       -2.02649
|  7> H         -0.69269        0.99010       -2.13812
|  8> H          0.85421        1.21221       -1.57528
|  9> H          0.19099        0.23965       -4.27575
| 10> H          1.73157        0.93173       -3.75075
| 11> H          0.40589        2.60338       -5.03610
| 12> H          0.56342        3.11797       -3.37374
| 13> H         -0.93265        2.40724       -3.93025
| 14> *
| 15> %MaxCore 64000
| 16>
| 17> %pal nprocs 4
| 18> end
| 19>
| 20> %scf
| 21>   MaxIter 150
| 22> end
| 23>
| 24>
| 25>                          ****END OF INPUT****

CARTESIAN COORDINATES (ANGSTROEM)
---------------------------------
  C      0.648660    1.003590   -3.645600
  N      0.281280    0.676450   -2.240180
  C      0.132970    2.385870   -4.024620
  H      0.390790   -0.319250   -2.026490
  H     -0.692690    0.990100   -2.138120
  H      0.854210    1.212210   -1.575280
  H      0.190990    0.239650   -4.275750
  H      1.731570    0.931730   -3.750750
  H      0.405890    2.603380   -5.036100
  H      0.563420    3.117970   -3.373740
  H     -0.932650    2.407240   -3.930250

 Total Charge           Charge          ....    1
 Multiplicity           Mult            ....    1
 Number of Electrons    NEL             ....   26
 Basis Dimension        Dim             ....  141

ORBITAL ENERGIES
----------------

  NO   OCC          E(Eh)            E(eV)
   0   2.0000     -14.718805      -400.5191
   1   2.0000     -10.475408      -285.0503
   2   2.0000     -10.396729      -282.9094
   3   2.0000      -1.243988       -33.8506
   4   2.0000      -0.989139       -26.9158
   5   2.0000      -0.864627       -23.5277
   6   2.0000      -0.816484       -22.2177
   7   2.0000      -0.809456       -22.0264
   8   2.0000      -0.709592       -19.3090
   9   2.0000      -0.656224       -17.8568
  10   2.0000      -0.597924       -16.2703
  11   2.0000      -0.583669       -15.8824
  12   2.0000      -0.565439       -15.3864
  13   0.0000      -0.184993        -5.0339
  14   0.0000      -0.123490        -3.3603
  15   0.0000      -0.120452        -3.2777
  16   0.0000      -0.101824        -2.7708
  17   0.0000      -0.064212        -1.7473

MULLIKEN ATOMIC CHARGES
-----------------------
   0 C :   -0.214006
   1 N :   -0.283921
   2 C :   -0.377939
   3 H :    0.337040
   4 H :    0.326301
   5 H :    0.329294
   6 H :    0.190745
   7 H :    0.195931
   8 H :    0.187117
   9 H :    0.154928
  10 H :    0.154511
Sum of atomic charges:    1.0000000

LOEWDIN ATOMIC CHARGES
----------------------
   0 C :   -0.282189
   1 N :    0.171770
   2 C :   -0.280693
   3 H :    0.221572
   4 H :    0.225971
   5 H :    0.223250
   6 H :    0.154362
   7 H :    0.153268
   8 H :    0.149661
   9 H :    0.132043
  10 H :    0.130987

  Mayer bond orders larger than 0.100000
B(  0-C ,  1-N ) :   0.8859 B(  0-C ,  2-C ) :   1.0224 B(  0-C ,  6-H ) :   0.9440
B(  0-C ,  7-H ) :   0.9463 B(  1-N ,  3-H ) :   0.8711 B(  1-N ,  4-H ) :   0.8733
B(  1-N ,  5-H ) :   0.8756 B(  2-C ,  8-H ) :   0.9528 B(  2-C ,  9-H ) :   0.9571
B(  2-C , 10-H ) :   0.9542

Dispersion correction           -0.005040354
FINAL SINGLE POINT ENERGY      -135.423048466004

DIPOLE MOMENT
-------------
                                X             Y             Z
Electronic contribution:      0.16976      -1.30587       1.32719
Nuclear contribution   :     -0.22655       0.48066      -0.09136
                        -----------------------------------------
Total Dipole Moment    :     -0.05678      -0.82521       1.23583
                        -----------------------------------------
Magnitude (a.u.)       :      1.48710
Magnitude (Debye)      :      3.77992

Rotational constants in cm-1:     0.998155     0.284845     0.251232
Rotational constants in MHz : 29923.943568  8539.431565  7531.732866

                             ****ORCA TERMINATED NORMALLY****
TOTAL RUN TIME: 0 days 0 hours 0 minutes 15 seconds 817 msec
