                         Program Version 5.0.0 -  RELEASE  -
|  1> !PBE0 D3BJ RIJCOSX def2-TZVP def2/J TightSCF
|  2> *xyz 0 1
|  3> C          0.13297        2.38587       -4.02462
|  4> C         -1.36646        2.47911       -4.31393
|  5> C         -2.35773        2.30686       -3.13675
|  6> H         -1.63680        1.72709       -5.06399
|  7> H         -1.58235        3.44561       -4.76869
|  8> F         -3.44376        2.84652       -3.25274
|  9> O         -1.97092        1.58304       -2.15123
| 10> H          0.68084        2.52514       -4.93310
| 11> H          0.35823        1.42282       -3.61633
| 12> H          0.40851        3.14443       -3.32208
| 13> *
| 14> %MaxCore 64000
| 15>
| 16> %pal nprocs 4
| 17> end
| 18>
| 19> %scf
| 20>   MaxIter 150
| 21> end
| 22>
| 23>
| 24>                          ****END OF INPUT****

CARTESIAN COORDINATES (ANGSTROEM)
---------------------------------
  C      0.132970    2.385870   -4.024620
  C     -1.366460    2.479110   -4.313930
  C     -2.357730    2.306860   -3.136750
  H     -1.636800    1.727090   -5.063990
  H     -1.582350    3.445610   -4.768690
  F     -3.443760    2.846520   -3.252740
  O     -1.970920    1.583040   -2.151230
  H      0.680840    2.525140   -4.933100
  H      0.358230    1.422820   -3.616330
  H      0.408510    3.144430   -3.322080

 Total Charge           Charge          ....    0
 Multiplicity           Mult            ....    1
 Number of Electrons    NEL             ....   40
 Basis Dimension        Dim             ....  185

ORBITAL ENERGIES
----------------

  NO   OCC          E(Eh)            E(eV)
   0   2.0000     -24.854821      -676.3341
   1   2.0000     -19.205378      -522.6049
   2   2.0000     -10.401167      -283.0301
   3   2.0000     -10.254240      -279.0321
   4   2.0000     -10.219684      -278.0917
   5   2.0000      -1.380568       -37.5672
   6   2.0000      -1.043323       -28.3903
   7   2.0000      -0.819693       -22.3050
   8   2.0000      -0.720841       -19.6151
   9   2.0000      -0.665323       -18.1044
  10   2.0000      -0.581882       -15.8338
  11   2.0000      -0.564936       -15.3727
  12   2.0000      -0.523541       -14.2463
  13   2.0000      -0.480681       -13.0800
  14   2.0000      -0.443964       -12.0809
  15   2.0000      -0.405520       -11.0348
  16   2.0000      -0.386188       -10.5087
  17   2.0000      -0.383623       -10.4389
  18   2.0000      -0.353815        -9.6278
  19   2.0000      -0.298910        -8.1337
  20   0.0000      -0.021333        -0.5805
  21   0.0000       0.041012         1.1160
  22   0.0000       0.082210         2.2370
  23   0.0000       0.100109         2.7241
  24   0.0000       0.108348         2.9483

MULLIKEN ATOMIC CHARGES
-----------------------
   0 C :   -0.338866
   1 C :   -0.237018
   2 C :    0.358975
   3 H :    0.132465
   4 H :    0.120492
   5 F :   -0.063301
   6 O :   -0.359505
   7 H :    0.126243
   8 H :    0.137758
   9 H :    0.122757
Sum of atomic charges:    0.0000000

LOEWDIN ATOMIC CHARGES
----------------------
   0 C :   -0.293392
   1 C :   -0.268385
   2 C :   -0.516267
   3 H :    0.155679
   4 H :    0.142908
   5 F :    0.385610
   6 O :    0.025341
   7 H :    0.120446
   8 H :    0.125719
   9 H :    0.122341

  Mayer bond orders larger than 0.100000
B(  0-C ,  1-C ) :   1.0096 B(  0-C ,  7-H ) :   0.9630 B(  0-C ,  8-H ) :   0.9661
B(  0-C ,  9-H ) :   0.9736 B(  1-C ,  2-C ) :   1.0132 B(  1-C ,  3-H ) :   0.9249
B(  1-C ,  4-H ) :   0.9512 B(  2-C ,  5-F ) :   1.2014 B(  2-C ,  6-O ) :   2.0279

Dispersion correction           -0.005122514
FINAL SINGLE POINT ENERGY      -292.189530257088

DIPOLE MOMENT
-------------
                                X             Y             Z
Electronic contribution:     -8.39104       0.46850       3.59019
Nuclear contribution   :      8.54799       0.05434      -4.66633
                        -----------------------------------------
Total Dipole Moment    :      0.15695       0.52284      -1.07613
                        -----------------------------------------
Magnitude (a.u.)       :      1.20667
Magnitude (Debye)      :      3.06712

Rotational constants in cm-1:     0.325803     0.123345     0.094275
Rotational constants in MHz :  9767.324172  3697.779805  2826.305733

                             ****ORCA TERMINATED NORMALLY****
TOTAL RUN TIME: 0 days 0 hours 0 minutes 23 seconds 107 msec
