                         Program Version 5.0.0 -  RELEASE  -
|  1> !PBE0 D3BJ RIJCOSX def2-TZVP def2/J TightSCF
|  2> *xyz 0 1
|  3> C          0.64866        1.00359       -3.64560
|  4> C          0.28128        0.67645       -2.24018
|  5> C          0.13297        2.38587       -4.02462
|  6> H          0.39079       -0.31925       -2.02649
|  7> H         -0.69269        0.99010       -2.13812
|  8> H          0.85421        1.21221       -1.57528
|  9> H          0.19099        0.23965       -4.27575
| 10> H          1.73157        0.93173       -3.75075
| 11> H          0.40589        2.60338       -5.03610
| 12> H          0.56342        3.11797       -3.37374
| 13> H         -0.93265        2.40724       -3.93025
| 14> *
| 15> %MaxCore 64000
| 16>
| 17> %pal nprocs 4
| 18> end
| 19>
| 20> %scf
| 21>   MaxIter 150
| 22> end
| 23>
| 24>
| 25>                          ****END OF INPUT****

CARTESIAN COORDINATES (ANGSTROEM)
---------------------------------
  C      0.648660    1.003590   -3.645600
  C      0.281280    0.676450   -2.240180
  C      0.132970    2.385870   -4.024620
  H      0.390790   -0.319250   -2.026490
  H     -0.692690    0.990100   -2.138120
  H      0.854210    1.212210   -1.575280
  H      0.190990    0.239650   -4.275750
  H      1.731570    0.931730   -3.750750
  H      0.405890    2.603380   -5.036100
  H      0.563420    3.117970   -3.373740
  H     -0.932650    2.407240   -3.930250

 Total Charge           Charge          ....    0
 Multiplicity           Mult            ....    1
 Number of Electrons    NEL             ....   26
 Basis Dimension        Dim             ....  141

ORBITAL ENERGIES
----------------

  NO   OCC          E(Eh)            E(eV)
   0   2.0000     -10.206275      -277.7269
   1   2.0000     -10.196816      -277.4695
   2   2.0000     -10.177123      -276.9336
   3   2.0000      -0.816389       -22.2151
   4   2.0000      -0.709471       -19.3057
   5   2.0000      -0.603228       -16.4147
   6   2.0000      -0.482000       -13.1159
   7   2.0000      -0.463354       -12.6085
   8   2.0000      -0.415027       -11.2935
   9   2.0000      -0.398678       -10.8486
  10   2.0000      -0.349324        -9.5056
  11   2.0000      -0.345339        -9.3972
  12   2.0000      -0.337625        -9.1873
  13   0.0000       0.051427         1.3994
  14   0.0000       0.094429         2.5695
  15   0.0000       0.100311         2.7296
  16   0.0000       0.105003         2.8573
  17   0.0000       0.123377         3.3573

MULLIKEN ATOMIC CHARGES
-----------------------
   0 C :   -0.163537
   1 C :   -0.335237
   2 C :   -0.353189
   3 H :    0.116778
   4 H :    0.101796
   5 H :    0.110340
   6 H :    0.090571
   7 H :    0.091670
   8 H :    0.117886
   9 H :    0.110429
  10 H :    0.112494
Sum of atomic charges:    0.0000000

LOEWDIN ATOMIC CHARGES
----------------------
   0 C :   -0.325831
   1 C :   -0.306256
   2 C :   -0.309659
   3 H :    0.106826
   4 H :    0.114044
   5 H :    0.109223
   6 H :    0.132796
   7 H :    0.130111
   8 H :    0.115686
   9 H :    0.116933
  10 H :    0.116128

  Mayer bond orders larger than 0.100000
B(  0-C ,  1-C ) :   0.9977 B(  0-C ,  2-C ) :   1.0064 B(  0-C ,  6-H ) :   0.9647
B(  0-C ,  7-H ) :   0.9650 B(  1-C ,  3-H ) :   0.9762 B(  1-C ,  4-H ) :   0.9763
B(  1-C ,  5-H ) :   0.9787 B(  2-C ,  8-H ) :   0.9748 B(  2-C ,  9-H ) :   0.9735
B(  2-C , 10-H ) :   0.9736

Dispersion correction           -0.005059642
FINAL SINGLE POINT ENERGY      -119.019651468342

DIPOLE MOMENT
-------------
                                X             Y             Z
Electronic contribution:      0.26025      -0.28146      -0.24457
Nuclear contribution   :     -0.24754       0.26111       0.24628
                        -----------------------------------------
Total Dipole Moment    :      0.01271      -0.02035       0.00171
                        -----------------------------------------
Magnitude (a.u.)       :      0.02405
Magnitude (Debye)      :      0.06114

Rotational constants in cm-1:     1.006509     0.299509     0.263145
Rotational constants in MHz : 30174.379724  8979.049324  7888.875355

                             ****ORCA TERMINATED NORMALLY****
TOTAL RUN TIME: 0 days 0 hours 0 minutes 13 seconds 393 msec
