                         Program Version 5.0.0 -  RELEASE  -
|  1> !PBE0 D3BJ RIJCOSX def2-TZVP def2/J TightSCF
|  2> *xyz 0 1
|  3> C          0.13297        2.38587       -4.02462
|  4> C         -1.36646        2.47911       -4.31393
|  5> C         -2.35773        2.30686       -3.13675
|  6> H         -1.63680        1.72709       -5.06399
|  7> H         -1.58235        3.44561       -4.76869
|  8> O         -3.44376        2.84652       -3.25274
|  9> F         -1.97092        1.58304       -2.15123
| 10> H          0.68084        2.52514       -4.93310
| 11> H          0.35823        1.42282       -3.61633
| 12> H          0.40851        3.14443       -3.32208
| 13> *
| 14> %MaxCore 64000
| 15>
| 16> %pal nprocs 4
| 17> end
| 18>
| 19> %scf
| 20>   MaxIter 150
| 21> end
| 22>
| 23>
| 24>                          ****END OF INPUT****

CARTESIAN COORDINATES (ANGSTROEM)
---------------------------------
  C      0.132970    2.385870   -4.024620
  C     -1.366460    2.479110   -4.313930
  C     -2.357730    2.306860   -3.136750
  H     -1.636800    1.727090   -5.063990
  H     -1.582350    3.445610   -4.768690
  O     -3.443760    2.846520   -3.252740
  F     -1.970920    1.583040   -2.151230
  H      0.680840    2.525140   -4.933100
  H      0.358230    1.422820   -3.616330
  H      0.408510    3.144430   -3.322080

 Total Charge           Charge          ....    0
 Multiplicity           Mult            ....    1
 Number of Electrons    NEL             ....   40
 Basis Dimension        Dim             ....  185

ORBITAL ENERGIES
----------------

  NO   OCC          E(Eh)            E(eV)
   0   2.0000     -24.831008      -675.6861
   1   2.0000     -19.214214      -522.8454
   2   2.0000     -10.395411      -282.8735
   3   2.0000     -10.252747      -278.9914
   4   2.0000     -10.224594      -278.2253
   5   2.0000      -1.332031       -36.2464
   6   2.0000      -1.084283       -29.5048
   7   2.0000      -0.822083       -22.3700
   8   2.0000      -0.701881       -19.0992
   9   2.0000      -0.656747       -17.8710
  10   2.0000      -0.556173       -15.1342
  11   2.0000      -0.551179       -14.9983
  12   2.0000      -0.514000       -13.9866
  13   2.0000      -0.480819       -13.0838
  14   2.0000      -0.447267       -12.1708
  15   2.0000      -0.419432       -11.4133
  16   2.0000      -0.403072       -10.9681
  17   2.0000      -0.387322       -10.5396
  18   2.0000      -0.366872        -9.9831
  19   2.0000      -0.309819        -8.4306
  20   0.0000      -0.016277        -0.4429
  21   0.0000       0.036118         0.9828
  22   0.0000       0.084173         2.2905
  23   0.0000       0.102903         2.8001
  24   0.0000       0.107292         2.9196

MULLIKEN ATOMIC CHARGES
-----------------------
   0 C :   -0.346254
   1 C :   -0.240240
   2 C :    0.338630
   3 H :    0.132524
   4 H :    0.140830
   5 O :   -0.289488
   6 F :   -0.116151
   7 H :    0.130673
   8 H :    0.123891
   9 H :    0.125586
Sum of atomic charges:   -0.0000000

LOEWDIN ATOMIC CHARGES
----------------------
   0 C :   -0.304893
   1 C :   -0.263707
   2 C :   -0.501852
   3 H :    0.155679
   4 H :    0.154544
   5 O :    0.113852
   6 F :    0.283377
   7 H :    0.122128
   8 H :    0.120092
   9 H :    0.120780

  Mayer bond orders larger than 0.100000
B(  0-C ,  1-C ) :   0.9890 B(  0-C ,  7-H ) :   0.9647 B(  0-C ,  8-H ) :   0.9674
B(  0-C ,  9-H ) :   0.9723 B(  1-C ,  2-C ) :   1.0192 B(  1-C ,  3-H ) :   0.9339
B(  1-C ,  4-H ) :   0.9554 B(  2-C ,  5-O ) :   2.1079 B(  2-C ,  6-F ) :   1.1344

Dispersion correction           -0.005082640
FINAL SINGLE POINT ENERGY      -292.206938913191

DIPOLE MOMENT
-------------
                                X             Y             Z
Electronic contribution:     -5.91486      -1.62799       5.40006
Nuclear contribution   :      6.94213       1.43193      -5.86732
                        -----------------------------------------
Total Dipole Moment    :      1.02727      -0.19606      -0.46726
                        -----------------------------------------
Magnitude (a.u.)       :      1.14545
Magnitude (Debye)      :      2.91151

Rotational constants in cm-1:     0.306336     0.129048     0.095707
Rotational constants in MHz :  9183.725605  3868.769583  2869.236577

                             ****ORCA TERMINATED NORMALLY****
TOTAL RUN TIME: 0 days 0 hours 0 minutes 15 seconds 351 msec
