                         Program Version 5.0.0 -  RELEASE  -
|  1> !PBE0 D3BJ RIJCOSX def2-TZVP def2/J TightSCF xyzfile
|  2>
|  3> *xyzfile 0 1 D1.xyz
|  4>
|  5> %MaxCore 64000
|  6>
|  7> %pal nprocs 18
|  8> end
|  9>
| 10> %scf
| 11>   MaxIter 150
| 12> end
| 13>
| 14>
| 15>                          ****END OF INPUT****

CARTESIAN COORDINATES (ANGSTROEM)
---------------------------------
  C      0.648656    1.003595   -3.645601
  C      0.281280    0.676454   -2.240179
  C      0.132968    2.385869   -4.024618
  C     -1.366462    2.479106   -4.313932
  C     -2.357732    2.306858   -3.136753
  H     -1.636802    1.727095   -5.063993
  H     -1.582347    3.445605   -4.768687
  H      0.390790   -0.319253   -2.026495
  H     -0.692686    0.990104   -2.138123
  H      0.854206    1.212214   -1.575279
  F     -3.443763    2.846518   -3.252744
  O     -1.970922    1.583042   -2.151229
  H      0.190993    0.239655   -4.275752
  H      1.731572    0.931729   -3.750751
  H      0.414839    3.102847   -3.245165
  H      0.683167    2.687560   -4.919721

 Total Charge           Charge          ....    0
 Multiplicity           Mult            ....    1
 Number of Electrons    NEL             ....   56
 Basis Dimension        Dim             ....  271

ORBITAL ENERGIES
----------------

  NO   OCC          E(Eh)            E(eV)
   0   2.0000     -24.866133      -676.6419
   1   2.0000     -19.215320      -522.8754
   2   2.0000     -10.416808      -283.4558
   3   2.0000     -10.259484      -279.1748
   4   2.0000     -10.229129      -278.3488
   5   2.0000     -10.200327      -277.5650
   6   2.0000     -10.127048      -275.5710
   7   2.0000      -1.391615       -37.8678
   8   2.0000      -1.068092       -29.0643
   9   2.0000      -0.839753       -22.8508
  10   2.0000      -0.780589       -21.2409
  11   2.0000      -0.712411       -19.3857
  12   2.0000      -0.678235       -18.4557
  13   2.0000      -0.600791       -16.3484
  14   2.0000      -0.590115       -16.0578
  15   2.0000      -0.576513       -15.6877
  16   2.0000      -0.542673       -14.7669
  17   2.0000      -0.495864       -13.4931
  18   2.0000      -0.465383       -12.6637
  19   2.0000      -0.449229       -12.2241
  20   2.0000      -0.423334       -11.5195
  21   2.0000      -0.395469       -10.7613
  22   2.0000      -0.389961       -10.6114
  23   2.0000      -0.368140       -10.0176
  24   2.0000      -0.354020        -9.6334
  25   2.0000      -0.331161        -9.0114
  26   2.0000      -0.322430        -8.7738
  27   2.0000      -0.258014        -7.0209
  28   0.0000      -0.036409        -0.9907
  29   0.0000       0.039765         1.0821
  30   0.0000       0.071163         1.9364
  31   0.0000       0.080848         2.2000
  32   0.0000       0.092568         2.5189

MULLIKEN ATOMIC CHARGES
-----------------------
   0 C :   -0.170839
   1 C :   -0.410197
   2 C :   -0.180493
   3 C :   -0.271931
   4 C :    0.354636
   5 H :    0.138159
   6 H :    0.138043
   7 H :    0.092701
   8 H :    0.186119
   9 H :    0.085970
  10 F :   -0.052967
  11 O :   -0.304824
  12 H :    0.076370
  13 H :    0.096001
  14 H :    0.110782
  15 H :    0.112470
Sum of atomic charges:   -0.0000000

LOEWDIN ATOMIC CHARGES
----------------------
   0 C :   -0.305059
   1 C :   -0.322651
   2 C :   -0.261429
   3 C :   -0.237921
   4 C :   -0.486063
   5 H :    0.161027
   6 H :    0.148950
   7 H :    0.099543
   8 H :    0.070281
   9 H :    0.102121
  10 F :    0.392505
  11 O :    0.085597
  12 H :    0.134344
  13 H :    0.131696
  14 H :    0.144691
  15 H :    0.142369

  Mayer bond orders larger than 0.100000
B(  0-C ,  1-C ) :   0.9977 B(  0-C ,  2-C ) :   0.9936 B(  0-C , 12-H ) :   0.9630
B(  0-C , 13-H ) :   0.9598 B(  1-C ,  7-H ) :   0.9708 B(  1-C ,  8-H ) :   0.9349
B(  1-C ,  9-H ) :   0.9716 B(  2-C ,  3-C ) :   0.9987 B(  2-C , 14-H ) :   0.9640
B(  2-C , 15-H ) :   0.9512 B(  3-C ,  4-C ) :   1.0259 B(  3-C ,  5-H ) :   0.9208
B(  3-C ,  6-H ) :   0.9471 B(  4-C , 10-F ) :   1.2195 B(  4-C , 11-O ) :   1.9409
B(  8-H , 11-O ) :   0.1136

Dispersion correction           -0.011324148
FINAL SINGLE POINT ENERGY      -370.695593963869

DIPOLE MOMENT
-------------
                                X             Y             Z
Electronic contribution:    -13.02312       4.58733       1.42845
Nuclear contribution   :     12.79331      -3.91961      -2.45895
                        -----------------------------------------
Total Dipole Moment    :     -0.22981       0.66772      -1.03050
                        -----------------------------------------
Magnitude (a.u.)       :      1.24923
Magnitude (Debye)      :      3.17530

Rotational constants in cm-1:     0.162888     0.059977     0.046450
Rotational constants in MHz :  4883.250030  1798.063289  1392.548669

                             ****ORCA TERMINATED NORMALLY****
TOTAL RUN TIME: 0 days 0 hours 0 minutes 13 seconds 562 msec
