                         Program Version 5.0.0 -  RELEASE  -
|  1> !CAM-B3LYP RIJCOSX def2-SVPD def2/J TightSCF
|  2> *xyz -1 1
|  3> C          3.76678       -2.26611       -6.51175
|  4> C          2.49670       -1.84416       -5.73570
|  5> H          1.62642       -2.21743       -6.30895
|  6> H          2.48182       -2.45607       -4.79341
|  7> O          2.45973       -0.50920       -5.50576
|  8> H          3.82914       -1.70941       -7.42340
|  9> H          3.71764       -3.31144       -6.73483
| 10> H          4.63199       -2.06931       -5.91377
| 11> *
| 12>
| 13> %MaxCore 64000
| 14>
| 15> %pal nprocs 4
| 16> end
| 17>
| 18> %scf
| 19>   MaxIter 150
| 20> end
| 21>
| 22>
| 23>                          ****END OF INPUT****

CARTESIAN COORDINATES (ANGSTROEM)
---------------------------------
  C      3.766780   -2.266110   -6.511750
  C      2.496700   -1.844160   -5.735700
  H      1.626420   -2.217430   -6.308950
  H      2.481820   -2.456070   -4.793410
  O      2.459730   -0.509200   -5.505760
  H      3.829140   -1.709410   -7.423400
  H      3.717640   -3.311440   -6.734830
  H      4.631990   -2.069310   -5.913770

 Total Charge           Charge          ....   -1
 Multiplicity           Mult            ....    1
 Number of Electrons    NEL             ....   26
 Basis Dimension        Dim             ....  103

ORBITAL ENERGIES
----------------

  NO   OCC          E(Eh)            E(eV)
   0   2.0000     -18.879295      -513.7317
   1   2.0000     -10.074417      -274.1388
   2   2.0000     -10.049421      -273.4587
   3   2.0000      -0.755400       -20.5555
   4   2.0000      -0.598171       -16.2770
   5   2.0000      -0.442120       -12.0307
   6   2.0000      -0.319672        -8.6987
   7   2.0000      -0.295430        -8.0391
   8   2.0000      -0.240587        -6.5467
   9   2.0000      -0.223052        -6.0696
  10   2.0000      -0.180885        -4.9221
  11   2.0000      -0.032689        -0.8895
  12   2.0000      -0.031296        -0.8516
  13   0.0000       0.208072         5.6619
  14   0.0000       0.238807         6.4983
  15   0.0000       0.275456         7.4955
  16   0.0000       0.288206         7.8425
  17   0.0000       0.305474         8.3124

MULLIKEN ATOMIC CHARGES
-----------------------
   0 C :    0.480240
   1 C :    0.224338
   2 H :   -0.227444
   3 H :   -0.179979
   4 O :   -0.864954
   5 H :   -0.155532
   6 H :   -0.125465
   7 H :   -0.151203
Sum of atomic charges:   -1.0000000

LOEWDIN ATOMIC CHARGES
----------------------
   0 C :    0.064683
   1 C :   -0.267135
   2 H :   -0.036656
   3 H :   -0.029020
   4 O :   -0.580780
   5 H :   -0.044062
   6 H :   -0.062021
   7 H :   -0.045010

  Mayer bond orders larger than 0.100000
B(  0-C ,  1-C ) :   1.1521 B(  0-C ,  2-H ) :   0.1320 B(  0-C ,  3-H ) :   0.1276
B(  0-C ,  4-O ) :   0.1338 B(  0-C ,  5-H ) :   0.8837 B(  0-C ,  6-H ) :   0.8761
B(  0-C ,  7-H ) :   0.8752 B(  1-C ,  2-H ) :   0.9556 B(  1-C ,  3-H ) :   0.9671
B(  1-C ,  4-O ) :   1.1906 B(  1-C ,  5-H ) :   0.1877 B(  1-C ,  6-H ) :   0.1378
B(  1-C ,  7-H ) :   0.1818

FINAL SINGLE POINT ENERGY      -154.247160502338

DIPOLE MOMENT
-------------
                                X             Y             Z
Electronic contribution:     -1.04650       2.41387       0.92345
Nuclear contribution   :      1.63615      -3.79938      -1.48621
                        -----------------------------------------
Total Dipole Moment    :      0.58965      -1.38552      -0.56276
                        -----------------------------------------
Magnitude (a.u.)       :      1.60750
Magnitude (Debye)      :      4.08593

Rotational constants in cm-1:     1.265582     0.329289     0.289024
Rotational constants in MHz : 37941.194363  9871.829581  8664.719106

                             ****ORCA TERMINATED NORMALLY****
TOTAL RUN TIME: 0 days 0 hours 0 minutes 14 seconds 461 msec
