                         Program Version 5.0.0 -  RELEASE  -
|  1> !CAM-B3LYP RIJCOSX def2-SVPD def2/J TightSCF
|  2> *xyz 1 1
|  3> C          4.99986       -1.59613       -5.92488
|  4> N          5.28156       -1.97413       -4.53576
|  5> C          3.76678       -2.26611       -6.51175
|  6> C          4.79250       -1.36132       -3.45730
|  7> N          3.93990       -0.37492       -3.55736
|  8> N          5.25986       -1.75422       -2.23913
|  9> H          5.92282       -2.52145       -2.18672
| 10> H          4.65468       -1.64040       -1.44202
| 11> H          5.70914       -2.87560       -4.38702
| 12> H          3.33010       -0.31764       -4.36125
| 13> H          3.69849        0.11447       -2.70833
| 14> H          4.84333       -0.51793       -5.94302
| 15> H          5.90170       -1.82250       -6.49647
| 16> H          3.63046       -1.94025       -7.52177
| 17> H          2.90710       -2.00116       -5.93240
| 18> H          3.89538       -3.32820       -6.49392
| 19> *
| 20>
| 21> %MaxCore 64000
| 22>
| 23> %pal nprocs 4
| 24> end
| 25>
| 26> %scf
| 27>   MaxIter 150
| 28> end
| 29>
| 30>
| 31>                          ****END OF INPUT****

CARTESIAN COORDINATES (ANGSTROEM)
---------------------------------
  C      4.999860   -1.596130   -5.924880
  N      5.281560   -1.974130   -4.535760
  C      3.766780   -2.266110   -6.511750
  C      4.792500   -1.361320   -3.457300
  N      3.939900   -0.374920   -3.557360
  N      5.259860   -1.754220   -2.239130
  H      5.922820   -2.521450   -2.186720
  H      4.654680   -1.640400   -1.442020
  H      5.709140   -2.875600   -4.387020
  H      3.330100   -0.317640   -4.361250
  H      3.698490    0.114470   -2.708330
  H      4.843330   -0.517930   -5.943020
  H      5.901700   -1.822500   -6.496470
  H      3.630460   -1.940250   -7.521770
  H      2.907100   -2.001160   -5.932400
  H      3.895380   -3.328200   -6.493920

 Total Charge           Charge          ....    1
 Multiplicity           Mult            ....    1
 Number of Electrons    NEL             ....   48
 Basis Dimension        Dim             ....  200

ORBITAL ENERGIES
----------------

  NO   OCC          E(Eh)            E(eV)
   0   2.0000     -14.635561      -398.2539
   1   2.0000     -14.630015      -398.1030
   2   2.0000     -14.625568      -397.9819
   3   2.0000     -10.600805      -288.4626
   4   2.0000     -10.465486      -284.7803
   5   2.0000     -10.399502      -282.9848
   6   2.0000      -1.294035       -35.2125
   7   2.0000      -1.182097       -32.1665
   8   2.0000      -1.166306       -31.7368
   9   2.0000      -1.008632       -27.4463
  10   2.0000      -0.915982       -24.9251
  11   2.0000      -0.878466       -23.9043
  12   2.0000      -0.864520       -23.5248
  13   2.0000      -0.813478       -22.1358
  14   2.0000      -0.768405       -20.9094
  15   2.0000      -0.764857       -20.8128
  16   2.0000      -0.713383       -19.4121
  17   2.0000      -0.704251       -19.1636
  18   2.0000      -0.677704       -18.4413
  19   2.0000      -0.631391       -17.1810
  20   2.0000      -0.601668       -16.3722
  21   2.0000      -0.581999       -15.8370
  22   2.0000      -0.547771       -14.9056
  23   2.0000      -0.516938       -14.0666
  24   0.0000      -0.133989        -3.6460
  25   0.0000      -0.116061        -3.1582
  26   0.0000      -0.085874        -2.3367
  27   0.0000      -0.076373        -2.0782
  28   0.0000      -0.053717        -1.4617

MULLIKEN ATOMIC CHARGES
-----------------------
   0 C :    0.449327
   1 N :   -0.307237
   2 C :    0.899904
   3 C :    1.062371
   4 N :    0.195985
   5 N :    0.050103
   6 H :   -0.058722
   7 H :   -0.044256
   8 H :   -0.278557
   9 H :   -0.082483
  10 H :   -0.109127
  11 H :   -0.122323
  12 H :   -0.342661
  13 H :   -0.016026
  14 H :   -0.192903
  15 H :   -0.103393
Sum of atomic charges:    1.0000000

LOEWDIN ATOMIC CHARGES
----------------------
   0 C :    0.039368
   1 N :    0.050045
   2 C :    0.158108
   3 C :   -0.038205
   4 N :    0.288022
   5 N :    0.264486
   6 H :    0.033066
   7 H :    0.027282
   8 H :    0.055451
   9 H :    0.027898
  10 H :    0.045451
  11 H :    0.026074
  12 H :    0.042309
  13 H :    0.006073
  14 H :   -0.021234
  15 H :   -0.004195

  Mayer bond orders larger than 0.100000
B(  0-C ,  1-N ) :   0.9368 B(  0-C ,  2-C ) :   1.2286 B(  0-C ,  8-H ) :  -0.2079
B(  0-C , 11-H ) :   0.8333 B(  0-C , 12-H ) :   0.8771 B(  0-C , 13-H ) :   0.1808
B(  0-C , 14-H ) :   0.2195 B(  0-C , 15-H ) :   0.2474 B(  1-N ,  3-C ) :   1.0940
B(  1-N ,  4-N ) :   0.2088 B(  1-N ,  5-N ) :   0.1809 B(  1-N ,  8-H ) :   1.3014
B(  1-N , 11-H ) :   0.1621 B(  1-N , 12-H ) :   0.1578 B(  2-C , 13-H ) :   0.7589
B(  2-C , 14-H ) :   0.7666 B(  2-C , 15-H ) :   0.7562 B(  3-C ,  4-N ) :   1.1206
B(  3-C ,  5-N ) :   0.8918 B(  3-C ,  6-H ) :  -0.1049 B(  3-C ,  8-H ) :  -0.2221
B(  3-C ,  9-H ) :  -0.1175 B(  3-C , 10-H ) :  -0.1062 B(  4-N ,  5-N ) :   0.1422
B(  4-N ,  9-H ) :   1.1400 B(  4-N , 10-H ) :   1.1905 B(  5-N ,  6-H ) :   1.0897
B(  5-N ,  7-H ) :   1.1458 B(  6-H ,  7-H ) :  -0.1345 B(  9-H , 10-H ) :  -0.1761

FINAL SINGLE POINT ENERGY      -284.064552999526

DIPOLE MOMENT
-------------
                                X             Y             Z
Electronic contribution:      1.74762       1.09468       4.73341
Nuclear contribution   :     -1.95709      -1.20097      -3.70214
                        -----------------------------------------
Total Dipole Moment    :     -0.20947      -0.10629       1.03128
                        -----------------------------------------
Magnitude (a.u.)       :      1.05769
Magnitude (Debye)      :      2.68843

Rotational constants in cm-1:     0.241661     0.071598     0.061743
Rotational constants in MHz :  7244.800091  2146.442409  1851.001864

                             ****ORCA TERMINATED NORMALLY****
TOTAL RUN TIME: 0 days 0 hours 0 minutes 42 seconds 287 msec
