                         Program Version 5.0.0 -  RELEASE  -
|  1> !CAM-B3LYP RIJCOSX def2-SVPD def2/J TightSCF
|  2> *xyz 0 1
|  3> C          3.76678       -2.26611       -6.51175
|  4> C          2.49670       -1.84416       -5.73570
|  5> H          1.62642       -2.21743       -6.30895
|  6> H          2.48182       -2.45607       -4.79341
|  7> F          2.45973       -0.50920       -5.50576
|  8> H          3.82914       -1.70941       -7.42340
|  9> H          3.71764       -3.31144       -6.73483
| 10> H          4.63199       -2.06931       -5.91377
| 11> *
| 12>
| 13> %MaxCore 64000
| 14>
| 15> %pal nprocs 4
| 16> end
| 17>
| 18> %scf
| 19>   MaxIter 150
| 20> end
| 21>
| 22>
| 23>                          ****END OF INPUT****

CARTESIAN COORDINATES (ANGSTROEM)
---------------------------------
  C      3.766780   -2.266110   -6.511750
  C      2.496700   -1.844160   -5.735700
  H      1.626420   -2.217430   -6.308950
  H      2.481820   -2.456070   -4.793410
  F      2.459730   -0.509200   -5.505760
  H      3.829140   -1.709410   -7.423400
  H      3.717640   -3.311440   -6.734830
  H      4.631990   -2.069310   -5.913770

 Total Charge           Charge          ....    0
 Multiplicity           Mult            ....    1
 Number of Electrons    NEL             ....   26
 Basis Dimension        Dim             ....  103

ORBITAL ENERGIES
----------------

  NO   OCC          E(Eh)            E(eV)
   0   2.0000     -24.765738      -673.9100
   1   2.0000     -10.342577      -281.4358
   2   2.0000     -10.256131      -279.0835
   3   2.0000      -1.274283       -34.6750
   4   2.0000      -0.839468       -22.8431
   5   2.0000      -0.706690       -19.2300
   6   2.0000      -0.588798       -16.0220
   7   2.0000      -0.574088       -15.6217
   8   2.0000      -0.537658       -14.6304
   9   2.0000      -0.478032       -13.0079
  10   2.0000      -0.470622       -12.8063
  11   2.0000      -0.404995       -11.0205
  12   2.0000      -0.399233       -10.8637
  13   0.0000       0.051740         1.4079
  14   0.0000       0.082284         2.2391
  15   0.0000       0.109894         2.9904
  16   0.0000       0.114371         3.1122
  17   0.0000       0.143754         3.9117

MULLIKEN ATOMIC CHARGES
-----------------------
   0 C :    0.522505
   1 C :    0.502057
   2 H :   -0.134628
   3 H :   -0.092328
   4 F :   -0.427605
   5 H :   -0.134293
   6 H :   -0.109428
   7 H :   -0.126279
Sum of atomic charges:   -0.0000000

LOEWDIN ATOMIC CHARGES
----------------------
   0 C :    0.138304
   1 C :    0.055814
   2 H :    0.027717
   3 H :    0.037320
   4 F :   -0.211113
   5 H :   -0.015898
   6 H :   -0.015476
   7 H :   -0.016669

  Mayer bond orders larger than 0.100000
B(  0-C ,  1-C ) :   1.3078 B(  0-C ,  5-H ) :   0.8671 B(  0-C ,  6-H ) :   0.8373
B(  0-C ,  7-H ) :   0.8639 B(  1-C ,  2-H ) :   0.9241 B(  1-C ,  3-H ) :   0.9292
B(  1-C ,  4-F ) :   0.7769 B(  1-C ,  5-H ) :   0.1490 B(  1-C ,  6-H ) :   0.1271
B(  1-C ,  7-H ) :   0.1442

FINAL SINGLE POINT ENERGY      -178.860989692351

DIPOLE MOMENT
-------------
                                X             Y             Z
Electronic contribution:     -2.07659       4.30009       1.80501
Nuclear contribution   :      2.16248      -5.01128      -1.96962
                        -----------------------------------------
Total Dipole Moment    :      0.08589      -0.71119      -0.16461
                        -----------------------------------------
Magnitude (a.u.)       :      0.73503
Magnitude (Debye)      :      1.86830

Rotational constants in cm-1:     1.244010     0.306580     0.270375
Rotational constants in MHz : 37294.476802  9191.037795  8105.639967

                             ****ORCA TERMINATED NORMALLY****
TOTAL RUN TIME: 0 days 0 hours 0 minutes 12 seconds 512 msec
