                         Program Version 5.0.0 -  RELEASE  -
|  1> !CAM-B3LYP RIJCOSX def2-SVPD def2/J TightSCF
|  2> *xyz 0 1
|  3> C          4.99986       -1.59613       -5.92488
|  4> C          5.28156       -1.97413       -4.53576
|  5> C          3.76678       -2.26611       -6.51175
|  6> C          4.79250       -1.36132       -3.45730
|  7> N          3.93990       -0.37492       -3.55736
|  8> N          5.25986       -1.75422       -2.23913
|  9> H          5.92282       -2.52145       -2.18672
| 10> H          4.65468       -1.64040       -1.44202
| 11> H          5.70914       -2.87560       -4.38702
| 12> H          3.33010       -0.31764       -4.36125
| 13> H          3.69849        0.11447       -2.70833
| 14> H          4.84333       -0.51793       -5.94302
| 15> H          5.90170       -1.82250       -6.49647
| 16> H          3.63046       -1.94025       -7.52177
| 17> H          2.90710       -2.00116       -5.93240
| 18> H          3.89538       -3.32820       -6.49392
| 19> *
| 20>
| 21> %MaxCore 64000
| 22>
| 23> %pal nprocs 4
| 24> end
| 25>
| 26> %scf
| 27>   MaxIter 150
| 28> end
| 29>
| 30>
| 31>                          ****END OF INPUT****

CARTESIAN COORDINATES (ANGSTROEM)
---------------------------------
  C      4.999860   -1.596130   -5.924880
  C      5.281560   -1.974130   -4.535760
  C      3.766780   -2.266110   -6.511750
  C      4.792500   -1.361320   -3.457300
  N      3.939900   -0.374920   -3.557360
  N      5.259860   -1.754220   -2.239130
  H      5.922820   -2.521450   -2.186720
  H      4.654680   -1.640400   -1.442020
  H      5.709140   -2.875600   -4.387020
  H      3.330100   -0.317640   -4.361250
  H      3.698490    0.114470   -2.708330
  H      4.843330   -0.517930   -5.943020
  H      5.901700   -1.822500   -6.496470
  H      3.630460   -1.940250   -7.521770
  H      2.907100   -2.001160   -5.932400
  H      3.895380   -3.328200   -6.493920

 Total Charge           Charge          ....    0
 Multiplicity           Mult            ....    1
 Number of Electrons    NEL             ....   48
 Basis Dimension        Dim             ....  200

ORBITAL ENERGIES
----------------

  NO   OCC          E(Eh)            E(eV)
   0   2.0000     -14.410274      -392.1235
   1   2.0000     -14.401797      -391.8928
   2   2.0000     -10.303632      -280.3761
   3   2.0000     -10.231422      -278.4111
   4   2.0000     -10.228047      -278.3193
   5   2.0000     -10.182720      -277.0859
   6   2.0000      -1.038863       -28.2689
   7   2.0000      -0.944393       -25.6982
   8   2.0000      -0.850369       -23.1397
   9   2.0000      -0.769624       -20.9425
  10   2.0000      -0.688167       -18.7260
  11   2.0000      -0.651246       -17.7213
  12   2.0000      -0.618937       -16.8421
  13   2.0000      -0.575341       -15.6558
  14   2.0000      -0.548509       -14.9257
  15   2.0000      -0.514331       -13.9957
  16   2.0000      -0.485663       -13.2156
  17   2.0000      -0.465780       -12.6745
  18   2.0000      -0.452770       -12.3205
  19   2.0000      -0.419733       -11.4215
  20   2.0000      -0.392966       -10.6932
  21   2.0000      -0.384707       -10.4684
  22   2.0000      -0.332744        -9.0544
  23   2.0000      -0.221185        -6.0188
  24   0.0000       0.044967         1.2236
  25   0.0000       0.070811         1.9269
  26   0.0000       0.083058         2.2601
  27   0.0000       0.094471         2.5707
  28   0.0000       0.109587         2.9820

MULLIKEN ATOMIC CHARGES
-----------------------
   0 C :    0.009638
   1 C :   -0.308644
   2 C :    0.874821
   3 C :    0.746749
   4 N :    0.276799
   5 N :    0.036020
   6 H :   -0.048407
   7 H :   -0.139480
   8 H :   -0.416731
   9 H :   -0.126482
  10 H :   -0.243691
  11 H :   -0.093483
  12 H :   -0.175110
  13 H :   -0.065116
  14 H :   -0.210609
  15 H :   -0.116274
Sum of atomic charges:    0.0000000

LOEWDIN ATOMIC CHARGES
----------------------
   0 C :   -0.100963
   1 C :   -0.028695
   2 C :    0.115405
   3 C :   -0.229259
   4 N :    0.202642
   5 N :    0.182594
   6 H :   -0.000811
   7 H :   -0.023864
   8 H :   -0.055039
   9 H :   -0.003556
  10 H :   -0.003221
  11 H :    0.003968
  12 H :    0.014022
  13 H :   -0.024023
  14 H :   -0.030714
  15 H :   -0.018488

  Mayer bond orders larger than 0.100000
B(  0-C ,  1-C ) :   1.1674 B(  0-C ,  2-C ) :   1.1894 B(  0-C ,  8-H ) :   0.2539
B(  0-C , 11-H ) :   0.7957 B(  0-C , 12-H ) :   0.8221 B(  0-C , 13-H ) :   0.1777
B(  0-C , 14-H ) :   0.2230 B(  0-C , 15-H ) :   0.2460 B(  1-C ,  3-C ) :   1.5489
B(  1-C ,  4-N ) :   0.3104 B(  1-C ,  5-N ) :   0.3293 B(  1-C ,  8-H ) :   0.8478
B(  1-C , 11-H ) :   0.3136 B(  1-C , 12-H ) :   0.2009 B(  2-C , 13-H ) :   0.7726
B(  2-C , 14-H ) :   0.7831 B(  2-C , 15-H ) :   0.7666 B(  3-C ,  4-N ) :   1.1008
B(  3-C ,  5-N ) :   0.7901 B(  3-C ,  8-H ) :   0.1106 B(  3-C , 11-H ) :  -0.1231
B(  4-N ,  9-H ) :   1.1107 B(  4-N , 10-H ) :   1.2241 B(  5-N ,  6-H ) :   1.0803
B(  5-N ,  7-H ) :   1.1373 B(  6-H ,  7-H ) :  -0.1191 B(  9-H , 10-H ) :  -0.1654

FINAL SINGLE POINT ENERGY      -267.594804064653

DIPOLE MOMENT
-------------
                                X             Y             Z
Electronic contribution:      1.22348       1.37928       4.49721
Nuclear contribution   :     -1.82485      -1.28952      -3.74132
                        -----------------------------------------
Total Dipole Moment    :     -0.60137       0.08976       0.75590
                        -----------------------------------------
Magnitude (a.u.)       :      0.97010
Magnitude (Debye)      :      2.46579

Rotational constants in cm-1:     0.245790     0.071632     0.062004
Rotational constants in MHz :  7368.599517  2147.482078  1858.844841

                             ****ORCA TERMINATED NORMALLY****
TOTAL RUN TIME: 0 days 0 hours 0 minutes 42 seconds 939 msec
