                         Program Version 5.0.0 -  RELEASE  -
|  1> !CAM-B3LYP RIJCOSX def2-SVPD def2/J TightSCF
|  2> *xyz 0 1
|  3> C          4.99986       -1.59613       -5.92488
|  4> N          5.28156       -1.97413       -4.53576
|  5> C          3.76678       -2.26611       -6.51175
|  6> C          4.79250       -1.36132       -3.45730
|  7> C          3.93990       -0.37492       -3.55736
|  8> N          5.25986       -1.75422       -2.23913
|  9> H          5.92282       -2.52145       -2.18672
| 10> H          4.65468       -1.64040       -1.44202
| 11> H          5.70914       -2.87560       -4.38702
| 12> H          3.33010       -0.31764       -4.36125
| 13> H          3.69849        0.11447       -2.70833
| 14> H          4.84333       -0.51793       -5.94302
| 15> H          5.90170       -1.82250       -6.49647
| 16> H          3.63046       -1.94025       -7.52177
| 17> H          2.90710       -2.00116       -5.93240
| 18> H          3.89538       -3.32820       -6.49392
| 19> *
| 20>
| 21> %MaxCore 64000
| 22>
| 23> %pal nprocs 4
| 24> end
| 25>
| 26> %scf
| 27>   MaxIter 150
| 28> end
| 29>
| 30>
| 31>                          ****END OF INPUT****

CARTESIAN COORDINATES (ANGSTROEM)
---------------------------------
  C      4.999860   -1.596130   -5.924880
  N      5.281560   -1.974130   -4.535760
  C      3.766780   -2.266110   -6.511750
  C      4.792500   -1.361320   -3.457300
  C      3.939900   -0.374920   -3.557360
  N      5.259860   -1.754220   -2.239130
  H      5.922820   -2.521450   -2.186720
  H      4.654680   -1.640400   -1.442020
  H      5.709140   -2.875600   -4.387020
  H      3.330100   -0.317640   -4.361250
  H      3.698490    0.114470   -2.708330
  H      4.843330   -0.517930   -5.943020
  H      5.901700   -1.822500   -6.496470
  H      3.630460   -1.940250   -7.521770
  H      2.907100   -2.001160   -5.932400
  H      3.895380   -3.328200   -6.493920

 Total Charge           Charge          ....    0
 Multiplicity           Mult            ....    1
 Number of Electrons    NEL             ....   48
 Basis Dimension        Dim             ....  200

ORBITAL ENERGIES
----------------

  NO   OCC          E(Eh)            E(eV)
   0   2.0000     -14.405760      -392.0007
   1   2.0000     -14.402802      -391.9202
   2   2.0000     -10.305680      -280.4318
   3   2.0000     -10.289579      -279.9937
   4   2.0000     -10.244185      -278.7585
   5   2.0000     -10.173197      -276.8268
   6   2.0000      -1.038428       -28.2571
   7   2.0000      -0.953097       -25.9351
   8   2.0000      -0.831751       -22.6331
   9   2.0000      -0.792436       -21.5633
  10   2.0000      -0.711226       -19.3534
  11   2.0000      -0.636305       -17.3147
  12   2.0000      -0.616522       -16.7764
  13   2.0000      -0.582686       -15.8557
  14   2.0000      -0.527095       -14.3430
  15   2.0000      -0.516854       -14.0643
  16   2.0000      -0.496315       -13.5054
  17   2.0000      -0.469128       -12.7656
  18   2.0000      -0.452430       -12.3112
  19   2.0000      -0.438921       -11.9437
  20   2.0000      -0.421195       -11.4613
  21   2.0000      -0.413505       -11.2520
  22   2.0000      -0.315689        -8.5903
  23   2.0000      -0.233134        -6.3439
  24   0.0000       0.046131         1.2553
  25   0.0000       0.069015         1.8780
  26   0.0000       0.079669         2.1679
  27   0.0000       0.087315         2.3760
  28   0.0000       0.110829         3.0158

MULLIKEN ATOMIC CHARGES
-----------------------
   0 C :    0.405885
   1 N :   -0.282445
   2 C :    0.933166
   3 C :    0.670253
   4 C :    0.438498
   5 N :    0.110492
   6 H :   -0.182099
   7 H :   -0.066753
   8 H :   -0.393110
   9 H :   -0.330962
  10 H :   -0.438242
  11 H :   -0.041386
  12 H :   -0.401279
  13 H :   -0.061717
  14 H :   -0.232322
  15 H :   -0.127980
Sum of atomic charges:    0.0000000

LOEWDIN ATOMIC CHARGES
----------------------
   0 C :    0.014555
   1 N :   -0.018149
   2 C :    0.133348
   3 C :   -0.235739
   4 C :    0.153962
   5 N :    0.188157
   6 H :   -0.016279
   7 H :   -0.006500
   8 H :    0.014856
   9 H :   -0.104524
  10 H :   -0.094358
  11 H :    0.015960
  12 H :    0.017415
  13 H :   -0.016807
  14 H :   -0.024569
  15 H :   -0.021328

  Mayer bond orders larger than 0.100000
B(  0-C ,  1-N ) :   0.9267 B(  0-C ,  2-C ) :   1.1917 B(  0-C ,  4-C ) :   0.1058
B(  0-C ,  8-H ) :  -0.1983 B(  0-C , 11-H ) :   0.8264 B(  0-C , 12-H ) :   0.8997
B(  0-C , 13-H ) :   0.1960 B(  0-C , 14-H ) :   0.2229 B(  0-C , 15-H ) :   0.2386
B(  1-N ,  3-C ) :   0.9854 B(  1-N ,  4-C ) :   0.3771 B(  1-N ,  5-N ) :   0.1194
B(  1-N ,  8-H ) :   1.3320 B(  1-N , 11-H ) :   0.1446 B(  1-N , 12-H ) :   0.1503
B(  2-C , 13-H ) :   0.7470 B(  2-C , 14-H ) :   0.8031 B(  2-C , 15-H ) :   0.7519
B(  3-C ,  4-C ) :   1.6870 B(  3-C ,  5-N ) :   0.8739 B(  3-C ,  8-H ) :  -0.2466
B(  3-C ,  9-H ) :   0.1880 B(  3-C , 10-H ) :   0.3070 B(  4-C ,  5-N ) :   0.2838
B(  4-C ,  9-H ) :   0.6171 B(  4-C , 10-H ) :   0.6751 B(  5-N ,  6-H ) :   1.0841
B(  5-N ,  7-H ) :   1.1167 B(  6-H ,  7-H ) :  -0.1269 B(  9-H , 11-H ) :   0.1114
B( 11-H , 12-H ) :  -0.1131

FINAL SINGLE POINT ENERGY      -267.588100944110

DIPOLE MOMENT
-------------
                                X             Y             Z
Electronic contribution:      2.39785      -0.08164       3.49034
Nuclear contribution   :     -2.10948      -0.95026      -3.53375
                        -----------------------------------------
Total Dipole Moment    :      0.28838      -1.03190      -0.04341
                        -----------------------------------------
Magnitude (a.u.)       :      1.07231
Magnitude (Debye)      :      2.72561

Rotational constants in cm-1:     0.255209     0.072067     0.062929
Rotational constants in MHz :  7650.964615  2160.525743  1886.569524

                             ****ORCA TERMINATED NORMALLY****
TOTAL RUN TIME: 0 days 0 hours 0 minutes 41 seconds 917 msec
