                         Program Version 5.0.0 -  RELEASE  -
|  1> !CAM-B3LYP RIJCOSX def2-SVPD def2/J TightSCF
|  2> *xyz 0 1
|  3> C          4.99986       -1.59613       -5.92488
|  4> N          5.28156       -1.97413       -4.53576
|  5> C          3.76678       -2.26611       -6.51175
|  6> C          4.79250       -1.36132       -3.45730
|  7> N          3.93990       -0.37492       -3.55736
|  8> C          5.25986       -1.75422       -2.23913
|  9> H          5.92282       -2.52145       -2.18672
| 10> H          4.65468       -1.64040       -1.44202
| 11> H          5.70914       -2.87560       -4.38702
| 12> H          3.33010       -0.31764       -4.36125
| 13> H          3.69849        0.11447       -2.70833
| 14> H          4.84333       -0.51793       -5.94302
| 15> H          5.90170       -1.82250       -6.49647
| 16> H          3.63046       -1.94025       -7.52177
| 17> H          2.90710       -2.00116       -5.93240
| 18> H          3.89538       -3.32820       -6.49392
| 19> *
| 20>
| 21> %MaxCore 64000
| 22>
| 23> %pal nprocs 4
| 24> end
| 25>
| 26> %scf
| 27>   MaxIter 150
| 28> end
| 29>
| 30>
| 31>                          ****END OF INPUT****

CARTESIAN COORDINATES (ANGSTROEM)
---------------------------------
  C      4.999860   -1.596130   -5.924880
  N      5.281560   -1.974130   -4.535760
  C      3.766780   -2.266110   -6.511750
  C      4.792500   -1.361320   -3.457300
  N      3.939900   -0.374920   -3.557360
  C      5.259860   -1.754220   -2.239130
  H      5.922820   -2.521450   -2.186720
  H      4.654680   -1.640400   -1.442020
  H      5.709140   -2.875600   -4.387020
  H      3.330100   -0.317640   -4.361250
  H      3.698490    0.114470   -2.708330
  H      4.843330   -0.517930   -5.943020
  H      5.901700   -1.822500   -6.496470
  H      3.630460   -1.940250   -7.521770
  H      2.907100   -2.001160   -5.932400
  H      3.895380   -3.328200   -6.493920

 Total Charge           Charge          ....    0
 Multiplicity           Mult            ....    1
 Number of Electrons    NEL             ....   48
 Basis Dimension        Dim             ....  200

ORBITAL ENERGIES
----------------

  NO   OCC          E(Eh)            E(eV)
   0   2.0000     -14.410632      -392.1332
   1   2.0000     -14.405753      -392.0005
   2   2.0000     -10.310040      -280.5504
   3   2.0000     -10.298781      -280.2441
   4   2.0000     -10.255397      -279.0635
   5   2.0000     -10.167287      -276.6659
   6   2.0000      -1.049019       -28.5452
   7   2.0000      -0.964058       -26.2334
   8   2.0000      -0.849814       -23.1246
   9   2.0000      -0.771743       -21.0002
  10   2.0000      -0.702402       -19.1133
  11   2.0000      -0.677330       -18.4311
  12   2.0000      -0.619022       -16.8444
  13   2.0000      -0.571981       -15.5644
  14   2.0000      -0.553530       -15.0623
  15   2.0000      -0.516115       -14.0442
  16   2.0000      -0.501856       -13.6562
  17   2.0000      -0.474414       -12.9095
  18   2.0000      -0.456260       -12.4155
  19   2.0000      -0.435166       -11.8415
  20   2.0000      -0.430791       -11.7224
  21   2.0000      -0.415405       -11.3038
  22   2.0000      -0.322609        -8.7786
  23   2.0000      -0.218254        -5.9390
  24   0.0000       0.040615         1.1052
  25   0.0000       0.074335         2.0228
  26   0.0000       0.075426         2.0524
  27   0.0000       0.082236         2.2377
  28   0.0000       0.107385         2.9221

MULLIKEN ATOMIC CHARGES
-----------------------
   0 C :    0.464299
   1 N :   -0.175630
   2 C :    0.901362
   3 C :    0.358129
   4 N :    0.289386
   5 C :    0.605084
   6 H :   -0.324549
   7 H :   -0.503465
   8 H :   -0.341075
   9 H :   -0.181904
  10 H :   -0.128601
  11 H :   -0.152899
  12 H :   -0.411713
  13 H :   -0.058746
  14 H :   -0.206050
  15 H :   -0.133628
Sum of atomic charges:   -0.0000000

LOEWDIN ATOMIC CHARGES
----------------------
   0 C :    0.008418
   1 N :   -0.005641
   2 C :    0.129574
   3 C :   -0.239241
   4 N :    0.202707
   5 C :    0.140811
   6 H :   -0.111873
   7 H :   -0.118776
   8 H :    0.029771
   9 H :   -0.015406
  10 H :    0.013196
  11 H :    0.010460
  12 H :    0.018424
  13 H :   -0.016885
  14 H :   -0.027999
  15 H :   -0.017541

  Mayer bond orders larger than 0.100000
B(  0-C ,  1-N ) :   0.9340 B(  0-C ,  2-C ) :   1.2031 B(  0-C ,  8-H ) :  -0.2263
B(  0-C , 11-H ) :   0.8468 B(  0-C , 12-H ) :   0.8632 B(  0-C , 13-H ) :   0.1913
B(  0-C , 14-H ) :   0.2340 B(  0-C , 15-H ) :   0.2590 B(  1-N ,  3-C ) :   1.1059
B(  1-N ,  4-N ) :   0.1551 B(  1-N ,  5-C ) :   0.2164 B(  1-N ,  8-H ) :   1.2417
B(  1-N , 11-H ) :   0.1594 B(  1-N , 12-H ) :   0.1610 B(  2-C , 13-H ) :   0.7620
B(  2-C , 14-H ) :   0.7668 B(  2-C , 15-H ) :   0.7529 B(  3-C ,  4-N ) :   1.1308
B(  3-C ,  5-C ) :   1.6728 B(  3-C ,  6-H ) :   0.1971 B(  3-C ,  7-H ) :   0.2376
B(  3-C ,  8-H ) :  -0.1837 B(  4-N ,  5-C ) :   0.2015 B(  4-N ,  9-H ) :   1.1129
B(  4-N , 10-H ) :   1.1730 B(  5-C ,  6-H ) :   0.7307 B(  5-C ,  7-H ) :   0.6613
B(  6-H ,  7-H ) :   0.1721 B(  9-H , 10-H ) :  -0.1657

FINAL SINGLE POINT ENERGY      -267.582162330386

DIPOLE MOMENT
-------------
                                X             Y             Z
Electronic contribution:      1.14397       1.25119       2.12644
Nuclear contribution   :     -1.82946      -1.24287      -3.25410
                        -----------------------------------------
Total Dipole Moment    :     -0.68548       0.00832      -1.12766
                        -----------------------------------------
Magnitude (a.u.)       :      1.31969
Magnitude (Debye)      :      3.35438

Rotational constants in cm-1:     0.244672     0.074506     0.064043
Rotational constants in MHz :  7335.067153  2233.624025  1919.970379

                             ****ORCA TERMINATED NORMALLY****
TOTAL RUN TIME: 0 days 0 hours 0 minutes 44 seconds 938 msec
