                         Program Version 5.0.0 -  RELEASE  -
|  1> !CAM-B3LYP RIJCOSX def2-SVPD def2/J TightSCF xyzfile
|  2>
|  3> *xyzfile 0 1 D1.xyz
|  4>
|  5> %MaxCore 64000
|  6>
|  7> %pal nprocs 4
|  8> end
|  9>
| 10> %scf
| 11>   MaxIter 150
| 12> end
| 13>
| 14>
| 15>                          ****END OF INPUT****

CARTESIAN COORDINATES (ANGSTROEM)
---------------------------------
  C      4.999862   -1.596133   -5.924876
  C      5.281560   -1.974132   -4.535764
  C      3.766779   -2.266110   -6.511752
  C      2.496702   -1.844161   -5.735704
  H      1.626416   -2.217434   -6.308950
  H      2.481824   -2.456069   -4.793414
  F      2.459729   -0.509204   -5.505757
  C      4.792500   -1.361316   -3.457295
  N      3.939898   -0.374925   -3.557359
  N      5.259860   -1.754224   -2.239133
  H      5.922824   -2.521451   -2.186720
  H      4.654678   -1.640404   -1.442016
  H      5.709139   -2.875599   -4.387021
  H      3.330101   -0.317639   -4.361247
  H      3.698494    0.114468   -2.708333
  H      4.843333   -0.517930   -5.943019
  H      5.901695   -1.822503   -6.496467
  H      3.886191   -3.357076   -6.533604
  H      3.685602   -1.922168   -7.547128

 Total Charge           Charge          ....    0
 Multiplicity           Mult            ....    1
 Number of Electrons    NEL             ....   64
 Basis Dimension        Dim             ....  251

ORBITAL ENERGIES
----------------

  NO   OCC          E(Eh)            E(eV)
   0   2.0000     -24.797388      -674.7712
   1   2.0000     -14.396709      -391.7544
   2   2.0000     -14.381359      -391.3367
   3   2.0000     -10.344487      -281.4878
   4   2.0000     -10.297936      -280.2211
   5   2.0000     -10.254928      -279.0508
   6   2.0000     -10.233417      -278.4654
   7   2.0000     -10.178326      -276.9663
   8   2.0000      -1.314133       -35.7594
   9   2.0000      -1.027598       -27.9624
  10   2.0000      -0.934485       -25.4286
  11   2.0000      -0.872895       -23.7527
  12   2.0000      -0.799845       -21.7649
  13   2.0000      -0.747153       -20.3311
  14   2.0000      -0.674726       -18.3602
  15   2.0000      -0.664359       -18.0781
  16   2.0000      -0.618468       -16.8294
  17   2.0000      -0.603585       -16.4244
  18   2.0000      -0.590841       -16.0776
  19   2.0000      -0.568494       -15.4695
  20   2.0000      -0.564662       -15.3652
  21   2.0000      -0.525405       -14.2970
  22   2.0000      -0.495540       -13.4843
  23   2.0000      -0.477945       -13.0056
  24   2.0000      -0.464337       -12.6353
  25   2.0000      -0.442196       -12.0328
  26   2.0000      -0.420259       -11.4358
  27   2.0000      -0.404467       -11.0061
  28   2.0000      -0.391378       -10.6499
  29   2.0000      -0.381791       -10.3891
  30   2.0000      -0.320934        -8.7331
  31   2.0000      -0.217180        -5.9098
  32   0.0000       0.049976         1.3599
  33   0.0000       0.066573         1.8115
  34   0.0000       0.080480         2.1900
  35   0.0000       0.081033         2.2050
  36   0.0000       0.098330         2.6757

MULLIKEN ATOMIC CHARGES
-----------------------
   0 C :    0.308169
   1 C :   -0.185438
   2 C :    0.159062
   3 C :    0.892103
   4 H :   -0.382304
   5 H :    0.130317
   6 F :   -0.402389
   7 C :    0.729696
   8 N :    0.541145
   9 N :    0.004199
  10 H :   -0.084411
  11 H :   -0.113925
  12 H :   -0.401369
  13 H :   -0.404696
  14 H :   -0.273405
  15 H :    0.096048
  16 H :   -0.309203
  17 H :   -0.213734
  18 H :   -0.089866
Sum of atomic charges:    0.0000000

LOEWDIN ATOMIC CHARGES
----------------------
   0 C :   -0.056734
   1 C :   -0.024090
   2 C :   -0.011182
   3 C :    0.133337
   4 H :    0.031607
   5 H :    0.045259
   6 F :   -0.180291
   7 C :   -0.219465
   8 N :    0.232680
   9 N :    0.183670
  10 H :   -0.003299
  11 H :   -0.023872
  12 H :   -0.058120
  13 H :   -0.127522
  14 H :   -0.000047
  15 H :    0.013893
  16 H :    0.015297
  17 H :    0.031441
  18 H :    0.017438

  Mayer bond orders larger than 0.100000
B(  0-C ,  1-C ) :   1.1504 B(  0-C ,  2-C ) :   1.1325 B(  0-C , 12-H ) :   0.2540
B(  0-C , 15-H ) :   0.7115 B(  0-C , 16-H ) :   0.8352 B(  0-C , 17-H ) :   0.1697
B(  0-C , 18-H ) :   0.1231 B(  1-C ,  7-C ) :   1.5268 B(  1-C ,  8-N ) :   0.2494
B(  1-C ,  9-N ) :   0.3176 B(  1-C , 12-H ) :   0.8292 B(  1-C , 15-H ) :   0.2947
B(  1-C , 16-H ) :   0.1660 B(  2-C ,  3-C ) :   1.1838 B(  2-C ,  4-H ) :   0.1661
B(  2-C ,  5-H ) :   0.1345 B(  2-C , 16-H ) :   0.1017 B(  2-C , 17-H ) :   0.8932
B(  2-C , 18-H ) :   0.8397 B(  3-C ,  4-H ) :   0.9098 B(  3-C ,  5-H ) :   0.8168
B(  3-C ,  6-F ) :   0.6326 B(  6-F , 13-H ) :   0.1254 B(  7-C ,  8-N ) :   1.0436
B(  7-C ,  9-N ) :   0.7598 B(  7-C , 10-H ) :  -0.1069 B(  7-C , 12-H ) :   0.1105
B(  7-C , 14-H ) :  -0.1242 B(  7-C , 15-H ) :  -0.1337 B(  8-N ,  9-N ) :   0.1007
B(  8-N , 13-H ) :   1.1741 B(  8-N , 14-H ) :   1.1835 B(  9-N , 10-H ) :   1.1432
B(  9-N , 11-H ) :   1.1074 B(  9-N , 12-H ) :   0.1091 B( 10-H , 11-H ) :  -0.1335
B( 13-H , 14-H ) :  -0.1915

FINAL SINGLE POINT ENERGY      -405.993634794230

DIPOLE MOMENT
-------------
                                X             Y             Z
Electronic contribution:     -3.33769       3.95439       0.77478
Nuclear contribution   :      2.63975      -4.51113      -0.34926
                        -----------------------------------------
Total Dipole Moment    :     -0.69794      -0.55674       0.42551
                        -----------------------------------------
Magnitude (a.u.)       :      0.98901
Magnitude (Debye)      :      2.51387

Rotational constants in cm-1:     0.109429     0.049838     0.039337
Rotational constants in MHz :  3280.611039  1494.113088  1179.280063

                             ****ORCA TERMINATED NORMALLY****
TOTAL RUN TIME: 0 days 0 hours 1 minutes 13 seconds 625 msec
