                         Program Version 5.0.0 -  RELEASE  -
|  1> !wB97X-D3 RIJCOSX def2-SVPD def2/J TightSCF CPCM(Water)
|  2> *xyz -1 1
|  3> C          0.28725       -1.71177       -2.52740
|  4> O          0.71050       -0.92751       -1.48177
|  5> H          0.92384       -1.55316       -3.37267
|  6> H         -0.71828       -1.45137       -2.78433
|  7> H          0.32655       -2.74158       -2.23955
|  8> *
|  9> %MaxCore 64000
| 10>
| 11> %pal nprocs 18
| 12> end
| 13>
| 14> %scf
| 15>   MaxIter 150
| 16> end
| 17>
| 18>
| 19>                          ****END OF INPUT****

CARTESIAN COORDINATES (ANGSTROEM)
---------------------------------
  C      0.287250   -1.711770   -2.527400
  O      0.710500   -0.927510   -1.481770
  H      0.923840   -1.553160   -3.372670
  H     -0.718280   -1.451370   -2.784330
  H      0.326550   -2.741580   -2.239550

 Total Charge           Charge          ....   -1
 Multiplicity           Mult            ....    1
 Number of Electrons    NEL             ....   18
 Basis Dimension        Dim             ....   67

ORBITAL ENERGIES
----------------

  NO   OCC          E(Eh)            E(eV)
   0   2.0000     -19.113364      -520.1011
   1   2.0000     -10.270309      -279.4693
   2   2.0000      -0.980940       -26.6927
   3   2.0000      -0.701292       -19.0831
   4   2.0000      -0.495374       -13.4798
   5   2.0000      -0.495326       -13.4785
   6   2.0000      -0.417841       -11.3700
   7   2.0000      -0.267097        -7.2681
   8   2.0000      -0.267047        -7.2667
   9   0.0000       0.109215         2.9719
  10   0.0000       0.153870         4.1870
  11   0.0000       0.165408         4.5010
  12   0.0000       0.165474         4.5028
  13   0.0000       0.207739         5.6529

MULLIKEN ATOMIC CHARGES
-----------------------
   0 C :    0.709731
   1 O :   -1.090452
   2 H :   -0.206033
   3 H :   -0.207008
   4 H :   -0.206238
Sum of atomic charges:   -1.0000000

LOEWDIN ATOMIC CHARGES
----------------------
   0 C :   -0.097530
   1 O :   -0.742287
   2 H :   -0.053419
   3 H :   -0.053390
   4 H :   -0.053374

  Mayer bond orders larger than 0.100000
B(  0-C ,  1-O ) :   1.2777 B(  0-C ,  2-H ) :   0.9176 B(  0-C ,  3-H ) :   0.9178
B(  0-C ,  4-H ) :   0.9177

Dispersion correction           -0.000091576
FINAL SINGLE POINT ENERGY      -115.103135374322

DIPOLE MOMENT
-------------
                                X             Y             Z
Electronic contribution:      0.39300       0.72979       0.97318
Nuclear contribution   :     -0.89006      -1.64923      -2.19886
                        -----------------------------------------
Total Dipole Moment    :     -0.49706      -0.91944      -1.22568
                        -----------------------------------------
Magnitude (a.u.)       :      1.61082
Magnitude (Debye)      :      4.09439

Rotational constants in cm-1:     5.477712     0.934243     0.934241
Rotational constants in MHz : 164217.678885 28007.889263 28007.851448

                             ****ORCA TERMINATED NORMALLY****
TOTAL RUN TIME: 0 days 0 hours 0 minutes 3 seconds 693 msec
