                         Program Version 5.0.0 -  RELEASE  -
|  1> !wB97X-D3 RIJCOSX def2-SVPD def2/J TightSCF CPCM(Water)
|  2> *xyz 1 1
|  3> C          3.48828        1.60092       -1.52204
|  4> N          2.81029        0.42878       -1.01420
|  5> C          3.29098       -0.41802       -0.12908
|  6> N          2.51754       -1.43202        0.23936
|  7> N          4.53549       -0.28441        0.39580
|  8> H          5.04363        0.57189        0.22290
|  9> H          4.72335       -0.73327        1.28180
| 10> H          1.93479        0.10230       -1.40379
| 11> H          1.67464       -1.50562       -0.31610
| 12> H          2.92850       -2.21850        0.72549
| 13> H          2.85802        2.09943       -2.22855
| 14> H          4.39853        1.30677       -2.00144
| 15> H          3.70992        2.26379       -0.71187
| 16> *
| 17> %MaxCore 64000
| 18>
| 19> %pal nprocs 18
| 20> end
| 21>
| 22> %scf
| 23>   MaxIter 150
| 24> end
| 25>
| 26>
| 27>                          ****END OF INPUT****

CARTESIAN COORDINATES (ANGSTROEM)
---------------------------------
  C      3.488280    1.600920   -1.522040
  N      2.810290    0.428780   -1.014200
  C      3.290980   -0.418020   -0.129080
  N      2.517540   -1.432020    0.239360
  N      4.535490   -0.284410    0.395800
  H      5.043630    0.571890    0.222900
  H      4.723350   -0.733270    1.281800
  H      1.934790    0.102300   -1.403790
  H      1.674640   -1.505620   -0.316100
  H      2.928500   -2.218500    0.725490
  H      2.858020    2.099430   -2.228550
  H      4.398530    1.306770   -2.001440
  H      3.709920    2.263790   -0.711870

 Total Charge           Charge          ....    1
 Multiplicity           Mult            ....    1
 Number of Electrons    NEL             ....   40
 Basis Dimension        Dim             ....  164

ORBITAL ENERGIES
----------------

  NO   OCC          E(Eh)            E(eV)
   0   2.0000     -14.495362      -394.4389
   1   2.0000     -14.485063      -394.1586
   2   2.0000     -14.483949      -394.1283
   3   2.0000     -10.454822      -284.4902
   4   2.0000     -10.331306      -281.1291
   5   2.0000      -1.157814       -31.5057
   6   2.0000      -1.042747       -28.3746
   7   2.0000      -1.026328       -27.9278
   8   2.0000      -0.850656       -23.1475
   9   2.0000      -0.756355       -20.5815
  10   2.0000      -0.709779       -19.3141
  11   2.0000      -0.686219       -18.6730
  12   2.0000      -0.619021       -16.8444
  13   2.0000      -0.606139       -16.4939
  14   2.0000      -0.593404       -16.1473
  15   2.0000      -0.575816       -15.6688
  16   2.0000      -0.525091       -14.2884
  17   2.0000      -0.513097       -13.9621
  18   2.0000      -0.402817       -10.9612
  19   2.0000      -0.379562       -10.3284
  20   0.0000       0.080729         2.1968
  21   0.0000       0.084395         2.2965
  22   0.0000       0.114888         3.1262
  23   0.0000       0.131179         3.5696
  24   0.0000       0.153675         4.1817

MULLIKEN ATOMIC CHARGES
-----------------------
   0 C :    0.931543
   1 N :   -0.639090
   2 C :    1.130472
   3 N :   -0.098493
   4 N :   -0.136446
   5 H :    0.010336
   6 H :    0.001316
   7 H :   -0.110155
   8 H :    0.106516
   9 H :   -0.014252
  10 H :   -0.229635
  11 H :    0.025867
  12 H :    0.022021
Sum of atomic charges:    1.0000000

LOEWDIN ATOMIC CHARGES
----------------------
   0 C :    0.244490
   1 N :    0.011864
   2 C :   -0.033736
   3 N :    0.259689
   4 N :    0.275126
   5 H :    0.019384
   6 H :    0.041819
   7 H :    0.066154
   8 H :    0.041446
   9 H :    0.051471
  10 H :    0.010620
  11 H :    0.005458
  12 H :    0.006216

  Mayer bond orders larger than 0.100000
B(  0-C ,  1-N ) :   0.9049 B(  0-C ,  7-H ) :  -0.1124 B(  0-C , 10-H ) :   0.8972
B(  0-C , 11-H ) :   0.8407 B(  0-C , 12-H ) :   0.8266 B(  1-N ,  2-C ) :   1.0564
B(  1-N ,  3-N ) :   0.2282 B(  1-N ,  4-N ) :   0.1861 B(  1-N ,  7-H ) :   1.2881
B(  1-N , 10-H ) :   0.1609 B(  1-N , 11-H ) :   0.1465 B(  1-N , 12-H ) :   0.1583
B(  2-C ,  3-N ) :   0.9828 B(  2-C ,  4-N ) :   0.9974 B(  2-C ,  7-H ) :  -0.1886
B(  3-N ,  4-N ) :   0.1271 B(  3-N ,  8-H ) :   1.0180 B(  3-N ,  9-H ) :   1.1699
B(  4-N ,  5-H ) :   1.0358 B(  4-N ,  6-H ) :   1.1470 B(  5-H ,  6-H ) :  -0.1260
B(  8-H ,  9-H ) :  -0.1266

Dispersion correction           -0.002381218
FINAL SINGLE POINT ENERGY      -244.951726366804

DIPOLE MOMENT
-------------
                                X             Y             Z
Electronic contribution:     -0.75712      -2.42940       1.40871
Nuclear contribution   :      0.56176       1.95858      -1.15445
                        -----------------------------------------
Total Dipole Moment    :     -0.19536      -0.47082       0.25426
                        -----------------------------------------
Magnitude (a.u.)       :      0.56963
Magnitude (Debye)      :      1.44789

Rotational constants in cm-1:     0.309570     0.135399     0.096056
Rotational constants in MHz :  9280.673410  4059.171112  2879.675555

                             ****ORCA TERMINATED NORMALLY****
TOTAL RUN TIME: 0 days 0 hours 0 minutes 9 seconds 341 msec
