                         Program Version 5.0.0 -  RELEASE  -
|  1> !wB97X-D3 RIJCOSX def2-SVPD def2/J TightSCF CPCM(Water)
|  2> *xyz 0 1
|  3> C          0.28725       -1.71177       -2.52740
|  4> F          0.71050       -0.92751       -1.48177
|  5> H          0.92384       -1.55316       -3.37267
|  6> H         -0.71828       -1.45137       -2.78433
|  7> H          0.32655       -2.74158       -2.23955
|  8> *
|  9> %MaxCore 64000
| 10>
| 11> %pal nprocs 18
| 12> end
| 13>
| 14> %scf
| 15>   MaxIter 150
| 16> end
| 17>
| 18>
| 19>                          ****END OF INPUT****

CARTESIAN COORDINATES (ANGSTROEM)
---------------------------------
  C      0.287250   -1.711770   -2.527400
  F      0.710500   -0.927510   -1.481770
  H      0.923840   -1.553160   -3.372670
  H     -0.718280   -1.451370   -2.784330
  H      0.326550   -2.741580   -2.239550

 Total Charge           Charge          ....    0
 Multiplicity           Mult            ....    1
 Number of Electrons    NEL             ....   18
 Basis Dimension        Dim             ....   67

ORBITAL ENERGIES
----------------

  NO   OCC          E(Eh)            E(eV)
   0   2.0000     -24.791244      -674.6040
   1   2.0000     -10.350448      -281.6500
   2   2.0000      -1.301248       -35.4087
   3   2.0000      -0.808200       -21.9922
   4   2.0000      -0.600827       -16.3493
   5   2.0000      -0.592265       -16.1163
   6   2.0000      -0.592245       -16.1158
   7   2.0000      -0.449134       -12.2215
   8   2.0000      -0.449108       -12.2209
   9   0.0000       0.102561         2.7908
  10   0.0000       0.148416         4.0386
  11   0.0000       0.183923         5.0048
  12   0.0000       0.183937         5.0052
  13   0.0000       0.211507         5.7554

MULLIKEN ATOMIC CHARGES
-----------------------
   0 C :    0.734875
   1 F :   -0.523253
   2 H :   -0.070153
   3 H :   -0.071222
   4 H :   -0.070247
Sum of atomic charges:   -0.0000000

LOEWDIN ATOMIC CHARGES
----------------------
   0 C :    0.277902
   1 F :   -0.282997
   2 H :    0.001716
   3 H :    0.001666
   4 H :    0.001713

  Mayer bond orders larger than 0.100000
B(  0-C ,  1-F ) :   0.8100 B(  0-C ,  2-H ) :   0.9607 B(  0-C ,  3-H ) :   0.9609
B(  0-C ,  4-H ) :   0.9606

Dispersion correction           -0.000131477
FINAL SINGLE POINT ENERGY      -139.611235140998

DIPOLE MOMENT
-------------
                                X             Y             Z
Electronic contribution:      0.85381       1.58235       2.10941
Nuclear contribution   :     -1.12906      -2.09208      -2.78929
                        -----------------------------------------
Total Dipole Moment    :     -0.27524      -0.50973      -0.67988
                        -----------------------------------------
Magnitude (a.u.)       :      0.89320
Magnitude (Debye)      :      2.27034

Rotational constants in cm-1:     5.477712     0.869598     0.869597
Rotational constants in MHz : 164217.678885 26069.889584 26069.856821

                             ****ORCA TERMINATED NORMALLY****
TOTAL RUN TIME: 0 days 0 hours 0 minutes 3 seconds 475 msec
