                         Program Version 5.0.0 -  RELEASE  -
|  1> !wB97X-D3 RIJCOSX def2-SVPD def2/J TightSCF CPCM(Water)
|  2> *xyz 0 1
|  3> C          3.48828        1.60092       -1.52204
|  4> C          2.81029        0.42878       -1.01420
|  5> C          3.29098       -0.41802       -0.12908
|  6> N          2.51754       -1.43202        0.23936
|  7> N          4.53549       -0.28441        0.39580
|  8> H          5.04363        0.57189        0.22290
|  9> H          4.72335       -0.73327        1.28180
| 10> H          1.93479        0.10230       -1.40379
| 11> H          1.67464       -1.50562       -0.31610
| 12> H          2.92850       -2.21850        0.72549
| 13> H          2.85802        2.09943       -2.22855
| 14> H          4.39853        1.30677       -2.00144
| 15> H          3.70992        2.26379       -0.71187
| 16> *
| 17> %MaxCore 64000
| 18>
| 19> %pal nprocs 18
| 20> end
| 21>
| 22> %scf
| 23>   MaxIter 150
| 24> end
| 25>
| 26>
| 27>                          ****END OF INPUT****

CARTESIAN COORDINATES (ANGSTROEM)
---------------------------------
  C      3.488280    1.600920   -1.522040
  C      2.810290    0.428780   -1.014200
  C      3.290980   -0.418020   -0.129080
  N      2.517540   -1.432020    0.239360
  N      4.535490   -0.284410    0.395800
  H      5.043630    0.571890    0.222900
  H      4.723350   -0.733270    1.281800
  H      1.934790    0.102300   -1.403790
  H      1.674640   -1.505620   -0.316100
  H      2.928500   -2.218500    0.725490
  H      2.858020    2.099430   -2.228550
  H      4.398530    1.306770   -2.001440
  H      3.709920    2.263790   -0.711870

 Total Charge           Charge          ....    0
 Multiplicity           Mult            ....    1
 Number of Electrons    NEL             ....   40
 Basis Dimension        Dim             ....  164

ORBITAL ENERGIES
----------------

  NO   OCC          E(Eh)            E(eV)
   0   2.0000     -14.433333      -392.7510
   1   2.0000     -14.426341      -392.5607
   2   2.0000     -10.331533      -281.1353
   3   2.0000     -10.259127      -279.1650
   4   2.0000     -10.215234      -277.9706
   5   2.0000      -1.065733       -29.0001
   6   2.0000      -0.972317       -26.4581
   7   2.0000      -0.868781       -23.6407
   8   2.0000      -0.764939       -20.8150
   9   2.0000      -0.684096       -18.6152
  10   2.0000      -0.634629       -17.2691
  11   2.0000      -0.607445       -16.5294
  12   2.0000      -0.557172       -15.1614
  13   2.0000      -0.530782       -14.4433
  14   2.0000      -0.517389       -14.0789
  15   2.0000      -0.476389       -12.9632
  16   2.0000      -0.466188       -12.6856
  17   2.0000      -0.440698       -11.9920
  18   2.0000      -0.359641        -9.7863
  19   2.0000      -0.252473        -6.8701
  20   0.0000       0.096172         2.6170
  21   0.0000       0.123017         3.3475
  22   0.0000       0.134280         3.6539
  23   0.0000       0.148762         4.0480
  24   0.0000       0.165490         4.5032

MULLIKEN ATOMIC CHARGES
-----------------------
   0 C :    0.751244
   1 C :   -0.618980
   2 C :    0.459476
   3 N :   -0.001980
   4 N :   -0.134979
   5 H :    0.025840
   6 H :   -0.103635
   7 H :   -0.337937
   8 H :    0.107040
   9 H :   -0.107825
  10 H :   -0.020129
  11 H :   -0.020080
  12 H :    0.001946
Sum of atomic charges:   -0.0000000

LOEWDIN ATOMIC CHARGES
----------------------
   0 C :    0.074619
   1 C :   -0.093380
   2 C :   -0.248612
   3 N :    0.167669
   4 N :    0.200948
   5 H :   -0.006978
   6 H :    0.003615
   7 H :   -0.058391
   8 H :    0.008108
   9 H :    0.009512
  10 H :   -0.016356
  11 H :   -0.020753
  12 H :   -0.020003

  Mayer bond orders larger than 0.100000
B(  0-C ,  1-C ) :   1.2180 B(  0-C ,  7-H ) :   0.1372 B(  0-C , 10-H ) :   0.7717
B(  0-C , 11-H ) :   0.7090 B(  0-C , 12-H ) :   0.6826 B(  1-C ,  2-C ) :   1.6425
B(  1-C ,  3-N ) :   0.2662 B(  1-C ,  4-N ) :   0.1849 B(  1-C ,  5-H ) :  -0.1246
B(  1-C ,  7-H ) :   1.0023 B(  1-C , 10-H ) :   0.2885 B(  1-C , 11-H ) :   0.2280
B(  1-C , 12-H ) :   0.2890 B(  2-C ,  3-N ) :   1.0414 B(  2-C ,  4-N ) :   0.9897
B(  2-C ,  7-H ) :   0.2159 B(  3-N ,  8-H ) :   1.0048 B(  3-N ,  9-H ) :   1.1259
B(  4-N ,  5-H ) :   0.9964 B(  4-N ,  6-H ) :   1.1680 B(  5-H ,  6-H ) :  -0.1098
B(  7-H , 10-H ) :  -0.1271 B(  8-H ,  9-H ) :  -0.1194

Dispersion correction           -0.002384138
FINAL SINGLE POINT ENERGY      -228.401621048417

DIPOLE MOMENT
-------------
                                X             Y             Z
Electronic contribution:     -0.12322      -2.70937       1.98203
Nuclear contribution   :      0.45569       2.05070      -1.27895
                        -----------------------------------------
Total Dipole Moment    :      0.33248      -0.65868       0.70308
                        -----------------------------------------
Magnitude (a.u.)       :      1.01917
Magnitude (Debye)      :      2.59054

Rotational constants in cm-1:     0.314404     0.136412     0.097030
Rotational constants in MHz :  9425.600285  4089.541372  2908.875289

                             ****ORCA TERMINATED NORMALLY****
TOTAL RUN TIME: 0 days 0 hours 0 minutes 9 seconds 932 msec
