                         Program Version 5.0.0 -  RELEASE  -
|  1> !wB97X-D3 RIJCOSX def2-SVPD def2/J TightSCF CPCM(Water)
|  2> *xyz 0 1
|  3> C          3.48828        1.60092       -1.52204
|  4> N          2.81029        0.42878       -1.01420
|  5> C          3.29098       -0.41802       -0.12908
|  6> C          2.51754       -1.43202        0.23936
|  7> N          4.53549       -0.28441        0.39580
|  8> H          5.04363        0.57189        0.22290
|  9> H          4.72335       -0.73327        1.28180
| 10> H          1.93479        0.10230       -1.40379
| 11> H          1.67464       -1.50562       -0.31610
| 12> H          2.92850       -2.21850        0.72549
| 13> H          2.85802        2.09943       -2.22855
| 14> H          4.39853        1.30677       -2.00144
| 15> H          3.70992        2.26379       -0.71187
| 16> *
| 17> %MaxCore 64000
| 18>
| 19> %pal nprocs 18
| 20> end
| 21>
| 22> %scf
| 23>   MaxIter 150
| 24> end
| 25>
| 26>
| 27>                          ****END OF INPUT****

CARTESIAN COORDINATES (ANGSTROEM)
---------------------------------
  C      3.488280    1.600920   -1.522040
  N      2.810290    0.428780   -1.014200
  C      3.290980   -0.418020   -0.129080
  C      2.517540   -1.432020    0.239360
  N      4.535490   -0.284410    0.395800
  H      5.043630    0.571890    0.222900
  H      4.723350   -0.733270    1.281800
  H      1.934790    0.102300   -1.403790
  H      1.674640   -1.505620   -0.316100
  H      2.928500   -2.218500    0.725490
  H      2.858020    2.099430   -2.228550
  H      4.398530    1.306770   -2.001440
  H      3.709920    2.263790   -0.711870

 Total Charge           Charge          ....    0
 Multiplicity           Mult            ....    1
 Number of Electrons    NEL             ....   40
 Basis Dimension        Dim             ....  164

ORBITAL ENERGIES
----------------

  NO   OCC          E(Eh)            E(eV)
   0   2.0000     -14.437385      -392.8612
   1   2.0000     -14.436191      -392.8287
   2   2.0000     -10.344561      -281.4898
   3   2.0000     -10.309783      -280.5435
   4   2.0000     -10.206316      -277.7280
   5   2.0000      -1.080013       -29.3887
   6   2.0000      -0.988222       -26.8909
   7   2.0000      -0.858414       -23.3586
   8   2.0000      -0.773597       -21.0506
   9   2.0000      -0.700558       -19.0632
  10   2.0000      -0.634891       -17.2763
  11   2.0000      -0.593462       -16.1489
  12   2.0000      -0.573663       -15.6102
  13   2.0000      -0.551305       -15.0018
  14   2.0000      -0.493164       -13.4197
  15   2.0000      -0.488085       -13.2815
  16   2.0000      -0.481872       -13.1124
  17   2.0000      -0.468572       -12.7505
  18   2.0000      -0.353936        -9.6311
  19   2.0000      -0.259767        -7.0686
  20   0.0000       0.092477         2.5164
  21   0.0000       0.120254         3.2723
  22   0.0000       0.136467         3.7134
  23   0.0000       0.141675         3.8552
  24   0.0000       0.158297         4.3075

MULLIKEN ATOMIC CHARGES
-----------------------
   0 C :    0.968643
   1 N :   -0.529733
   2 C :    0.410393
   3 C :    0.404220
   4 N :   -0.051778
   5 H :   -0.106093
   6 H :    0.004750
   7 H :   -0.153750
   8 H :   -0.222304
   9 H :   -0.401377
  10 H :   -0.264432
  11 H :   -0.025342
  12 H :   -0.033197
Sum of atomic charges:    0.0000000

LOEWDIN ATOMIC CHARGES
----------------------
   0 C :    0.210056
   1 N :   -0.053641
   2 C :   -0.247099
   3 C :    0.093051
   4 N :    0.201852
   5 H :   -0.011836
   6 H :    0.014488
   7 H :    0.038387
   8 H :   -0.112379
   9 H :   -0.109149
  10 H :   -0.002414
  11 H :   -0.011204
  12 H :   -0.010110

  Mayer bond orders larger than 0.100000
B(  0-C ,  1-N ) :   0.9319 B(  0-C ,  7-H ) :  -0.1235 B(  0-C , 10-H ) :   0.8899
B(  0-C , 11-H ) :   0.8391 B(  0-C , 12-H ) :   0.8296 B(  1-N ,  2-C ) :   1.1392
B(  1-N ,  3-C ) :   0.2083 B(  1-N ,  4-N ) :   0.1043 B(  1-N ,  7-H ) :   1.2407
B(  1-N , 10-H ) :   0.1636 B(  1-N , 11-H ) :   0.1632 B(  1-N , 12-H ) :   0.1556
B(  2-C ,  3-C ) :   1.7403 B(  2-C ,  4-N ) :   0.9791 B(  2-C ,  7-H ) :  -0.1329
B(  2-C ,  8-H ) :   0.2408 B(  2-C ,  9-H ) :   0.2245 B(  3-C ,  4-N ) :   0.2080
B(  3-C ,  8-H ) :   0.8029 B(  3-C ,  9-H ) :   0.7583 B(  4-N ,  5-H ) :   1.0563
B(  4-N ,  6-H ) :   1.1001 B(  5-H ,  6-H ) :  -0.1213

Dispersion correction           -0.002394858
FINAL SINGLE POINT ENERGY      -228.388123807983

DIPOLE MOMENT
-------------
                                X             Y             Z
Electronic contribution:      0.32510      -0.35438       0.46885
Nuclear contribution   :      0.39640       1.67380      -1.02505
                        -----------------------------------------
Total Dipole Moment    :      0.72149       1.31942      -0.55620
                        -----------------------------------------
Magnitude (a.u.)       :      1.60336
Magnitude (Debye)      :      4.07542

Rotational constants in cm-1:     0.316500     0.141146     0.099607
Rotational constants in MHz :  9488.425850  4231.454938  2986.155520

                             ****ORCA TERMINATED NORMALLY****
TOTAL RUN TIME: 0 days 0 hours 0 minutes 9 seconds 858 msec
