                         Program Version 5.0.0 -  RELEASE  -
|  1> !wB97X-D3 RIJCOSX def2-SVPD def2/J TightSCF CPCM(Water)
|  2> *xyz 0 1
|  3> C          3.48828        1.60092       -1.52204
|  4> N          2.81029        0.42878       -1.01420
|  5> C          3.29098       -0.41802       -0.12908
|  6> N          2.51754       -1.43202        0.23936
|  7> C          4.53549       -0.28441        0.39580
|  8> H          5.04363        0.57189        0.22290
|  9> H          4.72335       -0.73327        1.28180
| 10> H          1.93479        0.10230       -1.40379
| 11> H          1.67464       -1.50562       -0.31610
| 12> H          2.92850       -2.21850        0.72549
| 13> H          2.85802        2.09943       -2.22855
| 14> H          4.39853        1.30677       -2.00144
| 15> H          3.70992        2.26379       -0.71187
| 16> *
| 17> %MaxCore 64000
| 18>
| 19> %pal nprocs 18
| 20> end
| 21>
| 22> %scf
| 23>   MaxIter 150
| 24> end
| 25>
| 26>
| 27>                          ****END OF INPUT****

CARTESIAN COORDINATES (ANGSTROEM)
---------------------------------
  C      3.488280    1.600920   -1.522040
  N      2.810290    0.428780   -1.014200
  C      3.290980   -0.418020   -0.129080
  N      2.517540   -1.432020    0.239360
  C      4.535490   -0.284410    0.395800
  H      5.043630    0.571890    0.222900
  H      4.723350   -0.733270    1.281800
  H      1.934790    0.102300   -1.403790
  H      1.674640   -1.505620   -0.316100
  H      2.928500   -2.218500    0.725490
  H      2.858020    2.099430   -2.228550
  H      4.398530    1.306770   -2.001440
  H      3.709920    2.263790   -0.711870

 Total Charge           Charge          ....    0
 Multiplicity           Mult            ....    1
 Number of Electrons    NEL             ....   40
 Basis Dimension        Dim             ....  164

ORBITAL ENERGIES
----------------

  NO   OCC          E(Eh)            E(eV)
   0   2.0000     -14.443341      -393.0233
   1   2.0000     -14.435266      -392.8036
   2   2.0000     -10.346970      -281.5554
   3   2.0000     -10.310325      -280.5582
   4   2.0000     -10.210417      -277.8396
   5   2.0000      -1.088696       -29.6249
   6   2.0000      -0.992550       -27.0086
   7   2.0000      -0.828888       -22.5552
   8   2.0000      -0.810311       -22.0497
   9   2.0000      -0.670164       -18.2361
  10   2.0000      -0.644193       -17.5294
  11   2.0000      -0.629497       -17.1295
  12   2.0000      -0.557342       -15.1660
  13   2.0000      -0.546350       -14.8669
  14   2.0000      -0.512448       -13.9444
  15   2.0000      -0.485456       -13.2099
  16   2.0000      -0.472171       -12.8484
  17   2.0000      -0.469780       -12.7834
  18   2.0000      -0.344485        -9.3739
  19   2.0000      -0.267164        -7.2699
  20   0.0000       0.095138         2.5888
  21   0.0000       0.119828         3.2607
  22   0.0000       0.128415         3.4944
  23   0.0000       0.141694         3.8557
  24   0.0000       0.160434         4.3656

MULLIKEN ATOMIC CHARGES
-----------------------
   0 C :    0.957408
   1 N :   -0.556944
   2 C :    0.318108
   3 N :   -0.031639
   4 C :    0.449779
   5 H :   -0.221611
   6 H :   -0.395104
   7 H :   -0.242460
   8 H :   -0.029422
   9 H :   -0.009466
  10 H :   -0.285474
  11 H :    0.026741
  12 H :    0.020084
Sum of atomic charges:    0.0000000

LOEWDIN ATOMIC CHARGES
----------------------
   0 C :    0.212197
   1 N :   -0.050449
   2 C :   -0.255400
   3 N :    0.187072
   4 C :    0.114614
   5 H :   -0.138756
   6 H :   -0.119973
   7 H :    0.037075
   8 H :    0.008166
   9 H :    0.024221
  10 H :   -0.001785
  11 H :   -0.009499
  12 H :   -0.007484

  Mayer bond orders larger than 0.100000
B(  0-C ,  1-N ) :   0.9275 B(  0-C ,  7-H ) :  -0.1274 B(  0-C , 10-H ) :   0.9128
B(  0-C , 11-H ) :   0.8331 B(  0-C , 12-H ) :   0.8216 B(  1-N ,  2-C ) :   1.0896
B(  1-N ,  3-N ) :   0.1439 B(  1-N ,  4-C ) :   0.2883 B(  1-N ,  7-H ) :   1.3417
B(  1-N , 10-H ) :   0.1554 B(  1-N , 11-H ) :   0.1330 B(  1-N , 12-H ) :   0.1439
B(  2-C ,  3-N ) :   0.9807 B(  2-C ,  4-C ) :   1.8253 B(  2-C ,  5-H ) :   0.3088
B(  2-C ,  6-H ) :   0.2825 B(  2-C ,  7-H ) :  -0.1876 B(  3-N ,  4-C ) :   0.2341
B(  3-N ,  8-H ) :   1.0615 B(  3-N ,  9-H ) :   1.1376 B(  4-C ,  5-H ) :   0.7258
B(  4-C ,  6-H ) :   0.7454 B(  5-H ,  6-H ) :   0.2268 B(  8-H ,  9-H ) :  -0.1199

Dispersion correction           -0.002378018
FINAL SINGLE POINT ENERGY      -228.391470905668

DIPOLE MOMENT
-------------
                                X             Y             Z
Electronic contribution:     -2.35274      -1.95389       0.16699
Nuclear contribution   :      0.80512       1.90624      -0.99336
                        -----------------------------------------
Total Dipole Moment    :     -1.54761      -0.04765      -0.82637
                        -----------------------------------------
Magnitude (a.u.)       :      1.75507
Magnitude (Debye)      :      4.46103

Rotational constants in cm-1:     0.332728     0.136065     0.098521
Rotational constants in MHz :  9974.927067  4079.126590  2953.598000

                             ****ORCA TERMINATED NORMALLY****
TOTAL RUN TIME: 0 days 0 hours 0 minutes 9 seconds 292 msec
