                         Program Version 5.0.0 -  RELEASE  -
|  1> !wB97X-D3 RIJCOSX def2-SVPD def2/J TightSCF CPCM(Water) xyzfile
|  2>
|  3> *xyzfile 0 1 D1.xyz
|  4>
|  5> %MaxCore 64000
|  6>
|  7> %pal nprocs 18
|  8> end
|  9>
| 10> %scf
| 11>   MaxIter 150
| 12> end
| 13>
| 14>
| 15>                          ****END OF INPUT****

CARTESIAN COORDINATES (ANGSTROEM)
---------------------------------
  C      3.488276    1.600919   -1.522040
  C      4.342970    1.313419   -2.756826
  C      2.810285    0.428783   -1.014196
  H      5.132033    0.604994   -2.484466
  C      3.535896    0.749253   -3.924604
  H      4.841247    2.242136   -3.054083
  H      2.991617   -0.132199   -3.574137
  H      4.225505    0.392784   -4.695962
  C      2.564776    1.750890   -4.544523
  H      1.918749    2.171679   -3.769419
  C      1.686235    1.161657   -5.650111
  H      3.132494    2.594775   -4.951604
  C      0.839616   -0.037582   -5.220473
  H      2.323886    0.866395   -6.490796
  H      1.029518    1.951850   -6.029329
  C     -0.151019    0.254955   -4.094256
  H      1.499442   -0.857141   -4.922958
  H      0.290097   -0.410143   -6.091131
  H      0.328265    0.833022   -3.299125
  C     -0.721843   -0.999513   -3.439309
  H     -0.957367    0.884951   -4.485450
  H     -1.083403   -1.697555   -4.205656
  H     -1.581056   -0.723848   -2.820490
  C      0.287250   -1.711771   -2.527405
  H      1.131780   -2.067380   -3.159396
  H     -0.204137   -2.637326   -2.170480
  F      0.710505   -0.927506   -1.481767
  H      2.714548    2.331455   -1.760302
  H      4.090991    2.063151   -0.733382
  C      3.290978   -0.418021   -0.129083
  N      2.517536   -1.432017    0.239360
  N      4.535490   -0.284410    0.395800
  H      5.043627    0.571888    0.222899
  H      4.723346   -0.733273    1.281800
  H      1.934787    0.102305   -1.403788
  H      1.674638   -1.505616   -0.316095
  H      2.928503   -2.218502    0.725494

 Total Charge           Charge          ....    0
 Multiplicity           Mult            ....    1
 Number of Electrons    NEL             ....  112
 Basis Dimension        Dim             ....  467

ORBITAL ENERGIES
----------------

  NO   OCC          E(Eh)            E(eV)
   0   2.0000     -24.815490      -675.2638
   1   2.0000     -14.426913      -392.5763
   2   2.0000     -14.411870      -392.1669
   3   2.0000     -10.368347      -282.1371
   4   2.0000     -10.323844      -280.9261
   5   2.0000     -10.288760      -279.9714
   6   2.0000     -10.278586      -279.6946
   7   2.0000     -10.275460      -279.6095
   8   2.0000     -10.275039      -279.5980
   9   2.0000     -10.271489      -279.5014
  10   2.0000     -10.268719      -279.4261
  11   2.0000     -10.267145      -279.3832
  12   2.0000     -10.261439      -279.2280
  13   2.0000     -10.195079      -277.4222
  14   2.0000      -1.332600       -36.2619
  15   2.0000      -1.057944       -28.7881
  16   2.0000      -0.965605       -26.2755
  17   2.0000      -0.925701       -25.1896
  18   2.0000      -0.906469       -24.6663
  19   2.0000      -0.875667       -23.8281
  20   2.0000      -0.841285       -22.8925
  21   2.0000      -0.800792       -21.7907
  22   2.0000      -0.774766       -21.0825
  23   2.0000      -0.741467       -20.1763
  24   2.0000      -0.705891       -19.2083
  25   2.0000      -0.696569       -18.9546
  26   2.0000      -0.670510       -18.2455
  27   2.0000      -0.651947       -17.7404
  28   2.0000      -0.640038       -17.4163
  29   2.0000      -0.622401       -16.9364
  30   2.0000      -0.616531       -16.7767
  31   2.0000      -0.596396       -16.2288
  32   2.0000      -0.589159       -16.0318
  33   2.0000      -0.566797       -15.4233
  34   2.0000      -0.556680       -15.1480
  35   2.0000      -0.545108       -14.8332
  36   2.0000      -0.534269       -14.5382
  37   2.0000      -0.525003       -14.2860
  38   2.0000      -0.513768       -13.9803
  39   2.0000      -0.502294       -13.6681
  40   2.0000      -0.495240       -13.4762
  41   2.0000      -0.483659       -13.1610
  42   2.0000      -0.470973       -12.8158
  43   2.0000      -0.461968       -12.5708
  44   2.0000      -0.453176       -12.3315
  45   2.0000      -0.449660       -12.2359
  46   2.0000      -0.428870       -11.6701
  47   2.0000      -0.425478       -11.5778
  48   2.0000      -0.415973       -11.3192
  49   2.0000      -0.410801       -11.1785
  50   2.0000      -0.403441       -10.9782
  51   2.0000      -0.392491       -10.6802
  52   2.0000      -0.388993       -10.5850
  53   2.0000      -0.385117       -10.4796
  54   2.0000      -0.352113        -9.5815
  55   2.0000      -0.244322        -6.6483
  56   0.0000       0.094330         2.5668
  57   0.0000       0.103629         2.8199
  58   0.0000       0.107051         2.9130
  59   0.0000       0.109942         2.9917
  60   0.0000       0.124781         3.3955

MULLIKEN ATOMIC CHARGES
-----------------------
   0 C :    0.403866
   1 C :    0.476451
   2 C :    0.292458
   3 H :   -0.083764
   4 C :    0.217018
   5 H :   -0.067222
   6 H :   -0.348502
   7 H :   -0.094355
   8 C :   -0.043982
   9 H :    0.016580
  10 C :    0.601285
  11 H :   -0.217526
  12 C :   -0.018182
  13 H :   -0.005646
  14 H :   -0.107779
  15 C :    0.184186
  16 H :   -0.053877
  17 H :   -0.191290
  18 H :   -0.297746
  19 C :    0.193778
  20 H :   -0.095513
  21 H :   -0.011531
  22 H :   -0.005512
  23 C :    0.786569
  24 H :   -0.024874
  25 H :   -0.154468
  26 F :   -0.607504
  27 H :    0.020563
  28 H :   -0.175958
  29 C :    0.310609
  30 N :    0.215837
  31 N :   -0.063476
  32 H :    0.004811
  33 H :   -0.164092
  34 H :   -0.623916
  35 H :   -0.104918
  36 H :   -0.162381
Sum of atomic charges:    0.0000000

LOEWDIN ATOMIC CHARGES
----------------------
   0 C :   -0.053603
   1 C :   -0.031986
   2 C :   -0.033294
   3 H :    0.017136
   4 C :   -0.031643
   5 H :    0.017407
   6 H :   -0.002988
   7 H :    0.026409
   8 C :   -0.034968
   9 H :   -0.000005
  10 C :   -0.033230
  11 H :    0.025685
  12 C :   -0.033595
  13 H :    0.023378
  14 H :    0.023165
  15 C :   -0.025483
  16 H :    0.000184
  17 H :    0.026393
  18 H :    0.005082
  19 C :   -0.008585
  20 H :    0.031299
  21 H :    0.042162
  22 H :    0.030580
  23 C :    0.171130
  24 H :    0.041385
  25 H :    0.046552
  26 F :   -0.233100
  27 H :    0.003755
  28 H :    0.008273
  29 C :   -0.213896
  30 N :    0.189391
  31 N :    0.197889
  32 H :   -0.014998
  33 H :   -0.000276
  34 H :   -0.112802
  35 H :   -0.070971
  36 H :    0.008169

  Mayer bond orders larger than 0.100000
B(  0-C ,  1-C ) :   1.0662 B(  0-C ,  2-C ) :   1.0482 B(  0-C ,  3-H ) :   0.1472
B(  0-C ,  5-H ) :   0.1871 B(  0-C , 27-H ) :   0.7953 B(  0-C , 28-H ) :   0.6834
B(  0-C , 34-H ) :   0.5230 B(  1-C ,  3-H ) :   0.7455 B(  1-C ,  4-C ) :   1.2446
B(  1-C ,  5-H ) :   0.7828 B(  1-C ,  6-H ) :   0.1047 B(  2-C , 27-H ) :   0.2604
B(  2-C , 28-H ) :   0.3103 B(  2-C , 29-C ) :   1.8329 B(  2-C , 30-N ) :   0.2833
B(  2-C , 31-N ) :   0.1955 B(  2-C , 32-H ) :  -0.1877 B(  2-C , 34-H ) :  -0.2329
B(  3-H ,  4-C ) :   0.2219 B(  4-C ,  5-H ) :   0.1282 B(  4-C ,  6-H ) :   0.8649
B(  4-C ,  7-H ) :   0.7633 B(  4-C ,  8-C ) :   1.1734 B(  4-C , 11-H ) :   0.1585
B(  6-H ,  8-C ) :   0.1547 B(  7-H ,  8-C ) :   0.1512 B(  8-C ,  9-H ) :   0.8486
B(  8-C , 10-C ) :   1.1576 B(  8-C , 11-H ) :   0.9467 B(  8-C , 13-H ) :   0.1162
B(  8-C , 14-H ) :   0.2828 B( 10-C , 12-C ) :   1.1871 B( 10-C , 13-H ) :   0.7156
B( 10-C , 14-H ) :   0.7040 B( 12-C , 13-H ) :   0.2281 B( 12-C , 14-H ) :   0.1183
B( 12-C , 15-C ) :   1.1863 B( 12-C , 16-H ) :   0.8973 B( 12-C , 17-H ) :   0.8938
B( 12-C , 18-H ) :   0.1444 B( 12-C , 20-H ) :   0.1874 B( 13-H , 14-H ) :  -0.1191
B( 15-C , 17-H ) :   0.2306 B( 15-C , 18-H ) :   0.8682 B( 15-C , 19-C ) :   1.1719
B( 15-C , 20-H ) :   0.8387 B( 15-C , 21-H ) :   0.1113 B( 15-C , 22-H ) :   0.2059
B( 18-H , 19-C ) :   0.1300 B( 19-C , 21-H ) :   0.8123 B( 19-C , 22-H ) :   0.7626
B( 19-C , 23-C ) :   1.2128 B( 19-C , 24-H ) :   0.1211 B( 19-C , 25-H ) :   0.1327
B( 19-C , 26-F ) :   0.1032 B( 21-H , 23-C ) :   0.1497 B( 22-H , 23-C ) :   0.1432
B( 23-C , 24-H ) :   0.8303 B( 23-C , 25-H ) :   0.9407 B( 23-C , 26-F ) :   0.5831
B( 24-H , 26-F ) :   0.1324 B( 26-F , 35-H ) :   0.1089 B( 27-H , 34-H ) :  -0.1589
B( 28-H , 34-H ) :   0.1039 B( 29-C , 30-N ) :   0.8166 B( 29-C , 31-N ) :   0.9247
B( 29-C , 34-H ) :   0.5295 B( 30-N , 35-H ) :   1.0483 B( 30-N , 36-H ) :   1.1952
B( 31-N , 32-H ) :   0.9907 B( 31-N , 33-H ) :   1.2220 B( 32-H , 33-H ) :  -0.1347
B( 35-H , 36-H ) :  -0.1460

Dispersion correction           -0.017675501
FINAL SINGLE POINT ENERGY      -641.751866237745

DIPOLE MOMENT
-------------
                                X             Y             Z
Electronic contribution:     -1.59441      -5.18268      10.62507
Nuclear contribution   :      1.15699       3.94991     -10.89335
                        -----------------------------------------
Total Dipole Moment    :     -0.43743      -1.23277      -0.26828
                        -----------------------------------------
Magnitude (a.u.)       :      1.33531
Magnitude (Debye)      :      3.39408

Rotational constants in cm-1:     0.026548     0.016177     0.010851
Rotational constants in MHz :   795.884848   484.988695   325.313537

                             ****ORCA TERMINATED NORMALLY****
TOTAL RUN TIME: 0 days 0 hours 1 minutes 23 seconds 835 msec
