                         Program Version 5.0.0 -  RELEASE  -
|  1> !BLYP D3BJ RIJCOSX def2-TZVP def2/J TightSCF
|  2> *xyz -1 1
|  3> C          3.80351        1.37472       -3.26081
|  4> C          3.93993        0.32036       -4.36773
|  5> H          4.10504       -0.65508       -3.90773
|  6> H          3.02280        0.28052       -4.95712
|  7> C          5.10585        0.66802       -5.30546
|  8> O          4.80913        1.15019       -6.41436
|  9> O          6.26737        0.56500       -4.81948
| 10> H          3.64113        2.33595       -3.70189
| 11> H          4.69995        1.39701       -2.67703
| 12> H          2.97435        1.12625       -2.63180
| 13> *
| 14>
| 15> %MaxCore 64000
| 16>
| 17> %pal nprocs 4
| 18> end
| 19>
| 20> %scf
| 21>   MaxIter 150
| 22> end
| 23>
| 24>
| 25>                          ****END OF INPUT****

CARTESIAN COORDINATES (ANGSTROEM)
---------------------------------
  C      3.803510    1.374720   -3.260810
  C      3.939930    0.320360   -4.367730
  H      4.105040   -0.655080   -3.907730
  H      3.022800    0.280520   -4.957120
  C      5.105850    0.668020   -5.305460
  O      4.809130    1.150190   -6.414360
  O      6.267370    0.565000   -4.819480
  H      3.641130    2.335950   -3.701890
  H      4.699950    1.397010   -2.677030
  H      2.974350    1.126250   -2.631800

 Total Charge           Charge          ....   -1
 Multiplicity           Mult            ....    1
 Number of Electrons    NEL             ....   40
 Basis Dimension        Dim             ....  185

ORBITAL ENERGIES
----------------

  NO   OCC          E(Eh)            E(eV)
   0   2.0000     -18.497874      -503.3527
   1   2.0000     -18.494738      -503.2674
   2   2.0000      -9.769661      -265.8460
   3   2.0000      -9.735496      -264.9163
   4   2.0000      -9.720595      -264.5108
   5   2.0000      -0.714544       -19.4437
   6   2.0000      -0.628341       -17.0980
   7   2.0000      -0.519897       -14.1471
   8   2.0000      -0.396108       -10.7786
   9   2.0000      -0.255252        -6.9458
  10   2.0000      -0.232995        -6.3401
  11   2.0000      -0.197684        -5.3793
  12   2.0000      -0.170889        -4.6501
  13   2.0000      -0.155091        -4.2203
  14   2.0000      -0.147854        -4.0233
  15   2.0000      -0.118811        -3.2330
  16   2.0000      -0.107499        -2.9252
  17   2.0000       0.002823         0.0768
  18   2.0000       0.017387         0.4731
  19   2.0000       0.031896         0.8679
  20   0.0000       0.166674         4.5354
  21   0.0000       0.206218         5.6115
  22   0.0000       0.218708         5.9514
  23   0.0000       0.228892         6.2285
  24   0.0000       0.239252         6.5104

MULLIKEN ATOMIC CHARGES
-----------------------
   0 C :   -0.293619
   1 C :   -0.079881
   2 H :    0.000237
   3 H :    0.001608
   4 C :    0.146249
   5 O :   -0.463927
   6 O :   -0.495388
   7 H :    0.074606
   8 H :    0.072224
   9 H :    0.037891
Sum of atomic charges:   -1.0000000

LOEWDIN ATOMIC CHARGES
----------------------
   0 C :   -0.319254
   1 C :   -0.291045
   2 H :    0.109421
   3 H :    0.109424
   4 C :   -0.726547
   5 O :   -0.076409
   6 O :   -0.105932
   7 H :    0.105474
   8 H :    0.105751
   9 H :    0.089117

  Mayer bond orders larger than 0.100000
B(  0-C ,  1-C ) :   0.9483 B(  0-C ,  7-H ) :   0.9844 B(  0-C ,  8-H ) :   0.9697
B(  0-C ,  9-H ) :   0.9643 B(  1-C ,  2-H ) :   0.9356 B(  1-C ,  3-H ) :   0.9360
B(  1-C ,  4-C ) :   0.9013 B(  4-C ,  5-O ) :   1.9331 B(  4-C ,  6-O ) :   1.8781

Dispersion correction           -0.013615532
FINAL SINGLE POINT ENERGY      -267.877366602118

DIPOLE MOMENT
-------------
                                X             Y             Z
Electronic contribution:      3.86967      -0.45477      -4.62140
Nuclear contribution   :     -5.15232       0.33441       5.87398
                        -----------------------------------------
Total Dipole Moment    :     -1.28265      -0.12036       1.25258
                        -----------------------------------------
Magnitude (a.u.)       :      1.79684
Magnitude (Debye)      :      4.56721

Rotational constants in cm-1:     0.295355     0.137164     0.110193
Rotational constants in MHz :  8854.523706  4112.077980  3303.490503

                             ****ORCA TERMINATED NORMALLY****
TOTAL RUN TIME: 0 days 0 hours 0 minutes 7 seconds 817 msec
