                         Program Version 5.0.0 -  RELEASE  -
|  1> !BLYP D3BJ RIJCOSX def2-TZVP def2/J TightSCF
|  2> *xyz 1 1
|  3> C          3.90595        2.81985       -3.75292
|  4> N          5.29562        3.13151       -4.10533
|  5> C          3.80351        1.37472       -3.26081
|  6> C          5.70862        3.46889       -5.32419
|  7> N          6.90470        3.03895       -5.71708
|  8> N          4.98188        4.29357       -6.09746
|  9> H          5.00055        4.10131       -7.08776
| 10> H          4.08469        4.59690       -5.73965
| 11> H          5.96336        2.52611       -3.64239
| 12> H          7.04716        2.06686       -5.47360
| 13> H          7.19815        3.30799       -6.64523
| 14> H          3.28202        2.94919       -4.64026
| 15> H          3.56525        3.51457       -2.98252
| 16> H          4.14157        0.71142       -4.02935
| 17> H          2.78528        1.15146       -3.01944
| 18> H          4.41205        1.25066       -2.38949
| 19> *
| 20>
| 21> %MaxCore 64000
| 22>
| 23> %pal nprocs 4
| 24> end
| 25>
| 26> %scf
| 27>   MaxIter 150
| 28> end
| 29>
| 30>
| 31>                          ****END OF INPUT****

CARTESIAN COORDINATES (ANGSTROEM)
---------------------------------
  C      3.905950    2.819850   -3.752920
  N      5.295620    3.131510   -4.105330
  C      3.803510    1.374720   -3.260810
  C      5.708620    3.468890   -5.324190
  N      6.904700    3.038950   -5.717080
  N      4.981880    4.293570   -6.097460
  H      5.000550    4.101310   -7.087760
  H      4.084690    4.596900   -5.739650
  H      5.963360    2.526110   -3.642390
  H      7.047160    2.066860   -5.473600
  H      7.198150    3.307990   -6.645230
  H      3.282020    2.949190   -4.640260
  H      3.565250    3.514570   -2.982520
  H      4.141570    0.711420   -4.029350
  H      2.785280    1.151460   -3.019440
  H      4.412050    1.250660   -2.389490

 Total Charge           Charge          ....    1
 Multiplicity           Mult            ....    1
 Number of Electrons    NEL             ....   48
 Basis Dimension        Dim             ....  246

ORBITAL ENERGIES
----------------

  NO   OCC          E(Eh)            E(eV)
   0   2.0000     -14.230409      -387.2291
   1   2.0000     -14.229995      -387.2179
   2   2.0000     -14.229093      -387.1933
   3   2.0000     -10.229376      -278.3555
   4   2.0000     -10.113835      -275.2114
   5   2.0000     -10.048315      -273.4285
   6   2.0000      -1.127329       -30.6762
   7   2.0000      -1.022926       -27.8352
   8   2.0000      -1.015990       -27.6465
   9   2.0000      -0.858394       -23.3581
  10   2.0000      -0.769133       -20.9292
  11   2.0000      -0.744103       -20.2481
  12   2.0000      -0.717353       -19.5202
  13   2.0000      -0.687375       -18.7044
  14   2.0000      -0.646811       -17.6006
  15   2.0000      -0.635670       -17.2975
  16   2.0000      -0.597687       -16.2639
  17   2.0000      -0.577166       -15.7055
  18   2.0000      -0.544072       -14.8050
  19   2.0000      -0.512364       -13.9421
  20   2.0000      -0.491508       -13.3746
  21   2.0000      -0.477042       -12.9810
  22   2.0000      -0.444251       -12.0887
  23   2.0000      -0.417915       -11.3721
  24   0.0000      -0.220013        -5.9869
  25   0.0000      -0.178103        -4.8464
  26   0.0000      -0.143743        -3.9114
  27   0.0000      -0.130195        -3.5428
  28   0.0000      -0.112648        -3.0653

MULLIKEN ATOMIC CHARGES
-----------------------
   0 C :   -0.076115
   1 N :   -0.187767
   2 C :   -0.349332
   3 C :    0.349751
   4 N :   -0.320837
   5 N :   -0.341751
   6 H :    0.259729
   7 H :    0.265577
   8 H :    0.221898
   9 H :    0.257313
  10 H :    0.255796
  11 H :    0.103966
  12 H :    0.155203
  13 H :    0.116685
  14 H :    0.151103
  15 H :    0.138782
Sum of atomic charges:    1.0000000

LOEWDIN ATOMIC CHARGES
----------------------
   0 C :   -0.273029
   1 N :    0.181495
   2 C :   -0.274564
   3 C :   -0.428145
   4 N :    0.073803
   5 N :    0.076522
   6 H :    0.192413
   7 H :    0.192668
   8 H :    0.207015
   9 H :    0.196822
  10 H :    0.193755
  11 H :    0.133979
  12 H :    0.143776
  13 H :    0.119760
  14 H :    0.137537
  15 H :    0.126192

  Mayer bond orders larger than 0.100000
B(  0-C ,  1-N ) :   0.8634 B(  0-C ,  2-C ) :   0.9555 B(  0-C , 11-H ) :   0.9667
B(  0-C , 12-H ) :   0.9454 B(  1-N ,  3-C ) :   1.3827 B(  1-N ,  8-H ) :   0.9090
B(  2-C , 13-H ) :   0.9675 B(  2-C , 14-H ) :   0.9616 B(  2-C , 15-H ) :   0.9645
B(  3-C ,  4-N ) :   1.2996 B(  3-C ,  5-N ) :   1.3040 B(  4-N ,  9-H ) :   0.8988
B(  4-N , 10-H ) :   0.9039 B(  5-N ,  6-H ) :   0.8968 B(  5-N ,  7-H ) :   0.9026

Dispersion correction           -0.024721872
FINAL SINGLE POINT ENERGY      -284.398064689823

DIPOLE MOMENT
-------------
                                X             Y             Z
Electronic contribution:      3.51655       3.41473      -2.64591
Nuclear contribution   :     -3.31456      -3.64300       1.57303
                        -----------------------------------------
Total Dipole Moment    :      0.20198      -0.22827      -1.07287
                        -----------------------------------------
Magnitude (a.u.)       :      1.11533
Magnitude (Debye)      :      2.83494

Rotational constants in cm-1:     0.229487     0.071000     0.059428
Rotational constants in MHz :  6879.840828  2128.520047  1781.605314

                             ****ORCA TERMINATED NORMALLY****
TOTAL RUN TIME: 0 days 0 hours 0 minutes 10 seconds 909 msec
