                         Program Version 5.0.0 -  RELEASE  -
|  1> !BLYP D3BJ RIJCOSX def2-TZVP def2/J TightSCF
|  2> *xyz 0 1
|  3> C          3.80351        1.37472       -3.26081
|  4> C          3.93993        0.32036       -4.36773
|  5> H          4.10504       -0.65508       -3.90773
|  6> H          3.02280        0.28052       -4.95712
|  7> C          5.10585        0.66802       -5.30546
|  8> F          4.80913        1.15019       -6.41436
|  9> O          6.26737        0.56500       -4.81948
| 10> H          3.64113        2.33595       -3.70189
| 11> H          4.69995        1.39701       -2.67703
| 12> H          2.97435        1.12625       -2.63180
| 13> *
| 14>
| 15> %MaxCore 64000
| 16>
| 17> %pal nprocs 4
| 18> end
| 19>
| 20> %scf
| 21>   MaxIter 150
| 22> end
| 23>
| 24>
| 25>                          ****END OF INPUT****

CARTESIAN COORDINATES (ANGSTROEM)
---------------------------------
  C      3.803510    1.374720   -3.260810
  C      3.939930    0.320360   -4.367730
  H      4.105040   -0.655080   -3.907730
  H      3.022800    0.280520   -4.957120
  C      5.105850    0.668020   -5.305460
  F      4.809130    1.150190   -6.414360
  O      6.267370    0.565000   -4.819480
  H      3.641130    2.335950   -3.701890
  H      4.699950    1.397010   -2.677030
  H      2.974350    1.126250   -2.631800

 Total Charge           Charge          ....    0
 Multiplicity           Mult            ....    1
 Number of Electrons    NEL             ....   40
 Basis Dimension        Dim             ....  185

ORBITAL ENERGIES
----------------

  NO   OCC          E(Eh)            E(eV)
   0   2.0000     -24.355460      -662.7458
   1   2.0000     -18.773064      -510.8410
   2   2.0000     -10.073306      -274.1086
   3   2.0000      -9.933125      -270.2941
   4   2.0000      -9.909673      -269.6559
   5   2.0000      -1.214903       -33.0592
   6   2.0000      -0.932186       -25.3661
   7   2.0000      -0.719832       -19.5876
   8   2.0000      -0.617093       -16.7919
   9   2.0000      -0.573324       -15.6009
  10   2.0000      -0.487910       -13.2767
  11   2.0000      -0.472398       -12.8546
  12   2.0000      -0.444804       -12.1037
  13   2.0000      -0.411262       -11.1910
  14   2.0000      -0.381072       -10.3695
  15   2.0000      -0.350232        -9.5303
  16   2.0000      -0.329916        -8.9775
  17   2.0000      -0.325655        -8.8615
  18   2.0000      -0.300180        -8.1683
  19   2.0000      -0.236942        -6.4475
  20   0.0000      -0.063303        -1.7226
  21   0.0000       0.012681         0.3451
  22   0.0000       0.052431         1.4267
  23   0.0000       0.064826         1.7640
  24   0.0000       0.076616         2.0848

MULLIKEN ATOMIC CHARGES
-----------------------
   0 C :   -0.316745
   1 C :   -0.168160
   2 H :    0.106696
   3 H :    0.084116
   4 C :    0.336795
   5 F :   -0.070121
   6 O :   -0.308236
   7 H :    0.103224
   8 H :    0.124173
   9 H :    0.108258
Sum of atomic charges:    0.0000000

LOEWDIN ATOMIC CHARGES
----------------------
   0 C :   -0.280072
   1 C :   -0.255100
   2 H :    0.147310
   3 H :    0.133291
   4 C :   -0.528169
   5 F :    0.356264
   6 O :    0.070302
   7 H :    0.116802
   8 H :    0.122113
   9 H :    0.117260

  Mayer bond orders larger than 0.100000
B(  0-C ,  1-C ) :   0.9496 B(  0-C ,  7-H ) :   0.9733 B(  0-C ,  8-H ) :   0.9709
B(  0-C ,  9-H ) :   0.9676 B(  1-C ,  2-H ) :   0.9476 B(  1-C ,  3-H ) :   0.9478
B(  1-C ,  4-C ) :   0.9743 B(  4-C ,  5-F ) :   1.1823 B(  4-C ,  6-O ) :   2.0615

Dispersion correction           -0.012893687
FINAL SINGLE POINT ENERGY      -292.448939522728

DIPOLE MOMENT
-------------
                                X             Y             Z
Electronic contribution:      4.05534      -0.00069      -7.45663
Nuclear contribution   :     -5.17129      -0.01923       7.59895
                        -----------------------------------------
Total Dipole Moment    :     -1.11596      -0.01993       0.14231
                        -----------------------------------------
Magnitude (a.u.)       :      1.12517
Magnitude (Debye)      :      2.85996

Rotational constants in cm-1:     0.282073     0.131822     0.105134
Rotational constants in MHz :  8456.328792  3951.925810  3151.840112

                             ****ORCA TERMINATED NORMALLY****
TOTAL RUN TIME: 0 days 0 hours 0 minutes 7 seconds 922 msec
