                         Program Version 5.0.0 -  RELEASE  -
|  1> !BLYP D3BJ RIJCOSX def2-TZVP def2/J TightSCF
|  2> *xyz 0 1
|  3> C          3.90595        2.81985       -3.75292
|  4> C          5.29562        3.13151       -4.10533
|  5> C          3.80351        1.37472       -3.26081
|  6> C          5.70862        3.46889       -5.32419
|  7> N          6.90470        3.03895       -5.71708
|  8> N          4.98188        4.29357       -6.09746
|  9> H          5.00055        4.10131       -7.08776
| 10> H          4.08469        4.59690       -5.73965
| 11> H          5.96336        2.52611       -3.64239
| 12> H          7.04716        2.06686       -5.47360
| 13> H          7.19815        3.30799       -6.64523
| 14> H          3.28202        2.94919       -4.64026
| 15> H          3.56525        3.51457       -2.98252
| 16> H          4.14157        0.71142       -4.02935
| 17> H          2.78528        1.15146       -3.01944
| 18> H          4.41205        1.25066       -2.38949
| 19> *
| 20>
| 21> %MaxCore 64000
| 22>
| 23> %pal nprocs 4
| 24> end
| 25>
| 26> %scf
| 27>   MaxIter 150
| 28> end
| 29>
| 30>
| 31>                          ****END OF INPUT****

CARTESIAN COORDINATES (ANGSTROEM)
---------------------------------
  C      3.905950    2.819850   -3.752920
  C      5.295620    3.131510   -4.105330
  C      3.803510    1.374720   -3.260810
  C      5.708620    3.468890   -5.324190
  N      6.904700    3.038950   -5.717080
  N      4.981880    4.293570   -6.097460
  H      5.000550    4.101310   -7.087760
  H      4.084690    4.596900   -5.739650
  H      5.963360    2.526110   -3.642390
  H      7.047160    2.066860   -5.473600
  H      7.198150    3.307990   -6.645230
  H      3.282020    2.949190   -4.640260
  H      3.565250    3.514570   -2.982520
  H      4.141570    0.711420   -4.029350
  H      2.785280    1.151460   -3.019440
  H      4.412050    1.250660   -2.389490

 Total Charge           Charge          ....    0
 Multiplicity           Mult            ....    1
 Number of Electrons    NEL             ....   48
 Basis Dimension        Dim             ....  246

ORBITAL ENERGIES
----------------

  NO   OCC          E(Eh)            E(eV)
   0   2.0000     -14.007054      -381.1513
   1   2.0000     -14.004306      -381.0765
   2   2.0000      -9.939414      -270.4652
   3   2.0000      -9.880159      -268.8528
   4   2.0000      -9.873117      -268.6612
   5   2.0000      -9.828867      -267.4571
   6   2.0000      -0.874406       -23.7938
   7   2.0000      -0.793232       -21.5849
   8   2.0000      -0.695358       -18.9217
   9   2.0000      -0.620655       -16.8889
  10   2.0000      -0.546631       -14.8746
  11   2.0000      -0.514559       -14.0019
  12   2.0000      -0.477937       -13.0053
  13   2.0000      -0.453365       -12.3367
  14   2.0000      -0.424447       -11.5498
  15   2.0000      -0.392437       -10.6788
  16   2.0000      -0.369405       -10.0520
  17   2.0000      -0.337933        -9.1956
  18   2.0000      -0.319001        -8.6805
  19   2.0000      -0.303665        -8.2631
  20   2.0000      -0.281693        -7.6652
  21   2.0000      -0.277953        -7.5635
  22   2.0000      -0.226610        -6.1664
  23   2.0000      -0.134465        -3.6590
  24   0.0000      -0.005565        -0.1514
  25   0.0000       0.025469         0.6930
  26   0.0000       0.036458         0.9921
  27   0.0000       0.041327         1.1246
  28   0.0000       0.058053         1.5797

MULLIKEN ATOMIC CHARGES
-----------------------
   0 C :   -0.106342
   1 C :   -0.256664
   2 C :   -0.314887
   3 C :    0.276245
   4 N :   -0.405271
   5 N :   -0.406443
   6 H :    0.178884
   7 H :    0.217152
   8 H :    0.040756
   9 H :    0.222151
  10 H :    0.184711
  11 H :    0.026603
  12 H :    0.075530
  13 H :    0.081602
  14 H :    0.088518
  15 H :    0.097454
Sum of atomic charges:    0.0000000

LOEWDIN ATOMIC CHARGES
----------------------
   0 C :   -0.300784
   1 C :   -0.266724
   2 C :   -0.295189
   3 C :   -0.475548
   4 N :   -0.003725
   5 N :   -0.007108
   6 H :    0.148446
   7 H :    0.169884
   8 H :    0.123036
   9 H :    0.175671
  10 H :    0.155075
  11 H :    0.120968
  12 H :    0.126042
  13 H :    0.108647
  14 H :    0.108220
  15 H :    0.113090

  Mayer bond orders larger than 0.100000
B(  0-C ,  1-C ) :   0.9766 B(  0-C ,  2-C ) :   0.9447 B(  0-C , 11-H ) :   0.9532
B(  0-C , 12-H ) :   0.9620 B(  1-C ,  3-C ) :   1.6366 B(  1-C ,  8-H ) :   1.0282
B(  2-C , 13-H ) :   0.9790 B(  2-C , 14-H ) :   0.9736 B(  2-C , 15-H ) :   0.9786
B(  3-C ,  4-N ) :   1.1119 B(  3-C ,  5-N ) :   1.1382 B(  4-N ,  9-H ) :   0.9240
B(  4-N , 10-H ) :   0.9341 B(  5-N ,  6-H ) :   0.9142 B(  5-N ,  7-H ) :   0.9277

Dispersion correction           -0.025850729
FINAL SINGLE POINT ENERGY      -267.904652651951

DIPOLE MOMENT
-------------
                                X             Y             Z
Electronic contribution:      3.22382       3.28894      -2.86288
Nuclear contribution   :     -3.27358      -3.61654       1.70633
                        -----------------------------------------
Total Dipole Moment    :     -0.04976      -0.32760      -1.15655
                        -----------------------------------------
Magnitude (a.u.)       :      1.20309
Magnitude (Debye)      :      3.05800

Rotational constants in cm-1:     0.231961     0.071249     0.059473
Rotational constants in MHz :  6954.024434  2135.976855  1782.962814

                             ****ORCA TERMINATED NORMALLY****
TOTAL RUN TIME: 0 days 0 hours 0 minutes 12 seconds 163 msec
