                         Program Version 5.0.0 -  RELEASE  -
|  1> !BLYP D3BJ RIJCOSX def2-TZVP def2/J TightSCF
|  2> *xyz 0 1
|  3> C          3.80351        1.37472       -3.26081
|  4> C          3.93993        0.32036       -4.36773
|  5> H          4.10504       -0.65508       -3.90773
|  6> H          3.02280        0.28052       -4.95712
|  7> C          5.10585        0.66802       -5.30546
|  8> O          4.80913        1.15019       -6.41436
|  9> F          6.26737        0.56500       -4.81948
| 10> H          3.64113        2.33595       -3.70189
| 11> H          4.69995        1.39701       -2.67703
| 12> H          2.97435        1.12625       -2.63180
| 13> *
| 14>
| 15> %MaxCore 64000
| 16>
| 17> %pal nprocs 4
| 18> end
| 19>
| 20> %scf
| 21>   MaxIter 150
| 22> end
| 23>
| 24>
| 25>                          ****END OF INPUT****

CARTESIAN COORDINATES (ANGSTROEM)
---------------------------------
  C      3.803510    1.374720   -3.260810
  C      3.939930    0.320360   -4.367730
  H      4.105040   -0.655080   -3.907730
  H      3.022800    0.280520   -4.957120
  C      5.105850    0.668020   -5.305460
  O      4.809130    1.150190   -6.414360
  F      6.267370    0.565000   -4.819480
  H      3.641130    2.335950   -3.701890
  H      4.699950    1.397010   -2.677030
  H      2.974350    1.126250   -2.631800

 Total Charge           Charge          ....    0
 Multiplicity           Mult            ....    1
 Number of Electrons    NEL             ....   40
 Basis Dimension        Dim             ....  185

ORBITAL ENERGIES
----------------

  NO   OCC          E(Eh)            E(eV)
   0   2.0000     -24.348759      -662.5634
   1   2.0000     -18.775562      -510.9090
   2   2.0000     -10.071418      -274.0572
   3   2.0000      -9.932708      -270.2827
   4   2.0000      -9.912345      -269.7286
   5   2.0000      -1.201721       -32.7005
   6   2.0000      -0.942598       -25.6494
   7   2.0000      -0.721689       -19.6382
   8   2.0000      -0.612128       -16.6568
   9   2.0000      -0.571565       -15.5531
  10   2.0000      -0.482747       -13.1362
  11   2.0000      -0.468305       -12.7432
  12   2.0000      -0.441787       -12.0216
  13   2.0000      -0.410670       -11.1749
  14   2.0000      -0.382123       -10.3981
  15   2.0000      -0.352521        -9.5926
  16   2.0000      -0.334135        -9.0923
  17   2.0000      -0.327078        -8.9003
  18   2.0000      -0.308590        -8.3972
  19   2.0000      -0.237935        -6.4745
  20   0.0000      -0.059463        -1.6181
  21   0.0000       0.010519         0.2862
  22   0.0000       0.051781         1.4090
  23   0.0000       0.066810         1.8180
  24   0.0000       0.081892         2.2284

MULLIKEN ATOMIC CHARGES
-----------------------
   0 C :   -0.323100
   1 C :   -0.167662
   2 H :    0.091475
   3 H :    0.107392
   4 C :    0.328439
   5 O :   -0.283154
   6 F :   -0.090050
   7 H :    0.116885
   8 H :    0.108382
   9 H :    0.111395
Sum of atomic charges:    0.0000000

LOEWDIN ATOMIC CHARGES
----------------------
   0 C :   -0.283955
   1 C :   -0.252314
   2 H :    0.137874
   3 H :    0.146200
   4 C :   -0.525734
   5 O :    0.094646
   6 F :    0.327693
   7 H :    0.120093
   8 H :    0.116904
   9 H :    0.118594

  Mayer bond orders larger than 0.100000
B(  0-C ,  1-C ) :   0.9404 B(  0-C ,  7-H ) :   0.9730 B(  0-C ,  8-H ) :   0.9723
B(  0-C ,  9-H ) :   0.9676 B(  1-C ,  2-H ) :   0.9372 B(  1-C ,  3-H ) :   0.9605
B(  1-C ,  4-C ) :   0.9879 B(  4-C ,  5-O ) :   2.0967 B(  4-C ,  6-F ) :   1.1539

Dispersion correction           -0.012845332
FINAL SINGLE POINT ENERGY      -292.454027716543

DIPOLE MOMENT
-------------
                                X             Y             Z
Electronic contribution:      6.44057      -0.96813      -4.81672
Nuclear contribution   :     -6.76123       0.61881       5.86003
                        -----------------------------------------
Total Dipole Moment    :     -0.32066      -0.34932       1.04331
                        -----------------------------------------
Magnitude (a.u.)       :      1.14601
Magnitude (Debye)      :      2.91293

Rotational constants in cm-1:     0.275298     0.134631     0.105723
Rotational constants in MHz :  8253.224169  4036.137572  3169.487264

                             ****ORCA TERMINATED NORMALLY****
TOTAL RUN TIME: 0 days 0 hours 0 minutes 7 seconds 861 msec
