                         Program Version 5.0.0 -  RELEASE  -
|  1> !BLYP D3BJ RIJCOSX def2-TZVP def2/J TightSCF
|  2> *xyz 0 1
|  3> C          3.90595        2.81985       -3.75292
|  4> N          5.29562        3.13151       -4.10533
|  5> C          3.80351        1.37472       -3.26081
|  6> C          5.70862        3.46889       -5.32419
|  7> C          6.90470        3.03895       -5.71708
|  8> N          4.98188        4.29357       -6.09746
|  9> H          5.00055        4.10131       -7.08776
| 10> H          4.08469        4.59690       -5.73965
| 11> H          5.96336        2.52611       -3.64239
| 12> H          7.04716        2.06686       -5.47360
| 13> H          7.19815        3.30799       -6.64523
| 14> H          3.28202        2.94919       -4.64026
| 15> H          3.56525        3.51457       -2.98252
| 16> H          4.14157        0.71142       -4.02935
| 17> H          2.78528        1.15146       -3.01944
| 18> H          4.41205        1.25066       -2.38949
| 19> *
| 20>
| 21> %MaxCore 64000
| 22>
| 23> %pal nprocs 4
| 24> end
| 25>
| 26> %scf
| 27>   MaxIter 150
| 28> end
| 29>
| 30>
| 31>                          ****END OF INPUT****

CARTESIAN COORDINATES (ANGSTROEM)
---------------------------------
  C      3.905950    2.819850   -3.752920
  N      5.295620    3.131510   -4.105330
  C      3.803510    1.374720   -3.260810
  C      5.708620    3.468890   -5.324190
  C      6.904700    3.038950   -5.717080
  N      4.981880    4.293570   -6.097460
  H      5.000550    4.101310   -7.087760
  H      4.084690    4.596900   -5.739650
  H      5.963360    2.526110   -3.642390
  H      7.047160    2.066860   -5.473600
  H      7.198150    3.307990   -6.645230
  H      3.282020    2.949190   -4.640260
  H      3.565250    3.514570   -2.982520
  H      4.141570    0.711420   -4.029350
  H      2.785280    1.151460   -3.019440
  H      4.412050    1.250660   -2.389490

 Total Charge           Charge          ....    0
 Multiplicity           Mult            ....    1
 Number of Electrons    NEL             ....   48
 Basis Dimension        Dim             ....  246

ORBITAL ENERGIES
----------------

  NO   OCC          E(Eh)            E(eV)
   0   2.0000     -14.007021      -381.1504
   1   2.0000     -14.006020      -381.1232
   2   2.0000      -9.943571      -270.5783
   3   2.0000      -9.942827      -270.5581
   4   2.0000      -9.902937      -269.4726
   5   2.0000      -9.815637      -267.0971
   6   2.0000      -0.878911       -23.9164
   7   2.0000      -0.803624       -21.8677
   8   2.0000      -0.696006       -18.9393
   9   2.0000      -0.631289       -17.1782
  10   2.0000      -0.563675       -15.3384
  11   2.0000      -0.534651       -14.5486
  12   2.0000      -0.476851       -12.9758
  13   2.0000      -0.440878       -11.9969
  14   2.0000      -0.429872       -11.6974
  15   2.0000      -0.401761       -10.9325
  16   2.0000      -0.371889       -10.1196
  17   2.0000      -0.351161        -9.5556
  18   2.0000      -0.333463        -9.0740
  19   2.0000      -0.327513        -8.9121
  20   2.0000      -0.325797        -8.8654
  21   2.0000      -0.289452        -7.8764
  22   2.0000      -0.215745        -5.8707
  23   2.0000      -0.137902        -3.7525
  24   0.0000       0.000445         0.0121
  25   0.0000       0.019871         0.5407
  26   0.0000       0.031472         0.8564
  27   0.0000       0.041629         1.1328
  28   0.0000       0.059144         1.6094

MULLIKEN ATOMIC CHARGES
-----------------------
   0 C :   -0.039637
   1 N :   -0.225749
   2 C :   -0.345476
   3 C :    0.292897
   4 C :   -0.450199
   5 N :   -0.410355
   6 H :    0.220982
   7 H :    0.193004
   8 H :    0.186630
   9 H :    0.055420
  10 H :    0.042274
  11 H :    0.065650
  12 H :    0.094990
  13 H :    0.113119
  14 H :    0.099745
  15 H :    0.106705
Sum of atomic charges:   -0.0000000

LOEWDIN ATOMIC CHARGES
----------------------
   0 C :   -0.302831
   1 N :    0.124821
   2 C :   -0.300368
   3 C :   -0.474599
   4 C :   -0.346166
   5 N :    0.000784
   6 H :    0.169926
   7 H :    0.154761
   8 H :    0.191428
   9 H :    0.099556
  10 H :    0.093627
  11 H :    0.121343
  12 H :    0.120655
  13 H :    0.116407
  14 H :    0.116274
  15 H :    0.114382

  Mayer bond orders larger than 0.100000
B(  0-C ,  1-N ) :   0.9399 B(  0-C ,  2-C ) :   0.9580 B(  0-C , 11-H ) :   0.9622
B(  0-C , 12-H ) :   0.9577 B(  1-N ,  3-C ) :   1.2355 B(  1-N ,  8-H ) :   0.9269
B(  2-C , 13-H ) :   0.9751 B(  2-C , 14-H ) :   0.9696 B(  2-C , 15-H ) :   0.9727
B(  3-C ,  4-C ) :   1.6251 B(  3-C ,  5-N ) :   1.1010 B(  4-C ,  9-H ) :   0.9873
B(  4-C , 10-H ) :   1.0190 B(  5-N ,  6-H ) :   0.9256 B(  5-N ,  7-H ) :   0.9340

Dispersion correction           -0.025564756
FINAL SINGLE POINT ENERGY      -267.895478981006

DIPOLE MOMENT
-------------
                                X             Y             Z
Electronic contribution:      1.52997       3.28344      -1.27724
Nuclear contribution   :     -2.93222      -3.63618       1.36440
                        -----------------------------------------
Total Dipole Moment    :     -1.40225      -0.35274       0.08716
                        -----------------------------------------
Magnitude (a.u.)       :      1.44856
Magnitude (Debye)      :      3.68194

Rotational constants in cm-1:     0.237993     0.072843     0.061284
Rotational constants in MHz :  7134.860770  2183.763760  1837.240960

                             ****ORCA TERMINATED NORMALLY****
TOTAL RUN TIME: 0 days 0 hours 0 minutes 12 seconds 624 msec
