                         Program Version 5.0.0 -  RELEASE  -
|  1> !BLYP D3BJ RIJCOSX def2-TZVP def2/J TightSCF
|  2> *xyz 0 1
|  3> C          3.90595        2.81985       -3.75292
|  4> N          5.29562        3.13151       -4.10533
|  5> C          3.80351        1.37472       -3.26081
|  6> C          5.70862        3.46889       -5.32419
|  7> N          6.90470        3.03895       -5.71708
|  8> C          4.98188        4.29357       -6.09746
|  9> H          5.00055        4.10131       -7.08776
| 10> H          4.08469        4.59690       -5.73965
| 11> H          5.96336        2.52611       -3.64239
| 12> H          7.04716        2.06686       -5.47360
| 13> H          7.19815        3.30799       -6.64523
| 14> H          3.28202        2.94919       -4.64026
| 15> H          3.56525        3.51457       -2.98252
| 16> H          4.14157        0.71142       -4.02935
| 17> H          2.78528        1.15146       -3.01944
| 18> H          4.41205        1.25066       -2.38949
| 19> *
| 20>
| 21> %MaxCore 64000
| 22>
| 23> %pal nprocs 4
| 24> end
| 25>
| 26> %scf
| 27>   MaxIter 150
| 28> end
| 29>
| 30>
| 31>                          ****END OF INPUT****

CARTESIAN COORDINATES (ANGSTROEM)
---------------------------------
  C      3.905950    2.819850   -3.752920
  N      5.295620    3.131510   -4.105330
  C      3.803510    1.374720   -3.260810
  C      5.708620    3.468890   -5.324190
  N      6.904700    3.038950   -5.717080
  C      4.981880    4.293570   -6.097460
  H      5.000550    4.101310   -7.087760
  H      4.084690    4.596900   -5.739650
  H      5.963360    2.526110   -3.642390
  H      7.047160    2.066860   -5.473600
  H      7.198150    3.307990   -6.645230
  H      3.282020    2.949190   -4.640260
  H      3.565250    3.514570   -2.982520
  H      4.141570    0.711420   -4.029350
  H      2.785280    1.151460   -3.019440
  H      4.412050    1.250660   -2.389490

 Total Charge           Charge          ....    0
 Multiplicity           Mult            ....    1
 Number of Electrons    NEL             ....   48
 Basis Dimension        Dim             ....  246

ORBITAL ENERGIES
----------------

  NO   OCC          E(Eh)            E(eV)
   0   2.0000     -14.008375      -381.1873
   1   2.0000     -14.005841      -381.1183
   2   2.0000      -9.942852      -270.5588
   3   2.0000      -9.937403      -270.4105
   4   2.0000      -9.900912      -269.4175
   5   2.0000      -9.821150      -267.2471
   6   2.0000      -0.883794       -24.0493
   7   2.0000      -0.805204       -21.9107
   8   2.0000      -0.686071       -18.6689
   9   2.0000      -0.632313       -17.2061
  10   2.0000      -0.576996       -15.7009
  11   2.0000      -0.506379       -13.7793
  12   2.0000      -0.479223       -13.0403
  13   2.0000      -0.461385       -12.5549
  14   2.0000      -0.418063       -11.3761
  15   2.0000      -0.405987       -11.0475
  16   2.0000      -0.354845        -9.6558
  17   2.0000      -0.354264        -9.6400
  18   2.0000      -0.343176        -9.3383
  19   2.0000      -0.327002        -8.8982
  20   2.0000      -0.317917        -8.6510
  21   2.0000      -0.291320        -7.9272
  22   2.0000      -0.213400        -5.8069
  23   2.0000      -0.141942        -3.8624
  24   0.0000      -0.002226        -0.0606
  25   0.0000       0.025389         0.6909
  26   0.0000       0.033005         0.8981
  27   0.0000       0.043838         1.1929
  28   0.0000       0.059735         1.6255

MULLIKEN ATOMIC CHARGES
-----------------------
   0 C :   -0.017587
   1 N :   -0.246104
   2 C :   -0.343161
   3 C :    0.306986
   4 N :   -0.398174
   5 C :   -0.459624
   6 H :    0.066470
   7 H :    0.054284
   8 H :    0.151839
   9 H :    0.178493
  10 H :    0.214152
  11 H :    0.092647
  12 H :    0.092457
  13 H :    0.102736
  14 H :    0.101838
  15 H :    0.102750
Sum of atomic charges:    0.0000000

LOEWDIN ATOMIC CHARGES
----------------------
   0 C :   -0.287526
   1 N :    0.127477
   2 C :   -0.303506
   3 C :   -0.483226
   4 N :   -0.005116
   5 C :   -0.331998
   6 H :    0.094649
   7 H :    0.095117
   8 H :    0.173252
   9 H :    0.152458
  10 H :    0.171524
  11 H :    0.131981
  12 H :    0.122894
  13 H :    0.112668
  14 H :    0.117173
  15 H :    0.112178

  Mayer bond orders larger than 0.100000
B(  0-C ,  1-N ) :   0.9385 B(  0-C ,  2-C ) :   0.9526 B(  0-C , 11-H ) :   0.9600
B(  0-C , 12-H ) :   0.9610 B(  1-N ,  3-C ) :   1.1744 B(  1-N ,  8-H ) :   0.9357
B(  2-C , 13-H ) :   0.9759 B(  2-C , 14-H ) :   0.9704 B(  2-C , 15-H ) :   0.9725
B(  3-C ,  4-N ) :   1.1464 B(  3-C ,  5-C ) :   1.5576 B(  4-N ,  9-H ) :   0.9169
B(  4-N , 10-H ) :   0.9266 B(  5-C ,  6-H ) :   0.9768 B(  5-C ,  7-H ) :   1.0118

Dispersion correction           -0.025646923
FINAL SINGLE POINT ENERGY      -267.899890761059

DIPOLE MOMENT
-------------
                                X             Y             Z
Electronic contribution:      3.41834       2.09798      -0.97649
Nuclear contribution   :     -3.34013      -3.37002       1.28371
                        -----------------------------------------
Total Dipole Moment    :      0.07821      -1.27204       0.30722
                        -----------------------------------------
Magnitude (a.u.)       :      1.31095
Magnitude (Debye)      :      3.33216

Rotational constants in cm-1:     0.239537     0.072280     0.060961
Rotational constants in MHz :  7181.153552  2166.902802  1827.551447

                             ****ORCA TERMINATED NORMALLY****
TOTAL RUN TIME: 0 days 0 hours 0 minutes 12 seconds 122 msec
