                         Program Version 5.0.0 -  RELEASE  -
|  1> !BLYP D3BJ RIJCOSX def2-TZVP def2/J TightSCF xyzfile
|  2>
|  3> *xyzfile 0 1 D1.xyz
|  4>
|  5> %MaxCore 64000
|  6>
|  7> %pal nprocs 18
|  8> end
|  9>
| 10> %scf
| 11>   MaxIter 150
| 12> end
| 13>
| 14>
| 15>                          ****END OF INPUT****

CARTESIAN COORDINATES (ANGSTROEM)
---------------------------------
  C      3.905947    2.819855   -3.752920
  C      5.295615    3.131515   -4.105334
  C      3.803511    1.374716   -3.260807
  C      3.939934    0.320362   -4.367729
  H      4.105043   -0.655085   -3.907733
  H      3.022801    0.280517   -4.957117
  C      5.105846    0.668022   -5.305463
  C      5.708619    3.468885   -5.324190
  N      6.904696    3.038954   -5.717084
  N      4.981884    4.293570   -6.097457
  H      5.000546    4.101311   -7.087761
  H      4.084693    4.596899   -5.739652
  H      5.963358    2.526112   -3.642391
  H      7.047164    2.066861   -5.473604
  H      7.198145    3.307994   -6.645225
  H      3.282025    2.949187   -4.640259
  H      3.565254    3.514574   -2.982523
  H      4.574833    1.215157   -2.500443
  H      2.843514    1.260845   -2.751465
  F      4.809132    1.150187   -6.414361
  O      6.267366    0.564999   -4.819481

 Total Charge           Charge          ....    0
 Multiplicity           Mult            ....    1
 Number of Electrons    NEL             ....   78
 Basis Dimension        Dim             ....  376

ORBITAL ENERGIES
----------------

  NO   OCC          E(Eh)            E(eV)
   0   2.0000     -24.357050      -662.7890
   1   2.0000     -18.773746      -510.8596
   2   2.0000     -14.007455      -381.1622
   3   2.0000     -13.986672      -380.5967
   4   2.0000     -10.075891      -274.1789
   5   2.0000      -9.939582      -270.4698
   6   2.0000      -9.928411      -270.1658
   7   2.0000      -9.908584      -269.6263
   8   2.0000      -9.892212      -269.1808
   9   2.0000      -9.832113      -267.5454
  10   2.0000      -1.217980       -33.1429
  11   2.0000      -0.940379       -25.5890
  12   2.0000      -0.870024       -23.6746
  13   2.0000      -0.787371       -21.4254
  14   2.0000      -0.733984       -19.9727
  15   2.0000      -0.672929       -18.3113
  16   2.0000      -0.620609       -16.8876
  17   2.0000      -0.589181       -16.0324
  18   2.0000      -0.542008       -14.7488
  19   2.0000      -0.517007       -14.0685
  20   2.0000      -0.491885       -13.3849
  21   2.0000      -0.479703       -13.0534
  22   2.0000      -0.468450       -12.7472
  23   2.0000      -0.460400       -12.5281
  24   2.0000      -0.442957       -12.0535
  25   2.0000      -0.413474       -11.2512
  26   2.0000      -0.405978       -11.0472
  27   2.0000      -0.386610       -10.5202
  28   2.0000      -0.378563       -10.3012
  29   2.0000      -0.342234        -9.3126
  30   2.0000      -0.336019        -9.1435
  31   2.0000      -0.320954        -8.7336
  32   2.0000      -0.312386        -8.5005
  33   2.0000      -0.300971        -8.1898
  34   2.0000      -0.289757        -7.8847
  35   2.0000      -0.277322        -7.5463
  36   2.0000      -0.245783        -6.6881
  37   2.0000      -0.218161        -5.9365
  38   2.0000      -0.137767        -3.7488
  39   0.0000      -0.065520        -1.7829
  40   0.0000       0.002104         0.0572
  41   0.0000       0.024058         0.6546
  42   0.0000       0.030178         0.8212
  43   0.0000       0.041158         1.1200

MULLIKEN ATOMIC CHARGES
-----------------------
   0 C :   -0.141291
   1 C :   -0.269328
   2 C :   -0.160375
   3 C :   -0.198655
   4 H :    0.105921
   5 H :    0.081201
   6 C :    0.405662
   7 C :    0.174535
   8 N :   -0.359830
   9 N :   -0.399094
  10 H :    0.180497
  11 H :    0.213914
  12 H :    0.085894
  13 H :    0.232730
  14 H :    0.178274
  15 H :    0.030062
  16 H :    0.084509
  17 H :    0.099980
  18 H :    0.079614
  19 F :   -0.078376
  20 O :   -0.345844
Sum of atomic charges:   -0.0000000

LOEWDIN ATOMIC CHARGES
----------------------
   0 C :   -0.279509
   1 C :   -0.253747
   2 C :   -0.241356
   3 C :   -0.223993
   4 H :    0.150510
   5 H :    0.136185
   6 C :   -0.527628
   7 C :   -0.488083
   8 N :    0.009122
   9 N :   -0.003541
  10 H :    0.148371
  11 H :    0.167486
  12 H :    0.129770
  13 H :    0.160203
  14 H :    0.152802
  15 H :    0.126573
  16 H :    0.132269
  17 H :    0.142288
  18 H :    0.132519
  19 F :    0.365794
  20 O :    0.063963

  Mayer bond orders larger than 0.100000
B(  0-C ,  1-C ) :   0.9924 B(  0-C ,  2-C ) :   0.9610 B(  0-C , 15-H ) :   0.9506
B(  0-C , 16-H ) :   0.9489 B(  1-C ,  7-C ) :   1.5754 B(  1-C , 12-H ) :   1.0314
B(  2-C ,  3-C ) :   0.9737 B(  2-C , 17-H ) :   0.9618 B(  2-C , 18-H ) :   0.9534
B(  3-C ,  4-H ) :   0.9414 B(  3-C ,  5-H ) :   0.9413 B(  3-C ,  6-C ) :   0.9920
B(  6-C , 19-F ) :   1.1724 B(  6-C , 20-O ) :   1.9415 B(  7-C ,  8-N ) :   1.1932
B(  7-C ,  9-N ) :   1.1516 B(  8-N , 13-H ) :   0.8655 B(  8-N , 14-H ) :   0.9330
B(  9-N , 10-H ) :   0.9193 B(  9-N , 11-H ) :   0.9290 B( 13-H , 20-O ) :   0.1079

Dispersion correction           -0.046480141
FINAL SINGLE POINT ENERGY      -519.855179147883

DIPOLE MOMENT
-------------
                                X             Y             Z
Electronic contribution:      3.51418      -3.53379      -6.49303
Nuclear contribution   :     -4.60158       3.22721       5.56005
                        -----------------------------------------
Total Dipole Moment    :     -1.08740      -0.30658      -0.93297
                        -----------------------------------------
Magnitude (a.u.)       :      1.46522
Magnitude (Debye)      :      3.72429

Rotational constants in cm-1:     0.061224     0.042534     0.033552
Rotational constants in MHz :  1835.464095  1275.135177  1005.856966

                             ****ORCA TERMINATED NORMALLY****
TOTAL RUN TIME: 0 days 0 hours 0 minutes 11 seconds 581 msec
