                         Program Version 5.0.0 -  RELEASE  -
|  1> !BLYP D3BJ RIJCOSX def2-TZVP def2/J TightSCF xyzfile
|  2>
|  3> *xyzfile 0 1 D4.xyz
|  4>
|  5> %MaxCore 64000
|  6>
|  7> %pal nprocs 18
|  8> end
|  9>
| 10> %scf
| 11>   MaxIter 150
| 12> end
| 13>
| 14>
| 15>                          ****END OF INPUT****

CARTESIAN COORDINATES (ANGSTROEM)
---------------------------------
  C      3.905947    2.819855   -3.752920
  C      5.295615    3.131515   -4.105334
  C      3.803511    1.374716   -3.260807
  C      3.939934    0.320362   -4.367729
  H      4.105043   -0.655085   -3.907733
  H      3.022801    0.280517   -4.957117
  C      5.105846    0.668022   -5.305463
  C      5.708619    3.468885   -5.324190
  N      6.904696    3.038954   -5.717084
  N      4.981884    4.293570   -6.097457
  H      5.000546    4.101311   -7.087761
  H      4.084693    4.596899   -5.739652
  H      5.963358    2.526112   -3.642391
  H      7.047164    2.066861   -5.473604
  H      7.198145    3.307994   -6.645225
  H      3.282025    2.949187   -4.640259
  H      3.565254    3.514574   -2.982523
  H      4.574833    1.215157   -2.500443
  H      2.843514    1.260845   -2.751465
  O      4.809132    1.150187   -6.414361
  F      6.267366    0.564999   -4.819481

 Total Charge           Charge          ....    0
 Multiplicity           Mult            ....    1
 Number of Electrons    NEL             ....   78
 Basis Dimension        Dim             ....  376

ORBITAL ENERGIES
----------------

  NO   OCC          E(Eh)            E(eV)
   0   2.0000     -24.354014      -662.7064
   1   2.0000     -18.769740      -510.7506
   2   2.0000     -14.006102      -381.1254
   3   2.0000     -13.995252      -380.8302
   4   2.0000     -10.068632      -273.9814
   5   2.0000      -9.942234      -270.5419
   6   2.0000      -9.925326      -270.0818
   7   2.0000      -9.908645      -269.6279
   8   2.0000      -9.889812      -269.1155
   9   2.0000      -9.833211      -267.5753
  10   2.0000      -1.210439       -32.9377
  11   2.0000      -0.941324       -25.6147
  12   2.0000      -0.871609       -23.7177
  13   2.0000      -0.790075       -21.4990
  14   2.0000      -0.733293       -19.9539
  15   2.0000      -0.671762       -18.2796
  16   2.0000      -0.619704       -16.8630
  17   2.0000      -0.587134       -15.9767
  18   2.0000      -0.542464       -14.7612
  19   2.0000      -0.524285       -14.2665
  20   2.0000      -0.489027       -13.3071
  21   2.0000      -0.477731       -12.9997
  22   2.0000      -0.469976       -12.7887
  23   2.0000      -0.452098       -12.3022
  24   2.0000      -0.435987       -11.8638
  25   2.0000      -0.415863       -11.3162
  26   2.0000      -0.407863       -11.0985
  27   2.0000      -0.388213       -10.5638
  28   2.0000      -0.375012       -10.2046
  29   2.0000      -0.342189        -9.3114
  30   2.0000      -0.333705        -9.0806
  31   2.0000      -0.323569        -8.8048
  32   2.0000      -0.314763        -8.5651
  33   2.0000      -0.298544        -8.1238
  34   2.0000      -0.289904        -7.8887
  35   2.0000      -0.281916        -7.6713
  36   2.0000      -0.237798        -6.4708
  37   2.0000      -0.218248        -5.9388
  38   2.0000      -0.139708        -3.8016
  39   0.0000      -0.057142        -1.5549
  40   0.0000       0.006877         0.1871
  41   0.0000       0.022725         0.6184
  42   0.0000       0.030822         0.8387
  43   0.0000       0.041627         1.1327

MULLIKEN ATOMIC CHARGES
-----------------------
   0 C :   -0.113855
   1 C :   -0.270596
   2 C :   -0.196337
   3 C :   -0.187740
   4 H :    0.094709
   5 H :    0.096089
   6 C :    0.370476
   7 C :    0.213519
   8 N :   -0.350444
   9 N :   -0.403332
  10 H :    0.192856
  11 H :    0.213841
  12 H :    0.060095
  13 H :    0.212882
  14 H :    0.186547
  15 H :    0.038632
  16 H :    0.082734
  17 H :    0.096595
  18 H :    0.080787
  19 O :   -0.296864
  20 F :   -0.120596
Sum of atomic charges:    0.0000000

LOEWDIN ATOMIC CHARGES
----------------------
   0 C :   -0.277329
   1 C :   -0.265423
   2 C :   -0.247276
   3 C :   -0.223622
   4 H :    0.140674
   5 H :    0.148013
   6 C :   -0.537175
   7 C :   -0.476709
   8 N :    0.013156
   9 N :    0.008498
  10 H :    0.154623
  11 H :    0.169014
  12 H :    0.121545
  13 H :    0.160766
  14 H :    0.156783
  15 H :    0.131449
  16 H :    0.131810
  17 H :    0.137381
  18 H :    0.132949
  19 O :    0.094002
  20 F :    0.326872

  Mayer bond orders larger than 0.100000
B(  0-C ,  1-C ) :   0.9856 B(  0-C ,  2-C ) :   0.9571 B(  0-C , 15-H ) :   0.9469
B(  0-C , 16-H ) :   0.9498 B(  1-C ,  7-C ) :   1.5767 B(  1-C , 12-H ) :   1.0448
B(  2-C ,  3-C ) :   0.9680 B(  2-C , 17-H ) :   0.9668 B(  2-C , 18-H ) :   0.9519
B(  3-C ,  4-H ) :   0.9349 B(  3-C ,  5-H ) :   0.9571 B(  3-C ,  6-C ) :   1.0005
B(  6-C , 19-O ) :   2.0608 B(  6-C , 20-F ) :   1.0861 B(  7-C ,  8-N ) :   1.1719
B(  7-C ,  9-N ) :   1.1549 B(  8-N , 13-H ) :   0.9117 B(  8-N , 14-H ) :   0.9341
B(  9-N , 10-H ) :   0.9214 B(  9-N , 11-H ) :   0.9301

Dispersion correction           -0.046553744
FINAL SINGLE POINT ENERGY      -519.855942713519

DIPOLE MOMENT
-------------
                                X             Y             Z
Electronic contribution:      5.92061      -4.39219      -3.97057
Nuclear contribution   :     -6.25608       3.89116       3.75052
                        -----------------------------------------
Total Dipole Moment    :     -0.33546      -0.50103      -0.22005
                        -----------------------------------------
Magnitude (a.u.)       :      0.64186
Magnitude (Debye)      :      1.63149

Rotational constants in cm-1:     0.061229     0.042568     0.033282
Rotational constants in MHz :  1835.590871  1276.154029   997.769927

                             ****ORCA TERMINATED NORMALLY****
TOTAL RUN TIME: 0 days 0 hours 0 minutes 11 seconds 699 msec
