                         Program Version 5.0.0 -  RELEASE  -
|  1> !BLYP D3BJ RIJCOSX def2-TZVP def2/J TightSCF xyzfile
|  2>
|  3> *xyzfile 0 1 D5.xyz
|  4>
|  5> %MaxCore 64000
|  6>
|  7> %pal nprocs 18
|  8> end
|  9>
| 10> %scf
| 11>   MaxIter 150
| 12> end
| 13>
| 14>
| 15>                          ****END OF INPUT****

CARTESIAN COORDINATES (ANGSTROEM)
---------------------------------
  C      3.905947    2.819855   -3.752920
  N      5.295615    3.131515   -4.105334
  C      3.803511    1.374716   -3.260807
  C      3.939934    0.320362   -4.367729
  H      4.105043   -0.655085   -3.907733
  H      3.022801    0.280517   -4.957117
  C      5.105846    0.668022   -5.305463
  C      5.708619    3.468885   -5.324190
  C      6.904696    3.038954   -5.717084
  N      4.981884    4.293570   -6.097457
  H      5.000546    4.101311   -7.087761
  H      4.084693    4.596899   -5.739652
  H      5.963358    2.526112   -3.642391
  H      7.047164    2.066861   -5.473604
  H      7.198145    3.307994   -6.645225
  H      3.282025    2.949187   -4.640259
  H      3.565254    3.514574   -2.982523
  H      4.574833    1.215157   -2.500443
  H      2.843514    1.260845   -2.751465
  O      4.809132    1.150187   -6.414361
  F      6.267366    0.564999   -4.819481

 Total Charge           Charge          ....    0
 Multiplicity           Mult            ....    1
 Number of Electrons    NEL             ....   78
 Basis Dimension        Dim             ....  376

ORBITAL ENERGIES
----------------

  NO   OCC          E(Eh)            E(eV)
   0   2.0000     -24.351451      -662.6367
   1   2.0000     -18.775570      -510.9092
   2   2.0000     -14.011659      -381.2766
   3   2.0000     -14.000268      -380.9667
   4   2.0000     -10.072797      -274.0947
   5   2.0000      -9.949823      -270.7485
   6   2.0000      -9.938702      -270.4458
   7   2.0000      -9.937177      -270.4043
   8   2.0000      -9.934119      -270.3211
   9   2.0000      -9.805400      -266.8185
  10   2.0000      -1.208519       -32.8855
  11   2.0000      -0.945528       -25.7291
  12   2.0000      -0.880272       -23.9534
  13   2.0000      -0.803887       -21.8749
  14   2.0000      -0.738060       -20.0836
  15   2.0000      -0.667344       -18.1594
  16   2.0000      -0.626340       -17.0436
  17   2.0000      -0.588967       -16.0266
  18   2.0000      -0.556749       -15.1499
  19   2.0000      -0.536455       -14.5977
  20   2.0000      -0.491186       -13.3658
  21   2.0000      -0.487570       -13.2675
  22   2.0000      -0.463059       -12.6005
  23   2.0000      -0.446192       -12.1415
  24   2.0000      -0.442123       -12.0308
  25   2.0000      -0.430562       -11.7162
  26   2.0000      -0.413658       -11.2562
  27   2.0000      -0.389149       -10.5893
  28   2.0000      -0.368576       -10.0295
  29   2.0000      -0.355054        -9.6615
  30   2.0000      -0.343160        -9.3379
  31   2.0000      -0.332180        -9.0391
  32   2.0000      -0.327527        -8.9125
  33   2.0000      -0.318544        -8.6680
  34   2.0000      -0.312119        -8.4932
  35   2.0000      -0.277416        -7.5489
  36   2.0000      -0.239546        -6.5184
  37   2.0000      -0.216699        -5.8967
  38   2.0000      -0.131327        -3.5736
  39   0.0000      -0.062886        -1.7112
  40   0.0000      -0.000410        -0.0112
  41   0.0000       0.014639         0.3983
  42   0.0000       0.029720         0.8087
  43   0.0000       0.037110         1.0098

MULLIKEN ATOMIC CHARGES
-----------------------
   0 C :   -0.063588
   1 N :   -0.234992
   2 C :   -0.235734
   3 C :   -0.170739
   4 H :    0.103714
   5 H :    0.102851
   6 C :    0.343216
   7 C :    0.274008
   8 C :   -0.408246
   9 N :   -0.424884
  10 H :    0.228760
  11 H :    0.188476
  12 H :    0.187190
  13 H :    0.065906
  14 H :    0.042015
  15 H :    0.080238
  16 H :    0.102951
  17 H :    0.107812
  18 H :    0.092597
  19 O :   -0.275252
  20 F :   -0.106299
Sum of atomic charges:   -0.0000000

LOEWDIN ATOMIC CHARGES
----------------------
   0 C :   -0.279164
   1 N :    0.134734
   2 C :   -0.260273
   3 C :   -0.226062
   4 H :    0.143107
   5 H :    0.149345
   6 C :   -0.534748
   7 C :   -0.489154
   8 C :   -0.329716
   9 N :    0.005881
  10 H :    0.172846
  11 H :    0.152875
  12 H :    0.188526
  13 H :    0.094122
  14 H :    0.093588
  15 H :    0.131561
  16 H :    0.125567
  17 H :    0.137255
  18 H :    0.138706
  19 O :    0.116159
  20 F :    0.334845

  Mayer bond orders larger than 0.100000
B(  0-C ,  1-N ) :   0.9530 B(  0-C ,  2-C ) :   0.9560 B(  0-C , 15-H ) :   0.9609
B(  0-C , 16-H ) :   0.9583 B(  1-N ,  7-C ) :   1.1851 B(  1-N , 12-H ) :   0.9254
B(  2-C ,  3-C ) :   0.9532 B(  2-C , 17-H ) :   0.9664 B(  2-C , 18-H ) :   0.9508
B(  3-C ,  4-H ) :   0.9406 B(  3-C ,  5-H ) :   0.9591 B(  3-C ,  6-C ) :   0.9864
B(  6-C , 19-O ) :   2.0784 B(  6-C , 20-F ) :   1.1220 B(  7-C ,  8-C ) :   1.6349
B(  7-C ,  9-N ) :   1.0646 B(  8-C , 13-H ) :   0.9770 B(  8-C , 14-H ) :   1.0132
B(  9-N , 10-H ) :   0.9300 B(  9-N , 11-H ) :   0.9391

Dispersion correction           -0.046241847
FINAL SINGLE POINT ENERGY      -519.832699479422

DIPOLE MOMENT
-------------
                                X             Y             Z
Electronic contribution:      4.48562      -4.56643      -2.65832
Nuclear contribution   :     -6.05797       3.87976       3.55209
                        -----------------------------------------
Total Dipole Moment    :     -1.57235      -0.68667       0.89377
                        -----------------------------------------
Magnitude (a.u.)       :      1.93458
Magnitude (Debye)      :      4.91732

Rotational constants in cm-1:     0.061282     0.043164     0.033679
Rotational constants in MHz :  1837.191639  1294.028651  1009.659886

                             ****ORCA TERMINATED NORMALLY****
TOTAL RUN TIME: 0 days 0 hours 0 minutes 11 seconds 934 msec
