                         Program Version 5.0.0 -  RELEASE  -
|  1> !BLYP D3BJ RIJCOSX def2-TZVP def2/J TightSCF xyzfile
|  2>
|  3> *xyzfile 0 1 D6.xyz
|  4>
|  5> %MaxCore 64000
|  6>
|  7> %pal nprocs 18
|  8> end
|  9>
| 10> %scf
| 11>   MaxIter 150
| 12> end
| 13>
| 14>
| 15>                          ****END OF INPUT****

CARTESIAN COORDINATES (ANGSTROEM)
---------------------------------
  C      3.905947    2.819855   -3.752920
  N      5.295615    3.131515   -4.105334
  C      3.803511    1.374716   -3.260807
  C      3.939934    0.320362   -4.367729
  H      4.105043   -0.655085   -3.907733
  H      3.022801    0.280517   -4.957117
  C      5.105846    0.668022   -5.305463
  C      5.708619    3.468885   -5.324190
  N      6.904696    3.038954   -5.717084
  C      4.981884    4.293570   -6.097457
  H      5.000546    4.101311   -7.087761
  H      4.084693    4.596899   -5.739652
  H      5.963358    2.526112   -3.642391
  H      7.047164    2.066861   -5.473604
  H      7.198145    3.307994   -6.645225
  H      3.282025    2.949187   -4.640259
  H      3.565254    3.514574   -2.982523
  H      4.574833    1.215157   -2.500443
  H      2.843514    1.260845   -2.751465
  O      4.809132    1.150187   -6.414361
  F      6.267366    0.564999   -4.819481

 Total Charge           Charge          ....    0
 Multiplicity           Mult            ....    1
 Number of Electrons    NEL             ....   78
 Basis Dimension        Dim             ....  376

ORBITAL ENERGIES
----------------

  NO   OCC          E(Eh)            E(eV)
   0   2.0000     -24.367265      -663.0670
   1   2.0000     -18.782703      -511.1033
   2   2.0000     -14.014991      -381.3673
   3   2.0000     -13.992612      -380.7583
   4   2.0000     -10.077509      -274.2230
   5   2.0000      -9.946497      -270.6579
   6   2.0000      -9.940945      -270.5069
   7   2.0000      -9.939371      -270.4640
   8   2.0000      -9.933431      -270.3024
   9   2.0000      -9.817934      -267.1596
  10   2.0000      -1.224173       -33.3115
  11   2.0000      -0.951940       -25.9036
  12   2.0000      -0.884696       -24.0738
  13   2.0000      -0.805980       -21.9318
  14   2.0000      -0.735756       -20.0209
  15   2.0000      -0.662109       -18.0169
  16   2.0000      -0.629097       -17.1186
  17   2.0000      -0.608136       -16.5482
  18   2.0000      -0.567287       -15.4367
  19   2.0000      -0.512942       -13.9578
  20   2.0000      -0.507427       -13.8078
  21   2.0000      -0.497359       -13.5338
  22   2.0000      -0.465155       -12.6575
  23   2.0000      -0.450839       -12.2679
  24   2.0000      -0.443764       -12.0754
  25   2.0000      -0.428775       -11.6676
  26   2.0000      -0.423782       -11.5317
  27   2.0000      -0.380939       -10.3659
  28   2.0000      -0.371166       -10.0999
  29   2.0000      -0.355072        -9.6620
  30   2.0000      -0.343212        -9.3393
  31   2.0000      -0.338874        -9.2212
  32   2.0000      -0.333136        -9.0651
  33   2.0000      -0.320996        -8.7348
  34   2.0000      -0.314976        -8.5709
  35   2.0000      -0.284741        -7.7482
  36   2.0000      -0.245644        -6.6843
  37   2.0000      -0.212386        -5.7793
  38   2.0000      -0.139123        -3.7857
  39   0.0000      -0.068052        -1.8518
  40   0.0000       0.000116         0.0031
  41   0.0000       0.025465         0.6929
  42   0.0000       0.033292         0.9059
  43   0.0000       0.040884         1.1125

MULLIKEN ATOMIC CHARGES
-----------------------
   0 C :   -0.037081
   1 N :   -0.229852
   2 C :   -0.237586
   3 C :   -0.168346
   4 H :    0.101972
   5 H :    0.108125
   6 C :    0.315237
   7 C :    0.234284
   8 N :   -0.358425
   9 C :   -0.426804
  10 H :    0.077372
  11 H :    0.046043
  12 H :    0.157197
  13 H :    0.187134
  14 H :    0.211837
  15 H :    0.104325
  16 H :    0.102543
  17 H :    0.103734
  18 H :    0.095807
  19 O :   -0.260208
  20 F :   -0.127308
Sum of atomic charges:    0.0000000

LOEWDIN ATOMIC CHARGES
----------------------
   0 C :   -0.262832
   1 N :    0.141476
   2 C :   -0.260439
   3 C :   -0.225560
   4 H :    0.142589
   5 H :    0.151413
   6 C :   -0.550162
   7 C :   -0.497155
   8 N :    0.004787
   9 C :   -0.313069
  10 H :    0.097634
  11 H :    0.093412
  12 H :    0.170334
  13 H :    0.146025
  14 H :    0.171637
  15 H :    0.142370
  16 H :    0.128127
  17 H :    0.135534
  18 H :    0.140103
  19 O :    0.125200
  20 F :    0.318575

  Mayer bond orders larger than 0.100000
B(  0-C ,  1-N ) :   0.9504 B(  0-C ,  2-C ) :   0.9541 B(  0-C , 15-H ) :   0.9581
B(  0-C , 16-H ) :   0.9638 B(  1-N ,  7-C ) :   1.1465 B(  1-N , 12-H ) :   0.9298
B(  2-C ,  3-C ) :   0.9548 B(  2-C , 17-H ) :   0.9668 B(  2-C , 18-H ) :   0.9529
B(  3-C ,  4-H ) :   0.9383 B(  3-C ,  5-H ) :   0.9581 B(  3-C ,  6-C ) :   0.9847
B(  6-C , 19-O ) :   2.0810 B(  6-C , 20-F ) :   1.0739 B(  7-C ,  8-N ) :   1.1989
B(  7-C ,  9-C ) :   1.6056 B(  8-N , 13-H ) :   0.9204 B(  8-N , 14-H ) :   0.9313
B(  9-C , 10-H ) :   0.9788 B(  9-C , 11-H ) :   1.0067

Dispersion correction           -0.046227247
FINAL SINGLE POINT ENERGY      -519.843637311287

DIPOLE MOMENT
-------------
                                X             Y             Z
Electronic contribution:      6.03514      -5.53025      -2.38800
Nuclear contribution   :     -6.29470       4.03423       3.50525
                        -----------------------------------------
Total Dipole Moment    :     -0.25956      -1.49602       1.11726
                        -----------------------------------------
Magnitude (a.u.)       :      1.88513
Magnitude (Debye)      :      4.79163

Rotational constants in cm-1:     0.061094     0.043661     0.033867
Rotational constants in MHz :  1831.559881  1308.929520  1015.295167

                             ****ORCA TERMINATED NORMALLY****
TOTAL RUN TIME: 0 days 0 hours 0 minutes 11 seconds 150 msec
