                         Program Version 5.0.0 -  RELEASE  -
|  1> !CAM-B3LYP RIJCOSX def2-SVPD def2/J TightSCF
|  2> *xyz -1 1
|  3> C          4.90646       -3.10282       -5.95484
|  4> C          3.51177       -2.80621       -6.49228
|  5> H          2.73604       -3.37345       -5.97374
|  6> H          3.44490       -3.04083       -7.55528
|  7> S          3.00462       -1.09621       -6.38926
|  8> O          4.12886       -0.32965       -6.95372
|  9> O          1.78128       -1.00078       -7.13640
| 10> O          2.85155       -0.78368       -4.95679
| 11> H          5.62703       -2.52424       -6.49422
| 12> H          5.12164       -4.14387       -6.07654
| 13> H          4.95004       -2.84862       -4.91639
| 14> *
| 15>
| 16> %MaxCore 64000
| 17>
| 18> %pal nprocs 4
| 19> end
| 20>
| 21> %scf
| 22>   MaxIter 150
| 23> end
| 24>
| 25>
| 26>                          ****END OF INPUT****

CARTESIAN COORDINATES (ANGSTROEM)
---------------------------------
  C      4.906460   -3.102820   -5.954840
  C      3.511770   -2.806210   -6.492280
  H      2.736040   -3.373450   -5.973740
  H      3.444900   -3.040830   -7.555280
  S      3.004620   -1.096210   -6.389260
  O      4.128860   -0.329650   -6.953720
  O      1.781280   -1.000780   -7.136400
  O      2.851550   -0.783680   -4.956790
  H      5.627030   -2.524240   -6.494220
  H      5.121640   -4.143870   -6.076540
  H      4.950040   -2.848620   -4.916390

 Total Charge           Charge          ....   -1
 Multiplicity           Mult            ....    1
 Number of Electrons    NEL             ....   58
 Basis Dimension        Dim             ....  176

ORBITAL ENERGIES
----------------

  NO   OCC          E(Eh)            E(eV)
   0   2.0000     -88.962055     -2420.7806
   1   2.0000     -18.998796      -516.9835
   2   2.0000     -18.986994      -516.6624
   3   2.0000     -18.986661      -516.6533
   4   2.0000     -10.126861      -275.5659
   5   2.0000     -10.119064      -275.3537
   6   2.0000      -8.015393      -218.1099
   7   2.0000      -5.985329      -162.8691
   8   2.0000      -5.985243      -162.8667
   9   2.0000      -5.984684      -162.8515
  10   2.0000      -1.015642       -27.6370
  11   2.0000      -0.870474       -23.6868
  12   2.0000      -0.849362       -23.1123
  13   2.0000      -0.716846       -19.5064
  14   2.0000      -0.589801       -16.0493
  15   2.0000      -0.457991       -12.4626
  16   2.0000      -0.395787       -10.7699
  17   2.0000      -0.390940       -10.6380
  18   2.0000      -0.351943        -9.5769
  19   2.0000      -0.337112        -9.1733
  20   2.0000      -0.328427        -8.9369
  21   2.0000      -0.302632        -8.2350
  22   2.0000      -0.284856        -7.7513
  23   2.0000      -0.221233        -6.0200
  24   2.0000      -0.220690        -6.0053
  25   2.0000      -0.183139        -4.9835
  26   2.0000      -0.173306        -4.7159
  27   2.0000      -0.170322        -4.6347
  28   2.0000      -0.131295        -3.5727
  29   0.0000       0.168486         4.5847
  30   0.0000       0.193161         5.2562
  31   0.0000       0.200553         5.4573
  32   0.0000       0.207787         5.6542
  33   0.0000       0.227604         6.1934

MULLIKEN ATOMIC CHARGES
-----------------------
   0 C :    0.968342
   1 C :   -0.212435
   2 H :   -0.138695
   3 H :   -0.105303
   4 S :    1.318424
   5 O :   -0.825737
   6 O :   -0.780368
   7 O :   -0.823676
   8 H :   -0.109530
   9 H :   -0.176471
  10 H :   -0.114551
Sum of atomic charges:   -1.0000000

LOEWDIN ATOMIC CHARGES
----------------------
   0 C :    0.107217
   1 C :   -0.139795
   2 H :    0.006881
   3 H :    0.003829
   4 S :    0.854289
   5 O :   -0.591325
   6 O :   -0.575271
   7 O :   -0.595049
   8 H :   -0.021639
   9 H :   -0.033240
  10 H :   -0.015896

  Mayer bond orders larger than 0.100000
B(  0-C ,  1-C ) :   1.2499 B(  0-C ,  8-H ) :   0.7838 B(  0-C ,  9-H ) :   0.6879
B(  0-C , 10-H ) :   0.7711 B(  1-C ,  2-H ) :   0.9633 B(  1-C ,  3-H ) :   0.9667
B(  1-C ,  4-S ) :   0.9293 B(  1-C ,  8-H ) :   0.2175 B(  1-C ,  9-H ) :   0.2479
B(  1-C , 10-H ) :   0.2097 B(  4-S ,  5-O ) :   1.2722 B(  4-S ,  6-O ) :   1.3440
B(  4-S ,  7-O ) :   1.2699

FINAL SINGLE POINT ENERGY      -702.672242961559

DIPOLE MOMENT
-------------
                                X             Y             Z
Electronic contribution:     -4.31717       6.27521      -0.66606
Nuclear contribution   :      5.05690      -8.21735       0.57889
                        -----------------------------------------
Total Dipole Moment    :      0.73973      -1.94215      -0.08716
                        -----------------------------------------
Magnitude (a.u.)       :      2.08008
Magnitude (Debye)      :      5.28715

Rotational constants in cm-1:     0.162547     0.083494     0.081672
Rotational constants in MHz :  4873.033504  2503.090885  2448.458543

                             ****ORCA TERMINATED NORMALLY****
TOTAL RUN TIME: 0 days 0 hours 0 minutes 27 seconds 683 msec
