                         Program Version 5.0.0 -  RELEASE  -
|  1> !CAM-B3LYP RIJCOSX def2-SVPD def2/J TightSCF
|  2> *xyz 1 1
|  3> C          4.49059        1.15590       -2.46929
|  4> N          4.30539        1.22276       -3.90832
|  5> C          4.63192        2.24637       -4.67096
|  6> N          4.54169        2.14399       -5.98714
|  7> N          5.08409        3.39358       -4.11855
|  8> H          4.92067        3.57050       -3.13587
|  9> H          5.25465        4.19739       -4.70696
| 10> H          3.82453        0.44911       -4.35093
| 11> H          4.34337        1.24932       -6.41665
| 12> H          4.67671        2.95662       -6.57411
| 13> C          5.94213        0.93950       -2.03689
| 14> H          3.86431        0.32853       -2.13661
| 15> H          4.07623        2.04999       -1.98901
| 16> H          6.32982        0.06401       -2.51451
| 17> H          5.98308        0.81426       -0.97504
| 18> H          6.52865        1.78889       -2.31873
| 19> *
| 20>
| 21> %MaxCore 64000
| 22>
| 23> %pal nprocs 4
| 24> end
| 25>
| 26> %scf
| 27>   MaxIter 150
| 28> end
| 29>
| 30>
| 31>                          ****END OF INPUT****

CARTESIAN COORDINATES (ANGSTROEM)
---------------------------------
  C      4.490590    1.155900   -2.469290
  N      4.305390    1.222760   -3.908320
  C      4.631920    2.246370   -4.670960
  N      4.541690    2.143990   -5.987140
  N      5.084090    3.393580   -4.118550
  H      4.920670    3.570500   -3.135870
  H      5.254650    4.197390   -4.706960
  H      3.824530    0.449110   -4.350930
  H      4.343370    1.249320   -6.416650
  H      4.676710    2.956620   -6.574110
  C      5.942130    0.939500   -2.036890
  H      3.864310    0.328530   -2.136610
  H      4.076230    2.049990   -1.989010
  H      6.329820    0.064010   -2.514510
  H      5.983080    0.814260   -0.975040
  H      6.528650    1.788890   -2.318730

 Total Charge           Charge          ....    1
 Multiplicity           Mult            ....    1
 Number of Electrons    NEL             ....   48
 Basis Dimension        Dim             ....  200

ORBITAL ENERGIES
----------------

  NO   OCC          E(Eh)            E(eV)
   0   2.0000     -14.630475      -398.1155
   1   2.0000     -14.630027      -398.1033
   2   2.0000     -14.627801      -398.0427
   3   2.0000     -10.599770      -288.4344
   4   2.0000     -10.466495      -284.8078
   5   2.0000     -10.393501      -282.8215
   6   2.0000      -1.294234       -35.2179
   7   2.0000      -1.181960       -32.1628
   8   2.0000      -1.165551       -31.7163
   9   2.0000      -1.006928       -27.3999
  10   2.0000      -0.919011       -25.0075
  11   2.0000      -0.875936       -23.8354
  12   2.0000      -0.861842       -23.4519
  13   2.0000      -0.815769       -22.1982
  14   2.0000      -0.764174       -20.7942
  15   2.0000      -0.761378       -20.7181
  16   2.0000      -0.733033       -19.9468
  17   2.0000      -0.698061       -18.9952
  18   2.0000      -0.674017       -18.3409
  19   2.0000      -0.627054       -17.0630
  20   2.0000      -0.598231       -16.2787
  21   2.0000      -0.577773       -15.7220
  22   2.0000      -0.543102       -14.7786
  23   2.0000      -0.515511       -14.0278
  24   0.0000      -0.124094        -3.3768
  25   0.0000      -0.119848        -3.2612
  26   0.0000      -0.086018        -2.3407
  27   0.0000      -0.081020        -2.2047
  28   0.0000      -0.054441        -1.4814

MULLIKEN ATOMIC CHARGES
-----------------------
   0 C :    0.379405
   1 N :   -0.279265
   2 C :    1.233151
   3 N :    0.079972
   4 N :    0.094972
   5 H :   -0.055380
   6 H :   -0.197424
   7 H :   -0.243576
   8 H :   -0.084533
   9 H :   -0.075111
  10 C :    0.869514
  11 H :   -0.385621
  12 H :   -0.064616
  13 H :   -0.115639
  14 H :   -0.053999
  15 H :   -0.101849
Sum of atomic charges:    1.0000000

LOEWDIN ATOMIC CHARGES
----------------------
   0 C :    0.034714
   1 N :    0.043909
   2 C :   -0.034221
   3 N :    0.264575
   4 N :    0.284590
   5 H :    0.016539
   6 H :    0.035673
   7 H :    0.062475
   8 H :    0.042136
   9 H :    0.041271
  10 C :    0.162116
  11 H :    0.041318
  12 H :    0.029082
  13 H :   -0.004312
  14 H :    0.002894
  15 H :   -0.022758

  Mayer bond orders larger than 0.100000
B(  0-C ,  1-N ) :   0.9499 B(  0-C ,  2-C ) :  -0.1102 B(  0-C ,  7-H ) :  -0.1519
B(  0-C , 10-C ) :   1.2520 B(  0-C , 11-H ) :   0.8572 B(  0-C , 12-H ) :   0.8666
B(  0-C , 13-H ) :   0.2598 B(  0-C , 14-H ) :   0.1646 B(  0-C , 15-H ) :   0.2021
B(  1-N ,  2-C ) :   1.0630 B(  1-N ,  3-N ) :   0.2392 B(  1-N ,  4-N ) :   0.2168
B(  1-N ,  7-H ) :   1.2880 B(  1-N , 11-H ) :   0.1830 B(  2-C ,  3-N ) :   0.8995
B(  2-C ,  4-N ) :   0.9484 B(  2-C ,  5-H ) :  -0.1295 B(  2-C ,  6-H ) :  -0.1773
B(  2-C ,  7-H ) :  -0.2637 B(  2-C ,  8-H ) :  -0.1736 B(  2-C ,  9-H ) :  -0.1460
B(  3-N ,  4-N ) :   0.1444 B(  3-N ,  8-H ) :   1.2052 B(  3-N ,  9-H ) :   1.2329
B(  4-N ,  5-H ) :   1.1015 B(  4-N ,  6-H ) :   1.2802 B(  5-H ,  6-H ) :  -0.2107
B(  8-H ,  9-H ) :  -0.1841 B( 10-C , 13-H ) :   0.7653 B( 10-C , 14-H ) :   0.8020
B( 10-C , 15-H ) :   0.7810

FINAL SINGLE POINT ENERGY      -284.067882342673

DIPOLE MOMENT
-------------
                                X             Y             Z
Electronic contribution:     -1.81725       1.58108      -4.46624
Nuclear contribution   :      1.34333      -1.11039       3.43667
                        -----------------------------------------
Total Dipole Moment    :     -0.47393       0.47069      -1.02957
                        -----------------------------------------
Magnitude (a.u.)       :      1.22726
Magnitude (Debye)      :      3.11946

Rotational constants in cm-1:     0.227161     0.075356     0.065003
Rotational constants in MHz :  6810.114531  2259.122204  1948.738523

                             ****ORCA TERMINATED NORMALLY****
TOTAL RUN TIME: 0 days 0 hours 0 minutes 34 seconds 632 msec
