                         Program Version 5.0.0 -  RELEASE  -
|  1> !CAM-B3LYP RIJCOSX def2-SVPD def2/J TightSCF
|  2> *xyz 0 1
|  3> C          4.90646       -3.10282       -5.95484
|  4> C          3.51177       -2.80621       -6.49228
|  5> H          2.73604       -3.37345       -5.97374
|  6> H          3.44490       -3.04083       -7.55528
|  7> S          3.00462       -1.09621       -6.38926
|  8> F          4.12886       -0.32965       -6.95372
|  9> O          1.78128       -1.00078       -7.13640
| 10> O          2.85155       -0.78368       -4.95679
| 11> H          5.62703       -2.52424       -6.49422
| 12> H          5.12164       -4.14387       -6.07654
| 13> H          4.95004       -2.84862       -4.91639
| 14> *
| 15>
| 16> %MaxCore 64000
| 17>
| 18> %pal nprocs 4
| 19> end
| 20>
| 21> %scf
| 22>   MaxIter 150
| 23> end
| 24>
| 25>
| 26>                          ****END OF INPUT****

CARTESIAN COORDINATES (ANGSTROEM)
---------------------------------
  C      4.906460   -3.102820   -5.954840
  C      3.511770   -2.806210   -6.492280
  H      2.736040   -3.373450   -5.973740
  H      3.444900   -3.040830   -7.555280
  S      3.004620   -1.096210   -6.389260
  F      4.128860   -0.329650   -6.953720
  O      1.781280   -1.000780   -7.136400
  O      2.851550   -0.783680   -4.956790
  H      5.627030   -2.524240   -6.494220
  H      5.121640   -4.143870   -6.076540
  H      4.950040   -2.848620   -4.916390

 Total Charge           Charge          ....    0
 Multiplicity           Mult            ....    1
 Number of Electrons    NEL             ....   58
 Basis Dimension        Dim             ....  176

ORBITAL ENERGIES
----------------

  NO   OCC          E(Eh)            E(eV)
   0   2.0000     -89.220691     -2427.8184
   1   2.0000     -24.881889      -677.0706
   2   2.0000     -19.232955      -523.3553
   3   2.0000     -19.220661      -523.0208
   4   2.0000     -10.328940      -281.0648
   5   2.0000     -10.287532      -279.9380
   6   2.0000      -8.274813      -225.1691
   7   2.0000      -6.248895      -170.0411
   8   2.0000      -6.242497      -169.8670
   9   2.0000      -6.241080      -169.8284
  10   2.0000      -1.438874       -39.1538
  11   2.0000      -1.199294       -32.6344
  12   2.0000      -1.094123       -29.7726
  13   2.0000      -0.913768       -24.8649
  14   2.0000      -0.808141       -21.9906
  15   2.0000      -0.758819       -20.6485
  16   2.0000      -0.667721       -18.1696
  17   2.0000      -0.651060       -17.7162
  18   2.0000      -0.623907       -16.9774
  19   2.0000      -0.573857       -15.6154
  20   2.0000      -0.554830       -15.0977
  21   2.0000      -0.530580       -14.4378
  22   2.0000      -0.512509       -13.9461
  23   2.0000      -0.485268       -13.2048
  24   2.0000      -0.472743       -12.8640
  25   2.0000      -0.454551       -12.3690
  26   2.0000      -0.408750       -11.1226
  27   2.0000      -0.397092       -10.8054
  28   2.0000      -0.382367       -10.4047
  29   0.0000       0.022341         0.6079
  30   0.0000       0.056151         1.5280
  31   0.0000       0.059403         1.6164
  32   0.0000       0.063875         1.7381
  33   0.0000       0.083867         2.2821

MULLIKEN ATOMIC CHARGES
-----------------------
   0 C :    0.980871
   1 C :   -0.230446
   2 H :   -0.083575
   3 H :   -0.060262
   4 S :    1.463378
   5 F :   -0.413984
   6 O :   -0.635617
   7 O :   -0.684304
   8 H :   -0.106913
   9 H :   -0.139558
  10 H :   -0.089591
Sum of atomic charges:   -0.0000000

LOEWDIN ATOMIC CHARGES
----------------------
   0 C :    0.136323
   1 C :   -0.091426
   2 H :    0.039222
   3 H :    0.023659
   4 S :    1.116134
   5 F :   -0.267196
   6 O :   -0.461421
   7 O :   -0.479684
   8 H :   -0.010034
   9 H :   -0.003927
  10 H :   -0.001649

  Mayer bond orders larger than 0.100000
B(  0-C ,  1-C ) :   1.2672 B(  0-C ,  8-H ) :   0.7764 B(  0-C ,  9-H ) :   0.6972
B(  0-C , 10-H ) :   0.7798 B(  1-C ,  2-H ) :   0.9625 B(  1-C ,  3-H ) :   0.9705
B(  1-C ,  4-S ) :   0.9913 B(  1-C ,  8-H ) :   0.2034 B(  1-C ,  9-H ) :   0.2391
B(  1-C , 10-H ) :   0.2039 B(  4-S ,  5-F ) :   0.6437 B(  4-S ,  6-O ) :   1.5635
B(  4-S ,  7-O ) :   1.4945

FINAL SINGLE POINT ENERGY      -727.169681431384

DIPOLE MOMENT
-------------
                                X             Y             Z
Electronic contribution:     -2.94261       8.10592      -1.76069
Nuclear contribution   :      4.18919      -9.36357       1.23251
                        -----------------------------------------
Total Dipole Moment    :      1.24658      -1.25765      -0.52818
                        -----------------------------------------
Magnitude (a.u.)       :      1.84787
Magnitude (Debye)      :      4.69691

Rotational constants in cm-1:     0.153152     0.082513     0.079874
Rotational constants in MHz :  4591.373714  2473.673397  2394.575279

                             ****ORCA TERMINATED NORMALLY****
TOTAL RUN TIME: 0 days 0 hours 0 minutes 25 seconds 955 msec
