                         Program Version 5.0.0 -  RELEASE  -
|  1> !CAM-B3LYP RIJCOSX def2-SVPD def2/J TightSCF
|  2> *xyz 0 1
|  3> C          4.49059        1.15590       -2.46929
|  4> C          4.30539        1.22276       -3.90832
|  5> C          4.63192        2.24637       -4.67096
|  6> N          4.54169        2.14399       -5.98714
|  7> N          5.08409        3.39358       -4.11855
|  8> H          4.92067        3.57050       -3.13587
|  9> H          5.25465        4.19739       -4.70696
| 10> H          3.82453        0.44911       -4.35093
| 11> H          4.34337        1.24932       -6.41665
| 12> H          4.67671        2.95662       -6.57411
| 13> C          5.94213        0.93950       -2.03689
| 14> H          3.86431        0.32853       -2.13661
| 15> H          4.07623        2.04999       -1.98901
| 16> H          6.32982        0.06401       -2.51451
| 17> H          5.98308        0.81426       -0.97504
| 18> H          6.52865        1.78889       -2.31873
| 19> *
| 20>
| 21> %MaxCore 64000
| 22>
| 23> %pal nprocs 4
| 24> end
| 25>
| 26> %scf
| 27>   MaxIter 150
| 28> end
| 29>
| 30>
| 31>                          ****END OF INPUT****

CARTESIAN COORDINATES (ANGSTROEM)
---------------------------------
  C      4.490590    1.155900   -2.469290
  C      4.305390    1.222760   -3.908320
  C      4.631920    2.246370   -4.670960
  N      4.541690    2.143990   -5.987140
  N      5.084090    3.393580   -4.118550
  H      4.920670    3.570500   -3.135870
  H      5.254650    4.197390   -4.706960
  H      3.824530    0.449110   -4.350930
  H      4.343370    1.249320   -6.416650
  H      4.676710    2.956620   -6.574110
  C      5.942130    0.939500   -2.036890
  H      3.864310    0.328530   -2.136610
  H      4.076230    2.049990   -1.989010
  H      6.329820    0.064010   -2.514510
  H      5.983080    0.814260   -0.975040
  H      6.528650    1.788890   -2.318730

 Total Charge           Charge          ....    0
 Multiplicity           Mult            ....    1
 Number of Electrons    NEL             ....   48
 Basis Dimension        Dim             ....  200

ORBITAL ENERGIES
----------------

  NO   OCC          E(Eh)            E(eV)
   0   2.0000     -14.406339      -392.0164
   1   2.0000     -14.404021      -391.9533
   2   2.0000     -10.302973      -280.3581
   3   2.0000     -10.231771      -278.4206
   4   2.0000     -10.221364      -278.1375
   5   2.0000     -10.178508      -276.9713
   6   2.0000      -1.035513       -28.1778
   7   2.0000      -0.942775       -25.6542
   8   2.0000      -0.848579       -23.0910
   9   2.0000      -0.768530       -20.9128
  10   2.0000      -0.690383       -18.7863
  11   2.0000      -0.650338       -17.6966
  12   2.0000      -0.614366       -16.7178
  13   2.0000      -0.579009       -15.7556
  14   2.0000      -0.544600       -14.8193
  15   2.0000      -0.506897       -13.7934
  16   2.0000      -0.491694       -13.3797
  17   2.0000      -0.459494       -12.5035
  18   2.0000      -0.453954       -12.3527
  19   2.0000      -0.416738       -11.3400
  20   2.0000      -0.394026       -10.7220
  21   2.0000      -0.381341       -10.3768
  22   2.0000      -0.331145        -9.0109
  23   2.0000      -0.218441        -5.9441
  24   0.0000       0.046324         1.2605
  25   0.0000       0.070586         1.9208
  26   0.0000       0.081428         2.2158
  27   0.0000       0.091378         2.4865
  28   0.0000       0.111293         3.0284

MULLIKEN ATOMIC CHARGES
-----------------------
   0 C :   -0.056002
   1 C :   -0.284209
   2 C :    0.977697
   3 N :    0.116285
   4 N :    0.108783
   5 H :   -0.078056
   6 H :   -0.301942
   7 H :   -0.515235
   8 H :   -0.081742
   9 H :   -0.200326
  10 C :    0.850820
  11 H :   -0.093355
  12 H :   -0.099604
  13 H :   -0.118256
  14 H :   -0.095401
  15 H :   -0.129459
Sum of atomic charges:   -0.0000000

LOEWDIN ATOMIC CHARGES
----------------------
   0 C :   -0.105301
   1 C :   -0.040373
   2 C :   -0.219865
   3 N :    0.178430
   4 N :    0.206689
   5 H :   -0.013563
   6 H :   -0.013147
   7 H :   -0.051629
   8 H :    0.008342
   9 H :   -0.009402
  10 C :    0.120006
  11 H :    0.014590
  12 H :    0.004831
  13 H :   -0.019177
  14 H :   -0.027531
  15 H :   -0.032899

  Mayer bond orders larger than 0.100000
B(  0-C ,  1-C ) :   1.2465 B(  0-C ,  7-H ) :   0.3056 B(  0-C , 10-C ) :   1.2304
B(  0-C , 11-H ) :   0.7792 B(  0-C , 12-H ) :   0.8480 B(  0-C , 13-H ) :   0.1971
B(  0-C , 14-H ) :   0.1833 B(  0-C , 15-H ) :   0.2270 B(  1-C ,  2-C ) :   1.4811
B(  1-C ,  3-N ) :   0.3957 B(  1-C ,  4-N ) :   0.2361 B(  1-C ,  7-H ) :   0.9063
B(  1-C , 11-H ) :   0.3429 B(  1-C , 12-H ) :   0.1730 B(  2-C ,  3-N ) :   0.8499
B(  2-C ,  4-N ) :   0.9528 B(  2-C ,  6-H ) :  -0.1727 B(  2-C ,  8-H ) :  -0.1032
B(  3-N ,  8-H ) :   1.1889 B(  3-N ,  9-H ) :   1.2312 B(  4-N ,  5-H ) :   1.0842
B(  4-N ,  6-H ) :   1.3116 B(  5-H ,  6-H ) :  -0.1948 B(  7-H , 11-H ) :  -0.1199
B(  8-H ,  9-H ) :  -0.1744 B( 10-C , 13-H ) :   0.8085 B( 10-C , 14-H ) :   0.7871
B( 10-C , 15-H ) :   0.7742

FINAL SINGLE POINT ENERGY      -267.595670904388

DIPOLE MOMENT
-------------
                                X             Y             Z
Electronic contribution:     -1.26926       1.96459      -4.11287
Nuclear contribution   :      1.23062      -1.24683       3.43056
                        -----------------------------------------
Total Dipole Moment    :     -0.03864       0.71776      -0.68230
                        -----------------------------------------
Magnitude (a.u.)       :      0.99106
Magnitude (Debye)      :      2.51908

Rotational constants in cm-1:     0.231477     0.075416     0.065327
Rotational constants in MHz :  6939.497385  2260.912204  1958.442932

                             ****ORCA TERMINATED NORMALLY****
TOTAL RUN TIME: 0 days 0 hours 0 minutes 36 seconds 904 msec
