                         Program Version 5.0.0 -  RELEASE  -
|  1> !CAM-B3LYP RIJCOSX def2-SVPD def2/J TightSCF
|  2> *xyz 0 1
|  3> C          4.90646       -3.10282       -5.95484
|  4> C          3.51177       -2.80621       -6.49228
|  5> H          2.73604       -3.37345       -5.97374
|  6> H          3.44490       -3.04083       -7.55528
|  7> S          3.00462       -1.09621       -6.38926
|  8> O          4.12886       -0.32965       -6.95372
|  9> F          1.78128       -1.00078       -7.13640
| 10> O          2.85155       -0.78368       -4.95679
| 11> H          5.62703       -2.52424       -6.49422
| 12> H          5.12164       -4.14387       -6.07654
| 13> H          4.95004       -2.84862       -4.91639
| 14> *
| 15>
| 16> %MaxCore 64000
| 17>
| 18> %pal nprocs 4
| 19> end
| 20>
| 21> %scf
| 22>   MaxIter 150
| 23> end
| 24>
| 25>
| 26>                          ****END OF INPUT****

CARTESIAN COORDINATES (ANGSTROEM)
---------------------------------
  C      4.906460   -3.102820   -5.954840
  C      3.511770   -2.806210   -6.492280
  H      2.736040   -3.373450   -5.973740
  H      3.444900   -3.040830   -7.555280
  S      3.004620   -1.096210   -6.389260
  O      4.128860   -0.329650   -6.953720
  F      1.781280   -1.000780   -7.136400
  O      2.851550   -0.783680   -4.956790
  H      5.627030   -2.524240   -6.494220
  H      5.121640   -4.143870   -6.076540
  H      4.950040   -2.848620   -4.916390

 Total Charge           Charge          ....    0
 Multiplicity           Mult            ....    1
 Number of Electrons    NEL             ....   58
 Basis Dimension        Dim             ....  176

ORBITAL ENERGIES
----------------

  NO   OCC          E(Eh)            E(eV)
   0   2.0000     -89.222488     -2427.8673
   1   2.0000     -24.900427      -677.5751
   2   2.0000     -19.220944      -523.0285
   3   2.0000     -19.220873      -523.0265
   4   2.0000     -10.329871      -281.0901
   5   2.0000     -10.282595      -279.8036
   6   2.0000      -8.276710      -225.2207
   7   2.0000      -6.250854      -170.0944
   8   2.0000      -6.244215      -169.9137
   9   2.0000      -6.242872      -169.8772
  10   2.0000      -1.470249       -40.0075
  11   2.0000      -1.185980       -32.2722
  12   2.0000      -1.080179       -29.3932
  13   2.0000      -0.910859       -24.7857
  14   2.0000      -0.823273       -22.4024
  15   2.0000      -0.760484       -20.6938
  16   2.0000      -0.673945       -18.3390
  17   2.0000      -0.671022       -18.2594
  18   2.0000      -0.634895       -17.2764
  19   2.0000      -0.574561       -15.6346
  20   2.0000      -0.557472       -15.1696
  21   2.0000      -0.514206       -13.9922
  22   2.0000      -0.506358       -13.7787
  23   2.0000      -0.482609       -13.1325
  24   2.0000      -0.461042       -12.5456
  25   2.0000      -0.452758       -12.3202
  26   2.0000      -0.397295       -10.8110
  27   2.0000      -0.395131       -10.7521
  28   2.0000      -0.371186       -10.1005
  29   0.0000       0.024187         0.6582
  30   0.0000       0.048923         1.3313
  31   0.0000       0.061906         1.6845
  32   0.0000       0.063144         1.7182
  33   0.0000       0.087363         2.3773

MULLIKEN ATOMIC CHARGES
-----------------------
   0 C :    0.960894
   1 C :   -0.255809
   2 H :   -0.080288
   3 H :   -0.048908
   4 S :    1.491579
   5 O :   -0.674854
   6 F :   -0.402435
   7 O :   -0.673543
   8 H :   -0.086464
   9 H :   -0.137536
  10 H :   -0.092635
Sum of atomic charges:   -0.0000000

LOEWDIN ATOMIC CHARGES
----------------------
   0 C :    0.151011
   1 C :   -0.103598
   2 H :    0.025513
   3 H :    0.021290
   4 S :    1.121496
   5 O :   -0.479476
   6 F :   -0.251627
   7 O :   -0.480496
   8 H :   -0.003715
   9 H :   -0.002214
  10 H :    0.001815

  Mayer bond orders larger than 0.100000
B(  0-C ,  1-C ) :   1.3130 B(  0-C ,  8-H ) :   0.7810 B(  0-C ,  9-H ) :   0.7035
B(  0-C , 10-H ) :   0.7711 B(  1-C ,  2-H ) :   0.9535 B(  1-C ,  3-H ) :   0.9455
B(  1-C ,  4-S ) :   0.9640 B(  1-C ,  8-H ) :   0.2116 B(  1-C ,  9-H ) :   0.2381
B(  1-C , 10-H ) :   0.2034 B(  4-S ,  5-O ) :   1.4912 B(  4-S ,  6-F ) :   0.6976
B(  4-S ,  7-O ) :   1.4845

FINAL SINGLE POINT ENERGY      -727.153902330069

DIPOLE MOMENT
-------------
                                X             Y             Z
Electronic contribution:     -6.94559       6.97966      -2.06962
Nuclear contribution   :      6.63544      -8.66423       1.42287
                        -----------------------------------------
Total Dipole Moment    :     -0.31015      -1.68457      -0.64675
                        -----------------------------------------
Magnitude (a.u.)       :      1.83092
Magnitude (Debye)      :      4.65382

Rotational constants in cm-1:     0.158118     0.080978     0.078216
Rotational constants in MHz :  4740.271775  2427.649826  2344.849020

                             ****ORCA TERMINATED NORMALLY****
TOTAL RUN TIME: 0 days 0 hours 0 minutes 25 seconds 851 msec
