                         Program Version 5.0.0 -  RELEASE  -
|  1> !CAM-B3LYP RIJCOSX def2-SVPD def2/J TightSCF
|  2> *xyz 0 1
|  3> C          4.49059        1.15590       -2.46929
|  4> N          4.30539        1.22276       -3.90832
|  5> C          4.63192        2.24637       -4.67096
|  6> C          4.54169        2.14399       -5.98714
|  7> N          5.08409        3.39358       -4.11855
|  8> H          4.92067        3.57050       -3.13587
|  9> H          5.25465        4.19739       -4.70696
| 10> H          3.82453        0.44911       -4.35093
| 11> H          4.34337        1.24932       -6.41665
| 12> H          4.67671        2.95662       -6.57411
| 13> C          5.94213        0.93950       -2.03689
| 14> H          3.86431        0.32853       -2.13661
| 15> H          4.07623        2.04999       -1.98901
| 16> H          6.32982        0.06401       -2.51451
| 17> H          5.98308        0.81426       -0.97504
| 18> H          6.52865        1.78889       -2.31873
| 19> *
| 20>
| 21> %MaxCore 64000
| 22>
| 23> %pal nprocs 4
| 24> end
| 25>
| 26> %scf
| 27>   MaxIter 150
| 28> end
| 29>
| 30>
| 31>                          ****END OF INPUT****

CARTESIAN COORDINATES (ANGSTROEM)
---------------------------------
  C      4.490590    1.155900   -2.469290
  N      4.305390    1.222760   -3.908320
  C      4.631920    2.246370   -4.670960
  C      4.541690    2.143990   -5.987140
  N      5.084090    3.393580   -4.118550
  H      4.920670    3.570500   -3.135870
  H      5.254650    4.197390   -4.706960
  H      3.824530    0.449110   -4.350930
  H      4.343370    1.249320   -6.416650
  H      4.676710    2.956620   -6.574110
  C      5.942130    0.939500   -2.036890
  H      3.864310    0.328530   -2.136610
  H      4.076230    2.049990   -1.989010
  H      6.329820    0.064010   -2.514510
  H      5.983080    0.814260   -0.975040
  H      6.528650    1.788890   -2.318730

 Total Charge           Charge          ....    0
 Multiplicity           Mult            ....    1
 Number of Electrons    NEL             ....   48
 Basis Dimension        Dim             ....  200

ORBITAL ENERGIES
----------------

  NO   OCC          E(Eh)            E(eV)
   0   2.0000     -14.404050      -391.9541
   1   2.0000     -14.404018      -391.9533
   2   2.0000     -10.305034      -280.4142
   3   2.0000     -10.299646      -280.2676
   4   2.0000     -10.247067      -278.8369
   5   2.0000     -10.168222      -276.6914
   6   2.0000      -1.044095       -28.4113
   7   2.0000      -0.954841       -25.9825
   8   2.0000      -0.846947       -23.0466
   9   2.0000      -0.776103       -21.1188
  10   2.0000      -0.704271       -19.1642
  11   2.0000      -0.670169       -18.2362
  12   2.0000      -0.607828       -16.5398
  13   2.0000      -0.569056       -15.4848
  14   2.0000      -0.550272       -14.9737
  15   2.0000      -0.518193       -14.1008
  16   2.0000      -0.493923       -13.4403
  17   2.0000      -0.471807       -12.8385
  18   2.0000      -0.449012       -12.2182
  19   2.0000      -0.442226       -12.0336
  20   2.0000      -0.427042       -11.6204
  21   2.0000      -0.419390       -11.4122
  22   2.0000      -0.319895        -8.7048
  23   2.0000      -0.220538        -6.0011
  24   0.0000       0.043123         1.1734
  25   0.0000       0.071538         1.9467
  26   0.0000       0.075853         2.0641
  27   0.0000       0.081907         2.2288
  28   0.0000       0.112270         3.0550

MULLIKEN ATOMIC CHARGES
-----------------------
   0 C :    0.390377
   1 N :   -0.197175
   2 C :    0.685598
   3 C :    0.433934
   4 N :    0.242475
   5 H :   -0.154867
   6 H :   -0.226520
   7 H :   -0.301214
   8 H :   -0.368852
   9 H :   -0.457307
  10 C :    0.870804
  11 H :   -0.445179
  12 H :   -0.110728
  13 H :   -0.133159
  14 H :   -0.118648
  15 H :   -0.109540
Sum of atomic charges:    0.0000000

LOEWDIN ATOMIC CHARGES
----------------------
   0 C :    0.003984
   1 N :   -0.016631
   2 C :   -0.236177
   3 C :    0.139151
   4 N :    0.203439
   5 H :   -0.026968
   6 H :    0.003739
   7 H :    0.036036
   8 H :   -0.100444
   9 H :   -0.102960
  10 C :    0.134874
  11 H :    0.019744
  12 H :    0.009169
  13 H :   -0.016175
  14 H :   -0.020859
  15 H :   -0.029921

  Mayer bond orders larger than 0.100000
B(  0-C ,  1-N ) :   0.9445 B(  0-C ,  7-H ) :  -0.1681 B(  0-C , 10-C ) :   1.2363
B(  0-C , 11-H ) :   0.8530 B(  0-C , 12-H ) :   0.8666 B(  0-C , 13-H ) :   0.2665
B(  0-C , 14-H ) :   0.1794 B(  0-C , 15-H ) :   0.2120 B(  1-N ,  2-C ) :   1.0871
B(  1-N ,  3-C ) :   0.2234 B(  1-N ,  4-N ) :   0.1568 B(  1-N ,  7-H ) :   1.2624
B(  1-N , 11-H ) :   0.1838 B(  1-N , 12-H ) :   0.1217 B(  2-C ,  3-C ) :   1.3457
B(  2-C ,  4-N ) :   0.9578 B(  2-C ,  6-H ) :  -0.1235 B(  2-C ,  7-H ) :  -0.2227
B(  2-C ,  9-H ) :   0.1423 B(  3-C ,  4-N ) :   0.1964 B(  3-C ,  8-H ) :   0.8061
B(  3-C ,  9-H ) :   0.7500 B(  4-N ,  5-H ) :   1.0663 B(  4-N ,  6-H ) :   1.2206
B(  5-H ,  6-H ) :  -0.1977 B( 10-C , 13-H ) :   0.7640 B( 10-C , 14-H ) :   0.8061
B( 10-C , 15-H ) :   0.7848

FINAL SINGLE POINT ENERGY      -267.587981486270

DIPOLE MOMENT
-------------
                                X             Y             Z
Electronic contribution:     -1.42362       1.07878      -1.93915
Nuclear contribution   :      1.28075      -1.05140       2.98955
                        -----------------------------------------
Total Dipole Moment    :     -0.14287       0.02738       1.05041
                        -----------------------------------------
Magnitude (a.u.)       :      1.06043
Magnitude (Debye)      :      2.69541

Rotational constants in cm-1:     0.229858     0.078444     0.067377
Rotational constants in MHz :  6890.979812  2351.691803  2019.910665

                             ****ORCA TERMINATED NORMALLY****
TOTAL RUN TIME: 0 days 0 hours 0 minutes 35 seconds 961 msec
