                         Program Version 5.0.0 -  RELEASE  -
|  1> !CAM-B3LYP RIJCOSX def2-SVPD def2/J TightSCF
|  2> *xyz 0 1
|  3> C          4.90646       -3.10282       -5.95484
|  4> C          3.51177       -2.80621       -6.49228
|  5> H          2.73604       -3.37345       -5.97374
|  6> H          3.44490       -3.04083       -7.55528
|  7> S          3.00462       -1.09621       -6.38926
|  8> O          4.12886       -0.32965       -6.95372
|  9> O          1.78128       -1.00078       -7.13640
| 10> F          2.85155       -0.78368       -4.95679
| 11> H          5.62703       -2.52424       -6.49422
| 12> H          5.12164       -4.14387       -6.07654
| 13> H          4.95004       -2.84862       -4.91639
| 14> *
| 15>
| 16> %MaxCore 64000
| 17>
| 18> %pal nprocs 4
| 19> end
| 20>
| 21> %scf
| 22>   MaxIter 150
| 23> end
| 24>
| 25>
| 26>                          ****END OF INPUT****

CARTESIAN COORDINATES (ANGSTROEM)
---------------------------------
  C      4.906460   -3.102820   -5.954840
  C      3.511770   -2.806210   -6.492280
  H      2.736040   -3.373450   -5.973740
  H      3.444900   -3.040830   -7.555280
  S      3.004620   -1.096210   -6.389260
  O      4.128860   -0.329650   -6.953720
  O      1.781280   -1.000780   -7.136400
  F      2.851550   -0.783680   -4.956790
  H      5.627030   -2.524240   -6.494220
  H      5.121640   -4.143870   -6.076540
  H      4.950040   -2.848620   -4.916390

 Total Charge           Charge          ....    0
 Multiplicity           Mult            ....    1
 Number of Electrons    NEL             ....   58
 Basis Dimension        Dim             ....  176

ORBITAL ENERGIES
----------------

  NO   OCC          E(Eh)            E(eV)
   0   2.0000     -89.220775     -2427.8207
   1   2.0000     -24.881529      -677.0608
   2   2.0000     -19.233129      -523.3600
   3   2.0000     -19.221018      -523.0305
   4   2.0000     -10.328812      -281.0613
   5   2.0000     -10.284415      -279.8532
   6   2.0000      -8.274881      -225.1709
   7   2.0000      -6.248915      -170.0416
   8   2.0000      -6.242562      -169.8687
   9   2.0000      -6.241205      -169.8318
  10   2.0000      -1.437930       -39.1281
  11   2.0000      -1.199396       -32.6372
  12   2.0000      -1.095826       -29.8189
  13   2.0000      -0.911394       -24.8003
  14   2.0000      -0.807552       -21.9746
  15   2.0000      -0.757679       -20.6175
  16   2.0000      -0.664791       -18.0899
  17   2.0000      -0.649997       -17.6873
  18   2.0000      -0.625851       -17.0303
  19   2.0000      -0.572428       -15.5766
  20   2.0000      -0.557231       -15.1630
  21   2.0000      -0.531839       -14.4721
  22   2.0000      -0.508385       -13.8339
  23   2.0000      -0.481362       -13.0985
  24   2.0000      -0.473096       -12.8736
  25   2.0000      -0.451914       -12.2972
  26   2.0000      -0.409102       -11.1322
  27   2.0000      -0.397546       -10.8178
  28   2.0000      -0.383867       -10.4455
  29   0.0000       0.022428         0.6103
  30   0.0000       0.055369         1.5067
  31   0.0000       0.060266         1.6399
  32   0.0000       0.062759         1.7077
  33   0.0000       0.081924         2.2293

MULLIKEN ATOMIC CHARGES
-----------------------
   0 C :    0.992108
   1 C :   -0.244040
   2 H :   -0.090848
   3 H :   -0.049888
   4 S :    1.468376
   5 O :   -0.687087
   6 O :   -0.638165
   7 F :   -0.413828
   8 H :   -0.083811
   9 H :   -0.137013
  10 H :   -0.115804
Sum of atomic charges:    0.0000000

LOEWDIN ATOMIC CHARGES
----------------------
   0 C :    0.136936
   1 C :   -0.092963
   2 H :    0.025294
   3 H :    0.035723
   4 S :    1.117836
   5 O :   -0.477733
   6 O :   -0.461799
   7 F :   -0.267255
   8 H :   -0.005785
   9 H :   -0.004365
  10 H :   -0.005890

  Mayer bond orders larger than 0.100000
B(  0-C ,  1-C ) :   1.2746 B(  0-C ,  8-H ) :   0.7883 B(  0-C ,  9-H ) :   0.6954
B(  0-C , 10-H ) :   0.7610 B(  1-C ,  2-H ) :   0.9603 B(  1-C ,  3-H ) :   0.9649
B(  1-C ,  4-S ) :   0.9931 B(  1-C ,  8-H ) :   0.2133 B(  1-C ,  9-H ) :   0.2367
B(  1-C , 10-H ) :   0.2039 B(  4-S ,  5-O ) :   1.4989 B(  4-S ,  6-O ) :   1.5603
B(  4-S ,  7-F ) :   0.6356

FINAL SINGLE POINT ENERGY      -727.170017216746

DIPOLE MOMENT
-------------
                                X             Y             Z
Electronic contribution:     -5.12793       7.34242       1.65599
Nuclear contribution   :      5.52019      -8.89046      -0.84835
                        -----------------------------------------
Total Dipole Moment    :      0.39226      -1.54804       0.80764
                        -----------------------------------------
Magnitude (a.u.)       :      1.78957
Magnitude (Debye)      :      4.54873

Rotational constants in cm-1:     0.153332     0.082132     0.079755
Rotational constants in MHz :  4596.775407  2462.251277  2391.008596

                             ****ORCA TERMINATED NORMALLY****
TOTAL RUN TIME: 0 days 0 hours 0 minutes 25 seconds 815 msec
