                         Program Version 5.0.0 -  RELEASE  -
|  1> !CAM-B3LYP RIJCOSX def2-SVPD def2/J TightSCF
|  2> *xyz 0 1
|  3> C          4.49059        1.15590       -2.46929
|  4> N          4.30539        1.22276       -3.90832
|  5> C          4.63192        2.24637       -4.67096
|  6> N          4.54169        2.14399       -5.98714
|  7> C          5.08409        3.39358       -4.11855
|  8> H          4.92067        3.57050       -3.13587
|  9> H          5.25465        4.19739       -4.70696
| 10> H          3.82453        0.44911       -4.35093
| 11> H          4.34337        1.24932       -6.41665
| 12> H          4.67671        2.95662       -6.57411
| 13> C          5.94213        0.93950       -2.03689
| 14> H          3.86431        0.32853       -2.13661
| 15> H          4.07623        2.04999       -1.98901
| 16> H          6.32982        0.06401       -2.51451
| 17> H          5.98308        0.81426       -0.97504
| 18> H          6.52865        1.78889       -2.31873
| 19> *
| 20>
| 21> %MaxCore 64000
| 22>
| 23> %pal nprocs 4
| 24> end
| 25>
| 26> %scf
| 27>   MaxIter 150
| 28> end
| 29>
| 30>
| 31>                          ****END OF INPUT****

CARTESIAN COORDINATES (ANGSTROEM)
---------------------------------
  C      4.490590    1.155900   -2.469290
  N      4.305390    1.222760   -3.908320
  C      4.631920    2.246370   -4.670960
  N      4.541690    2.143990   -5.987140
  C      5.084090    3.393580   -4.118550
  H      4.920670    3.570500   -3.135870
  H      5.254650    4.197390   -4.706960
  H      3.824530    0.449110   -4.350930
  H      4.343370    1.249320   -6.416650
  H      4.676710    2.956620   -6.574110
  C      5.942130    0.939500   -2.036890
  H      3.864310    0.328530   -2.136610
  H      4.076230    2.049990   -1.989010
  H      6.329820    0.064010   -2.514510
  H      5.983080    0.814260   -0.975040
  H      6.528650    1.788890   -2.318730

 Total Charge           Charge          ....    0
 Multiplicity           Mult            ....    1
 Number of Electrons    NEL             ....   48
 Basis Dimension        Dim             ....  200

ORBITAL ENERGIES
----------------

  NO   OCC          E(Eh)            E(eV)
   0   2.0000     -14.408387      -392.0721
   1   2.0000     -14.406715      -392.0266
   2   2.0000     -10.308369      -280.5050
   3   2.0000     -10.291316      -280.0410
   4   2.0000     -10.236846      -278.5587
   5   2.0000     -10.169458      -276.7250
   6   2.0000      -1.048111       -28.5206
   7   2.0000      -0.962308       -26.1857
   8   2.0000      -0.827391       -22.5144
   9   2.0000      -0.781981       -21.2788
  10   2.0000      -0.713892       -19.4260
  11   2.0000      -0.633298       -17.2329
  12   2.0000      -0.626357       -17.0441
  13   2.0000      -0.592436       -16.1210
  14   2.0000      -0.541532       -14.7358
  15   2.0000      -0.509444       -13.8627
  16   2.0000      -0.483249       -13.1499
  17   2.0000      -0.465484       -12.6665
  18   2.0000      -0.448160       -12.1951
  19   2.0000      -0.431357       -11.7378
  20   2.0000      -0.429596       -11.6899
  21   2.0000      -0.410786       -11.1781
  22   2.0000      -0.315336        -8.5807
  23   2.0000      -0.222041        -6.0420
  24   0.0000       0.046042         1.2529
  25   0.0000       0.067413         1.8344
  26   0.0000       0.076379         2.0784
  27   0.0000       0.088047         2.3959
  28   0.0000       0.114504         3.1158

MULLIKEN ATOMIC CHARGES
-----------------------
   0 C :    0.382868
   1 N :   -0.254160
   2 C :    0.575150
   3 N :    0.196096
   4 C :    0.511210
   5 H :   -0.193618
   6 H :   -0.598029
   7 H :   -0.366896
   8 H :   -0.205351
   9 H :   -0.101817
  10 C :    0.888341
  11 H :   -0.439260
  12 H :   -0.002377
  13 H :   -0.154934
  14 H :   -0.100364
  15 H :   -0.136859
Sum of atomic charges:    0.0000000

LOEWDIN ATOMIC CHARGES
----------------------
   0 C :    0.010535
   1 N :   -0.021821
   2 C :   -0.235535
   3 N :    0.184447
   4 C :    0.158549
   5 H :   -0.116636
   6 H :   -0.107837
   7 H :    0.021861
   8 H :   -0.007112
   9 H :    0.009345
  10 C :    0.138217
  11 H :    0.018379
  12 H :    0.017046
  13 H :   -0.019803
  14 H :   -0.020004
  15 H :   -0.029631

  Mayer bond orders larger than 0.100000
B(  0-C ,  1-N ) :   0.9539 B(  0-C ,  2-C ) :  -0.1149 B(  0-C ,  5-H ) :   0.1035
B(  0-C ,  7-H ) :  -0.1567 B(  0-C , 10-C ) :   1.2133 B(  0-C , 11-H ) :   0.8921
B(  0-C , 12-H ) :   0.8513 B(  0-C , 13-H ) :   0.2524 B(  0-C , 14-H ) :   0.1704
B(  0-C , 15-H ) :   0.2082 B(  1-N ,  2-C ) :   1.0222 B(  1-N ,  3-N ) :   0.1543
B(  1-N ,  4-C ) :   0.3575 B(  1-N ,  7-H ) :   1.3678 B(  1-N , 11-H ) :   0.1575
B(  2-C ,  3-N ) :   0.9579 B(  2-C ,  4-C ) :   1.6688 B(  2-C ,  5-H ) :   0.2704
B(  2-C ,  6-H ) :   0.1773 B(  2-C ,  7-H ) :  -0.3054 B(  3-N ,  4-C ) :   0.2400
B(  3-N ,  8-H ) :   1.1958 B(  3-N ,  9-H ) :   1.2081 B(  4-C ,  5-H ) :   0.6342
B(  4-C ,  6-H ) :   0.7809 B(  5-H ,  6-H ) :   0.1292 B(  8-H ,  9-H ) :  -0.1776
B( 10-C , 13-H ) :   0.7585 B( 10-C , 14-H ) :   0.8031 B( 10-C , 15-H ) :   0.7965

FINAL SINGLE POINT ENERGY      -267.587464672860

DIPOLE MOMENT
-------------
                                X             Y             Z
Electronic contribution:     -1.89718      -0.12394      -3.82610
Nuclear contribution   :      1.39581      -0.78630       3.38596
                        -----------------------------------------
Total Dipole Moment    :     -0.50137      -0.91025      -0.44013
                        -----------------------------------------
Magnitude (a.u.)       :      1.12856
Magnitude (Debye)      :      2.86856

Rotational constants in cm-1:     0.239249     0.075811     0.066261
Rotational constants in MHz :  7172.504830  2272.756282  1986.457543

                             ****ORCA TERMINATED NORMALLY****
TOTAL RUN TIME: 0 days 0 hours 0 minutes 34 seconds 543 msec
