                         Program Version 5.0.0 -  RELEASE  -
|  1> !CAM-B3LYP RIJCOSX def2-SVPD def2/J TightSCF xyzfile
|  2>
|  3> *xyzfile 0 1 D2.xyz
|  4>
|  5> %MaxCore 64000
|  6>
|  7> %pal nprocs 4
|  8> end
|  9>
| 10> %scf
| 11>   MaxIter 150
| 12> end
| 13>
| 14>
| 15>                          ****END OF INPUT****

CARTESIAN COORDINATES (ANGSTROEM)
---------------------------------
  C      4.490588    1.155899   -2.469290
  N      4.305394    1.222762   -3.908317
  C      4.906458   -3.102816   -5.954844
  C      3.511771   -2.806215   -6.492283
  H      2.736044   -3.373445   -5.973736
  H      3.444904   -3.040831   -7.555281
  S      3.004618   -1.096206   -6.389259
  C      4.631918    2.246365   -4.670958
  C      4.541686    2.143990   -5.987139
  N      5.084086    3.393584   -4.118545
  H      4.920675    3.570501   -3.135870
  H      5.254652    4.197390   -4.706956
  H      3.824530    0.449113   -4.350926
  H      4.343373    1.249318   -6.416646
  H      4.676712    2.956624   -6.574113
  F      4.128856   -0.329647   -6.953717
  O      1.781285   -1.000779   -7.136399
  C      5.942129    0.939500   -2.036893
  H      3.864305    0.328532   -2.136611
  H      4.076233    2.049994   -1.989010
  C      6.462677   -3.117775   -3.944671
  C      5.024977   -3.025679   -4.437625
  H      4.423321   -3.818693   -3.977648
  H      4.579350   -2.087131   -4.108727
  H      5.201533   -4.100207   -6.296905
  H      5.605922   -2.397822   -6.413368
  C      6.559957   -0.356290   -2.559086
  H      5.967976    0.952567   -0.942444
  H      6.547184    1.788331   -2.368849
  C      6.006283   -1.615917   -1.899301
  H      7.642360   -0.318000   -2.402059
  H      6.414855   -0.403433   -3.642587
  C      6.608718   -2.917014   -2.435655
  H      6.190324   -1.561115   -0.820948
  H      4.919250   -1.651245   -2.016586
  H      7.066975   -2.374258   -4.475514
  H      6.887808   -4.089747   -4.215332
  H      6.135197   -3.755573   -1.915159
  H      7.671142   -2.955503   -2.172291
  O      2.851546   -0.783683   -4.956789

 Total Charge           Charge          ....    0
 Multiplicity           Mult            ....    1
 Number of Electrons    NEL             ....  144
 Basis Dimension        Dim             ....  540

ORBITAL ENERGIES
----------------

  NO   OCC          E(Eh)            E(eV)
   0   2.0000     -89.233682     -2428.1719
   1   2.0000     -24.886860      -677.2059
   2   2.0000     -19.240536      -523.5616
   3   2.0000     -19.237455      -523.4778
   4   2.0000     -14.392392      -391.6369
   5   2.0000     -14.373904      -391.1338
   6   2.0000     -10.330175      -281.0984
   7   2.0000     -10.293704      -280.1059
   8   2.0000     -10.291382      -280.0428
   9   2.0000     -10.281690      -279.7790
  10   2.0000     -10.265781      -279.3461
  11   2.0000     -10.260839      -279.2116
  12   2.0000     -10.256275      -279.0874
  13   2.0000     -10.251354      -278.9535
  14   2.0000     -10.247336      -278.8442
  15   2.0000     -10.246743      -278.8281
  16   2.0000     -10.152135      -276.2536
  17   2.0000      -8.286171      -225.4782
  18   2.0000      -6.260294      -170.3513
  19   2.0000      -6.254219      -170.1859
  20   2.0000      -6.252401      -170.1365
  21   2.0000      -1.447092       -39.3774
  22   2.0000      -1.210461       -32.9383
  23   2.0000      -1.110619       -30.2215
  24   2.0000      -1.026967       -27.9452
  25   2.0000      -0.940457       -25.5911
  26   2.0000      -0.930271       -25.3140
  27   2.0000      -0.893404       -24.3108
  28   2.0000      -0.863391       -23.4941
  29   2.0000      -0.828505       -22.5448
  30   2.0000      -0.806796       -21.9540
  31   2.0000      -0.779559       -21.2129
  32   2.0000      -0.755459       -20.5571
  33   2.0000      -0.724164       -19.7055
  34   2.0000      -0.700664       -19.0660
  35   2.0000      -0.679062       -18.4782
  36   2.0000      -0.670149       -18.2357
  37   2.0000      -0.663904       -18.0658
  38   2.0000      -0.654978       -17.8228
  39   2.0000      -0.632568       -17.2131
  40   2.0000      -0.627701       -17.0806
  41   2.0000      -0.590614       -16.0714
  42   2.0000      -0.576844       -15.6967
  43   2.0000      -0.566369       -15.4117
  44   2.0000      -0.558068       -15.1858
  45   2.0000      -0.552486       -15.0339
  46   2.0000      -0.539987       -14.6938
  47   2.0000      -0.538553       -14.6548
  48   2.0000      -0.532166       -14.4810
  49   2.0000      -0.514324       -13.9955
  50   2.0000      -0.507960       -13.8223
  51   2.0000      -0.503342       -13.6966
  52   2.0000      -0.492060       -13.3896
  53   2.0000      -0.471606       -12.8330
  54   2.0000      -0.463643       -12.6164
  55   2.0000      -0.462869       -12.5953
  56   2.0000      -0.451793       -12.2939
  57   2.0000      -0.442738       -12.0475
  58   2.0000      -0.437322       -11.9001
  59   2.0000      -0.431483       -11.7412
  60   2.0000      -0.425617       -11.5816
  61   2.0000      -0.419495       -11.4150
  62   2.0000      -0.410772       -11.1777
  63   2.0000      -0.408169       -11.1068
  64   2.0000      -0.401013       -10.9121
  65   2.0000      -0.394835       -10.7440
  66   2.0000      -0.391183       -10.6446
  67   2.0000      -0.380007       -10.3405
  68   2.0000      -0.377910       -10.2835
  69   2.0000      -0.373535       -10.1644
  70   2.0000      -0.302893        -8.2421
  71   2.0000      -0.207618        -5.6496
  72   0.0000       0.025306         0.6886
  73   0.0000       0.048565         1.3215
  74   0.0000       0.051747         1.4081
  75   0.0000       0.054657         1.4873
  76   0.0000       0.065836         1.7915

MULLIKEN ATOMIC CHARGES
-----------------------
   0 C :    1.160130
   1 N :    0.440629
   2 C :    0.430740
   3 C :    0.426511
   4 H :   -0.038081
   5 H :   -0.094906
   6 S :    1.424049
   7 C :    0.921634
   8 C :    0.814404
   9 N :    0.378720
  10 H :   -0.099112
  11 H :   -0.252385
  12 H :   -1.177233
  13 H :   -0.651490
  14 H :   -0.740694
  15 F :   -0.484924
  16 O :   -0.688360
  17 C :    0.486144
  18 H :   -0.401113
  19 H :   -0.263630
  20 C :    0.177022
  21 C :    0.464275
  22 H :   -0.017229
  23 H :   -0.658208
  24 H :   -0.183360
  25 H :   -0.046196
  26 C :    0.312286
  27 H :   -0.241730
  28 H :   -0.121089
  29 C :    0.006600
  30 H :   -0.244503
  31 H :   -0.214251
  32 C :    0.803031
  33 H :   -0.428065
  34 H :    0.072142
  35 H :    0.054970
  36 H :   -0.423522
  37 H :   -0.115987
  38 H :   -0.068906
  39 O :   -0.718316
Sum of atomic charges:    0.0000000

LOEWDIN ATOMIC CHARGES
----------------------
   0 C :    0.060777
   1 N :    0.015312
   2 C :   -0.031942
   3 C :   -0.036211
   4 H :    0.044408
   5 H :    0.028375
   6 S :    1.165303
   7 C :   -0.207148
   8 C :    0.166638
   9 N :    0.204522
  10 H :   -0.027185
  11 H :    0.001521
  12 H :   -0.094790
  13 H :   -0.168985
  14 H :   -0.097933
  15 F :   -0.266290
  16 O :   -0.436220
  17 C :   -0.020955
  18 H :    0.018346
  19 H :    0.010385
  20 C :   -0.035039
  21 C :   -0.027905
  22 H :    0.043211
  23 H :   -0.017479
  24 H :    0.038051
  25 H :    0.029132
  26 C :   -0.030883
  27 H :    0.020301
  28 H :    0.010901
  29 C :   -0.037498
  30 H :    0.026754
  31 H :    0.008306
  32 C :   -0.028767
  33 H :    0.024580
  34 H :    0.006353
  35 H :    0.018468
  36 H :    0.024152
  37 H :    0.022216
  38 H :    0.023443
  39 O :   -0.446223

  Mayer bond orders larger than 0.100000
B(  0-C ,  1-N ) :   1.0115 B(  0-C , 12-H ) :  -0.5424 B(  0-C , 17-C ) :   1.0889
B(  0-C , 18-H ) :   0.5646 B(  0-C , 19-H ) :   0.8138 B(  0-C , 26-C ) :   0.1606
B(  0-C , 27-H ) :   0.1218 B(  0-C , 28-H ) :   0.1007 B(  1-N ,  7-C ) :   1.2122
B(  1-N ,  8-C ) :   0.1076 B(  1-N ,  9-N ) :   0.3015 B(  1-N , 12-H ) :   0.7519
B(  1-N , 18-H ) :   0.2795 B(  2-C ,  3-C ) :   1.1648 B(  2-C ,  5-H ) :   0.2633
B(  2-C , 20-C ) :   0.1357 B(  2-C , 21-C ) :   1.1075 B(  2-C , 22-H ) :   0.1152
B(  2-C , 24-H ) :   0.7743 B(  2-C , 25-H ) :   0.8185 B(  3-C ,  4-H ) :   0.8858
B(  3-C ,  5-H ) :   0.7121 B(  3-C ,  6-S ) :   1.0110 B(  3-C , 21-C ) :   0.1196
B(  5-H ,  6-S ) :   0.1152 B(  6-S , 15-F ) :   0.6277 B(  6-S , 16-O ) :   1.4828
B(  6-S , 39-O ) :   1.3966 B(  7-C ,  8-C ) :   1.3337 B(  7-C ,  9-N ) :   0.8629
B(  7-C , 12-H ) :  -0.8226 B(  7-C , 14-H ) :   0.2209 B(  8-C ,  9-N ) :   0.2905
B(  8-C , 13-H ) :   0.2064 B(  8-C , 14-H ) :   0.6014 B(  9-N , 10-H ) :   0.9791
B(  9-N , 11-H ) :   1.1977 B( 10-H , 11-H ) :  -0.1948 B( 12-H , 18-H ) :   0.1212
B( 12-H , 39-O ) :   0.1541 B( 13-H , 14-H ) :  -0.1970 B( 13-H , 15-F ) :   0.2169
B( 16-O , 39-O ) :   0.1265 B( 17-C , 18-H ) :   0.1146 B( 17-C , 19-H ) :   0.1248
B( 17-C , 26-C ) :   1.1962 B( 17-C , 27-H ) :   0.8841 B( 17-C , 28-H ) :   0.6749
B( 17-C , 31-H ) :   0.1261 B( 18-H , 19-H ) :  -0.2129 B( 20-C , 21-C ) :   1.2015
B( 20-C , 22-H ) :   0.1201 B( 20-C , 23-H ) :   0.1298 B( 20-C , 29-C ) :   0.1494
B( 20-C , 32-C ) :   1.1212 B( 20-C , 35-H ) :   0.8389 B( 20-C , 36-H ) :   0.8770
B( 20-C , 37-H ) :   0.1106 B( 20-C , 38-H ) :   0.2518 B( 21-C , 22-H ) :   0.6720
B( 21-C , 23-H ) :   0.6256 B( 21-C , 24-H ) :   0.1976 B( 21-C , 25-H ) :   0.1086
B( 21-C , 35-H ) :   0.1032 B( 21-C , 36-H ) :   0.1994 B( 22-H , 23-H ) :   0.2099
B( 23-H , 34-H ) :   0.1291 B( 26-C , 28-H ) :   0.2452 B( 26-C , 29-C ) :   1.2051
B( 26-C , 30-H ) :   0.8140 B( 26-C , 31-H ) :   0.8676 B( 26-C , 33-H ) :   0.1459
B( 26-C , 34-H ) :   0.1119 B( 27-H , 28-H ) :  -0.1256 B( 29-C , 30-H ) :   0.1607
B( 29-C , 31-H ) :   0.1331 B( 29-C , 32-C ) :   1.1134 B( 29-C , 33-H ) :   0.9586
B( 29-C , 34-H ) :   0.8374 B( 29-C , 37-H ) :   0.3252 B( 29-C , 38-H ) :   0.1412
B( 32-C , 37-H ) :   0.6099 B( 32-C , 38-H ) :   0.6456 B( 37-H , 38-H ) :  -0.1291

FINAL SINGLE POINT ENERGY     -1189.866879532515

DIPOLE MOMENT
-------------
                                X             Y             Z
Electronic contribution:    -16.33837       3.89168     -19.59378
Nuclear contribution   :     17.27667      -5.32157      20.03034
                        -----------------------------------------
Total Dipole Moment    :      0.93830      -1.42988       0.43656
                        -----------------------------------------
Magnitude (a.u.)       :      1.76509
Magnitude (Debye)      :      4.48651

Rotational constants in cm-1:     0.014355     0.012269     0.007481
Rotational constants in MHz :   430.360270   367.823451   224.273399

                             ****ORCA TERMINATED NORMALLY****
TOTAL RUN TIME: 0 days 0 hours 7 minutes 48 seconds 979 msec
