                         Program Version 5.0.0 -  RELEASE  -
|  1> !CAM-B3LYP RIJCOSX def2-SVPD def2/J TightSCF xyzfile
|  2>
|  3> *xyzfile 0 1 D5.xyz
|  4>
|  5> %MaxCore 64000
|  6>
|  7> %pal nprocs 4
|  8> end
|  9>
| 10> %scf
| 11>   MaxIter 150
| 12> end
| 13>
| 14>
| 15>                          ****END OF INPUT****

CARTESIAN COORDINATES (ANGSTROEM)
---------------------------------
  C      4.490588    1.155899   -2.469290
  N      4.305394    1.222762   -3.908317
  C      4.906458   -3.102816   -5.954844
  C      3.511771   -2.806215   -6.492283
  H      2.736044   -3.373445   -5.973736
  H      3.444904   -3.040831   -7.555281
  S      3.004618   -1.096206   -6.389259
  C      4.631918    2.246365   -4.670958
  C      4.541686    2.143990   -5.987139
  N      5.084086    3.393584   -4.118545
  H      4.920675    3.570501   -3.135870
  H      5.254652    4.197390   -4.706956
  H      3.824530    0.449113   -4.350926
  H      4.343373    1.249318   -6.416646
  H      4.676712    2.956624   -6.574113
  O      4.128856   -0.329647   -6.953717
  F      1.781285   -1.000779   -7.136399
  C      5.942129    0.939500   -2.036893
  H      3.864305    0.328532   -2.136611
  H      4.076233    2.049994   -1.989010
  C      6.462677   -3.117775   -3.944671
  C      5.024977   -3.025679   -4.437625
  H      4.423321   -3.818693   -3.977648
  H      4.579350   -2.087131   -4.108727
  H      5.201533   -4.100207   -6.296905
  H      5.605922   -2.397822   -6.413368
  C      6.559957   -0.356290   -2.559086
  H      5.967976    0.952567   -0.942444
  H      6.547184    1.788331   -2.368849
  C      6.006283   -1.615917   -1.899301
  H      7.642360   -0.318000   -2.402059
  H      6.414855   -0.403433   -3.642587
  C      6.608718   -2.917014   -2.435655
  H      6.190324   -1.561115   -0.820948
  H      4.919250   -1.651245   -2.016586
  H      7.066975   -2.374258   -4.475514
  H      6.887808   -4.089747   -4.215332
  H      6.135197   -3.755573   -1.915159
  H      7.671142   -2.955503   -2.172291
  O      2.851546   -0.783683   -4.956789

 Total Charge           Charge          ....    0
 Multiplicity           Mult            ....    1
 Number of Electrons    NEL             ....  144
 Basis Dimension        Dim             ....  540

ORBITAL ENERGIES
----------------

  NO   OCC          E(Eh)            E(eV)
   0   2.0000     -89.238225     -2428.2956
   1   2.0000     -24.910287      -677.8434
   2   2.0000     -19.240398      -523.5578
   3   2.0000     -19.229533      -523.2622
   4   2.0000     -14.378608      -391.2618
   5   2.0000     -14.361452      -390.7950
   6   2.0000     -10.333072      -281.1772
   7   2.0000     -10.290518      -280.0192
   8   2.0000     -10.273236      -279.5490
   9   2.0000     -10.273126      -279.5460
  10   2.0000     -10.261792      -279.2376
  11   2.0000     -10.255969      -279.0791
  12   2.0000     -10.251689      -278.9626
  13   2.0000     -10.245937      -278.8061
  14   2.0000     -10.239794      -278.6390
  15   2.0000     -10.238870      -278.6138
  16   2.0000     -10.127592      -275.5858
  17   2.0000      -8.290902      -225.6069
  18   2.0000      -6.265098      -170.4820
  19   2.0000      -6.258731      -170.3087
  20   2.0000      -6.257041      -170.2627
  21   2.0000      -1.479130       -40.2492
  22   2.0000      -1.203942       -32.7609
  23   2.0000      -1.098820       -29.9004
  24   2.0000      -1.013215       -27.5710
  25   2.0000      -0.928690       -25.2709
  26   2.0000      -0.926954       -25.2237
  27   2.0000      -0.889446       -24.2031
  28   2.0000      -0.860461       -23.4143
  29   2.0000      -0.831212       -22.6184
  30   2.0000      -0.805439       -21.9171
  31   2.0000      -0.776723       -21.1357
  32   2.0000      -0.746229       -20.3059
  33   2.0000      -0.719324       -19.5738
  34   2.0000      -0.697205       -18.9719
  35   2.0000      -0.685425       -18.6514
  36   2.0000      -0.669461       -18.2170
  37   2.0000      -0.666610       -18.1394
  38   2.0000      -0.652502       -17.7555
  39   2.0000      -0.633790       -17.2463
  40   2.0000      -0.620456       -16.8835
  41   2.0000      -0.587985       -15.9999
  42   2.0000      -0.580008       -15.7828
  43   2.0000      -0.564988       -15.3741
  44   2.0000      -0.551203       -14.9990
  45   2.0000      -0.547815       -14.9068
  46   2.0000      -0.534572       -14.5464
  47   2.0000      -0.533202       -14.5092
  48   2.0000      -0.521258       -14.1841
  49   2.0000      -0.513403       -13.9704
  50   2.0000      -0.501664       -13.6510
  51   2.0000      -0.494764       -13.4632
  52   2.0000      -0.485613       -13.2142
  53   2.0000      -0.467552       -12.7227
  54   2.0000      -0.458158       -12.4671
  55   2.0000      -0.455030       -12.3820
  56   2.0000      -0.445433       -12.1209
  57   2.0000      -0.439625       -11.9628
  58   2.0000      -0.426809       -11.6141
  59   2.0000      -0.423577       -11.5261
  60   2.0000      -0.421185       -11.4610
  61   2.0000      -0.413948       -11.2641
  62   2.0000      -0.404101       -10.9962
  63   2.0000      -0.398589       -10.8462
  64   2.0000      -0.392527       -10.6812
  65   2.0000      -0.385443       -10.4884
  66   2.0000      -0.375060       -10.2059
  67   2.0000      -0.373238       -10.1563
  68   2.0000      -0.367208        -9.9922
  69   2.0000      -0.356029        -9.6881
  70   2.0000      -0.290428        -7.9029
  71   2.0000      -0.189212        -5.1487
  72   0.0000       0.020947         0.5700
  73   0.0000       0.043358         1.1798
  74   0.0000       0.051050         1.3891
  75   0.0000       0.057792         1.5726
  76   0.0000       0.065666         1.7869

MULLIKEN ATOMIC CHARGES
-----------------------
   0 C :    1.173131
   1 N :    0.392476
   2 C :    0.347052
   3 C :    0.410021
   4 H :   -0.038019
   5 H :   -0.056882
   6 S :    1.602759
   7 C :    0.885961
   8 C :    0.734794
   9 N :    0.366437
  10 H :   -0.102546
  11 H :   -0.254580
  12 H :   -1.143563
  13 H :   -0.559246
  14 H :   -0.779949
  15 O :   -0.671600
  16 F :   -0.519934
  17 C :    0.480718
  18 H :   -0.408264
  19 H :   -0.264878
  20 C :    0.171813
  21 C :    0.431143
  22 H :   -0.019795
  23 H :   -0.659163
  24 H :   -0.163722
  25 H :   -0.003134
  26 C :    0.324365
  27 H :   -0.249811
  28 H :   -0.119651
  29 C :    0.006152
  30 H :   -0.245725
  31 H :   -0.216160
  32 C :    0.803372
  33 H :   -0.431546
  34 H :    0.073360
  35 H :    0.061467
  36 H :   -0.426081
  37 H :   -0.117661
  38 H :   -0.066245
  39 O :   -0.746864
Sum of atomic charges:    0.0000000

LOEWDIN ATOMIC CHARGES
----------------------
   0 C :    0.057658
   1 N :    0.015750
   2 C :   -0.017224
   3 C :   -0.047286
   4 H :    0.030702
   5 H :    0.026060
   6 S :    1.199222
   7 C :   -0.211921
   8 C :    0.169795
   9 N :    0.198319
  10 H :   -0.031556
  11 H :   -0.001507
  12 H :   -0.089931
  13 H :   -0.197076
  14 H :   -0.100843
  15 O :   -0.445923
  16 F :   -0.233881
  17 C :   -0.021626
  18 H :    0.016019
  19 H :    0.008337
  20 C :   -0.033699
  21 C :   -0.025706
  22 H :    0.041091
  23 H :   -0.014502
  24 H :    0.040717
  25 H :    0.034237
  26 C :   -0.029985
  27 H :    0.018712
  28 H :    0.010915
  29 C :   -0.038472
  30 H :    0.026209
  31 H :    0.010926
  32 C :   -0.029519
  33 H :    0.023733
  34 H :    0.005528
  35 H :    0.020686
  36 H :    0.023592
  37 H :    0.021141
  38 H :    0.023171
  39 O :   -0.451864

  Mayer bond orders larger than 0.100000
B(  0-C ,  1-N ) :   0.9959 B(  0-C , 12-H ) :  -0.5429 B(  0-C , 17-C ) :   1.0852
B(  0-C , 18-H ) :   0.5565 B(  0-C , 19-H ) :   0.8178 B(  0-C , 26-C ) :   0.1644
B(  0-C , 27-H ) :   0.1192 B(  0-C , 28-H ) :   0.1013 B(  1-N ,  7-C ) :   1.1925
B(  1-N ,  8-C ) :   0.1185 B(  1-N ,  9-N ) :   0.3014 B(  1-N , 12-H ) :   0.8004
B(  1-N , 18-H ) :   0.2826 B(  2-C ,  3-C ) :   1.2227 B(  2-C ,  5-H ) :   0.3071
B(  2-C , 20-C ) :   0.1429 B(  2-C , 21-C ) :   1.1242 B(  2-C , 22-H ) :   0.1142
B(  2-C , 24-H ) :   0.7587 B(  2-C , 25-H ) :   0.8375 B(  3-C ,  4-H ) :   0.8835
B(  3-C ,  5-H ) :   0.6362 B(  3-C ,  6-S ) :   0.9869 B(  3-C , 21-C ) :   0.1476
B(  3-C , 25-H ) :   0.1081 B(  6-S , 15-O ) :   1.4249 B(  6-S , 16-F ) :   0.5134
B(  6-S , 39-O ) :   1.3323 B(  7-C ,  8-C ) :   1.3069 B(  7-C ,  9-N ) :   0.8360
B(  7-C , 12-H ) :  -0.8005 B(  7-C , 14-H ) :   0.1669 B(  8-C ,  9-N ) :   0.3008
B(  8-C , 13-H ) :   0.4570 B(  8-C , 14-H ) :   0.6176 B(  9-N , 10-H ) :   0.9806
B(  9-N , 11-H ) :   1.2039 B( 10-H , 11-H ) :  -0.1950 B( 12-H , 18-H ) :   0.1222
B( 12-H , 39-O ) :   0.1485 B( 13-H , 14-H ) :  -0.2022 B( 13-H , 15-O ) :   0.1582
B( 15-O , 39-O ) :   0.1026 B( 17-C , 18-H ) :   0.1164 B( 17-C , 19-H ) :   0.1256
B( 17-C , 26-C ) :   1.1945 B( 17-C , 27-H ) :   0.8884 B( 17-C , 28-H ) :   0.6774
B( 17-C , 31-H ) :   0.1272 B( 18-H , 19-H ) :  -0.2136 B( 20-C , 21-C ) :   1.2115
B( 20-C , 22-H ) :   0.1206 B( 20-C , 23-H ) :   0.1289 B( 20-C , 29-C ) :   0.1510
B( 20-C , 32-C ) :   1.1204 B( 20-C , 35-H ) :   0.8377 B( 20-C , 36-H ) :   0.8739
B( 20-C , 37-H ) :   0.1110 B( 20-C , 38-H ) :   0.2512 B( 21-C , 22-H ) :   0.6685
B( 21-C , 23-H ) :   0.6373 B( 21-C , 24-H ) :   0.2016 B( 21-C , 25-H ) :   0.1050
B( 21-C , 35-H ) :   0.1091 B( 21-C , 36-H ) :   0.2025 B( 22-H , 23-H ) :   0.2199
B( 23-H , 34-H ) :   0.1303 B( 26-C , 28-H ) :   0.2451 B( 26-C , 29-C ) :   1.2030
B( 26-C , 30-H ) :   0.8108 B( 26-C , 31-H ) :   0.8620 B( 26-C , 33-H ) :   0.1440
B( 26-C , 34-H ) :   0.1118 B( 27-H , 28-H ) :  -0.1268 B( 29-C , 30-H ) :   0.1618
B( 29-C , 31-H ) :   0.1317 B( 29-C , 32-C ) :   1.1120 B( 29-C , 33-H ) :   0.9600
B( 29-C , 34-H ) :   0.8367 B( 29-C , 37-H ) :   0.3254 B( 29-C , 38-H ) :   0.1421
B( 32-C , 37-H ) :   0.6089 B( 32-C , 38-H ) :   0.6461 B( 37-H , 38-H ) :  -0.1288

FINAL SINGLE POINT ENERGY     -1189.847992319841

DIPOLE MOMENT
-------------
                                X             Y             Z
Electronic contribution:    -20.60734       2.57193     -20.18882
Nuclear contribution   :     20.03262      -4.53368      20.24480
                        -----------------------------------------
Total Dipole Moment    :     -0.57471      -1.96175       0.05598
                        -----------------------------------------
Magnitude (a.u.)       :      2.04497
Magnitude (Debye)      :      5.19790

Rotational constants in cm-1:     0.014367     0.012055     0.007393
Rotational constants in MHz :   430.711297   361.391195   221.649333

                             ****ORCA TERMINATED NORMALLY****
TOTAL RUN TIME: 0 days 0 hours 8 minutes 14 seconds 216 msec
