                         Program Version 5.0.0 -  RELEASE  -
|  1> !CAM-B3LYP RIJCOSX def2-SVPD def2/J TightSCF xyzfile
|  2>
|  3> *xyzfile 0 1 D6.xyz
|  4>
|  5> %MaxCore 64000
|  6>
|  7> %pal nprocs 4
|  8> end
|  9>
| 10> %scf
| 11>   MaxIter 150
| 12> end
| 13>
| 14>
| 15>                          ****END OF INPUT****

CARTESIAN COORDINATES (ANGSTROEM)
---------------------------------
  C      4.490588    1.155899   -2.469290
  N      4.305394    1.222762   -3.908317
  C      4.906458   -3.102816   -5.954844
  C      3.511771   -2.806215   -6.492283
  H      2.736044   -3.373445   -5.973736
  H      3.444904   -3.040831   -7.555281
  S      3.004618   -1.096206   -6.389259
  C      4.631918    2.246365   -4.670958
  N      4.541686    2.143990   -5.987139
  C      5.084086    3.393584   -4.118545
  H      4.920675    3.570501   -3.135870
  H      5.254652    4.197390   -4.706956
  H      3.824530    0.449113   -4.350926
  H      4.343373    1.249318   -6.416646
  H      4.676712    2.956624   -6.574113
  O      4.128856   -0.329647   -6.953717
  F      1.781285   -1.000779   -7.136399
  C      5.942129    0.939500   -2.036893
  H      3.864305    0.328532   -2.136611
  H      4.076233    2.049994   -1.989010
  C      6.462677   -3.117775   -3.944671
  C      5.024977   -3.025679   -4.437625
  H      4.423321   -3.818693   -3.977648
  H      4.579350   -2.087131   -4.108727
  H      5.201533   -4.100207   -6.296905
  H      5.605922   -2.397822   -6.413368
  C      6.559957   -0.356290   -2.559086
  H      5.967976    0.952567   -0.942444
  H      6.547184    1.788331   -2.368849
  C      6.006283   -1.615917   -1.899301
  H      7.642360   -0.318000   -2.402059
  H      6.414855   -0.403433   -3.642587
  C      6.608718   -2.917014   -2.435655
  H      6.190324   -1.561115   -0.820948
  H      4.919250   -1.651245   -2.016586
  H      7.066975   -2.374258   -4.475514
  H      6.887808   -4.089747   -4.215332
  H      6.135197   -3.755573   -1.915159
  H      7.671142   -2.955503   -2.172291
  O      2.851546   -0.783683   -4.956789

 Total Charge           Charge          ....    0
 Multiplicity           Mult            ....    1
 Number of Electrons    NEL             ....  144
 Basis Dimension        Dim             ....  540

ORBITAL ENERGIES
----------------

  NO   OCC          E(Eh)            E(eV)
   0   2.0000     -89.257512     -2428.8204
   1   2.0000     -24.927256      -678.3051
   2   2.0000     -19.256494      -523.9958
   3   2.0000     -19.256419      -523.9938
   4   2.0000     -14.364410      -390.8755
   5   2.0000     -14.361596      -390.7989
   6   2.0000     -10.346911      -281.5538
   7   2.0000     -10.300230      -280.2835
   8   2.0000     -10.275664      -279.6150
   9   2.0000     -10.267955      -279.4052
  10   2.0000     -10.264877      -279.3215
  11   2.0000     -10.259453      -279.1739
  12   2.0000     -10.252358      -278.9808
  13   2.0000     -10.244143      -278.7573
  14   2.0000     -10.235784      -278.5298
  15   2.0000     -10.229013      -278.3456
  16   2.0000     -10.139346      -275.9056
  17   2.0000      -8.310383      -226.1370
  18   2.0000      -6.284517      -171.0104
  19   2.0000      -6.278389      -170.8436
  20   2.0000      -6.276367      -170.7886
  21   2.0000      -1.496364       -40.7181
  22   2.0000      -1.224582       -33.3226
  23   2.0000      -1.120180       -30.4816
  24   2.0000      -1.012676       -27.5563
  25   2.0000      -0.940166       -25.5832
  26   2.0000      -0.927905       -25.2496
  27   2.0000      -0.893584       -24.3157
  28   2.0000      -0.862361       -23.4660
  29   2.0000      -0.835384       -22.7320
  30   2.0000      -0.806452       -21.9447
  31   2.0000      -0.768680       -20.9169
  32   2.0000      -0.753179       -20.4951
  33   2.0000      -0.732122       -19.9220
  34   2.0000      -0.705653       -19.2018
  35   2.0000      -0.702834       -19.1251
  36   2.0000      -0.682824       -18.5806
  37   2.0000      -0.669090       -18.2069
  38   2.0000      -0.660180       -17.9644
  39   2.0000      -0.628240       -17.0953
  40   2.0000      -0.611091       -16.6286
  41   2.0000      -0.595445       -16.2029
  42   2.0000      -0.592874       -16.1329
  43   2.0000      -0.576582       -15.6896
  44   2.0000      -0.567803       -15.4507
  45   2.0000      -0.552084       -15.0230
  46   2.0000      -0.545948       -14.8560
  47   2.0000      -0.533537       -14.5183
  48   2.0000      -0.523590       -14.2476
  49   2.0000      -0.508478       -13.8364
  50   2.0000      -0.501253       -13.6398
  51   2.0000      -0.498360       -13.5611
  52   2.0000      -0.490234       -13.3399
  53   2.0000      -0.474410       -12.9094
  54   2.0000      -0.460039       -12.5183
  55   2.0000      -0.454513       -12.3679
  56   2.0000      -0.451158       -12.2766
  57   2.0000      -0.440026       -11.9737
  58   2.0000      -0.433499       -11.7961
  59   2.0000      -0.425670       -11.5831
  60   2.0000      -0.419890       -11.4258
  61   2.0000      -0.414851       -11.2887
  62   2.0000      -0.408595       -11.1184
  63   2.0000      -0.404169       -10.9980
  64   2.0000      -0.398881       -10.8541
  65   2.0000      -0.395182       -10.7534
  66   2.0000      -0.387897       -10.5552
  67   2.0000      -0.372707       -10.1419
  68   2.0000      -0.370610       -10.0848
  69   2.0000      -0.361694        -9.8422
  70   2.0000      -0.279612        -7.6086
  71   2.0000      -0.191841        -5.2203
  72   0.0000       0.009717         0.2644
  73   0.0000       0.033781         0.9192
  74   0.0000       0.042524         1.1571
  75   0.0000       0.052904         1.4396
  76   0.0000       0.063332         1.7233

MULLIKEN ATOMIC CHARGES
-----------------------
   0 C :    1.124635
   1 N :    0.494447
   2 C :    0.349758
   3 C :    0.402221
   4 H :   -0.025898
   5 H :   -0.051492
   6 S :    1.578936
   7 C :    0.474973
   8 N :    0.781386
   9 C :    0.609386
  10 H :    0.025443
  11 H :   -0.787761
  12 H :   -1.296949
  13 H :   -0.531653
  14 H :   -0.243039
  15 O :   -0.687090
  16 F :   -0.509139
  17 C :    0.503808
  18 H :   -0.433730
  19 H :   -0.173653
  20 C :    0.162533
  21 C :    0.438695
  22 H :   -0.020709
  23 H :   -0.657935
  24 H :   -0.161878
  25 H :   -0.002376
  26 C :    0.290125
  27 H :   -0.212513
  28 H :   -0.130808
  29 C :   -0.000381
  30 H :   -0.248669
  31 H :   -0.222972
  32 C :    0.811074
  33 H :   -0.427289
  34 H :    0.065060
  35 H :    0.068254
  36 H :   -0.429821
  37 H :   -0.118543
  38 H :   -0.064714
  39 O :   -0.741723
Sum of atomic charges:    0.0000000

LOEWDIN ATOMIC CHARGES
----------------------
   0 C :    0.064548
   1 N :    0.015032
   2 C :   -0.016567
   3 C :   -0.043049
   4 H :    0.034116
   5 H :    0.027203
   6 S :    1.204307
   7 C :   -0.215161
   8 N :    0.215659
   9 C :    0.147598
  10 H :   -0.123641
  11 H :   -0.116115
  12 H :   -0.097761
  13 H :   -0.130044
  14 H :    0.008335
  15 O :   -0.441465
  16 F :   -0.230328
  17 C :   -0.013985
  18 H :    0.014325
  19 H :    0.016281
  20 C :   -0.033586
  21 C :   -0.025318
  22 H :    0.041868
  23 H :   -0.014285
  24 H :    0.042414
  25 H :    0.033830
  26 C :   -0.031775
  27 H :    0.020780
  28 H :    0.011371
  29 C :   -0.039014
  30 H :    0.026014
  31 H :    0.007346
  32 C :   -0.029508
  33 H :    0.024398
  34 H :    0.004782
  35 H :    0.020413
  36 H :    0.023595
  37 H :    0.020887
  38 H :    0.023660
  39 O :   -0.447163

  Mayer bond orders larger than 0.100000
B(  0-C ,  1-N ) :   1.0496 B(  0-C , 10-H ) :   0.1254 B(  0-C , 12-H ) :  -0.5567
B(  0-C , 17-C ) :   1.0708 B(  0-C , 18-H ) :   0.6328 B(  0-C , 19-H ) :   0.8281
B(  0-C , 26-C ) :   0.1573 B(  0-C , 27-H ) :   0.1045 B(  1-N ,  7-C ) :   1.0576
B(  1-N ,  9-C ) :   0.2734 B(  1-N , 11-H ) :   0.1378 B(  1-N , 12-H ) :   0.5784
B(  1-N , 13-H ) :   0.1649 B(  1-N , 14-H ) :  -0.1209 B(  1-N , 18-H ) :   0.3066
B(  2-C ,  3-C ) :   1.2250 B(  2-C ,  5-H ) :   0.3112 B(  2-C , 20-C ) :   0.1428
B(  2-C , 21-C ) :   1.1184 B(  2-C , 22-H ) :   0.1118 B(  2-C , 24-H ) :   0.7634
B(  2-C , 25-H ) :   0.8298 B(  3-C ,  4-H ) :   0.8828 B(  3-C ,  5-H ) :   0.6284
B(  3-C ,  6-S ) :   1.0123 B(  3-C , 21-C ) :   0.1501 B(  3-C , 25-H ) :   0.1106
B(  6-S , 15-O ) :   1.3606 B(  6-S , 16-F ) :   0.5392 B(  6-S , 39-O ) :   1.3589
B(  7-C ,  8-N ) :   1.0081 B(  7-C ,  9-C ) :   1.6110 B(  7-C , 10-H ) :   0.3910
B(  7-C , 11-H ) :   0.3846 B(  7-C , 12-H ) :  -0.7369 B(  7-C , 13-H ) :  -0.1752
B(  7-C , 18-H ) :   0.1421 B(  8-N ,  9-C ) :   0.1898 B(  8-N , 13-H ) :   0.8645
B(  8-N , 14-H ) :   1.2255 B(  9-C , 10-H ) :   0.5204 B(  9-C , 11-H ) :   0.5372
B( 10-H , 13-H ) :   0.1724 B( 10-H , 18-H ) :  -0.1228 B( 10-H , 19-H ) :   0.1251
B( 11-H , 12-H ) :  -0.1156 B( 12-H , 39-O ) :   0.2048 B( 13-H , 14-H ) :  -0.2632
B( 13-H , 15-O ) :   0.1755 B( 17-C , 18-H ) :   0.1170 B( 17-C , 19-H ) :   0.1016
B( 17-C , 26-C ) :   1.1652 B( 17-C , 27-H ) :   0.8649 B( 17-C , 28-H ) :   0.7232
B( 17-C , 31-H ) :   0.1291 B( 18-H , 19-H ) :  -0.2498 B( 20-C , 21-C ) :   1.2126
B( 20-C , 22-H ) :   0.1201 B( 20-C , 23-H ) :   0.1331 B( 20-C , 29-C ) :   0.1508
B( 20-C , 32-C ) :   1.1198 B( 20-C , 35-H ) :   0.8375 B( 20-C , 36-H ) :   0.8794
B( 20-C , 37-H ) :   0.1128 B( 20-C , 38-H ) :   0.2513 B( 21-C , 22-H ) :   0.6708
B( 21-C , 23-H ) :   0.6308 B( 21-C , 24-H ) :   0.1970 B( 21-C , 25-H ) :   0.1046
B( 21-C , 35-H ) :   0.1136 B( 21-C , 36-H ) :   0.2034 B( 22-H , 23-H ) :   0.2176
B( 23-H , 34-H ) :   0.1286 B( 26-C , 28-H ) :   0.2486 B( 26-C , 29-C ) :   1.2004
B( 26-C , 30-H ) :   0.8227 B( 26-C , 31-H ) :   0.8675 B( 26-C , 33-H ) :   0.1468
B( 26-C , 34-H ) :   0.1169 B( 27-H , 28-H ) :  -0.1558 B( 29-C , 30-H ) :   0.1628
B( 29-C , 31-H ) :   0.1416 B( 29-C , 32-C ) :   1.1123 B( 29-C , 33-H ) :   0.9614
B( 29-C , 34-H ) :   0.8438 B( 29-C , 37-H ) :   0.3297 B( 29-C , 38-H ) :   0.1427
B( 32-C , 37-H ) :   0.6060 B( 32-C , 38-H ) :   0.6474 B( 37-H , 38-H ) :  -0.1291

FINAL SINGLE POINT ENERGY     -1189.863301614133

DIPOLE MOMENT
-------------
                                X             Y             Z
Electronic contribution:    -21.13501       1.23042     -21.87949
Nuclear contribution   :     20.11362      -4.34709      20.52383
                        -----------------------------------------
Total Dipole Moment    :     -1.02139      -3.11666      -1.35566
                        -----------------------------------------
Magnitude (a.u.)       :      3.54889
Magnitude (Debye)      :      9.02057

Rotational constants in cm-1:     0.014449     0.012108     0.007447
Rotational constants in MHz :   433.168496   362.988632   223.260798

                             ****ORCA TERMINATED NORMALLY****
TOTAL RUN TIME: 0 days 0 hours 8 minutes 6 seconds 108 msec
