                         Program Version 5.0.0 -  RELEASE  -
|  1> !CAM-B3LYP RIJCOSX def2-SVPD def2/J TightSCF xyzfile
|  2>
|  3> *xyzfile 0 1 D9.xyz
|  4>
|  5> %MaxCore 64000
|  6>
|  7> %pal nprocs 4
|  8> end
|  9>
| 10> %scf
| 11>   MaxIter 150
| 12> end
| 13>
| 14>
| 15>                          ****END OF INPUT****

CARTESIAN COORDINATES (ANGSTROEM)
---------------------------------
  C      4.490588    1.155899   -2.469290
  N      4.305394    1.222762   -3.908317
  C      4.906458   -3.102816   -5.954844
  C      3.511771   -2.806215   -6.492283
  H      2.736044   -3.373445   -5.973736
  H      3.444904   -3.040831   -7.555281
  S      3.004618   -1.096206   -6.389259
  C      4.631918    2.246365   -4.670958
  N      4.541686    2.143990   -5.987139
  C      5.084086    3.393584   -4.118545
  H      4.920675    3.570501   -3.135870
  H      5.254652    4.197390   -4.706956
  H      3.824530    0.449113   -4.350926
  H      4.343373    1.249318   -6.416646
  H      4.676712    2.956624   -6.574113
  O      4.128856   -0.329647   -6.953717
  O      1.781285   -1.000779   -7.136399
  C      5.942129    0.939500   -2.036893
  H      3.864305    0.328532   -2.136611
  H      4.076233    2.049994   -1.989010
  C      6.462677   -3.117775   -3.944671
  C      5.024977   -3.025679   -4.437625
  H      4.423321   -3.818693   -3.977648
  H      4.579350   -2.087131   -4.108727
  H      5.201533   -4.100207   -6.296905
  H      5.605922   -2.397822   -6.413368
  C      6.559957   -0.356290   -2.559086
  H      5.967976    0.952567   -0.942444
  H      6.547184    1.788331   -2.368849
  C      6.006283   -1.615917   -1.899301
  H      7.642360   -0.318000   -2.402059
  H      6.414855   -0.403433   -3.642587
  C      6.608718   -2.917014   -2.435655
  H      6.190324   -1.561115   -0.820948
  H      4.919250   -1.651245   -2.016586
  H      7.066975   -2.374258   -4.475514
  H      6.887808   -4.089747   -4.215332
  H      6.135197   -3.755573   -1.915159
  H      7.671142   -2.955503   -2.172291
  F      2.851546   -0.783683   -4.956789

 Total Charge           Charge          ....    0
 Multiplicity           Mult            ....    1
 Number of Electrons    NEL             ....  144
 Basis Dimension        Dim             ....  540

ORBITAL ENERGIES
----------------

  NO   OCC          E(Eh)            E(eV)
   0   2.0000     -89.248141     -2428.5654
   1   2.0000     -24.913424      -677.9287
   2   2.0000     -19.255782      -523.9765
   3   2.0000     -19.251339      -523.8556
   4   2.0000     -14.391335      -391.6081
   5   2.0000     -14.370580      -391.0434
   6   2.0000     -10.341704      -281.4121
   7   2.0000     -10.298820      -280.2451
   8   2.0000     -10.289879      -280.0018
   9   2.0000     -10.282612      -279.8041
  10   2.0000     -10.280869      -279.7567
  11   2.0000     -10.268068      -279.4083
  12   2.0000     -10.261187      -279.2211
  13   2.0000     -10.255401      -279.0637
  14   2.0000     -10.247435      -278.8469
  15   2.0000     -10.242051      -278.7004
  16   2.0000     -10.152683      -276.2686
  17   2.0000      -8.301140      -225.8855
  18   2.0000      -6.275414      -170.7627
  19   2.0000      -6.269006      -170.5883
  20   2.0000      -6.267168      -170.5383
  21   2.0000      -1.471770       -40.0489
  22   2.0000      -1.226228       -33.3674
  23   2.0000      -1.125940       -30.6384
  24   2.0000      -1.030918       -28.0527
  25   2.0000      -0.943323       -25.6691
  26   2.0000      -0.939545       -25.5663
  27   2.0000      -0.899578       -24.4788
  28   2.0000      -0.866298       -23.5732
  29   2.0000      -0.835559       -22.7367
  30   2.0000      -0.813671       -22.1411
  31   2.0000      -0.777397       -21.1540
  32   2.0000      -0.764948       -20.8153
  33   2.0000      -0.739995       -20.1363
  34   2.0000      -0.716832       -19.5060
  35   2.0000      -0.695376       -18.9222
  36   2.0000      -0.682516       -18.5722
  37   2.0000      -0.671686       -18.2775
  38   2.0000      -0.657787       -17.8993
  39   2.0000      -0.638287       -17.3687
  40   2.0000      -0.609791       -16.5933
  41   2.0000      -0.600303       -16.3351
  42   2.0000      -0.591131       -16.0855
  43   2.0000      -0.581872       -15.8335
  44   2.0000      -0.568257       -15.4631
  45   2.0000      -0.566513       -15.4156
  46   2.0000      -0.548959       -14.9379
  47   2.0000      -0.545033       -14.8311
  48   2.0000      -0.527367       -14.3504
  49   2.0000      -0.522247       -14.2111
  50   2.0000      -0.510004       -13.8779
  51   2.0000      -0.508387       -13.8339
  52   2.0000      -0.490600       -13.3499
  53   2.0000      -0.482118       -13.1191
  54   2.0000      -0.468056       -12.7365
  55   2.0000      -0.462062       -12.5733
  56   2.0000      -0.454750       -12.3744
  57   2.0000      -0.445974       -12.1356
  58   2.0000      -0.439780       -11.9670
  59   2.0000      -0.433277       -11.7901
  60   2.0000      -0.429002       -11.6737
  61   2.0000      -0.424048       -11.5389
  62   2.0000      -0.418076       -11.3764
  63   2.0000      -0.413083       -11.2406
  64   2.0000      -0.410632       -11.1739
  65   2.0000      -0.405078       -11.0227
  66   2.0000      -0.401651       -10.9295
  67   2.0000      -0.384648       -10.4668
  68   2.0000      -0.382950       -10.4206
  69   2.0000      -0.374154       -10.1812
  70   2.0000      -0.295925        -8.0525
  71   2.0000      -0.205546        -5.5932
  72   0.0000       0.015420         0.4196
  73   0.0000       0.038325         1.0429
  74   0.0000       0.043074         1.1721
  75   0.0000       0.051245         1.3944
  76   0.0000       0.061307         1.6683

MULLIKEN ATOMIC CHARGES
-----------------------
   0 C :    1.126964
   1 N :    0.581436
   2 C :    0.405405
   3 C :    0.412613
   4 H :   -0.050863
   5 H :   -0.041605
   6 S :    1.432251
   7 C :    0.491134
   8 N :    0.757628
   9 C :    0.621354
  10 H :    0.026528
  11 H :   -0.778591
  12 H :   -1.347910
  13 H :   -0.518966
  14 H :   -0.231271
  15 O :   -0.702917
  16 O :   -0.666686
  17 C :    0.499806
  18 H :   -0.446561
  19 H :   -0.172786
  20 C :    0.151044
  21 C :    0.443266
  22 H :   -0.020411
  23 H :   -0.698760
  24 H :   -0.156750
  25 H :    0.009209
  26 C :    0.294566
  27 H :   -0.203926
  28 H :   -0.126845
  29 C :    0.007448
  30 H :   -0.244257
  31 H :   -0.222537
  32 C :    0.806434
  33 H :   -0.424852
  34 H :    0.049930
  35 H :    0.068733
  36 H :   -0.426513
  37 H :   -0.116965
  38 H :   -0.061179
  39 F :   -0.524596
Sum of atomic charges:    0.0000000

LOEWDIN ATOMIC CHARGES
----------------------
   0 C :    0.063213
   1 N :    0.008282
   2 C :   -0.030123
   3 C :   -0.034803
   4 H :    0.033857
   5 H :    0.040900
   6 S :    1.164135
   7 C :   -0.215524
   8 N :    0.217913
   9 C :    0.153703
  10 H :   -0.120587
  11 H :   -0.110232
  12 H :   -0.066230
  13 H :   -0.129435
  14 H :    0.012764
  15 O :   -0.441045
  16 O :   -0.432769
  17 C :   -0.012050
  18 H :    0.012273
  19 H :    0.018837
  20 C :   -0.031373
  21 C :   -0.031495
  22 H :    0.041796
  23 H :   -0.015366
  24 H :    0.040796
  25 H :    0.031765
  26 C :   -0.031420
  27 H :    0.022861
  28 H :    0.013318
  29 C :   -0.040306
  30 H :    0.028077
  31 H :    0.006818
  32 C :   -0.028551
  33 H :    0.025586
  34 H :    0.001422
  35 H :    0.021488
  36 H :    0.026583
  37 H :    0.021846
  38 H :    0.025037
  39 F :   -0.261960

  Mayer bond orders larger than 0.100000
B(  0-C ,  1-N ) :   1.0618 B(  0-C , 10-H ) :   0.1210 B(  0-C , 12-H ) :  -0.5441
B(  0-C , 17-C ) :   1.0755 B(  0-C , 18-H ) :   0.6197 B(  0-C , 19-H ) :   0.8293
B(  0-C , 26-C ) :   0.1550 B(  0-C , 27-H ) :   0.1040 B(  1-N ,  7-C ) :   1.0734
B(  1-N ,  9-C ) :   0.2836 B(  1-N , 11-H ) :   0.1307 B(  1-N , 12-H ) :   0.3628
B(  1-N , 13-H ) :   0.1619 B(  1-N , 14-H ) :  -0.1211 B(  1-N , 18-H ) :   0.3029
B(  2-C ,  3-C ) :   1.1968 B(  2-C ,  5-H ) :   0.2820 B(  2-C , 20-C ) :   0.1394
B(  2-C , 21-C ) :   1.1318 B(  2-C , 22-H ) :   0.1110 B(  2-C , 24-H ) :   0.7582
B(  2-C , 25-H ) :   0.8408 B(  3-C ,  4-H ) :   0.8957 B(  3-C ,  5-H ) :   0.6670
B(  3-C ,  6-S ) :   0.9968 B(  3-C , 21-C ) :   0.1459 B(  3-C , 25-H ) :   0.1125
B(  6-S , 15-O ) :   1.3969 B(  6-S , 16-O ) :   1.5137 B(  6-S , 39-F ) :   0.6023
B(  7-C ,  8-N ) :   1.0001 B(  7-C ,  9-C ) :   1.6348 B(  7-C , 10-H ) :   0.3847
B(  7-C , 11-H ) :   0.3754 B(  7-C , 12-H ) :  -0.7174 B(  7-C , 13-H ) :  -0.1817
B(  7-C , 18-H ) :   0.1348 B(  8-N ,  9-C ) :   0.1950 B(  8-N , 13-H ) :   0.8833
B(  8-N , 14-H ) :   1.2278 B(  9-C , 10-H ) :   0.5177 B(  9-C , 11-H ) :   0.5380
B( 10-H , 13-H ) :   0.1723 B( 10-H , 18-H ) :  -0.1235 B( 10-H , 19-H ) :   0.1289
B( 11-H , 12-H ) :  -0.1065 B( 12-H , 39-F ) :   0.2716 B( 13-H , 14-H ) :  -0.2699
B( 13-H , 15-O ) :   0.1617 B( 17-C , 18-H ) :   0.1192 B( 17-C , 26-C ) :   1.1688
B( 17-C , 27-H ) :   0.8677 B( 17-C , 28-H ) :   0.7221 B( 17-C , 31-H ) :   0.1303
B( 18-H , 19-H ) :  -0.2461 B( 20-C , 21-C ) :   1.2208 B( 20-C , 22-H ) :   0.1188
B( 20-C , 23-H ) :   0.1526 B( 20-C , 29-C ) :   0.1550 B( 20-C , 32-C ) :   1.1183
B( 20-C , 35-H ) :   0.8388 B( 20-C , 36-H ) :   0.8822 B( 20-C , 37-H ) :   0.1109
B( 20-C , 38-H ) :   0.2525 B( 21-C , 22-H ) :   0.6743 B( 21-C , 23-H ) :   0.5705
B( 21-C , 24-H ) :   0.1961 B( 21-C , 25-H ) :   0.1075 B( 21-C , 35-H ) :   0.1092
B( 21-C , 36-H ) :   0.2007 B( 22-H , 23-H ) :   0.2257 B( 23-H , 34-H ) :   0.1352
B( 26-C , 28-H ) :   0.2457 B( 26-C , 29-C ) :   1.1969 B( 26-C , 30-H ) :   0.8264
B( 26-C , 31-H ) :   0.8679 B( 26-C , 33-H ) :   0.1464 B( 26-C , 34-H ) :   0.1135
B( 27-H , 28-H ) :  -0.1526 B( 29-C , 30-H ) :   0.1615 B( 29-C , 31-H ) :   0.1391
B( 29-C , 32-C ) :   1.1139 B( 29-C , 33-H ) :   0.9614 B( 29-C , 34-H ) :   0.8428
B( 29-C , 37-H ) :   0.3303 B( 29-C , 38-H ) :   0.1417 B( 32-C , 37-H ) :   0.6067
B( 32-C , 38-H ) :   0.6494 B( 37-H , 38-H ) :  -0.1288

FINAL SINGLE POINT ENERGY     -1189.870522475094

DIPOLE MOMENT
-------------
                                X             Y             Z
Electronic contribution:    -18.93597       1.78991     -17.81469
Nuclear contribution   :     18.85717      -4.60195      17.96505
                        -----------------------------------------
Total Dipole Moment    :     -0.07880      -2.81204       0.15036
                        -----------------------------------------
Magnitude (a.u.)       :      2.81716
Magnitude (Debye)      :      7.16065

Rotational constants in cm-1:     0.014436     0.012382     0.007563
Rotational constants in MHz :   432.785702   371.214592   226.743759

                             ****ORCA TERMINATED NORMALLY****
TOTAL RUN TIME: 0 days 0 hours 7 minutes 33 seconds 146 msec
