                         Program Version 5.0.0 -  RELEASE  -
|  1> !M062X D3Zero RIJCOSX def2-SVPD def2/J TightSCF
|  2> *xyz -1 1
|  3> C         -7.33044       -2.67899       -3.20681
|  4> S         -6.01966       -2.92697       -4.41913
|  5> O         -5.64583       -1.58838       -4.91931
|  6> O         -4.88196       -3.50370       -3.66724
|  7> O         -6.54927       -3.80515       -5.42507
|  8> C         -6.28692       -0.73588       -1.89353
|  9> C         -7.46900       -1.24615       -2.71383
| 10> H         -7.60191       -0.60135       -3.58533
| 11> H         -8.38979       -1.17344       -2.12692
| 12> H         -7.11825       -3.37982       -2.39805
| 13> H         -8.24184       -3.00474       -3.70651
| 14> H         -5.39124       -0.81034       -2.47415
| 15> H         -6.18709       -1.32597       -1.00655
| 16> H         -6.45393        0.28631       -1.62495
| 17> *
| 18> %MaxCore 64000
| 19>
| 20> %pal nprocs 8
| 21> end
| 22>
| 23> %scf
| 24>   MaxIter 150
| 25> end
| 26>
| 27>
| 28>                          ****END OF INPUT****

CARTESIAN COORDINATES (ANGSTROEM)
---------------------------------
  C     -7.330440   -2.678990   -3.206810
  S     -6.019660   -2.926970   -4.419130
  O     -5.645830   -1.588380   -4.919310
  O     -4.881960   -3.503700   -3.667240
  O     -6.549270   -3.805150   -5.425070
  C     -6.286920   -0.735880   -1.893530
  C     -7.469000   -1.246150   -2.713830
  H     -7.601910   -0.601350   -3.585330
  H     -8.389790   -1.173440   -2.126920
  H     -7.118250   -3.379820   -2.398050
  H     -8.241840   -3.004740   -3.706510
  H     -5.391240   -0.810340   -2.474150
  H     -6.187090   -1.325970   -1.006550
  H     -6.453930    0.286310   -1.624950

 Total Charge           Charge          ....   -1
 Multiplicity           Mult            ....    1
 Number of Electrons    NEL             ....   66
 Basis Dimension        Dim             ....  212

ORBITAL ENERGIES
----------------

  NO   OCC          E(Eh)            E(eV)
   0   2.0000     -89.938651     -2447.3551
   1   2.0000     -19.422399      -528.5104
   2   2.0000     -19.412437      -528.2393
   3   2.0000     -19.408180      -528.1234
   4   2.0000     -10.421796      -283.5915
   5   2.0000     -10.416414      -283.4450
   6   2.0000     -10.405036      -283.1354
   7   2.0000      -8.261958      -224.8193
   8   2.0000      -6.187222      -168.3629
   9   2.0000      -6.187126      -168.3603
  10   2.0000      -6.186751      -168.3501
  11   2.0000      -1.047384       -28.5008
  12   2.0000      -0.902656       -24.5625
  13   2.0000      -0.879036       -23.9198
  14   2.0000      -0.751727       -20.4555
  15   2.0000      -0.655391       -17.8341
  16   2.0000      -0.553249       -15.0547
  17   2.0000      -0.465029       -12.6541
  18   2.0000      -0.409602       -11.1458
  19   2.0000      -0.394400       -10.7322
  20   2.0000      -0.367642       -10.0041
  21   2.0000      -0.356039        -9.6883
  22   2.0000      -0.342296        -9.3143
  23   2.0000      -0.328767        -8.9462
  24   2.0000      -0.289441        -7.8761
  25   2.0000      -0.279432        -7.6037
  26   2.0000      -0.268728        -7.3125
  27   2.0000      -0.224390        -6.1060
  28   2.0000      -0.222845        -6.0639
  29   2.0000      -0.185682        -5.0527
  30   2.0000      -0.175647        -4.7796
  31   2.0000      -0.169234        -4.6051
  32   2.0000      -0.136638        -3.7181
  33   0.0000       0.152496         4.1496
  34   0.0000       0.171338         4.6623
  35   0.0000       0.175119         4.7652
  36   0.0000       0.185116         5.0373
  37   0.0000       0.202825         5.5191

MULLIKEN ATOMIC CHARGES
-----------------------
   0 C :    0.059495
   1 S :    1.426602
   2 O :   -0.866702
   3 O :   -0.842132
   4 O :   -0.845850
   5 C :    0.758461
   6 C :   -0.195331
   7 H :    0.013920
   8 H :   -0.232712
   9 H :   -0.045446
  10 H :   -0.056952
  11 H :   -0.100068
  12 H :   -0.007769
  13 H :   -0.065514
Sum of atomic charges:   -1.0000000

LOEWDIN ATOMIC CHARGES
----------------------
   0 C :   -0.082176
   1 S :    0.909479
   2 O :   -0.597002
   3 O :   -0.613333
   4 O :   -0.586979
   5 C :    0.125522
   6 C :   -0.103618
   7 H :    0.014419
   8 H :    0.006052
   9 H :    0.005579
  10 H :   -0.002643
  11 H :   -0.024272
  12 H :   -0.021291
  13 H :   -0.029738

  Mayer bond orders larger than 0.100000
B(  0-C ,  1-S ) :   0.8725 B(  0-C ,  6-C ) :   1.2039 B(  0-C ,  7-H ) :   0.1414
B(  0-C ,  8-H ) :   0.1043 B(  0-C ,  9-H ) :   0.9460 B(  0-C , 10-H ) :   0.9495
B(  1-S ,  2-O ) :   1.2344 B(  1-S ,  3-O ) :   1.2354 B(  1-S ,  4-O ) :   1.2987
B(  5-C ,  6-C ) :   1.2590 B(  5-C , 11-H ) :   0.8289 B(  5-C , 12-H ) :   0.7647
B(  5-C , 13-H ) :   0.7688 B(  6-C ,  7-H ) :   0.8843 B(  6-C ,  8-H ) :   0.9580
B(  6-C , 10-H ) :   0.1076 B(  6-C , 11-H ) :   0.2186 B(  6-C , 12-H ) :   0.2155
B(  6-C , 13-H ) :   0.2113

Dispersion correction           -0.000286922
FINAL SINGLE POINT ENERGY      -741.890907293541

DIPOLE MOMENT
-------------
                                X             Y             Z
Electronic contribution:      3.76968      -5.82961      -7.89421
Nuclear contribution   :     -5.28952       6.71955       9.52938
                        -----------------------------------------
Total Dipole Moment    :     -1.51984       0.88995       1.63517
                        -----------------------------------------
Magnitude (a.u.)       :      2.40327
Magnitude (Debye)      :      6.10862

Rotational constants in cm-1:     0.135789     0.055302     0.052251
Rotational constants in MHz :  4070.851802  1657.908940  1566.458563

                             ****ORCA TERMINATED NORMALLY****
TOTAL RUN TIME: 0 days 0 hours 0 minutes 15 seconds 126 msec
