                         Program Version 5.0.0 -  RELEASE  -
|  1> !M062X D3Zero RIJCOSX def2-SVPD def2/J TightSCF
|  2> *xyz 1 1
|  3> C         -2.16038       -1.36949       -3.46710
|  4> N         -3.03011       -1.91086       -4.54107
|  5> C         -2.04772        0.14658       -3.51177
|  6> H         -3.47744       -2.79151       -4.25710
|  7> H         -2.53801       -2.01786       -5.43808
|  8> H         -3.89159       -1.37604       -4.71437
|  9> H         -1.18444       -1.84400       -3.56639
| 10> H         -2.59819       -1.70838       -2.52848
| 11> C         -3.32876        0.87504       -3.10367
| 12> H         -1.74003        0.45234       -4.51713
| 13> H         -1.23261        0.43494       -2.84221
| 14> H         -4.12483        0.59148       -3.76000
| 15> H         -3.17368        1.93185       -3.16688
| 16> H         -3.58415        0.61151       -2.09857
| 17> *
| 18> %MaxCore 64000
| 19>
| 20> %pal nprocs 8
| 21> end
| 22>
| 23> %scf
| 24>   MaxIter 150
| 25> end
| 26>
| 27>
| 28>                          ****END OF INPUT****

CARTESIAN COORDINATES (ANGSTROEM)
---------------------------------
  C     -2.160380   -1.369490   -3.467100
  N     -3.030110   -1.910860   -4.541070
  C     -2.047720    0.146580   -3.511770
  H     -3.477440   -2.791510   -4.257100
  H     -2.538010   -2.017860   -5.438080
  H     -3.891590   -1.376040   -4.714370
  H     -1.184440   -1.844000   -3.566390
  H     -2.598190   -1.708380   -2.528480
  C     -3.328760    0.875040   -3.103670
  H     -1.740030    0.452340   -4.517130
  H     -1.232610    0.434940   -2.842210
  H     -4.124830    0.591480   -3.760000
  H     -3.173680    1.931850   -3.166880
  H     -3.584150    0.611510   -2.098570

 Total Charge           Charge          ....    1
 Multiplicity           Mult            ....    1
 Number of Electrons    NEL             ....   34
 Basis Dimension        Dim             ....  160

ORBITAL ENERGIES
----------------

  NO   OCC          E(Eh)            E(eV)
   0   2.0000     -15.091838      -410.6698
   1   2.0000     -10.799069      -293.8576
   2   2.0000     -10.728059      -291.9253
   3   2.0000     -10.695437      -291.0376
   4   2.0000      -1.309563       -35.6350
   5   2.0000      -1.064253       -28.9598
   6   2.0000      -0.969602       -26.3842
   7   2.0000      -0.883813       -24.0498
   8   2.0000      -0.863056       -23.4849
   9   2.0000      -0.837403       -22.7869
  10   2.0000      -0.763028       -20.7630
  11   2.0000      -0.699171       -19.0254
  12   2.0000      -0.674489       -18.3538
  13   2.0000      -0.650022       -17.6880
  14   2.0000      -0.586947       -15.9716
  15   2.0000      -0.580457       -15.7950
  16   2.0000      -0.574520       -15.6335
  17   0.0000      -0.164952        -4.4886
  18   0.0000      -0.108612        -2.9555
  19   0.0000      -0.107553        -2.9267
  20   0.0000      -0.090888        -2.4732
  21   0.0000      -0.066696        -1.8149

MULLIKEN ATOMIC CHARGES
-----------------------
   0 C :    0.624151
   1 N :   -0.989421
   2 C :   -0.338906
   3 H :    0.403987
   4 H :    0.468849
   5 H :    0.350532
   6 H :   -0.079001
   7 H :    0.011752
   8 C :    0.704802
   9 H :   -0.025672
  10 H :    0.004317
  11 H :   -0.194105
  12 H :    0.006828
  13 H :    0.051887
Sum of atomic charges:    1.0000000

LOEWDIN ATOMIC CHARGES
----------------------
   0 C :    0.091643
   1 N :    0.321540
   2 C :   -0.047392
   3 H :    0.108331
   4 H :    0.115647
   5 H :    0.090343
   6 H :    0.053521
   7 H :    0.053365
   8 C :    0.151707
   9 H :    0.035584
  10 H :    0.046427
  11 H :   -0.027337
  12 H :    0.006543
  13 H :    0.000080

  Mayer bond orders larger than 0.100000
B(  0-C ,  1-N ) :   0.6409 B(  0-C ,  2-C ) :   1.1884 B(  0-C ,  6-H ) :   0.9088
B(  0-C ,  7-H ) :   0.8929 B(  0-C , 10-H ) :   0.1032 B(  1-N ,  3-H ) :   0.6790
B(  1-N ,  4-H ) :   0.6141 B(  1-N ,  5-H ) :   0.7546 B(  1-N ,  6-H ) :   0.1225
B(  2-C ,  8-C ) :   1.2907 B(  2-C ,  9-H ) :   0.9547 B(  2-C , 10-H ) :   0.9395
B(  2-C , 11-H ) :   0.1783 B(  2-C , 12-H ) :   0.1926 B(  2-C , 13-H ) :   0.1763
B(  8-C , 11-H ) :   0.8408 B(  8-C , 12-H ) :   0.8145 B(  8-C , 13-H ) :   0.7795
B( 11-H , 13-H ) :   0.1083

Dispersion correction           -0.000155703
FINAL SINGLE POINT ENERGY      -174.623664870283

DIPOLE MOMENT
-------------
                                X             Y             Z
Electronic contribution:      0.32663      -2.12513      -1.08334
Nuclear contribution   :     -0.76147       0.35838       0.01319
                        -----------------------------------------
Total Dipole Moment    :     -0.43484      -1.76675      -1.07015
                        -----------------------------------------
Magnitude (a.u.)       :      2.11086
Magnitude (Debye)      :      5.36537

Rotational constants in cm-1:     0.457188     0.153451     0.133348
Rotational constants in MHz : 13706.154863  4600.337483  3997.673747

                             ****ORCA TERMINATED NORMALLY****
TOTAL RUN TIME: 0 days 0 hours 0 minutes 8 seconds 798 msec
