                         Program Version 5.0.0 -  RELEASE  -
|  1> !M062X D3Zero RIJCOSX def2-SVPD def2/J TightSCF
|  2> *xyz 0 1
|  3> C         -7.33044       -2.67899       -3.20681
|  4> S         -6.01966       -2.92697       -4.41913
|  5> F         -5.64583       -1.58838       -4.91931
|  6> O         -4.88196       -3.50370       -3.66724
|  7> O         -6.54927       -3.80515       -5.42507
|  8> C         -6.28692       -0.73588       -1.89353
|  9> C         -7.46900       -1.24615       -2.71383
| 10> H         -7.60191       -0.60135       -3.58533
| 11> H         -8.38979       -1.17344       -2.12692
| 12> H         -7.11825       -3.37982       -2.39805
| 13> H         -8.24184       -3.00474       -3.70651
| 14> H         -5.39124       -0.81034       -2.47415
| 15> H         -6.18709       -1.32597       -1.00655
| 16> H         -6.45393        0.28631       -1.62495
| 17> *
| 18> %MaxCore 64000
| 19>
| 20> %pal nprocs 8
| 21> end
| 22>
| 23> %scf
| 24>   MaxIter 150
| 25> end
| 26>
| 27>
| 28>                          ****END OF INPUT****

CARTESIAN COORDINATES (ANGSTROEM)
---------------------------------
  C     -7.330440   -2.678990   -3.206810
  S     -6.019660   -2.926970   -4.419130
  F     -5.645830   -1.588380   -4.919310
  O     -4.881960   -3.503700   -3.667240
  O     -6.549270   -3.805150   -5.425070
  C     -6.286920   -0.735880   -1.893530
  C     -7.469000   -1.246150   -2.713830
  H     -7.601910   -0.601350   -3.585330
  H     -8.389790   -1.173440   -2.126920
  H     -7.118250   -3.379820   -2.398050
  H     -8.241840   -3.004740   -3.706510
  H     -5.391240   -0.810340   -2.474150
  H     -6.187090   -1.325970   -1.006550
  H     -6.453930    0.286310   -1.624950

 Total Charge           Charge          ....    0
 Multiplicity           Mult            ....    1
 Number of Electrons    NEL             ....   66
 Basis Dimension        Dim             ....  212

ORBITAL ENERGIES
----------------

  NO   OCC          E(Eh)            E(eV)
   0   2.0000     -90.195600     -2454.3470
   1   2.0000     -25.364249      -690.1963
   2   2.0000     -19.655895      -534.8641
   3   2.0000     -19.640368      -534.4416
   4   2.0000     -10.616377      -288.8863
   5   2.0000     -10.589047      -288.1426
   6   2.0000     -10.558607      -287.3143
   7   2.0000      -8.519850      -231.8369
   8   2.0000      -6.448163      -175.4634
   9   2.0000      -6.442989      -175.3226
  10   2.0000      -6.441935      -175.2940
  11   2.0000      -1.489057       -40.5193
  12   2.0000      -1.229883       -33.4668
  13   2.0000      -1.121736       -30.5240
  14   2.0000      -0.935501       -25.4563
  15   2.0000      -0.846554       -23.0359
  16   2.0000      -0.798577       -21.7304
  17   2.0000      -0.724195       -19.7063
  18   2.0000      -0.679639       -18.4939
  19   2.0000      -0.670502       -18.2453
  20   2.0000      -0.628488       -17.1020
  21   2.0000      -0.571161       -15.5421
  22   2.0000      -0.560362       -15.2482
  23   2.0000      -0.542683       -14.7672
  24   2.0000      -0.526327       -14.3221
  25   2.0000      -0.508220       -13.8294
  26   2.0000      -0.468066       -12.7367
  27   2.0000      -0.456679       -12.4269
  28   2.0000      -0.445467       -12.1218
  29   2.0000      -0.434677       -11.8282
  30   2.0000      -0.404900       -11.0179
  31   2.0000      -0.390690       -10.6312
  32   2.0000      -0.383170       -10.4266
  33   0.0000       0.010252         0.2790
  34   0.0000       0.036919         1.0046
  35   0.0000       0.041760         1.1363
  36   0.0000       0.042866         1.1664
  37   0.0000       0.062990         1.7140

MULLIKEN ATOMIC CHARGES
-----------------------
   0 C :    0.038123
   1 S :    1.544282
   2 F :   -0.446717
   3 O :   -0.712110
   4 O :   -0.708239
   5 C :    0.760808
   6 C :   -0.212829
   7 H :    0.013312
   8 H :   -0.172586
   9 H :    0.017866
  10 H :    0.004203
  11 H :   -0.124880
  12 H :    0.024098
  13 H :   -0.025332
Sum of atomic charges:    0.0000000

LOEWDIN ATOMIC CHARGES
----------------------
   0 C :   -0.034370
   1 S :    1.160305
   2 F :   -0.284009
   3 O :   -0.501071
   4 O :   -0.474150
   5 C :    0.144066
   6 C :   -0.086716
   7 H :    0.023738
   8 H :    0.031825
   9 H :    0.034919
  10 H :    0.021861
  11 H :   -0.023034
  12 H :   -0.004347
  13 H :   -0.009017

  Mayer bond orders larger than 0.100000
B(  0-C ,  1-S ) :   0.9474 B(  0-C ,  6-C ) :   1.1999 B(  0-C ,  7-H ) :   0.1207
B(  0-C ,  9-H ) :   0.9489 B(  0-C , 10-H ) :   0.9608 B(  1-S ,  2-F ) :   0.5912
B(  1-S ,  3-O ) :   1.4663 B(  1-S ,  4-O ) :   1.5239 B(  5-C ,  6-C ) :   1.2777
B(  5-C , 11-H ) :   0.8259 B(  5-C , 12-H ) :   0.7745 B(  5-C , 13-H ) :   0.7800
B(  6-C ,  7-H ) :   0.8958 B(  6-C ,  8-H ) :   0.9680 B(  6-C , 10-H ) :   0.1010
B(  6-C , 11-H ) :   0.2042 B(  6-C , 12-H ) :   0.2086 B(  6-C , 13-H ) :   0.2023

Dispersion correction           -0.000293847
FINAL SINGLE POINT ENERGY      -766.383904913315

DIPOLE MOMENT
-------------
                                X             Y             Z
Electronic contribution:      4.75171      -4.53145      -9.77871
Nuclear contribution   :     -5.93570       5.78812      10.65621
                        -----------------------------------------
Total Dipole Moment    :     -1.18399       1.25667       0.87749
                        -----------------------------------------
Magnitude (a.u.)       :      1.93676
Magnitude (Debye)      :      4.92286

Rotational constants in cm-1:     0.129417     0.054385     0.051980
Rotational constants in MHz :  3879.823072  1630.427453  1558.324762

                             ****ORCA TERMINATED NORMALLY****
TOTAL RUN TIME: 0 days 0 hours 0 minutes 17 seconds 134 msec
