                         Program Version 5.0.0 -  RELEASE  -
|  1> !M062X D3Zero RIJCOSX def2-SVPD def2/J TightSCF
|  2> *xyz 0 1
|  3> C         -2.16038       -1.36949       -3.46710
|  4> C         -3.03011       -1.91086       -4.54107
|  5> C         -2.04772        0.14658       -3.51177
|  6> H         -3.47744       -2.79151       -4.25710
|  7> H         -2.53801       -2.01786       -5.43808
|  8> H         -3.89159       -1.37604       -4.71437
|  9> H         -1.18444       -1.84400       -3.56639
| 10> H         -2.59819       -1.70838       -2.52848
| 11> C         -3.32876        0.87504       -3.10367
| 12> H         -1.74003        0.45234       -4.51713
| 13> H         -1.23261        0.43494       -2.84221
| 14> H         -4.12483        0.59148       -3.76000
| 15> H         -3.17368        1.93185       -3.16688
| 16> H         -3.58415        0.61151       -2.09857
| 17> *
| 18> %MaxCore 64000
| 19>
| 20> %pal nprocs 8
| 21> end
| 22>
| 23> %scf
| 24>   MaxIter 150
| 25> end
| 26>
| 27>
| 28>                          ****END OF INPUT****

CARTESIAN COORDINATES (ANGSTROEM)
---------------------------------
  C     -2.160380   -1.369490   -3.467100
  C     -3.030110   -1.910860   -4.541070
  C     -2.047720    0.146580   -3.511770
  H     -3.477440   -2.791510   -4.257100
  H     -2.538010   -2.017860   -5.438080
  H     -3.891590   -1.376040   -4.714370
  H     -1.184440   -1.844000   -3.566390
  H     -2.598190   -1.708380   -2.528480
  C     -3.328760    0.875040   -3.103670
  H     -1.740030    0.452340   -4.517130
  H     -1.232610    0.434940   -2.842210
  H     -4.124830    0.591480   -3.760000
  H     -3.173680    1.931850   -3.166880
  H     -3.584150    0.611510   -2.098570

 Total Charge           Charge          ....    0
 Multiplicity           Mult            ....    1
 Number of Electrons    NEL             ....   34
 Basis Dimension        Dim             ....  160

ORBITAL ENERGIES
----------------

  NO   OCC          E(Eh)            E(eV)
   0   2.0000     -10.539190      -286.7860
   1   2.0000     -10.535273      -286.6794
   2   2.0000     -10.529758      -286.5293
   3   2.0000     -10.511048      -286.0202
   4   2.0000      -0.893556       -24.3149
   5   2.0000      -0.816412       -22.2157
   6   2.0000      -0.726738       -19.7755
   7   2.0000      -0.645098       -17.5540
   8   2.0000      -0.536973       -14.6118
   9   2.0000      -0.529579       -14.4106
  10   2.0000      -0.495835       -13.4924
  11   2.0000      -0.452236       -12.3060
  12   2.0000      -0.442256       -12.0344
  13   2.0000      -0.427290       -11.6272
  14   2.0000      -0.382556       -10.4099
  15   2.0000      -0.381129       -10.3711
  16   2.0000      -0.377587       -10.2747
  17   0.0000       0.045097         1.2272
  18   0.0000       0.068085         1.8527
  19   0.0000       0.069805         1.8995
  20   0.0000       0.078095         2.1251
  21   0.0000       0.121923         3.3177

MULLIKEN ATOMIC CHARGES
-----------------------
   0 C :   -0.228370
   1 C :    1.052758
   2 C :   -0.270980
   3 H :   -0.134854
   4 H :   -0.079833
   5 H :   -0.511728
   6 H :   -0.153206
   7 H :   -0.019063
   8 C :    0.711714
   9 H :   -0.096266
  10 H :   -0.086139
  11 H :   -0.212236
  12 H :   -0.025052
  13 H :    0.053256
Sum of atomic charges:    0.0000000

LOEWDIN ATOMIC CHARGES
----------------------
   0 C :   -0.077378
   1 C :    0.120559
   2 C :   -0.083452
   3 H :   -0.033286
   4 H :   -0.024700
   5 H :   -0.046501
   6 H :    0.022229
   7 H :    0.023138
   8 C :    0.125641
   9 H :    0.023647
  10 H :    0.015274
  11 H :   -0.030740
  12 H :   -0.019054
  13 H :   -0.015375

  Mayer bond orders larger than 0.100000
B(  0-C ,  1-C ) :   1.2289 B(  0-C ,  2-C ) :   1.1826 B(  0-C ,  3-H ) :   0.2038
B(  0-C ,  4-H ) :   0.2117 B(  0-C ,  5-H ) :   0.2581 B(  0-C ,  6-H ) :   0.9588
B(  0-C ,  7-H ) :   0.8851 B(  0-C ,  9-H ) :   0.1337 B(  0-C , 10-H ) :   0.1038
B(  1-C ,  3-H ) :   0.6099 B(  1-C ,  4-H ) :   0.7108 B(  1-C ,  5-H ) :   0.5624
B(  1-C ,  7-H ) :   0.1134 B(  2-C ,  8-C ) :   1.2737 B(  2-C ,  9-H ) :   0.9445
B(  2-C , 10-H ) :   0.9441 B(  2-C , 11-H ) :   0.2040 B(  2-C , 12-H ) :   0.1972
B(  2-C , 13-H ) :   0.2122 B(  3-H ,  5-H ) :   0.2601 B(  4-H ,  5-H ) :   0.1037
B(  8-C , 11-H ) :   0.8579 B(  8-C , 12-H ) :   0.7822 B(  8-C , 13-H ) :   0.7553

Dispersion correction           -0.000150323
FINAL SINGLE POINT ENERGY      -158.225582910164

DIPOLE MOMENT
-------------
                                X             Y             Z
Electronic contribution:      0.86346       0.03278       0.25337
Nuclear contribution   :     -0.87438      -0.05339      -0.25605
                        -----------------------------------------
Total Dipole Moment    :     -0.01093      -0.02061      -0.00268
                        -----------------------------------------
Magnitude (a.u.)       :      0.02348
Magnitude (Debye)      :      0.05968

Rotational constants in cm-1:     0.464420     0.160323     0.139078
Rotational constants in MHz : 13922.972952  4806.377145  4169.443621

                             ****ORCA TERMINATED NORMALLY****
TOTAL RUN TIME: 0 days 0 hours 0 minutes 8 seconds 498 msec
