                         Program Version 5.0.0 -  RELEASE  -
|  1> !M062X D3Zero RIJCOSX def2-SVPD def2/J TightSCF
|  2> *xyz 0 1
|  3> C         -7.33044       -2.67899       -3.20681
|  4> S         -6.01966       -2.92697       -4.41913
|  5> O         -5.64583       -1.58838       -4.91931
|  6> F         -4.88196       -3.50370       -3.66724
|  7> O         -6.54927       -3.80515       -5.42507
|  8> C         -6.28692       -0.73588       -1.89353
|  9> C         -7.46900       -1.24615       -2.71383
| 10> H         -7.60191       -0.60135       -3.58533
| 11> H         -8.38979       -1.17344       -2.12692
| 12> H         -7.11825       -3.37982       -2.39805
| 13> H         -8.24184       -3.00474       -3.70651
| 14> H         -5.39124       -0.81034       -2.47415
| 15> H         -6.18709       -1.32597       -1.00655
| 16> H         -6.45393        0.28631       -1.62495
| 17> *
| 18> %MaxCore 64000
| 19>
| 20> %pal nprocs 8
| 21> end
| 22>
| 23> %scf
| 24>   MaxIter 150
| 25> end
| 26>
| 27>
| 28>                          ****END OF INPUT****

CARTESIAN COORDINATES (ANGSTROEM)
---------------------------------
  C     -7.330440   -2.678990   -3.206810
  S     -6.019660   -2.926970   -4.419130
  O     -5.645830   -1.588380   -4.919310
  F     -4.881960   -3.503700   -3.667240
  O     -6.549270   -3.805150   -5.425070
  C     -6.286920   -0.735880   -1.893530
  C     -7.469000   -1.246150   -2.713830
  H     -7.601910   -0.601350   -3.585330
  H     -8.389790   -1.173440   -2.126920
  H     -7.118250   -3.379820   -2.398050
  H     -8.241840   -3.004740   -3.706510
  H     -5.391240   -0.810340   -2.474150
  H     -6.187090   -1.325970   -1.006550
  H     -6.453930    0.286310   -1.624950

 Total Charge           Charge          ....    0
 Multiplicity           Mult            ....    1
 Number of Electrons    NEL             ....   66
 Basis Dimension        Dim             ....  212

ORBITAL ENERGIES
----------------

  NO   OCC          E(Eh)            E(eV)
   0   2.0000     -90.196250     -2454.3648
   1   2.0000     -25.360920      -690.1057
   2   2.0000     -19.656242      -534.8735
   3   2.0000     -19.644575      -534.5561
   4   2.0000     -10.617079      -288.9054
   5   2.0000     -10.580613      -287.9131
   6   2.0000     -10.552256      -287.1415
   7   2.0000      -8.520459      -231.8535
   8   2.0000      -6.448706      -175.4782
   9   2.0000      -6.443615      -175.3397
  10   2.0000      -6.442669      -175.3139
  11   2.0000      -1.485021       -40.4095
  12   2.0000      -1.231380       -33.5076
  13   2.0000      -1.126050       -30.6414
  14   2.0000      -0.930187       -25.3117
  15   2.0000      -0.846006       -23.0210
  16   2.0000      -0.795156       -21.6373
  17   2.0000      -0.720032       -19.5931
  18   2.0000      -0.667917       -18.1750
  19   2.0000      -0.662050       -18.0153
  20   2.0000      -0.639739       -17.4082
  21   2.0000      -0.576869       -15.6974
  22   2.0000      -0.561326       -15.2744
  23   2.0000      -0.532713       -14.4959
  24   2.0000      -0.523198       -14.2369
  25   2.0000      -0.507898       -13.8206
  26   2.0000      -0.468441       -12.7469
  27   2.0000      -0.450142       -12.2490
  28   2.0000      -0.436367       -11.8742
  29   2.0000      -0.429009       -11.6739
  30   2.0000      -0.404800       -11.0152
  31   2.0000      -0.396049       -10.7770
  32   2.0000      -0.387458       -10.5433
  33   0.0000       0.014346         0.3904
  34   0.0000       0.034501         0.9388
  35   0.0000       0.042184         1.1479
  36   0.0000       0.043832         1.1927
  37   0.0000       0.068616         1.8671

MULLIKEN ATOMIC CHARGES
-----------------------
   0 C :   -0.003471
   1 S :    1.564744
   2 O :   -0.744521
   3 F :   -0.426385
   4 O :   -0.707198
   5 C :    0.746002
   6 C :   -0.178284
   7 H :    0.043963
   8 H :   -0.183067
   9 H :    0.028028
  10 H :   -0.001129
  11 H :   -0.126317
  12 H :    0.017045
  13 H :   -0.029411
Sum of atomic charges:   -0.0000000

LOEWDIN ATOMIC CHARGES
----------------------
   0 C :   -0.039961
   1 S :    1.165542
   2 O :   -0.490225
   3 F :   -0.288072
   4 O :   -0.474524
   5 C :    0.141901
   6 C :   -0.078851
   7 H :    0.028503
   8 H :    0.031990
   9 H :    0.022690
  10 H :    0.026309
  11 H :   -0.025616
  12 H :   -0.011383
  13 H :   -0.008302

  Mayer bond orders larger than 0.100000
B(  0-C ,  1-S ) :   0.9415 B(  0-C ,  6-C ) :   1.2399 B(  0-C ,  7-H ) :   0.1376
B(  0-C ,  8-H ) :   0.1095 B(  0-C ,  9-H ) :   0.9353 B(  0-C , 10-H ) :   0.9600
B(  1-S ,  2-O ) :   1.4686 B(  1-S ,  3-F ) :   0.5874 B(  1-S ,  4-O ) :   1.5267
B(  5-C ,  6-C ) :   1.2738 B(  5-C , 11-H ) :   0.8339 B(  5-C , 12-H ) :   0.7752
B(  5-C , 13-H ) :   0.7820 B(  6-C ,  7-H ) :   0.8869 B(  6-C ,  8-H ) :   0.9558
B(  6-C , 11-H ) :   0.2005 B(  6-C , 12-H ) :   0.2073 B(  6-C , 13-H ) :   0.2020

Dispersion correction           -0.000288786
FINAL SINGLE POINT ENERGY      -766.387592462931

DIPOLE MOMENT
-------------
                                X             Y             Z
Electronic contribution:      6.10955      -7.84977      -7.66908
Nuclear contribution   :     -6.75719       7.84793       9.30968
                        -----------------------------------------
Total Dipole Moment    :     -0.64764      -0.00183       1.64060
                        -----------------------------------------
Magnitude (a.u.)       :      1.76381
Magnitude (Debye)      :      4.48324

Rotational constants in cm-1:     0.129104     0.054499     0.051192
Rotational constants in MHz :  3870.429564  1633.827608  1534.709243

                             ****ORCA TERMINATED NORMALLY****
TOTAL RUN TIME: 0 days 0 hours 0 minutes 16 seconds 606 msec
