                         Program Version 5.0.0 -  RELEASE  -
|  1> !M062X D3Zero RIJCOSX def2-SVPD def2/J TightSCF
|  2> *xyz 0 1
|  3> C         -7.33044       -2.67899       -3.20681
|  4> S         -6.01966       -2.92697       -4.41913
|  5> O         -5.64583       -1.58838       -4.91931
|  6> O         -4.88196       -3.50370       -3.66724
|  7> F         -6.54927       -3.80515       -5.42507
|  8> C         -6.28692       -0.73588       -1.89353
|  9> C         -7.46900       -1.24615       -2.71383
| 10> H         -7.60191       -0.60135       -3.58533
| 11> H         -8.38979       -1.17344       -2.12692
| 12> H         -7.11825       -3.37982       -2.39805
| 13> H         -8.24184       -3.00474       -3.70651
| 14> H         -5.39124       -0.81034       -2.47415
| 15> H         -6.18709       -1.32597       -1.00655
| 16> H         -6.45393        0.28631       -1.62495
| 17> *
| 18> %MaxCore 64000
| 19>
| 20> %pal nprocs 8
| 21> end
| 22>
| 23> %scf
| 24>   MaxIter 150
| 25> end
| 26>
| 27>
| 28>                          ****END OF INPUT****

CARTESIAN COORDINATES (ANGSTROEM)
---------------------------------
  C     -7.330440   -2.678990   -3.206810
  S     -6.019660   -2.926970   -4.419130
  O     -5.645830   -1.588380   -4.919310
  O     -4.881960   -3.503700   -3.667240
  F     -6.549270   -3.805150   -5.425070
  C     -6.286920   -0.735880   -1.893530
  C     -7.469000   -1.246150   -2.713830
  H     -7.601910   -0.601350   -3.585330
  H     -8.389790   -1.173440   -2.126920
  H     -7.118250   -3.379820   -2.398050
  H     -8.241840   -3.004740   -3.706510
  H     -5.391240   -0.810340   -2.474150
  H     -6.187090   -1.325970   -1.006550
  H     -6.453930    0.286310   -1.624950

 Total Charge           Charge          ....    0
 Multiplicity           Mult            ....    1
 Number of Electrons    NEL             ....   66
 Basis Dimension        Dim             ....  212

ORBITAL ENERGIES
----------------

  NO   OCC          E(Eh)            E(eV)
   0   2.0000     -90.198043     -2454.4135
   1   2.0000     -25.383086      -690.7089
   2   2.0000     -19.645687      -534.5863
   3   2.0000     -19.642216      -534.4919
   4   2.0000     -10.617717      -288.9228
   5   2.0000     -10.580240      -287.9030
   6   2.0000     -10.544267      -286.9241
   7   2.0000      -8.522515      -231.9094
   8   2.0000      -6.450869      -175.5371
   9   2.0000      -6.445480      -175.3904
  10   2.0000      -6.444525      -175.3644
  11   2.0000      -1.523677       -41.4614
  12   2.0000      -1.215252       -33.0687
  13   2.0000      -1.108384       -30.1607
  14   2.0000      -0.929018       -25.2799
  15   2.0000      -0.854997       -23.2656
  16   2.0000      -0.804201       -21.8834
  17   2.0000      -0.724831       -19.7236
  18   2.0000      -0.694335       -18.8938
  19   2.0000      -0.678656       -18.4672
  20   2.0000      -0.638940       -17.3865
  21   2.0000      -0.570091       -15.5130
  22   2.0000      -0.560962       -15.2645
  23   2.0000      -0.534044       -14.5321
  24   2.0000      -0.518742       -14.1157
  25   2.0000      -0.494442       -13.4545
  26   2.0000      -0.459730       -12.5099
  27   2.0000      -0.439112       -11.9489
  28   2.0000      -0.437452       -11.9037
  29   2.0000      -0.420621       -11.4457
  30   2.0000      -0.400121       -10.8878
  31   2.0000      -0.388744       -10.5783
  32   2.0000      -0.374914       -10.2019
  33   0.0000       0.009829         0.2675
  34   0.0000       0.033420         0.9094
  35   0.0000       0.040430         1.1002
  36   0.0000       0.046309         1.2601
  37   0.0000       0.064527         1.7559

MULLIKEN ATOMIC CHARGES
-----------------------
   0 C :   -0.001561
   1 S :    1.596118
   2 O :   -0.738990
   3 O :   -0.705863
   4 F :   -0.448776
   5 C :    0.753496
   6 C :   -0.216030
   7 H :    0.039705
   8 H :   -0.182616
   9 H :    0.014775
  10 H :    0.013390
  11 H :   -0.110886
  12 H :    0.016217
  13 H :   -0.028979
Sum of atomic charges:    0.0000000

LOEWDIN ATOMIC CHARGES
----------------------
   0 C :   -0.045855
   1 S :    1.171639
   2 O :   -0.491720
   3 O :   -0.499582
   4 F :   -0.268888
   5 C :    0.147449
   6 C :   -0.075345
   7 H :    0.025960
   8 H :    0.032017
   9 H :    0.027687
  10 H :    0.014355
  11 H :   -0.019968
  12 H :   -0.008347
  13 H :   -0.009404

  Mayer bond orders larger than 0.100000
B(  0-C ,  1-S ) :   0.9218 B(  0-C ,  6-C ) :   1.2479 B(  0-C ,  7-H ) :   0.1346
B(  0-C ,  8-H ) :   0.1016 B(  0-C ,  9-H ) :   0.9688 B(  0-C , 10-H ) :   0.9036
B(  1-S ,  2-O ) :   1.4461 B(  1-S ,  3-O ) :   1.4572 B(  1-S ,  4-F ) :   0.6236
B(  5-C ,  6-C ) :   1.2774 B(  5-C , 11-H ) :   0.8360 B(  5-C , 12-H ) :   0.7691
B(  5-C , 13-H ) :   0.7771 B(  6-C ,  7-H ) :   0.8846 B(  6-C ,  8-H ) :   0.9622
B(  6-C , 10-H ) :   0.1152 B(  6-C , 11-H ) :   0.2030 B(  6-C , 12-H ) :   0.2097
B(  6-C , 13-H ) :   0.2030

Dispersion correction           -0.000280833
FINAL SINGLE POINT ENERGY      -766.368940469803

DIPOLE MOMENT
-------------
                                X             Y             Z
Electronic contribution:      3.23354      -8.37972     -10.73623
Nuclear contribution   :     -4.96410       8.17213      11.20012
                        -----------------------------------------
Total Dipole Moment    :     -1.73056      -0.20760       0.46389
                        -----------------------------------------
Magnitude (a.u.)       :      1.80365
Magnitude (Debye)      :      4.58451

Rotational constants in cm-1:     0.133784     0.053405     0.050278
Rotational constants in MHz :  4010.731548  1601.045142  1507.298018

                             ****ORCA TERMINATED NORMALLY****
TOTAL RUN TIME: 0 days 0 hours 0 minutes 15 seconds 506 msec
