                         Program Version 5.0.0 -  RELEASE  -
|  1> !M062X D3Zero RIJCOSX def2-SVPD def2/J TightSCF xyzfile
|  2>
|  3> *xyzfile 0 1 D2.xyz
|  4>
|  5> %MaxCore 64000
|  6>
|  7> %pal nprocs 4
|  8> end
|  9>
| 10> %scf
| 11>   MaxIter 150
| 12> end
| 13>
| 14>
| 15>                          ****END OF INPUT****

CARTESIAN COORDINATES (ANGSTROEM)
---------------------------------
  C     -2.160376   -1.369486   -3.467104
  C     -3.030108   -1.910857   -4.541074
  C     -2.047717    0.146583   -3.511774
  C     -7.330440   -2.678991   -3.206811
  S     -6.019659   -2.926965   -4.419128
  H     -3.477443   -2.791513   -4.257096
  H     -2.538013   -2.017860   -5.438075
  H     -3.891589   -1.376039   -4.714365
  O     -5.645830   -1.588384   -4.919307
  F     -4.881961   -3.503697   -3.667235
  H     -1.184438   -1.843997   -3.566393
  H     -2.598195   -1.708376   -2.528477
  O     -6.549267   -3.805150   -5.425071
  C     -3.328755    0.875037   -3.103669
  H     -1.740034    0.452343   -4.517126
  H     -1.232611    0.434938   -2.842208
  C     -3.628487    0.771601   -1.609363
  H     -4.175106    0.490791   -3.682203
  H     -3.237812    1.928663   -3.381480
  C     -4.975718    1.361432   -1.190644
  H     -2.830700    1.276234   -1.054766
  H     -3.594312   -0.275838   -1.294603
  C     -6.184720    0.784347   -1.926464
  H     -4.956292    2.445725   -1.342200
  H     -5.097256    1.205252   -0.114136
  C     -6.286921   -0.735882   -1.893531
  H     -6.163994    1.100199   -2.974250
  H     -7.094530    1.223459   -1.504509
  C     -7.468999   -1.246153   -2.713833
  H     -6.360641   -1.090347   -0.859176
  H     -5.369848   -1.171853   -2.295982
  H     -7.601914   -0.601349   -3.585329
  H     -8.389791   -1.173436   -2.126922
  H     -7.118254   -3.379818   -2.398055
  H     -8.241838   -3.004745   -3.706513

 Total Charge           Charge          ....    0
 Multiplicity           Mult            ....    1
 Number of Electrons    NEL             ....  122
 Basis Dimension        Dim             ....  464

ORBITAL ENERGIES
----------------

  NO   OCC          E(Eh)            E(eV)
   0   2.0000     -90.203478     -2454.5614
   1   2.0000     -25.366413      -690.2552
   2   2.0000     -19.661384      -535.0135
   3   2.0000     -19.649300      -534.6846
   4   2.0000     -10.619623      -288.9746
   5   2.0000     -10.580098      -287.8991
   6   2.0000     -10.562292      -287.4146
   7   2.0000     -10.551233      -287.1137
   8   2.0000     -10.545816      -286.9662
   9   2.0000     -10.539750      -286.8012
  10   2.0000     -10.534153      -286.6489
  11   2.0000     -10.530970      -286.5623
  12   2.0000     -10.524739      -286.3927
  13   2.0000     -10.479103      -285.1509
  14   2.0000      -8.526409      -232.0154
  15   2.0000      -6.454754      -175.6428
  16   2.0000      -6.449792      -175.5078
  17   2.0000      -6.448618      -175.4758
  18   2.0000      -1.494519       -40.6679
  19   2.0000      -1.237284       -33.6682
  20   2.0000      -1.133882       -30.8545
  21   2.0000      -0.938818       -25.5465
  22   2.0000      -0.907703       -24.6999
  23   2.0000      -0.879331       -23.9278
  24   2.0000      -0.853987       -23.2382
  25   2.0000      -0.814961       -22.1762
  26   2.0000      -0.795377       -21.6433
  27   2.0000      -0.755763       -20.5653
  28   2.0000      -0.717355       -19.5202
  29   2.0000      -0.704262       -19.1639
  30   2.0000      -0.678610       -18.4659
  31   2.0000      -0.669464       -18.2170
  32   2.0000      -0.654226       -17.8024
  33   2.0000      -0.642073       -17.4717
  34   2.0000      -0.619344       -16.8532
  35   2.0000      -0.583389       -15.8748
  36   2.0000      -0.560520       -15.2525
  37   2.0000      -0.552877       -15.0445
  38   2.0000      -0.545876       -14.8541
  39   2.0000      -0.539296       -14.6750
  40   2.0000      -0.517520       -14.0824
  41   2.0000      -0.504344       -13.7239
  42   2.0000      -0.501844       -13.6559
  43   2.0000      -0.496395       -13.5076
  44   2.0000      -0.476981       -12.9793
  45   2.0000      -0.469795       -12.7838
  46   2.0000      -0.456323       -12.4172
  47   2.0000      -0.449103       -12.2207
  48   2.0000      -0.440967       -11.9993
  49   2.0000      -0.430641       -11.7183
  50   2.0000      -0.422435       -11.4950
  51   2.0000      -0.410251       -11.1635
  52   2.0000      -0.401999       -10.9389
  53   2.0000      -0.401352       -10.9213
  54   2.0000      -0.394080       -10.7234
  55   2.0000      -0.390499       -10.6260
  56   2.0000      -0.380183       -10.3453
  57   2.0000      -0.374154       -10.1813
  58   2.0000      -0.361652        -9.8411
  59   2.0000      -0.358914        -9.7666
  60   2.0000      -0.349349        -9.5063
  61   0.0000       0.013593         0.3699
  62   0.0000       0.030483         0.8295
  63   0.0000       0.037970         1.0332
  64   0.0000       0.044047         1.1986
  65   0.0000       0.051416         1.3991

MULLIKEN ATOMIC CHARGES
-----------------------
   0 C :    0.063270
   1 C :    2.222597
   2 C :    0.604350
   3 C :    0.429014
   4 S :    1.527318
   5 H :   -0.667195
   6 H :   -0.279144
   7 H :   -1.062446
   8 O :   -0.745503
   9 F :   -0.520929
  10 H :   -0.317408
  11 H :    0.000926
  12 O :   -0.779736
  13 C :    0.492387
  14 H :   -0.090156
  15 H :   -0.118560
  16 C :   -0.108390
  17 H :   -0.664872
  18 H :   -0.076896
  19 C :    0.748295
  20 H :   -0.396128
  21 H :    0.109136
  22 C :   -0.091448
  23 H :   -0.040671
  24 H :   -0.006622
  25 C :    0.420679
  26 H :    0.216946
  27 H :   -0.459443
  28 C :    0.325052
  29 H :   -0.061261
  30 H :   -0.512797
  31 H :    0.122366
  32 H :   -0.228294
  33 H :   -0.023232
  34 H :   -0.031206
Sum of atomic charges:   -0.0000000

LOEWDIN ATOMIC CHARGES
----------------------
   0 C :   -0.043195
   1 C :    0.135233
   2 C :   -0.026079
   3 C :   -0.025981
   4 S :    1.195217
   5 H :   -0.093508
   6 H :   -0.009707
   7 H :   -0.116865
   8 O :   -0.465263
   9 F :   -0.291208
  10 H :    0.022079
  11 H :    0.007828
  12 O :   -0.458307
  13 C :   -0.017337
  14 H :    0.027730
  15 H :    0.017981
  16 C :   -0.036375
  17 H :   -0.002554
  18 H :    0.027692
  19 C :   -0.029948
  20 H :    0.024674
  21 H :    0.002354
  22 C :   -0.032923
  23 H :    0.024473
  24 H :    0.022199
  25 C :   -0.024534
  26 H :    0.021885
  27 H :    0.026820
  28 C :   -0.035366
  29 H :    0.038043
  30 H :   -0.006331
  31 H :    0.028227
  32 H :    0.038417
  33 H :    0.026511
  34 H :    0.028117

  Mayer bond orders larger than 0.100000
B(  0-C ,  1-C ) :   0.8622 B(  0-C ,  2-C ) :   1.1917 B(  0-C ,  5-H ) :   0.4342
B(  0-C ,  7-H ) :   0.4775 B(  0-C , 10-H ) :   0.9365 B(  0-C , 11-H ) :   0.7471
B(  0-C , 13-C ) :   0.1195 B(  0-C , 14-H ) :   0.1273 B(  0-C , 15-H ) :   0.1805
B(  1-C ,  5-H ) :  -0.5350 B(  1-C ,  6-H ) :   0.6433 B(  1-C ,  7-H ) :  -0.9278
B(  1-C , 11-H ) :   0.2180 B(  2-C ,  7-H ) :  -0.1439 B(  2-C , 11-H ) :   0.1026
B(  2-C , 13-C ) :   1.2002 B(  2-C , 14-H ) :   0.6866 B(  2-C , 15-H ) :   0.7463
B(  2-C , 19-C ) :   0.1042 B(  3-C ,  4-S ) :   0.8742 B(  3-C , 12-O ) :   0.1175
B(  3-C , 28-C ) :   1.2509 B(  3-C , 33-H ) :   0.9140 B(  3-C , 34-H ) :   0.7724
B(  4-S ,  8-O ) :   1.4221 B(  4-S ,  9-F ) :   0.5222 B(  4-S , 12-O ) :   1.4396
B(  4-S , 30-H ) :   0.1119 B(  5-H ,  6-H ) :  -0.2053 B(  5-H ,  7-H ) :   0.9864
B(  5-H ,  9-F ) :   0.1995 B(  6-H ,  7-H ) :   0.1468 B(  7-H ,  9-F ) :   0.1341
B(  7-H , 15-H ) :  -0.1022 B(  7-H , 17-H ) :   0.2010 B( 10-H , 11-H ) :  -0.1523
B( 11-H , 21-H ) :   0.1235 B( 13-C , 14-H ) :   0.2088 B( 13-C , 15-H ) :   0.1347
B( 13-C , 16-C ) :   1.1396 B( 13-C , 17-H ) :   0.7502 B( 13-C , 18-H ) :   0.7484
B( 13-C , 20-H ) :   0.1827 B( 14-H , 15-H ) :  -0.1916 B( 16-C , 17-H ) :   0.2213
B( 16-C , 18-H ) :   0.1856 B( 16-C , 19-C ) :   1.1688 B( 16-C , 20-H ) :   1.0387
B( 16-C , 21-H ) :   0.8563 B( 16-C , 22-C ) :   0.1525 B( 16-C , 23-H ) :   0.1367
B( 16-C , 24-H ) :   0.2807 B( 17-H , 26-H ) :   0.1295 B( 19-C , 22-C ) :   1.1230
B( 19-C , 23-H ) :   0.6815 B( 19-C , 24-H ) :   0.6801 B( 21-H , 30-H ) :   0.1029
B( 22-C , 23-H ) :   0.2362 B( 22-C , 25-C ) :   1.2425 B( 22-C , 26-H ) :   0.7712
B( 22-C , 27-H ) :   1.1115 B( 22-C , 28-C ) :   0.1182 B( 22-C , 30-H ) :   0.1321
B( 23-H , 24-H ) :  -0.1502 B( 25-C , 26-H ) :   0.1097 B( 25-C , 27-H ) :   0.1685
B( 25-C , 28-C ) :   1.1338 B( 25-C , 29-H ) :   0.6822 B( 25-C , 30-H ) :   0.8172
B( 25-C , 32-H ) :   0.2043 B( 28-C , 29-H ) :   0.1273 B( 28-C , 31-H ) :   0.8337
B( 28-C , 32-H ) :   0.8439 B( 28-C , 34-H ) :   0.2067 B( 29-H , 30-H ) :   0.2687

Dispersion correction           -0.002305929
FINAL SINGLE POINT ENERGY     -1041.201531821873

DIPOLE MOMENT
-------------
                                X             Y             Z
Electronic contribution:     -9.56100     -19.47520     -11.02523
Nuclear contribution   :      8.71934      19.48829      12.54264
                        -----------------------------------------
Total Dipole Moment    :     -0.84167       0.01309       1.51741
                        -----------------------------------------
Magnitude (a.u.)       :      1.73525
Magnitude (Debye)      :      4.41067

Rotational constants in cm-1:     0.025810     0.015137     0.010647
Rotational constants in MHz :   773.773140   453.802427   319.195213

                             ****ORCA TERMINATED NORMALLY****
TOTAL RUN TIME: 0 days 0 hours 3 minutes 50 seconds 196 msec
