                         Program Version 5.0.0 -  RELEASE  -
|  1> !M062X D3Zero RIJCOSX def2-SVPD def2/J TightSCF xyzfile
|  2>
|  3> *xyzfile 0 1 D3.xyz
|  4>
|  5> %MaxCore 64000
|  6>
|  7> %pal nprocs 4
|  8> end
|  9>
| 10> %scf
| 11>   MaxIter 150
| 12> end
| 13>
| 14>
| 15>                          ****END OF INPUT****

CARTESIAN COORDINATES (ANGSTROEM)
---------------------------------
  C     -2.160376   -1.369486   -3.467104
  C     -3.030108   -1.910857   -4.541074
  C     -2.047717    0.146583   -3.511774
  C     -7.330440   -2.678991   -3.206811
  S     -6.019659   -2.926965   -4.419128
  H     -3.477443   -2.791513   -4.257096
  H     -2.538013   -2.017860   -5.438075
  H     -3.891589   -1.376039   -4.714365
  O     -5.645830   -1.588384   -4.919307
  O     -4.881961   -3.503697   -3.667235
  H     -1.184438   -1.843997   -3.566393
  H     -2.598195   -1.708376   -2.528477
  F     -6.549267   -3.805150   -5.425071
  C     -3.328755    0.875037   -3.103669
  H     -1.740034    0.452343   -4.517126
  H     -1.232611    0.434938   -2.842208
  C     -3.628487    0.771601   -1.609363
  H     -4.175106    0.490791   -3.682203
  H     -3.237812    1.928663   -3.381480
  C     -4.975718    1.361432   -1.190644
  H     -2.830700    1.276234   -1.054766
  H     -3.594312   -0.275838   -1.294603
  C     -6.184720    0.784347   -1.926464
  H     -4.956292    2.445725   -1.342200
  H     -5.097256    1.205252   -0.114136
  C     -6.286921   -0.735882   -1.893531
  H     -6.163994    1.100199   -2.974250
  H     -7.094530    1.223459   -1.504509
  C     -7.468999   -1.246153   -2.713833
  H     -6.360641   -1.090347   -0.859176
  H     -5.369848   -1.171853   -2.295982
  H     -7.601914   -0.601349   -3.585329
  H     -8.389791   -1.173436   -2.126922
  H     -7.118254   -3.379818   -2.398055
  H     -8.241838   -3.004745   -3.706513

 Total Charge           Charge          ....    0
 Multiplicity           Mult            ....    1
 Number of Electrons    NEL             ....  122
 Basis Dimension        Dim             ....  464

ORBITAL ENERGIES
----------------

  NO   OCC          E(Eh)            E(eV)
   0   2.0000     -90.209284     -2454.7194
   1   2.0000     -25.390945      -690.9227
   2   2.0000     -19.654443      -534.8246
   3   2.0000     -19.650848      -534.7268
   4   2.0000     -10.621866      -289.0357
   5   2.0000     -10.580777      -287.9176
   6   2.0000     -10.554363      -287.1988
   7   2.0000     -10.545756      -286.9646
   8   2.0000     -10.539558      -286.7959
   9   2.0000     -10.531310      -286.5715
  10   2.0000     -10.525315      -286.4084
  11   2.0000     -10.519172      -286.2412
  12   2.0000     -10.507811      -285.9321
  13   2.0000     -10.453481      -284.4537
  14   2.0000      -8.532325      -232.1764
  15   2.0000      -6.460873      -175.8093
  16   2.0000      -6.455480      -175.6625
  17   2.0000      -6.454414      -175.6335
  18   2.0000      -1.530514       -41.6474
  19   2.0000      -1.228519       -33.4297
  20   2.0000      -1.121757       -30.5246
  21   2.0000      -0.938089       -25.5267
  22   2.0000      -0.901530       -24.5319
  23   2.0000      -0.871522       -23.7153
  24   2.0000      -0.853288       -23.2191
  25   2.0000      -0.818748       -22.2793
  26   2.0000      -0.787352       -21.4249
  27   2.0000      -0.750721       -20.4281
  28   2.0000      -0.715234       -19.4625
  29   2.0000      -0.702561       -19.1177
  30   2.0000      -0.691027       -18.8038
  31   2.0000      -0.683519       -18.5995
  32   2.0000      -0.648463       -17.6456
  33   2.0000      -0.638978       -17.3875
  34   2.0000      -0.608604       -16.5610
  35   2.0000      -0.579722       -15.7751
  36   2.0000      -0.566318       -15.4103
  37   2.0000      -0.549080       -14.9412
  38   2.0000      -0.545059       -14.8318
  39   2.0000      -0.531531       -14.4637
  40   2.0000      -0.518510       -14.1094
  41   2.0000      -0.501202       -13.6384
  42   2.0000      -0.490249       -13.3404
  43   2.0000      -0.485652       -13.2153
  44   2.0000      -0.475914       -12.9503
  45   2.0000      -0.454706       -12.3732
  46   2.0000      -0.451714       -12.2918
  47   2.0000      -0.443034       -12.0556
  48   2.0000      -0.430074       -11.7029
  49   2.0000      -0.421988       -11.4829
  50   2.0000      -0.412581       -11.2269
  51   2.0000      -0.404107       -10.9963
  52   2.0000      -0.401655       -10.9296
  53   2.0000      -0.395715       -10.7679
  54   2.0000      -0.387040       -10.5319
  55   2.0000      -0.375472       -10.2171
  56   2.0000      -0.368725       -10.0335
  57   2.0000      -0.363899        -9.9022
  58   2.0000      -0.347982        -9.4691
  59   2.0000      -0.341205        -9.2847
  60   2.0000      -0.327864        -8.9216
  61   0.0000       0.005265         0.1433
  62   0.0000       0.028887         0.7861
  63   0.0000       0.033657         0.9159
  64   0.0000       0.044707         1.2165
  65   0.0000       0.054500         1.4830

MULLIKEN ATOMIC CHARGES
-----------------------
   0 C :    0.047178
   1 C :    2.184436
   2 C :    0.614247
   3 C :    0.422320
   4 S :    1.655904
   5 H :   -0.611265
   6 H :   -0.256637
   7 H :   -1.127697
   8 O :   -0.740371
   9 O :   -0.761115
  10 H :   -0.331710
  11 H :    0.003070
  12 F :   -0.588364
  13 C :    0.497339
  14 H :   -0.100355
  15 H :   -0.123409
  16 C :   -0.122966
  17 H :   -0.659740
  18 H :   -0.081619
  19 C :    0.749470
  20 H :   -0.404181
  21 H :    0.134098
  22 C :   -0.080102
  23 H :   -0.039570
  24 H :   -0.009397
  25 C :    0.385896
  26 H :    0.214254
  27 H :   -0.466124
  28 C :    0.295022
  29 H :   -0.058218
  30 H :   -0.499007
  31 H :    0.121190
  32 H :   -0.229909
  33 H :   -0.010045
  34 H :   -0.022625
Sum of atomic charges:    0.0000000

LOEWDIN ATOMIC CHARGES
----------------------
   0 C :   -0.041676
   1 C :    0.128138
   2 C :   -0.029367
   3 C :   -0.031239
   4 S :    1.229550
   5 H :   -0.122439
   6 H :   -0.015741
   7 H :   -0.116442
   8 O :   -0.466715
   9 O :   -0.471739
  10 H :    0.020625
  11 H :    0.010425
  12 F :   -0.257271
  13 C :   -0.018982
  14 H :    0.025539
  15 H :    0.015898
  16 C :   -0.035665
  17 H :   -0.003422
  18 H :    0.025806
  19 C :   -0.030772
  20 H :    0.024010
  21 H :    0.004534
  22 C :   -0.034975
  23 H :    0.023477
  24 H :    0.021672
  25 C :   -0.018779
  26 H :    0.020563
  27 H :    0.024786
  28 C :   -0.030906
  29 H :    0.039232
  30 H :   -0.000683
  31 H :    0.026044
  32 H :    0.038598
  33 H :    0.031313
  34 H :    0.016604

  Mayer bond orders larger than 0.100000
B(  0-C ,  1-C ) :   0.8691 B(  0-C ,  2-C ) :   1.1844 B(  0-C ,  5-H ) :   0.4416
B(  0-C ,  6-H ) :   0.1056 B(  0-C ,  7-H ) :   0.4841 B(  0-C , 10-H ) :   0.9415
B(  0-C , 11-H ) :   0.7498 B(  0-C , 13-C ) :   0.1177 B(  0-C , 14-H ) :   0.1275
B(  0-C , 15-H ) :   0.1828 B(  1-C ,  5-H ) :  -0.4087 B(  1-C ,  6-H ) :   0.6513
B(  1-C ,  7-H ) :  -0.9786 B(  1-C ,  9-O ) :  -0.1193 B(  1-C , 11-H ) :   0.2365
B(  2-C ,  7-H ) :  -0.1350 B(  2-C , 13-C ) :   1.1980 B(  2-C , 14-H ) :   0.6900
B(  2-C , 15-H ) :   0.7368 B(  2-C , 17-H ) :   0.1013 B(  2-C , 19-C ) :   0.1060
B(  3-C ,  4-S ) :   0.8977 B(  3-C , 12-F ) :   0.1106 B(  3-C , 28-C ) :   1.2682
B(  3-C , 33-H ) :   0.9307 B(  3-C , 34-H ) :   0.7290 B(  4-S ,  8-O ) :   1.3289
B(  4-S ,  9-O ) :   1.3414 B(  4-S , 12-F ) :   0.4451 B(  5-H ,  6-H ) :  -0.2333
B(  5-H ,  7-H ) :   1.0122 B(  5-H ,  9-O ) :   0.1519 B(  6-H ,  7-H ) :   0.1346
B(  7-H ,  9-O ) :   0.1644 B(  7-H , 10-H ) :   0.1068 B(  7-H , 15-H ) :  -0.1106
B(  7-H , 17-H ) :   0.2030 B( 10-H , 11-H ) :  -0.1534 B( 11-H , 21-H ) :   0.1244
B( 13-C , 14-H ) :   0.2070 B( 13-C , 15-H ) :   0.1337 B( 13-C , 16-C ) :   1.1406
B( 13-C , 17-H ) :   0.7448 B( 13-C , 18-H ) :   0.7453 B( 13-C , 20-H ) :   0.1846
B( 14-H , 15-H ) :  -0.1933 B( 14-H , 17-H ) :   0.1007 B( 16-C , 17-H ) :   0.2233
B( 16-C , 18-H ) :   0.1878 B( 16-C , 19-C ) :   1.1657 B( 16-C , 20-H ) :   1.0463
B( 16-C , 21-H ) :   0.8530 B( 16-C , 22-C ) :   0.1537 B( 16-C , 23-H ) :   0.1396
B( 16-C , 24-H ) :   0.2790 B( 17-H , 26-H ) :   0.1273 B( 19-C , 22-C ) :   1.1247
B( 19-C , 23-H ) :   0.6799 B( 19-C , 24-H ) :   0.6819 B( 21-H , 30-H ) :   0.1005
B( 22-C , 23-H ) :   0.2391 B( 22-C , 25-C ) :   1.2422 B( 22-C , 26-H ) :   0.7724
B( 22-C , 27-H ) :   1.1053 B( 22-C , 28-C ) :   0.1237 B( 22-C , 29-H ) :   0.1002
B( 22-C , 30-H ) :   0.1169 B( 23-H , 24-H ) :  -0.1494 B( 25-C , 26-H ) :   0.1099
B( 25-C , 27-H ) :   0.1716 B( 25-C , 28-C ) :   1.1338 B( 25-C , 29-H ) :   0.7024
B( 25-C , 30-H ) :   0.8342 B( 25-C , 32-H ) :   0.2027 B( 28-C , 29-H ) :   0.1297
B( 28-C , 31-H ) :   0.8386 B( 28-C , 32-H ) :   0.8452 B( 28-C , 34-H ) :   0.2378
B( 29-H , 30-H ) :   0.2423

Dispersion correction           -0.002303819
FINAL SINGLE POINT ENERGY     -1041.182601837798

DIPOLE MOMENT
-------------
                                X             Y             Z
Electronic contribution:    -12.70925     -20.25361     -14.25309
Nuclear contribution   :     10.70731      19.84772      14.63855
                        -----------------------------------------
Total Dipole Moment    :     -2.00194      -0.40589       0.38547
                        -----------------------------------------
Magnitude (a.u.)       :      2.07873
Magnitude (Debye)      :      5.28370

Rotational constants in cm-1:     0.026014     0.014812     0.010477
Rotational constants in MHz :   779.874765   444.063394   314.081855

                             ****ORCA TERMINATED NORMALLY****
TOTAL RUN TIME: 0 days 0 hours 3 minutes 32 seconds 569 msec
