                         Program Version 5.0.0 -  RELEASE  -
|  1> !wB97X-D3 RIJCOSX def2-SVPD def2/J TightSCF CPCM(Water)
|  2> *xyz -1 1
|  3> C         -1.36646        2.47911       -4.31393
|  4> C         -2.35773        2.30686       -3.13675
|  5> O         -3.44376        2.84652       -3.25274
|  6> O         -1.97092        1.58304       -2.15123
|  7> H         -1.80853        3.10058       -5.06443
|  8> H         -1.13980        1.52081       -4.73248
|  9> H         -0.46612        2.93495       -3.95827
| 10> *
| 11> %MaxCore 64000
| 12>
| 13> %pal nprocs 18
| 14> end
| 15>
| 16> %scf
| 17>   MaxIter 150
| 18> end
| 19>
| 20>
| 21>                          ****END OF INPUT****

CARTESIAN COORDINATES (ANGSTROEM)
---------------------------------
  C     -1.366460    2.479110   -4.313930
  C     -2.357730    2.306860   -3.136750
  O     -3.443760    2.846520   -3.252740
  O     -1.970920    1.583040   -2.151230
  H     -1.808530    3.100580   -5.064430
  H     -1.139800    1.520810   -4.732480
  H     -0.466120    2.934950   -3.958270

 Total Charge           Charge          ....   -1
 Multiplicity           Mult            ....    1
 Number of Electrons    NEL             ....   32
 Basis Dimension        Dim             ....  110

ORBITAL ENERGIES
----------------

  NO   OCC          E(Eh)            E(eV)
   0   2.0000     -19.183412      -522.0072
   1   2.0000     -19.173965      -521.7501
   2   2.0000     -10.369670      -282.1731
   3   2.0000     -10.260067      -279.1906
   4   2.0000      -1.131566       -30.7915
   5   2.0000      -1.029036       -28.0015
   6   2.0000      -0.813343       -22.1322
   7   2.0000      -0.587815       -15.9953
   8   2.0000      -0.530987       -14.4489
   9   2.0000      -0.524750       -14.2792
  10   2.0000      -0.520177       -14.1547
  11   2.0000      -0.471113       -12.8196
  12   2.0000      -0.452425       -12.3111
  13   2.0000      -0.345000        -9.3879
  14   2.0000      -0.330876        -9.0036
  15   2.0000      -0.325193        -8.8490
  16   0.0000       0.096676         2.6307
  17   0.0000       0.133608         3.6357
  18   0.0000       0.134623         3.6633
  19   0.0000       0.149764         4.0753
  20   0.0000       0.173075         4.7096

MULLIKEN ATOMIC CHARGES
-----------------------
   0 C :    0.399786
   1 C :    0.003021
   2 O :   -0.601570
   3 O :   -0.740011
   4 H :   -0.050247
   5 H :   -0.004738
   6 H :   -0.006241
Sum of atomic charges:   -1.0000000

LOEWDIN ATOMIC CHARGES
----------------------
   0 C :    0.159328
   1 C :   -0.352858
   2 O :   -0.337215
   3 O :   -0.403528
   4 H :   -0.028491
   5 H :   -0.018091
   6 H :   -0.019145

  Mayer bond orders larger than 0.100000
B(  0-C ,  1-C ) :   1.2190 B(  0-C ,  4-H ) :   0.8913 B(  0-C ,  5-H ) :   0.8340
B(  0-C ,  6-H ) :   0.8295 B(  1-C ,  2-O ) :   1.5782 B(  1-C ,  3-O ) :   1.4501
B(  1-C ,  4-H ) :   0.2083 B(  1-C ,  5-H ) :   0.1396 B(  1-C ,  6-H ) :   0.1435

Dispersion correction           -0.000909507
FINAL SINGLE POINT ENERGY      -228.413741552751

DIPOLE MOMENT
-------------
                                X             Y             Z
Electronic contribution:     -2.08353      -0.22914       2.22205
Nuclear contribution   :      3.20990       0.60513      -3.84153
                        -----------------------------------------
Total Dipole Moment    :      1.12638       0.37599      -1.61947
                        -----------------------------------------
Magnitude (a.u.)       :      2.00818
Magnitude (Debye)      :      5.10438

Rotational constants in cm-1:     0.394521     0.330294     0.185888
Rotational constants in MHz : 11827.441786  9901.964904  5572.768963

                             ****ORCA TERMINATED NORMALLY****
TOTAL RUN TIME: 0 days 0 hours 0 minutes 5 seconds 620 msec
