                         Program Version 5.0.0 -  RELEASE  -
|  1> !wB97X-D3 RIJCOSX def2-SVPD def2/J TightSCF CPCM(Water)
|  2> *xyz 1 1
|  3> C          0.64866        1.00359       -3.64560
|  4> N          0.28128        0.67645       -2.24018
|  5> H          0.39079       -0.31925       -2.02649
|  6> H         -0.69269        0.99010       -2.13812
|  7> H          0.85421        1.21221       -1.57528
|  8> H          0.03905        0.43387       -4.31545
|  9> H          1.67860        0.76457       -3.80989
| 10> H          0.49232        2.04741       -3.82138
| 11> *
| 12> %MaxCore 64000
| 13>
| 14> %pal nprocs 18
| 15> end
| 16>
| 17> %scf
| 18>   MaxIter 150
| 19> end
| 20>
| 21>
| 22>                          ****END OF INPUT****

CARTESIAN COORDINATES (ANGSTROEM)
---------------------------------
  C      0.648660    1.003590   -3.645600
  N      0.281280    0.676450   -2.240180
  H      0.390790   -0.319250   -2.026490
  H     -0.692690    0.990100   -2.138120
  H      0.854210    1.212210   -1.575280
  H      0.039050    0.433870   -4.315450
  H      1.678600    0.764570   -3.809890
  H      0.492320    2.047410   -3.821380

 Total Charge           Charge          ....    1
 Multiplicity           Mult            ....    1
 Number of Electrons    NEL             ....   18
 Basis Dimension        Dim             ....   88

ORBITAL ENERGIES
----------------

  NO   OCC          E(Eh)            E(eV)
   0   2.0000     -14.559330      -396.1795
   1   2.0000     -10.342217      -281.4260
   2   2.0000      -1.108228       -30.1564
   3   2.0000      -0.833510       -22.6810
   4   2.0000      -0.691576       -18.8187
   5   2.0000      -0.682249       -18.5649
   6   2.0000      -0.596808       -16.2400
   7   2.0000      -0.518593       -14.1116
   8   2.0000      -0.516429       -14.0528
   9   0.0000       0.084325         2.2946
  10   0.0000       0.122519         3.3339
  11   0.0000       0.158594         4.3156
  12   0.0000       0.159305         4.3349
  13   0.0000       0.194561         5.2943

MULLIKEN ATOMIC CHARGES
-----------------------
   0 C :    0.716779
   1 N :   -0.913538
   2 H :    0.410067
   3 H :    0.447389
   4 H :    0.420783
   5 H :   -0.025006
   6 H :   -0.038546
   7 H :   -0.017929
Sum of atomic charges:    1.0000000

LOEWDIN ATOMIC CHARGES
----------------------
   0 C :    0.265531
   1 N :    0.332246
   2 H :    0.116681
   3 H :    0.115090
   4 H :    0.117880
   5 H :    0.018063
   6 H :    0.015598
   7 H :    0.018911

  Mayer bond orders larger than 0.100000
B(  0-C ,  1-N ) :   0.8025 B(  0-C ,  5-H ) :   0.9236 B(  0-C ,  6-H ) :   0.9424
B(  0-C ,  7-H ) :   0.9165 B(  1-N ,  2-H ) :   0.7403 B(  1-N ,  3-H ) :   0.6905
B(  1-N ,  4-H ) :   0.7296

Dispersion correction           -0.000495160
FINAL SINGLE POINT ENERGY       -96.240271416176

DIPOLE MOMENT
-------------
                                X             Y             Z
Electronic contribution:     -0.32039      -0.31973       1.27133
Nuclear contribution   :      0.04246       0.12404      -0.26487
                        -----------------------------------------
Total Dipole Moment    :     -0.27793      -0.19568       1.00646
                        -----------------------------------------
Magnitude (a.u.)       :      1.06231
Magnitude (Debye)      :      2.70018

Rotational constants in cm-1:     2.856727     0.687609     0.685111
Rotational constants in MHz : 85642.512409 20614.005719 20539.101620

                             ****ORCA TERMINATED NORMALLY****
TOTAL RUN TIME: 0 days 0 hours 0 minutes 5 seconds 198 msec
