                         Program Version 5.0.0 -  RELEASE  -
|  1> !wB97X-D3 RIJCOSX def2-SVPD def2/J TightSCF CPCM(Water) xyzfile
|  2>
|  3> *xyzfile 0 1 B.xyz
|  4>
|  5> %MaxCore 64000
|  6>
|  7> %pal nprocs 18
|  8> end
|  9>
| 10> %scf
| 11>   MaxIter 150
| 12> end
| 13>
| 14>
| 15>                          ****END OF INPUT****

CARTESIAN COORDINATES (ANGSTROEM)
---------------------------------
  C      0.648656    1.003595   -3.645601
  N      0.281280    0.676454   -2.240179
  C      0.132968    2.385869   -4.024618
  C     -1.366462    2.479106   -4.313932
  C     -2.357732    2.306858   -3.136753
  H     -1.636802    1.727095   -5.063993
  H     -1.582347    3.445605   -4.768687
  H      0.390790   -0.319253   -2.026495
  H     -0.692686    0.990104   -2.138123
  H      0.854206    1.212214   -1.575279
  O     -3.443763    2.846518   -3.252744
  O     -1.970922    1.583042   -2.151229
  H      0.190993    0.239655   -4.275752
  H      1.731572    0.931729   -3.750751
  H      0.414839    3.102847   -3.245165
  H      0.683167    2.687560   -4.919721

 Total Charge           Charge          ....    0
 Multiplicity           Mult            ....    1
 Number of Electrons    NEL             ....   56
 Basis Dimension        Dim             ....  218

ORBITAL ENERGIES
----------------

  NO   OCC          E(Eh)            E(eV)
   0   2.0000     -19.201128      -522.4893
   1   2.0000     -19.199907      -522.4560
   2   2.0000     -14.500794      -394.5867
   3   2.0000     -10.390219      -282.7322
   4   2.0000     -10.337298      -281.2922
   5   2.0000     -10.296313      -280.1769
   6   2.0000     -10.285390      -279.8797
   7   2.0000      -1.155061       -31.4308
   8   2.0000      -1.084296       -29.5052
   9   2.0000      -1.053602       -28.6700
  10   2.0000      -0.900588       -24.5062
  11   2.0000      -0.807929       -21.9849
  12   2.0000      -0.724016       -19.7015
  13   2.0000      -0.678362       -18.4592
  14   2.0000      -0.653440       -17.7810
  15   2.0000      -0.607291       -16.5252
  16   2.0000      -0.577836       -15.7237
  17   2.0000      -0.570509       -15.5243
  18   2.0000      -0.541144       -14.7253
  19   2.0000      -0.534334       -14.5400
  20   2.0000      -0.499695       -13.5974
  21   2.0000      -0.482005       -13.1160
  22   2.0000      -0.469452       -12.7744
  23   2.0000      -0.452836       -12.3223
  24   2.0000      -0.435131       -11.8405
  25   2.0000      -0.371173       -10.1001
  26   2.0000      -0.354097        -9.6355
  27   2.0000      -0.343148        -9.3375
  28   0.0000       0.089818         2.4441
  29   0.0000       0.108886         2.9629
  30   0.0000       0.113484         3.0881
  31   0.0000       0.121947         3.3184
  32   0.0000       0.130651         3.5552

MULLIKEN ATOMIC CHARGES
-----------------------
   0 C :    0.592808
   1 N :   -0.445105
   2 C :   -0.028531
   3 C :   -0.048687
   4 C :    0.409155
   5 H :    0.162411
   6 H :    0.035445
   7 H :    0.356665
   8 H :   -0.163385
   9 H :    0.483508
  10 O :   -0.605204
  11 O :   -0.658772
  12 H :    0.032891
  13 H :   -0.127883
  14 H :   -0.015976
  15 H :    0.020660
Sum of atomic charges:    0.0000000

LOEWDIN ATOMIC CHARGES
----------------------
   0 C :    0.101618
   1 N :    0.336597
   2 C :   -0.010000
   3 C :    0.038453
   4 C :   -0.220631
   5 H :    0.040585
   6 H :    0.022327
   7 H :    0.107892
   8 H :   -0.150605
   9 H :    0.111807
  10 O :   -0.285421
  11 O :   -0.255775
  12 H :    0.049184
  13 H :    0.041819
  14 H :    0.039124
  15 H :    0.033024

  Mayer bond orders larger than 0.100000
B(  0-C ,  1-N ) :   0.7999 B(  0-C ,  2-C ) :   1.1768 B(  0-C , 12-H ) :   0.8873
B(  0-C , 13-H ) :   0.9046 B(  1-N ,  7-H ) :   0.8026 B(  1-N ,  8-H ) :   1.2052
B(  1-N ,  9-H ) :   0.7196 B(  1-N , 13-H ) :   0.1350 B(  2-C ,  3-C ) :   1.2033
B(  2-C ,  5-H ) :   0.1011 B(  2-C ,  6-H ) :   0.1265 B(  2-C , 13-H ) :   0.1153
B(  2-C , 14-H ) :   0.9308 B(  2-C , 15-H ) :   0.8601 B(  3-C ,  4-C ) :   1.0687
B(  3-C ,  5-H ) :   0.8103 B(  3-C ,  6-H ) :   0.9083 B(  4-C ,  6-H ) :   0.1153
B(  4-C , 10-O ) :   1.5905 B(  4-C , 11-O ) :   1.2985 B(  8-H , 11-O ) :   0.3324
B( 10-O , 11-O ) :   0.1349

Dispersion correction           -0.004907460
FINAL SINGLE POINT ENERGY      -362.754317254156

DIPOLE MOMENT
-------------
                                X             Y             Z
Electronic contribution:     -4.63407       0.46255       2.47249
Nuclear contribution   :      9.92875      -2.62114      -2.63866
                        -----------------------------------------
Total Dipole Moment    :      5.29468      -2.15859      -0.16616
                        -----------------------------------------
Magnitude (a.u.)       :      5.72021
Magnitude (Debye)      :     14.53961

Rotational constants in cm-1:     0.159108     0.062474     0.047603
Rotational constants in MHz :  4769.938632  1872.932224  1427.103830

                             ****ORCA TERMINATED NORMALLY****
TOTAL RUN TIME: 0 days 0 hours 0 minutes 15 seconds 762 msec
