                         Program Version 5.0.0 -  RELEASE  -
|  1> !wB97X-D3 RIJCOSX def2-SVPD def2/J TightSCF CPCM(Water)
|  2> *xyz 0 1
|  3> C         -1.36646        2.47911       -4.31393
|  4> C         -2.35773        2.30686       -3.13675
|  5> F         -3.44376        2.84652       -3.25274
|  6> O         -1.97092        1.58304       -2.15123
|  7> H         -1.80853        3.10058       -5.06443
|  8> H         -1.13980        1.52081       -4.73248
|  9> H         -0.46612        2.93495       -3.95827
| 10> *
| 11> %MaxCore 64000
| 12>
| 13> %pal nprocs 18
| 14> end
| 15>
| 16> %scf
| 17>   MaxIter 150
| 18> end
| 19>
| 20>
| 21>                          ****END OF INPUT****

CARTESIAN COORDINATES (ANGSTROEM)
---------------------------------
  C     -1.366460    2.479110   -4.313930
  C     -2.357730    2.306860   -3.136750
  F     -3.443760    2.846520   -3.252740
  O     -1.970920    1.583040   -2.151230
  H     -1.808530    3.100580   -5.064430
  H     -1.139800    1.520810   -4.732480
  H     -0.466120    2.934950   -3.958270

 Total Charge           Charge          ....    0
 Multiplicity           Mult            ....    1
 Number of Electrons    NEL             ....   32
 Basis Dimension        Dim             ....  110

ORBITAL ENERGIES
----------------

  NO   OCC          E(Eh)            E(eV)
   0   2.0000     -24.889999      -677.2913
   1   2.0000     -19.259994      -524.0911
   2   2.0000     -10.488472      -285.4058
   3   2.0000     -10.302041      -280.3328
   4   2.0000      -1.455234       -39.5989
   5   2.0000      -1.135439       -30.8969
   6   2.0000      -0.870776       -23.6950
   7   2.0000      -0.782078       -21.2814
   8   2.0000      -0.674843       -18.3634
   9   2.0000      -0.665495       -18.1090
  10   2.0000      -0.610967       -16.6253
  11   2.0000      -0.531225       -14.4554
  12   2.0000      -0.519860       -14.1461
  13   2.0000      -0.498791       -13.5728
  14   2.0000      -0.451355       -12.2820
  15   2.0000      -0.399468       -10.8701
  16   0.0000       0.049913         1.3582
  17   0.0000       0.091009         2.4765
  18   0.0000       0.130968         3.5638
  19   0.0000       0.152813         4.1582
  20   0.0000       0.161514         4.3950

MULLIKEN ATOMIC CHARGES
-----------------------
   0 C :    0.222604
   1 C :    0.436822
   2 F :   -0.298843
   3 O :   -0.572133
   4 H :    0.038628
   5 H :    0.088277
   6 H :    0.084645
Sum of atomic charges:    0.0000000

LOEWDIN ATOMIC CHARGES
----------------------
   0 C :    0.222937
   1 C :   -0.018642
   2 F :   -0.005080
   3 O :   -0.214300
   4 H :   -0.004170
   5 H :    0.010009
   6 H :    0.009246

  Mayer bond orders larger than 0.100000
B(  0-C ,  1-C ) :   1.2678 B(  0-C ,  4-H ) :   0.9052 B(  0-C ,  5-H ) :   0.8322
B(  0-C ,  6-H ) :   0.8286 B(  1-C ,  2-F ) :   0.8700 B(  1-C ,  3-O ) :   1.7426
B(  1-C ,  4-H ) :   0.1318 B(  1-C ,  5-H ) :   0.1162 B(  1-C ,  6-H ) :   0.1214

Dispersion correction           -0.000915317
FINAL SINGLE POINT ENERGY      -252.835917127657

DIPOLE MOMENT
-------------
                                X             Y             Z
Electronic contribution:     -4.31939       0.70225       2.36731
Nuclear contribution   :      4.40923       0.04336      -3.80230
                        -----------------------------------------
Total Dipole Moment    :      0.08984       0.74561      -1.43499
                        -----------------------------------------
Magnitude (a.u.)       :      1.61963
Magnitude (Debye)      :      4.11678

Rotational constants in cm-1:     0.364425     0.322930     0.176742
Rotational constants in MHz : 10925.196996  9681.206479  5298.597717

                             ****ORCA TERMINATED NORMALLY****
TOTAL RUN TIME: 0 days 0 hours 0 minutes 6 seconds 778 msec
