                         Program Version 5.0.0 -  RELEASE  -
|  1> !wB97X-D3 RIJCOSX def2-SVPD def2/J TightSCF CPCM(Water)
|  2> *xyz 0 1
|  3> C          0.64866        1.00359       -3.64560
|  4> C          0.28128        0.67645       -2.24018
|  5> H          0.39079       -0.31925       -2.02649
|  6> H         -0.69269        0.99010       -2.13812
|  7> H          0.85421        1.21221       -1.57528
|  8> H          0.03905        0.43387       -4.31545
|  9> H          1.67860        0.76457       -3.80989
| 10> H          0.49232        2.04741       -3.82138
| 11> *
| 12> %MaxCore 64000
| 13>
| 14> %pal nprocs 18
| 15> end
| 16>
| 17> %scf
| 18>   MaxIter 150
| 19> end
| 20>
| 21>
| 22>                          ****END OF INPUT****

CARTESIAN COORDINATES (ANGSTROEM)
---------------------------------
  C      0.648660    1.003590   -3.645600
  C      0.281280    0.676450   -2.240180
  H      0.390790   -0.319250   -2.026490
  H     -0.692690    0.990100   -2.138120
  H      0.854210    1.212210   -1.575280
  H      0.039050    0.433870   -4.315450
  H      1.678600    0.764570   -3.809890
  H      0.492320    2.047410   -3.821380

 Total Charge           Charge          ....    0
 Multiplicity           Mult            ....    1
 Number of Electrons    NEL             ....   18
 Basis Dimension        Dim             ....   88

ORBITAL ENERGIES
----------------

  NO   OCC          E(Eh)            E(eV)
   0   2.0000     -10.261805      -279.2379
   1   2.0000     -10.247979      -278.8617
   2   2.0000      -0.876014       -23.8376
   3   2.0000      -0.721772       -19.6404
   4   2.0000      -0.549974       -14.9656
   5   2.0000      -0.544017       -14.8035
   6   2.0000      -0.459717       -12.5095
   7   2.0000      -0.438492       -11.9320
   8   2.0000      -0.433385       -11.7930
   9   0.0000       0.102915         2.8005
  10   0.0000       0.131128         3.5682
  11   0.0000       0.186046         5.0626
  12   0.0000       0.187112         5.0916
  13   0.0000       0.206055         5.6071

MULLIKEN ATOMIC CHARGES
-----------------------
   0 C :    0.114904
   1 C :    0.455975
   2 H :   -0.169982
   3 H :   -0.117031
   4 H :   -0.144147
   5 H :   -0.047001
   6 H :   -0.054369
   7 H :   -0.038348
Sum of atomic charges:    0.0000000

LOEWDIN ATOMIC CHARGES
----------------------
   0 C :    0.066877
   1 C :    0.076106
   2 H :   -0.032326
   3 H :   -0.032121
   4 H :   -0.031890
   5 H :   -0.014938
   6 H :   -0.017990
   7 H :   -0.013718

  Mayer bond orders larger than 0.100000
B(  0-C ,  1-C ) :   1.4401 B(  0-C ,  2-H ) :   0.1472 B(  0-C ,  3-H ) :   0.1781
B(  0-C ,  4-H ) :   0.1480 B(  0-C ,  5-H ) :   0.8823 B(  0-C ,  6-H ) :   0.9068
B(  0-C ,  7-H ) :   0.8756 B(  1-C ,  2-H ) :   0.8314 B(  1-C ,  3-H ) :   0.8104
B(  1-C ,  4-H ) :   0.8172 B(  1-C ,  5-H ) :   0.1352 B(  1-C ,  6-H ) :   0.1230
B(  1-C ,  7-H ) :   0.1396

Dispersion correction           -0.000484224
FINAL SINGLE POINT ENERGY       -79.736154405928

DIPOLE MOMENT
-------------
                                X             Y             Z
Electronic contribution:      0.00968      -0.06103       0.04974
Nuclear contribution   :     -0.02064       0.06655      -0.02194
                        -----------------------------------------
Total Dipole Moment    :     -0.01096       0.00552       0.02780
                        -----------------------------------------
Magnitude (a.u.)       :      0.03039
Magnitude (Debye)      :      0.07724

Rotational constants in cm-1:     2.856742     0.718110     0.715385
Rotational constants in MHz : 85642.970161 21528.388214 21446.695095

                             ****ORCA TERMINATED NORMALLY****
TOTAL RUN TIME: 0 days 0 hours 0 minutes 5 seconds 137 msec
