                         Program Version 5.0.0 -  RELEASE  -
|  1> !wB97X-D3 RIJCOSX def2-SVPD def2/J TightSCF CPCM(Water)
|  2> *xyz 0 1
|  3> C         -1.36646        2.47911       -4.31393
|  4> C         -2.35773        2.30686       -3.13675
|  5> O         -3.44376        2.84652       -3.25274
|  6> F         -1.97092        1.58304       -2.15123
|  7> H         -1.80853        3.10058       -5.06443
|  8> H         -1.13980        1.52081       -4.73248
|  9> H         -0.46612        2.93495       -3.95827
| 10> *
| 11> %MaxCore 64000
| 12>
| 13> %pal nprocs 18
| 14> end
| 15>
| 16> %scf
| 17>   MaxIter 150
| 18> end
| 19>
| 20>
| 21>                          ****END OF INPUT****

CARTESIAN COORDINATES (ANGSTROEM)
---------------------------------
  C     -1.366460    2.479110   -4.313930
  C     -2.357730    2.306860   -3.136750
  O     -3.443760    2.846520   -3.252740
  F     -1.970920    1.583040   -2.151230
  H     -1.808530    3.100580   -5.064430
  H     -1.139800    1.520810   -4.732480
  H     -0.466120    2.934950   -3.958270

 Total Charge           Charge          ....    0
 Multiplicity           Mult            ....    1
 Number of Electrons    NEL             ....   32
 Basis Dimension        Dim             ....  110

ORBITAL ENERGIES
----------------

  NO   OCC          E(Eh)            E(eV)
   0   2.0000     -24.868288      -676.7005
   1   2.0000     -19.267961      -524.3079
   2   2.0000     -10.481135      -285.2062
   3   2.0000     -10.301209      -280.3101
   4   2.0000      -1.407890       -38.3106
   5   2.0000      -1.174012       -31.9465
   6   2.0000      -0.866367       -23.5750
   7   2.0000      -0.758382       -20.6366
   8   2.0000      -0.648475       -17.6459
   9   2.0000      -0.642311       -17.4782
  10   2.0000      -0.614984       -16.7346
  11   2.0000      -0.530057       -14.4236
  12   2.0000      -0.526655       -14.3310
  13   2.0000      -0.504575       -13.7302
  14   2.0000      -0.473017       -12.8715
  15   2.0000      -0.405498       -11.0341
  16   0.0000       0.060325         1.6415
  17   0.0000       0.089719         2.4414
  18   0.0000       0.131031         3.5655
  19   0.0000       0.153448         4.1755
  20   0.0000       0.160939         4.3794

MULLIKEN ATOMIC CHARGES
-----------------------
   0 C :    0.244623
   1 C :    0.424404
   2 O :   -0.452112
   3 F :   -0.401907
   4 H :    0.004272
   5 H :    0.091912
   6 H :    0.088808
Sum of atomic charges:    0.0000000

LOEWDIN ATOMIC CHARGES
----------------------
   0 C :    0.222921
   1 C :   -0.018288
   2 O :   -0.161143
   3 F :   -0.056609
   4 H :    0.000266
   5 H :    0.007006
   6 H :    0.005847

  Mayer bond orders larger than 0.100000
B(  0-C ,  1-C ) :   1.2441 B(  0-C ,  4-H ) :   0.9203 B(  0-C ,  5-H ) :   0.8285
B(  0-C ,  6-H ) :   0.8268 B(  1-C ,  2-O ) :   1.8666 B(  1-C ,  3-F ) :   0.7339
B(  1-C ,  4-H ) :   0.1731 B(  1-C ,  5-H ) :   0.1065 B(  1-C ,  6-H ) :   0.1091

Dispersion correction           -0.000897233
FINAL SINGLE POINT ENERGY      -252.851901842476

DIPOLE MOMENT
-------------
                                X             Y             Z
Electronic contribution:     -1.62173      -1.61552       4.39213
Nuclear contribution   :      2.88734       1.34891      -4.94049
                        -----------------------------------------
Total Dipole Moment    :      1.26561      -0.26661      -0.54836
                        -----------------------------------------
Magnitude (a.u.)       :      1.40483
Magnitude (Debye)      :      3.57079

Rotational constants in cm-1:     0.375207     0.313199     0.176202
Rotational constants in MHz : 11248.433436  9389.476975  5282.390844

                             ****ORCA TERMINATED NORMALLY****
TOTAL RUN TIME: 0 days 0 hours 0 minutes 5 seconds 831 msec
