                         Program Version 5.0.0 -  RELEASE  -
|  1> !wB97X-D3 RIJCOSX def2-SVPD def2/J TightSCF CPCM(Water) xyzfile
|  2>
|  3> *xyzfile 0 1 D1.xyz
|  4>
|  5> %MaxCore 64000
|  6>
|  7> %pal nprocs 18
|  8> end
|  9>
| 10> %scf
| 11>   MaxIter 150
| 12> end
| 13>
| 14>
| 15>                          ****END OF INPUT****

CARTESIAN COORDINATES (ANGSTROEM)
---------------------------------
  C      0.648656    1.003595   -3.645601
  C      0.281280    0.676454   -2.240179
  C      0.132968    2.385869   -4.024618
  C     -1.366462    2.479106   -4.313932
  C     -2.357732    2.306858   -3.136753
  H     -1.636802    1.727095   -5.063993
  H     -1.582347    3.445605   -4.768687
  H      0.390790   -0.319253   -2.026495
  H     -0.692686    0.990104   -2.138123
  H      0.854206    1.212214   -1.575279
  F     -3.443763    2.846518   -3.252744
  O     -1.970922    1.583042   -2.151229
  H      0.190993    0.239655   -4.275752
  H      1.731572    0.931729   -3.750751
  H      0.414839    3.102847   -3.245165
  H      0.683167    2.687560   -4.919721

 Total Charge           Charge          ....    0
 Multiplicity           Mult            ....    1
 Number of Electrons    NEL             ....   56
 Basis Dimension        Dim             ....  218

ORBITAL ENERGIES
----------------

  NO   OCC          E(Eh)            E(eV)
   0   2.0000     -24.894243      -677.4068
   1   2.0000     -19.257746      -524.0299
   2   2.0000     -10.492511      -285.5157
   3   2.0000     -10.313911      -280.6558
   4   2.0000     -10.288159      -279.9550
   5   2.0000     -10.267512      -279.3932
   6   2.0000     -10.204195      -277.6703
   7   2.0000      -1.458212       -39.6800
   8   2.0000      -1.149793       -31.2874
   9   2.0000      -0.919487       -25.0205
  10   2.0000      -0.864066       -23.5124
  11   2.0000      -0.794486       -21.6191
  12   2.0000      -0.763064       -20.7640
  13   2.0000      -0.686910       -18.6918
  14   2.0000      -0.675762       -18.3884
  15   2.0000      -0.661445       -17.9988
  16   2.0000      -0.626286       -17.0421
  17   2.0000      -0.581421       -15.8213
  18   2.0000      -0.546027       -14.8581
  19   2.0000      -0.530453       -14.4344
  20   2.0000      -0.506104       -13.7718
  21   2.0000      -0.480075       -13.0635
  22   2.0000      -0.470788       -12.8108
  23   2.0000      -0.449936       -12.2434
  24   2.0000      -0.436130       -11.8677
  25   2.0000      -0.413070       -11.2402
  26   2.0000      -0.403362       -10.9761
  27   2.0000      -0.344290        -9.3686
  28   0.0000       0.043992         1.1971
  29   0.0000       0.092657         2.5213
  30   0.0000       0.113489         3.0882
  31   0.0000       0.122682         3.3383
  32   0.0000       0.128676         3.5015

MULLIKEN ATOMIC CHARGES
-----------------------
   0 C :   -0.293718
   1 C :    2.048385
   2 C :    0.037345
   3 C :   -0.144488
   4 C :    0.794853
   5 H :    0.252291
   6 H :    0.112611
   7 H :   -0.083170
   8 H :   -1.580639
   9 H :   -0.021911
  10 F :   -0.367650
  11 O :   -0.529699
  12 H :    0.011366
  13 H :   -0.177934
  14 H :    0.000709
  15 H :   -0.058353
Sum of atomic charges:   -0.0000000

LOEWDIN ATOMIC CHARGES
----------------------
   0 C :   -0.058398
   1 C :    0.114962
   2 C :   -0.019924
   3 C :    0.074248
   4 C :    0.087763
   5 H :    0.057081
   6 H :    0.036032
   7 H :   -0.032471
   8 H :   -0.207927
   9 H :   -0.024748
  10 F :    0.011602
  11 O :   -0.146305
  12 H :    0.026375
  13 H :    0.017693
  14 H :    0.037719
  15 H :    0.026296

  Mayer bond orders larger than 0.100000
B(  0-C ,  1-C ) :   0.9080 B(  0-C ,  2-C ) :   1.1610 B(  0-C ,  7-H ) :   0.2023
B(  0-C ,  8-H ) :   0.5993 B(  0-C ,  9-H ) :   0.2378 B(  0-C , 12-H ) :   0.8661
B(  0-C , 13-H ) :   0.9554 B(  0-C , 14-H ) :   0.1118 B(  1-C ,  7-H ) :   0.5456
B(  1-C ,  8-H ) :  -1.4808 B(  1-C ,  9-H ) :   0.3220 B(  1-C , 11-O ) :  -0.1554
B(  1-C , 12-H ) :   0.1003 B(  2-C ,  3-C ) :   1.2454 B(  2-C ,  5-H ) :   0.1117
B(  2-C ,  6-H ) :   0.1358 B(  2-C , 13-H ) :   0.1118 B(  2-C , 14-H ) :   0.8923
B(  2-C , 15-H ) :   0.9026 B(  3-C ,  4-C ) :   1.1387 B(  3-C ,  5-H ) :   0.7694
B(  3-C ,  6-H ) :   0.8583 B(  3-C , 10-F ) :   0.1058 B(  3-C , 14-H ) :   0.1145
B(  4-C ,  6-H ) :   0.1019 B(  4-C , 10-F ) :   0.7712 B(  4-C , 11-O ) :   1.6328
B(  7-H ,  8-H ) :   0.1858 B(  7-H ,  9-H ) :  -0.1114 B(  8-H ,  9-H ) :   0.4682
B(  8-H , 11-O ) :   0.3162

Dispersion correction           -0.004674879
FINAL SINGLE POINT ENERGY      -370.609895894946

DIPOLE MOMENT
-------------
                                X             Y             Z
Electronic contribution:    -13.07206       4.82512       1.00446
Nuclear contribution   :     12.79331      -3.91961      -2.45895
                        -----------------------------------------
Total Dipole Moment    :     -0.27875       0.90551      -1.45448
                        -----------------------------------------
Magnitude (a.u.)       :      1.73585
Magnitude (Debye)      :      4.41218

Rotational constants in cm-1:     0.162888     0.059977     0.046450
Rotational constants in MHz :  4883.250030  1798.063289  1392.548669

                             ****ORCA TERMINATED NORMALLY****
TOTAL RUN TIME: 0 days 0 hours 0 minutes 16 seconds 126 msec
