                         Program Version 5.0.0 -  RELEASE  -
|  1> !wB97X-D3 RIJCOSX def2-SVPD def2/J TightSCF CPCM(Water) xyzfile
|  2>
|  3> *xyzfile 0 1 D2.xyz
|  4>
|  5> %MaxCore 64000
|  6>
|  7> %pal nprocs 18
|  8> end
|  9>
| 10> %scf
| 11>   MaxIter 150
| 12> end
| 13>
| 14>
| 15>                          ****END OF INPUT****

CARTESIAN COORDINATES (ANGSTROEM)
---------------------------------
  C      0.648656    1.003595   -3.645601
  C      0.281280    0.676454   -2.240179
  C      0.132968    2.385869   -4.024618
  C     -1.366462    2.479106   -4.313932
  C     -2.357732    2.306858   -3.136753
  H     -1.636802    1.727095   -5.063993
  H     -1.582347    3.445605   -4.768687
  H      0.390790   -0.319253   -2.026495
  H     -0.692686    0.990104   -2.138123
  H      0.854206    1.212214   -1.575279
  O     -3.443763    2.846518   -3.252744
  F     -1.970922    1.583042   -2.151229
  H      0.190993    0.239655   -4.275752
  H      1.731572    0.931729   -3.750751
  H      0.414839    3.102847   -3.245165
  H      0.683167    2.687560   -4.919721

 Total Charge           Charge          ....    0
 Multiplicity           Mult            ....    1
 Number of Electrons    NEL             ....   56
 Basis Dimension        Dim             ....  218

ORBITAL ENERGIES
----------------

  NO   OCC          E(Eh)            E(eV)
   0   2.0000     -24.875104      -676.8860
   1   2.0000     -19.272310      -524.4262
   2   2.0000     -10.483934      -285.2824
   3   2.0000     -10.312903      -280.6284
   4   2.0000     -10.287923      -279.9486
   5   2.0000     -10.271790      -279.5096
   6   2.0000     -10.222505      -278.1685
   7   2.0000      -1.425477       -38.7892
   8   2.0000      -1.178280       -32.0626
   9   2.0000      -0.924856       -25.1666
  10   2.0000      -0.866115       -23.5682
  11   2.0000      -0.785129       -21.3644
  12   2.0000      -0.775988       -21.1157
  13   2.0000      -0.681275       -18.5384
  14   2.0000      -0.665254       -18.1025
  15   2.0000      -0.656923       -17.8758
  16   2.0000      -0.612951       -16.6792
  17   2.0000      -0.569608       -15.4998
  18   2.0000      -0.546854       -14.8807
  19   2.0000      -0.539150       -14.6710
  20   2.0000      -0.515565       -14.0292
  21   2.0000      -0.488591       -13.2952
  22   2.0000      -0.475349       -12.9349
  23   2.0000      -0.455798       -12.4029
  24   2.0000      -0.427353       -11.6289
  25   2.0000      -0.416282       -11.3276
  26   2.0000      -0.410973       -11.1831
  27   2.0000      -0.386329       -10.5125
  28   0.0000       0.051959         1.4139
  29   0.0000       0.091367         2.4862
  30   0.0000       0.112981         3.0744
  31   0.0000       0.122510         3.3337
  32   0.0000       0.128444         3.4951

MULLIKEN ATOMIC CHARGES
-----------------------
   0 C :   -0.276658
   1 C :    2.061624
   2 C :    0.059349
   3 C :   -0.158031
   4 C :    0.737186
   5 H :    0.249192
   6 H :    0.075225
   7 H :   -0.045139
   8 H :   -1.478605
   9 H :    0.000589
  10 O :   -0.453771
  11 F :   -0.561186
  12 H :    0.010334
  13 H :   -0.172071
  14 H :    0.006073
  15 H :   -0.054112
Sum of atomic charges:    0.0000000

LOEWDIN ATOMIC CHARGES
----------------------
   0 C :   -0.058922
   1 C :    0.136239
   2 C :   -0.028432
   3 C :    0.074268
   4 C :    0.050081
   5 H :    0.056059
   6 H :    0.038980
   7 H :   -0.025364
   8 H :   -0.147374
   9 H :   -0.018605
  10 O :   -0.140513
  11 F :   -0.048181
  12 H :    0.027731
  13 H :    0.021148
  14 H :    0.036840
  15 H :    0.026045

  Mayer bond orders larger than 0.100000
B(  0-C ,  1-C ) :   0.9283 B(  0-C ,  2-C ) :   1.1571 B(  0-C ,  7-H ) :   0.1985
B(  0-C ,  8-H ) :   0.5475 B(  0-C ,  9-H ) :   0.2346 B(  0-C , 12-H ) :   0.8786
B(  0-C , 13-H ) :   0.9601 B(  0-C , 14-H ) :   0.1037 B(  1-C ,  7-H ) :   0.5612
B(  1-C ,  8-H ) :  -1.4657 B(  1-C ,  9-H ) :   0.3146 B(  1-C , 11-F ) :  -0.2092
B(  1-C , 12-H ) :   0.1046 B(  2-C ,  3-C ) :   1.2193 B(  2-C ,  5-H ) :   0.1098
B(  2-C ,  6-H ) :   0.1299 B(  2-C , 13-H ) :   0.1116 B(  2-C , 14-H ) :   0.8896
B(  2-C , 15-H ) :   0.8896 B(  3-C ,  4-C ) :   1.0858 B(  3-C ,  5-H ) :   0.7711
B(  3-C ,  6-H ) :   0.9027 B(  3-C , 14-H ) :   0.1192 B(  3-C , 15-H ) :   0.1010
B(  4-C ,  6-H ) :   0.1107 B(  4-C , 10-O ) :   1.8438 B(  4-C , 11-F ) :   0.6505
B(  7-H ,  8-H ) :   0.1838 B(  7-H ,  9-H ) :  -0.1096 B(  8-H ,  9-H ) :   0.4756
B(  8-H , 11-F ) :   0.3573 B(  8-H , 13-H ) :   0.1099 B( 10-O , 11-F ) :   0.1084

Dispersion correction           -0.004650496
FINAL SINGLE POINT ENERGY      -370.628652350359

DIPOLE MOMENT
-------------
                                X             Y             Z
Electronic contribution:    -10.05621       2.29997       3.16121
Nuclear contribution   :     11.08738      -2.45618      -3.73478
                        -----------------------------------------
Total Dipole Moment    :      1.03118      -0.15621      -0.57357
                        -----------------------------------------
Magnitude (a.u.)       :      1.19026
Magnitude (Debye)      :      3.02539

Rotational constants in cm-1:     0.156244     0.063730     0.048063
Rotational constants in MHz :  4684.071402  1910.571278  1440.877811

                             ****ORCA TERMINATED NORMALLY****
TOTAL RUN TIME: 0 days 0 hours 0 minutes 16 seconds 78 msec
