                         Program Version 5.0.0 -  RELEASE  -
|  1> !PBE D3BJ RIJCOSX def2-SVP def2/J TightSCF
|  2> *xyz -1 1
|  3> C         -7.33044       -2.67899       -3.20681
|  4> S         -6.01966       -2.92697       -4.41913
|  5> O         -5.64583       -1.58838       -4.91931
|  6> O         -4.88196       -3.50370       -3.66724
|  7> O         -6.54927       -3.80515       -5.42507
|  8> C         -7.46900       -1.24615       -2.71383
|  9> H         -7.11825       -3.37982       -2.39805
| 10> H         -8.24184       -3.00474       -3.70651
| 11> H         -7.67580       -0.60214       -3.54292
| 12> H         -6.55749       -0.94096       -2.24382
| 13> H         -8.27114       -1.18777       -2.00810
| 14> *
| 15> %MaxCore 64000
| 16>
| 17> %pal nprocs 4
| 18> end
| 19>
| 20> %scf
| 21>   MaxIter 150
| 22> end
| 23>
| 24>
| 25>                          ****END OF INPUT****

CARTESIAN COORDINATES (ANGSTROEM)
---------------------------------
  C     -7.330440   -2.678990   -3.206810
  S     -6.019660   -2.926970   -4.419130
  O     -5.645830   -1.588380   -4.919310
  O     -4.881960   -3.503700   -3.667240
  O     -6.549270   -3.805150   -5.425070
  C     -7.469000   -1.246150   -2.713830
  H     -7.118250   -3.379820   -2.398050
  H     -8.241840   -3.004740   -3.706510
  H     -7.675800   -0.602140   -3.542920
  H     -6.557490   -0.940960   -2.243820
  H     -8.271140   -1.187770   -2.008100

 Total Charge           Charge          ....   -1
 Multiplicity           Mult            ....    1
 Number of Electrons    NEL             ....   58
 Basis Dimension        Dim             ....  113

ORBITAL ENERGIES
----------------

  NO   OCC          E(Eh)            E(eV)
   0   2.0000     -88.007103     -2394.7950
   1   2.0000     -18.505268      -503.5539
   2   2.0000     -18.495745      -503.2948
   3   2.0000     -18.489275      -503.1187
   4   2.0000      -9.742812      -265.1154
   5   2.0000      -9.737195      -264.9625
   6   2.0000      -7.618776      -207.3174
   7   2.0000      -5.645206      -153.6139
   8   2.0000      -5.645121      -153.6116
   9   2.0000      -5.644864      -153.6045
  10   2.0000      -0.801538       -21.8109
  11   2.0000      -0.664748       -18.0887
  12   2.0000      -0.641734       -17.4625
  13   2.0000      -0.542897       -14.7730
  14   2.0000      -0.424301       -11.5458
  15   2.0000      -0.300413        -8.1747
  16   2.0000      -0.256946        -6.9919
  17   2.0000      -0.236984        -6.4487
  18   2.0000      -0.206909        -5.6303
  19   2.0000      -0.183784        -5.0010
  20   2.0000      -0.177733        -4.8364
  21   2.0000      -0.160762        -4.3746
  22   2.0000      -0.155172        -4.2224
  23   2.0000      -0.063121        -1.7176
  24   2.0000      -0.061506        -1.6737
  25   2.0000      -0.037034        -1.0077
  26   2.0000      -0.027982        -0.7614
  27   2.0000      -0.015384        -0.4186
  28   2.0000       0.020426         0.5558
  29   0.0000       0.183207         4.9853
  30   0.0000       0.235343         6.4040
  31   0.0000       0.235827         6.4172
  32   0.0000       0.244067         6.6414
  33   0.0000       0.265675         7.2294

MULLIKEN ATOMIC CHARGES
-----------------------
   0 C :   -0.108191
   1 S :    0.746193
   2 O :   -0.550187
   3 O :   -0.569975
   4 O :   -0.520138
   5 C :    0.029468
   6 H :    0.002825
   7 H :   -0.005134
   8 H :    0.005805
   9 H :    0.007908
  10 H :   -0.038572
Sum of atomic charges:   -1.0000000

LOEWDIN ATOMIC CHARGES
----------------------
   0 C :   -0.198644
   1 S :    1.035487
   2 O :   -0.606002
   3 O :   -0.622508
   4 O :   -0.573539
   5 C :   -0.080161
   6 H :    0.008757
   7 H :    0.004686
   8 H :    0.015252
   9 H :    0.017504
  10 H :   -0.000832

  Mayer bond orders larger than 0.100000
B(  0-C ,  1-S ) :   0.8541 B(  0-C ,  5-C ) :   1.0964 B(  0-C ,  6-H ) :   0.9346
B(  0-C ,  7-H ) :   0.9334 B(  1-S ,  2-O ) :   1.6143 B(  1-S ,  3-O ) :   1.6040
B(  1-S ,  4-O ) :   1.6562 B(  5-C ,  8-H ) :   0.9571 B(  5-C ,  9-H ) :   0.9621
B(  5-C , 10-H ) :   0.9455

Dispersion correction           -0.009632645
FINAL SINGLE POINT ENERGY      -702.219636603586

DIPOLE MOMENT
-------------
                                X             Y             Z
Electronic contribution:      4.90496      -3.59783      -5.30371
Nuclear contribution   :     -6.18165       4.01759       6.33106
                        -----------------------------------------
Total Dipole Moment    :     -1.27669       0.41976       1.02735
                        -----------------------------------------
Magnitude (a.u.)       :      1.69162
Magnitude (Debye)      :      4.29977

Rotational constants in cm-1:     0.161711     0.082788     0.081165
Rotational constants in MHz :  4847.971521  2481.906910  2433.276832

                             ****ORCA TERMINATED NORMALLY****
TOTAL RUN TIME: 0 days 0 hours 0 minutes 7 seconds 827 msec
