                         Program Version 5.0.0 -  RELEASE  -
|  1> !PBE D3BJ RIJCOSX def2-SVP def2/J TightSCF
|  2> *xyz 1 1
|  3> C         -2.16038       -1.36949       -3.46710
|  4> N         -3.03011       -1.91086       -4.54107
|  5> C         -2.04772        0.14658       -3.51177
|  6> H         -3.47744       -2.79151       -4.25710
|  7> H         -2.53801       -2.01786       -5.43808
|  8> H         -3.89159       -1.37604       -4.71437
|  9> H         -1.18444       -1.84400       -3.56639
| 10> H         -2.59819       -1.70838       -2.52848
| 11> H         -1.61525        0.44478       -4.44395
| 12> H         -1.42718        0.48198       -2.70720
| 13> H         -3.02145        0.57958       -3.41560
| 14> *
| 15> %MaxCore 64000
| 16>
| 17> %pal nprocs 4
| 18> end
| 19>
| 20> %scf
| 21>   MaxIter 150
| 22> end
| 23>
| 24>
| 25>                          ****END OF INPUT****

CARTESIAN COORDINATES (ANGSTROEM)
---------------------------------
  C     -2.160380   -1.369490   -3.467100
  N     -3.030110   -1.910860   -4.541070
  C     -2.047720    0.146580   -3.511770
  H     -3.477440   -2.791510   -4.257100
  H     -2.538010   -2.017860   -5.438080
  H     -3.891590   -1.376040   -4.714370
  H     -1.184440   -1.844000   -3.566390
  H     -2.598190   -1.708380   -2.528480
  H     -1.615250    0.444780   -4.443950
  H     -1.427180    0.481980   -2.707200
  H     -3.021450    0.579580   -3.415600

 Total Charge           Charge          ....    1
 Multiplicity           Mult            ....    1
 Number of Electrons    NEL             ....   26
 Basis Dimension        Dim             ....   82

ORBITAL ENERGIES
----------------

  NO   OCC          E(Eh)            E(eV)
   0   2.0000     -14.336428      -390.1140
   1   2.0000     -10.148718      -276.1607
   2   2.0000     -10.070679      -274.0371
   3   2.0000      -1.132186       -30.8084
   4   2.0000      -0.893869       -24.3234
   5   2.0000      -0.783432       -21.3183
   6   2.0000      -0.759910       -20.6782
   7   2.0000      -0.720512       -19.6061
   8   2.0000      -0.653319       -17.7777
   9   2.0000      -0.594675       -16.1819
  10   2.0000      -0.538636       -14.6570
  11   2.0000      -0.523706       -14.2508
  12   2.0000      -0.505372       -13.7519
  13   0.0000      -0.209428        -5.6988
  14   0.0000      -0.154892        -4.2148
  15   0.0000      -0.152804        -4.1580
  16   0.0000      -0.114871        -3.1258
  17   0.0000      -0.079700        -2.1687

MULLIKEN ATOMIC CHARGES
-----------------------
   0 C :   -0.056077
   1 N :    0.038702
   2 C :   -0.035262
   3 H :    0.204743
   4 H :    0.214973
   5 H :    0.194237
   6 H :    0.107206
   7 H :    0.099460
   8 H :    0.066671
   9 H :    0.100142
  10 H :    0.065206
Sum of atomic charges:    1.0000000

LOEWDIN ATOMIC CHARGES
----------------------
   0 C :    0.040592
   1 N :    0.299643
   2 C :   -0.045147
   3 H :    0.147934
   4 H :    0.146606
   5 H :    0.141825
   6 H :    0.059300
   7 H :    0.055942
   8 H :    0.043519
   9 H :    0.067419
  10 H :    0.042366

  Mayer bond orders larger than 0.100000
B(  0-C ,  1-N ) :   0.9403 B(  0-C ,  2-C ) :   1.1209 B(  0-C ,  6-H ) :   0.9423
B(  0-C ,  7-H ) :   0.9454 B(  1-N ,  3-H ) :   0.9332 B(  1-N ,  4-H ) :   0.9328
B(  1-N ,  5-H ) :   0.9311 B(  2-C ,  8-H ) :   0.9658 B(  2-C ,  9-H ) :   0.9500
B(  2-C , 10-H ) :   0.9620

Dispersion correction           -0.006126575
FINAL SINGLE POINT ENERGY      -135.244708688430

DIPOLE MOMENT
-------------
                                X             Y             Z
Electronic contribution:     -0.67161      -1.51213      -0.80482
Nuclear contribution   :     -0.15215       0.37393      -0.04773
                        -----------------------------------------
Total Dipole Moment    :     -0.82376      -1.13820      -0.85255
                        -----------------------------------------
Magnitude (a.u.)       :      1.64344
Magnitude (Debye)      :      4.17730

Rotational constants in cm-1:     1.020762     0.277172     0.247319
Rotational constants in MHz : 30601.664035  8309.399682  7414.438136

                             ****ORCA TERMINATED NORMALLY****
TOTAL RUN TIME: 0 days 0 hours 0 minutes 6 seconds 432 msec
