                         Program Version 5.0.0 -  RELEASE  -
|  1> !PBE D3BJ RIJCOSX def2-SVP def2/J TightSCF
|  2> *xyz 0 1
|  3> C         -7.33044       -2.67899       -3.20681
|  4> S         -6.01966       -2.92697       -4.41913
|  5> F         -5.64583       -1.58838       -4.91931
|  6> O         -4.88196       -3.50370       -3.66724
|  7> O         -6.54927       -3.80515       -5.42507
|  8> C         -7.46900       -1.24615       -2.71383
|  9> H         -7.11825       -3.37982       -2.39805
| 10> H         -8.24184       -3.00474       -3.70651
| 11> H         -7.67580       -0.60214       -3.54292
| 12> H         -6.55749       -0.94096       -2.24382
| 13> H         -8.27114       -1.18777       -2.00810
| 14> *
| 15> %MaxCore 64000
| 16>
| 17> %pal nprocs 4
| 18> end
| 19>
| 20> %scf
| 21>   MaxIter 150
| 22> end
| 23>
| 24>
| 25>                          ****END OF INPUT****

CARTESIAN COORDINATES (ANGSTROEM)
---------------------------------
  C     -7.330440   -2.678990   -3.206810
  S     -6.019660   -2.926970   -4.419130
  F     -5.645830   -1.588380   -4.919310
  O     -4.881960   -3.503700   -3.667240
  O     -6.549270   -3.805150   -5.425070
  C     -7.469000   -1.246150   -2.713830
  H     -7.118250   -3.379820   -2.398050
  H     -8.241840   -3.004740   -3.706510
  H     -7.675800   -0.602140   -3.542920
  H     -6.557490   -0.940960   -2.243820
  H     -8.271140   -1.187770   -2.008100

 Total Charge           Charge          ....    0
 Multiplicity           Mult            ....    1
 Number of Electrons    NEL             ....   58
 Basis Dimension        Dim             ....  113

ORBITAL ENERGIES
----------------

  NO   OCC          E(Eh)            E(eV)
   0   2.0000     -88.277138     -2402.1431
   1   2.0000     -24.352290      -662.6595
   2   2.0000     -18.757335      -510.4130
   3   2.0000     -18.742042      -509.9969
   4   2.0000      -9.948969      -270.7252
   5   2.0000      -9.920680      -269.9554
   6   2.0000      -7.891365      -214.7349
   7   2.0000      -5.921949      -161.1444
   8   2.0000      -5.915555      -160.9704
   9   2.0000      -5.914257      -160.9351
  10   2.0000      -1.230015       -33.4704
  11   2.0000      -1.005220       -27.3534
  12   2.0000      -0.904518       -24.6132
  13   2.0000      -0.747170       -20.3315
  14   2.0000      -0.645269       -17.5587
  15   2.0000      -0.603663       -16.4265
  16   2.0000      -0.517661       -14.0863
  17   2.0000      -0.490217       -13.3395
  18   2.0000      -0.470042       -12.7905
  19   2.0000      -0.443700       -12.0737
  20   2.0000      -0.412525       -11.2254
  21   2.0000      -0.395698       -10.7675
  22   2.0000      -0.378434       -10.2977
  23   2.0000      -0.365992        -9.9592
  24   2.0000      -0.348211        -9.4753
  25   2.0000      -0.323896        -8.8137
  26   2.0000      -0.277142        -7.5414
  27   2.0000      -0.260851        -7.0981
  28   2.0000      -0.246197        -6.6994
  29   0.0000      -0.010959        -0.2982
  30   0.0000       0.034474         0.9381
  31   0.0000       0.048705         1.3253
  32   0.0000       0.054335         1.4785
  33   0.0000       0.074603         2.0300

MULLIKEN ATOMIC CHARGES
-----------------------
   0 C :   -0.142259
   1 S :    0.837922
   2 F :   -0.165031
   3 O :   -0.432890
   4 O :   -0.382975
   5 C :   -0.021878
   6 H :    0.094138
   7 H :    0.076390
   8 H :    0.040460
   9 H :    0.049081
  10 H :    0.047042
Sum of atomic charges:   -0.0000000

LOEWDIN ATOMIC CHARGES
----------------------
   0 C :   -0.155394
   1 S :    1.098148
   2 F :   -0.130102
   3 O :   -0.491830
   4 O :   -0.442968
   5 C :   -0.069782
   6 H :    0.051324
   7 H :    0.039992
   8 H :    0.028507
   9 H :    0.032345
  10 H :    0.039758

  Mayer bond orders larger than 0.100000
B(  0-C ,  1-S ) :   0.9055 B(  0-C ,  5-C ) :   1.0813 B(  0-C ,  6-H ) :   0.9286
B(  0-C ,  7-H ) :   0.9294 B(  1-S ,  2-F ) :   1.0082 B(  1-S ,  3-O ) :   1.7597
B(  1-S ,  4-O ) :   1.8042 B(  5-C ,  8-H ) :   0.9681 B(  5-C ,  9-H ) :   0.9672
B(  5-C , 10-H ) :   0.9549

Dispersion correction           -0.009161702
FINAL SINGLE POINT ENERGY      -726.726322341254

DIPOLE MOMENT
-------------
                                X             Y             Z
Electronic contribution:      5.76291      -1.79140      -6.47541
Nuclear contribution   :     -6.81251       2.87933       7.15058
                        -----------------------------------------
Total Dipole Moment    :     -1.04961       1.08793       0.67517
                        -----------------------------------------
Magnitude (a.u.)       :      1.65563
Magnitude (Debye)      :      4.20827

Rotational constants in cm-1:     0.152543     0.082494     0.078987
Rotational constants in MHz :  4573.135887  2473.116216  2367.980829

                             ****ORCA TERMINATED NORMALLY****
TOTAL RUN TIME: 0 days 0 hours 0 minutes 6 seconds 965 msec
