                         Program Version 5.0.0 -  RELEASE  -
|  1> !PBE D3BJ RIJCOSX def2-SVP def2/J TightSCF
|  2> *xyz 0 1
|  3> C         -2.16038       -1.36949       -3.46710
|  4> C         -3.03011       -1.91086       -4.54107
|  5> C         -2.04772        0.14658       -3.51177
|  6> H         -3.47744       -2.79151       -4.25710
|  7> H         -2.53801       -2.01786       -5.43808
|  8> H         -3.89159       -1.37604       -4.71437
|  9> H         -1.18444       -1.84400       -3.56639
| 10> H         -2.59819       -1.70838       -2.52848
| 11> H         -1.61525        0.44478       -4.44395
| 12> H         -1.42718        0.48198       -2.70720
| 13> H         -3.02145        0.57958       -3.41560
| 14> *
| 15> %MaxCore 64000
| 16>
| 17> %pal nprocs 4
| 18> end
| 19>
| 20> %scf
| 21>   MaxIter 150
| 22> end
| 23>
| 24>
| 25>                          ****END OF INPUT****

CARTESIAN COORDINATES (ANGSTROEM)
---------------------------------
  C     -2.160380   -1.369490   -3.467100
  C     -3.030110   -1.910860   -4.541070
  C     -2.047720    0.146580   -3.511770
  H     -3.477440   -2.791510   -4.257100
  H     -2.538010   -2.017860   -5.438080
  H     -3.891590   -1.376040   -4.714370
  H     -1.184440   -1.844000   -3.566390
  H     -2.598190   -1.708380   -2.528480
  H     -1.615250    0.444780   -4.443950
  H     -1.427180    0.481980   -2.707200
  H     -3.021450    0.579580   -3.415600

 Total Charge           Charge          ....    0
 Multiplicity           Mult            ....    1
 Number of Electrons    NEL             ....   26
 Basis Dimension        Dim             ....   82

ORBITAL ENERGIES
----------------

  NO   OCC          E(Eh)            E(eV)
   0   2.0000      -9.881561      -268.8910
   1   2.0000      -9.873333      -268.6671
   2   2.0000      -9.856784      -268.2167
   3   2.0000      -0.709234       -19.2992
   4   2.0000      -0.616116       -16.7654
   5   2.0000      -0.520709       -14.1692
   6   2.0000      -0.416642       -11.3374
   7   2.0000      -0.388782       -10.5793
   8   2.0000      -0.353995        -9.6327
   9   2.0000      -0.344901        -9.3852
  10   2.0000      -0.295522        -8.0416
  11   2.0000      -0.283771        -7.7218
  12   2.0000      -0.282098        -7.6763
  13   0.0000       0.043747         1.1904
  14   0.0000       0.087947         2.3932
  15   0.0000       0.092351         2.5130
  16   0.0000       0.094394         2.5686
  17   0.0000       0.124123         3.3775

MULLIKEN ATOMIC CHARGES
-----------------------
   0 C :   -0.087033
   1 C :    0.055640
   2 C :   -0.001088
   3 H :   -0.015277
   4 H :    0.001841
   5 H :   -0.020115
   6 H :    0.013932
   7 H :    0.009289
   8 H :    0.014644
   9 H :    0.013748
  10 H :    0.014416
Sum of atomic charges:   -0.0000000

LOEWDIN ATOMIC CHARGES
----------------------
   0 C :   -0.046631
   1 C :   -0.057516
   2 C :   -0.058725
   3 H :    0.019799
   4 H :    0.015995
   5 H :    0.016015
   6 H :    0.023457
   7 H :    0.022074
   8 H :    0.021806
   9 H :    0.022155
  10 H :    0.021570

  Mayer bond orders larger than 0.100000
B(  0-C ,  1-C ) :   1.1294 B(  0-C ,  2-C ) :   1.1199 B(  0-C ,  6-H ) :   0.9475
B(  0-C ,  7-H ) :   0.9488 B(  1-C ,  3-H ) :   0.9521 B(  1-C ,  4-H ) :   0.9677
B(  1-C ,  5-H ) :   0.9543 B(  2-C ,  8-H ) :   0.9716 B(  2-C ,  9-H ) :   0.9640
B(  2-C , 10-H ) :   0.9684

Dispersion correction           -0.006124422
FINAL SINGLE POINT ENERGY      -118.851844675209

DIPOLE MOMENT
-------------
                                X             Y             Z
Electronic contribution:      0.31547      -0.12363       0.27057
Nuclear contribution   :     -0.34625       0.09603      -0.26933
                        -----------------------------------------
Total Dipole Moment    :     -0.03078      -0.02760       0.00124
                        -----------------------------------------
Magnitude (a.u.)       :      0.04136
Magnitude (Debye)      :      0.10513

Rotational constants in cm-1:     1.028617     0.291238     0.258956
Rotational constants in MHz : 30837.159054  8731.095379  7763.318586

                             ****ORCA TERMINATED NORMALLY****
TOTAL RUN TIME: 0 days 0 hours 0 minutes 6 seconds 504 msec
