                         Program Version 5.0.0 -  RELEASE  -
|  1> !PBE D3BJ RIJCOSX def2-SVP def2/J TightSCF
|  2> *xyz 0 1
|  3> C         -7.33044       -2.67899       -3.20681
|  4> S         -6.01966       -2.92697       -4.41913
|  5> O         -5.64583       -1.58838       -4.91931
|  6> F         -4.88196       -3.50370       -3.66724
|  7> O         -6.54927       -3.80515       -5.42507
|  8> C         -7.46900       -1.24615       -2.71383
|  9> H         -7.11825       -3.37982       -2.39805
| 10> H         -8.24184       -3.00474       -3.70651
| 11> H         -7.67580       -0.60214       -3.54292
| 12> H         -6.55749       -0.94096       -2.24382
| 13> H         -8.27114       -1.18777       -2.00810
| 14> *
| 15> %MaxCore 64000
| 16>
| 17> %pal nprocs 4
| 18> end
| 19>
| 20> %scf
| 21>   MaxIter 150
| 22> end
| 23>
| 24>
| 25>                          ****END OF INPUT****

CARTESIAN COORDINATES (ANGSTROEM)
---------------------------------
  C     -7.330440   -2.678990   -3.206810
  S     -6.019660   -2.926970   -4.419130
  O     -5.645830   -1.588380   -4.919310
  F     -4.881960   -3.503700   -3.667240
  O     -6.549270   -3.805150   -5.425070
  C     -7.469000   -1.246150   -2.713830
  H     -7.118250   -3.379820   -2.398050
  H     -8.241840   -3.004740   -3.706510
  H     -7.675800   -0.602140   -3.542920
  H     -6.557490   -0.940960   -2.243820
  H     -8.271140   -1.187770   -2.008100

 Total Charge           Charge          ....    0
 Multiplicity           Mult            ....    1
 Number of Electrons    NEL             ....   58
 Basis Dimension        Dim             ....  113

ORBITAL ENERGIES
----------------

  NO   OCC          E(Eh)            E(eV)
   0   2.0000     -88.277873     -2402.1631
   1   2.0000     -24.348318      -662.5514
   2   2.0000     -18.757817      -510.4262
   3   2.0000     -18.747501      -510.1455
   4   2.0000      -9.949457      -270.7385
   5   2.0000      -9.912015      -269.7196
   6   2.0000      -7.892062      -214.7539
   7   2.0000      -5.922517      -161.1599
   8   2.0000      -5.916309      -160.9910
   9   2.0000      -5.915055      -160.9568
  10   2.0000      -1.225639       -33.3513
  11   2.0000      -1.006836       -27.3974
  12   2.0000      -0.909155       -24.7394
  13   2.0000      -0.742824       -20.2133
  14   2.0000      -0.646239       -17.5850
  15   2.0000      -0.596416       -16.2293
  16   2.0000      -0.509195       -13.8559
  17   2.0000      -0.485561       -13.2128
  18   2.0000      -0.478575       -13.0227
  19   2.0000      -0.437564       -11.9067
  20   2.0000      -0.418581       -11.3902
  21   2.0000      -0.393001       -10.6941
  22   2.0000      -0.371900       -10.1199
  23   2.0000      -0.354996        -9.6599
  24   2.0000      -0.346345        -9.4245
  25   2.0000      -0.324183        -8.8215
  26   2.0000      -0.277413        -7.5488
  27   2.0000      -0.268302        -7.3009
  28   2.0000      -0.250393        -6.8136
  29   0.0000      -0.000187        -0.0051
  30   0.0000       0.019998         0.5442
  31   0.0000       0.049055         1.3349
  32   0.0000       0.054711         1.4888
  33   0.0000       0.072509         1.9731

MULLIKEN ATOMIC CHARGES
-----------------------
   0 C :   -0.159820
   1 S :    0.841386
   2 O :   -0.421169
   3 F :   -0.173009
   4 O :   -0.385117
   5 C :    0.011184
   6 H :    0.065819
   7 H :    0.087633
   8 H :    0.056729
   9 H :    0.039345
  10 H :    0.037018
Sum of atomic charges:   -0.0000000

LOEWDIN ATOMIC CHARGES
----------------------
   0 C :   -0.161986
   1 S :    1.098514
   2 O :   -0.479630
   3 F :   -0.138550
   4 O :   -0.443796
   5 C :   -0.061560
   6 H :    0.034100
   7 H :    0.048180
   8 H :    0.036979
   9 H :    0.031694
  10 H :    0.036055

  Mayer bond orders larger than 0.100000
B(  0-C ,  1-S ) :   0.8885 B(  0-C ,  5-C ) :   1.0916 B(  0-C ,  6-H ) :   0.9266
B(  0-C ,  7-H ) :   0.9301 B(  1-S ,  2-O ) :   1.7709 B(  1-S ,  3-F ) :   1.0014
B(  1-S ,  4-O ) :   1.8058 B(  5-C ,  8-H ) :   0.9622 B(  5-C ,  9-H ) :   0.9670
B(  5-C , 10-H ) :   0.9502

Dispersion correction           -0.009206325
FINAL SINGLE POINT ENERGY      -726.730365612861

DIPOLE MOMENT
-------------
                                X             Y             Z
Electronic contribution:      7.07332      -5.00058      -4.41305
Nuclear contribution   :     -7.60849       4.87515       5.84588
                        -----------------------------------------
Total Dipole Moment    :     -0.53517      -0.12542       1.43283
                        -----------------------------------------
Magnitude (a.u.)       :      1.53465
Magnitude (Debye)      :      3.90077

Rotational constants in cm-1:     0.153704     0.080342     0.079431
Rotational constants in MHz :  4607.928650  2408.599360  2381.267225

                             ****ORCA TERMINATED NORMALLY****
TOTAL RUN TIME: 0 days 0 hours 0 minutes 6 seconds 936 msec
