                         Program Version 5.0.0 -  RELEASE  -
|  1> !PBE D3BJ RIJCOSX def2-SVP def2/J TightSCF
|  2> *xyz 0 1
|  3> C         -7.33044       -2.67899       -3.20681
|  4> S         -6.01966       -2.92697       -4.41913
|  5> O         -5.64583       -1.58838       -4.91931
|  6> O         -4.88196       -3.50370       -3.66724
|  7> F         -6.54927       -3.80515       -5.42507
|  8> C         -7.46900       -1.24615       -2.71383
|  9> H         -7.11825       -3.37982       -2.39805
| 10> H         -8.24184       -3.00474       -3.70651
| 11> H         -7.67580       -0.60214       -3.54292
| 12> H         -6.55749       -0.94096       -2.24382
| 13> H         -8.27114       -1.18777       -2.00810
| 14> *
| 15> %MaxCore 64000
| 16>
| 17> %pal nprocs 4
| 18> end
| 19>
| 20> %scf
| 21>   MaxIter 150
| 22> end
| 23>
| 24>
| 25>                          ****END OF INPUT****

CARTESIAN COORDINATES (ANGSTROEM)
---------------------------------
  C     -7.330440   -2.678990   -3.206810
  S     -6.019660   -2.926970   -4.419130
  O     -5.645830   -1.588380   -4.919310
  O     -4.881960   -3.503700   -3.667240
  F     -6.549270   -3.805150   -5.425070
  C     -7.469000   -1.246150   -2.713830
  H     -7.118250   -3.379820   -2.398050
  H     -8.241840   -3.004740   -3.706510
  H     -7.675800   -0.602140   -3.542920
  H     -6.557490   -0.940960   -2.243820
  H     -8.271140   -1.187770   -2.008100

 Total Charge           Charge          ....    0
 Multiplicity           Mult            ....    1
 Number of Electrons    NEL             ....   58
 Basis Dimension        Dim             ....  113

ORBITAL ENERGIES
----------------

  NO   OCC          E(Eh)            E(eV)
   0   2.0000     -88.279535     -2402.2083
   1   2.0000     -24.370344      -663.1508
   2   2.0000     -18.746885      -510.1287
   3   2.0000     -18.742515      -510.0098
   4   2.0000      -9.950084      -270.7556
   5   2.0000      -9.912121      -269.7225
   6   2.0000      -7.893716      -214.7989
   7   2.0000      -5.924467      -161.2129
   8   2.0000      -5.917698      -161.0288
   9   2.0000      -5.916456      -160.9950
  10   2.0000      -1.262760       -34.3614
  11   2.0000      -0.991147       -26.9705
  12   2.0000      -0.891130       -24.2489
  13   2.0000      -0.742865       -20.2144
  14   2.0000      -0.658966       -17.9314
  15   2.0000      -0.604445       -16.4478
  16   2.0000      -0.519478       -14.1357
  17   2.0000      -0.512010       -13.9325
  18   2.0000      -0.485825       -13.2200
  19   2.0000      -0.440142       -11.9769
  20   2.0000      -0.417296       -11.3552
  21   2.0000      -0.386482       -10.5167
  22   2.0000      -0.368334       -10.0229
  23   2.0000      -0.356831        -9.7099
  24   2.0000      -0.340995        -9.2789
  25   2.0000      -0.316285        -8.6065
  26   2.0000      -0.268627        -7.3097
  27   2.0000      -0.258170        -7.0252
  28   2.0000      -0.235585        -6.4106
  29   0.0000       0.001223         0.0333
  30   0.0000       0.017784         0.4839
  31   0.0000       0.042697         1.1618
  32   0.0000       0.055803         1.5185
  33   0.0000       0.071295         1.9400

MULLIKEN ATOMIC CHARGES
-----------------------
   0 C :   -0.153397
   1 S :    0.830795
   2 O :   -0.416297
   3 O :   -0.428559
   4 F :   -0.127572
   5 C :    0.015006
   6 H :    0.082923
   7 H :    0.056155
   8 H :    0.046632
   9 H :    0.055388
  10 H :    0.038927
Sum of atomic charges:    0.0000000

LOEWDIN ATOMIC CHARGES
----------------------
   0 C :   -0.160966
   1 S :    1.090909
   2 O :   -0.476536
   3 O :   -0.487057
   4 F :   -0.093201
   5 C :   -0.055981
   6 H :    0.044063
   7 H :    0.029373
   8 H :    0.033975
   9 H :    0.038205
  10 H :    0.037216

  Mayer bond orders larger than 0.100000
B(  0-C ,  1-S ) :   0.8902 B(  0-C ,  5-C ) :   1.1014 B(  0-C ,  6-H ) :   0.9261
B(  0-C ,  7-H ) :   0.9246 B(  1-S ,  2-O ) :   1.7648 B(  1-S ,  3-O ) :   1.7536
B(  1-S ,  4-F ) :   1.0529 B(  5-C ,  8-H ) :   0.9601 B(  5-C ,  9-H ) :   0.9664
B(  5-C , 10-H ) :   0.9511

Dispersion correction           -0.009220362
FINAL SINGLE POINT ENERGY      -726.710989140950

DIPOLE MOMENT
-------------
                                X             Y             Z
Electronic contribution:      4.28593      -5.48840      -7.35545
Nuclear contribution   :     -5.87110       5.18927       7.67759
                        -----------------------------------------
Total Dipole Moment    :     -1.58517      -0.29913       0.32214
                        -----------------------------------------
Magnitude (a.u.)       :      1.64499
Magnitude (Debye)      :      4.18124

Rotational constants in cm-1:     0.155988     0.080452     0.078187
Rotational constants in MHz :  4676.405251  2411.902056  2343.983816

                             ****ORCA TERMINATED NORMALLY****
TOTAL RUN TIME: 0 days 0 hours 0 minutes 7 seconds 353 msec
