                         Program Version 5.0.0 -  RELEASE  -
|  1> !PBE D3BJ RIJCOSX def2-TZVP def2/J TightSCF xyzfile
|  2>
|  3> *xyzfile 0 1 D2.xyz
|  4>
|  5> %MaxCore 64000
|  6>
|  7> %pal nprocs 18
|  8> end
|  9>
| 10> %scf
| 11>   MaxIter 150
| 12> end
| 13>
| 14>
| 15>                          ****END OF INPUT****

CARTESIAN COORDINATES (ANGSTROEM)
---------------------------------
  C     -2.160376   -1.369486   -3.467104
  C     -3.030108   -1.910857   -4.541074
  C     -2.047717    0.146583   -3.511774
  C     -7.330440   -2.678991   -3.206811
  S     -6.019659   -2.926965   -4.419128
  H     -3.477443   -2.791513   -4.257096
  H     -2.538013   -2.017860   -5.438075
  H     -3.891589   -1.376039   -4.714365
  O     -5.645830   -1.588384   -4.919307
  F     -4.881961   -3.503697   -3.667235
  H     -1.184438   -1.843997   -3.566393
  H     -2.598195   -1.708376   -2.528477
  O     -6.549267   -3.805150   -5.425071
  C     -3.328755    0.875037   -3.103669
  H     -1.740034    0.452343   -4.517126
  H     -1.232611    0.434938   -2.842208
  C     -3.628487    0.771601   -1.609363
  H     -4.175106    0.490791   -3.682203
  H     -3.237812    1.928663   -3.381480
  C     -4.975718    1.361432   -1.190644
  H     -2.830700    1.276234   -1.054766
  H     -3.594312   -0.275838   -1.294603
  C     -6.184720    0.784347   -1.926464
  H     -4.956292    2.445725   -1.342200
  H     -5.097256    1.205252   -0.114136
  C     -6.286921   -0.735882   -1.893531
  H     -6.163994    1.100199   -2.974250
  H     -7.094530    1.223459   -1.504509
  C     -7.468999   -1.246153   -2.713833
  H     -6.360641   -1.090347   -0.859176
  H     -5.369848   -1.171853   -2.295982
  H     -7.601914   -0.601349   -3.585329
  H     -8.389791   -1.173436   -2.126922
  H     -7.118254   -3.379818   -2.398055
  H     -8.241838   -3.004745   -3.706513

 Total Charge           Charge          ....    0
 Multiplicity           Mult            ....    1
 Number of Electrons    NEL             ....  122
 Basis Dimension        Dim             ....  566

ORBITAL ENERGIES
----------------

  NO   OCC          E(Eh)            E(eV)
   0   2.0000     -88.270076     -2401.9509
   1   2.0000     -24.358570      -662.8304
   2   2.0000     -18.766928      -510.6741
   3   2.0000     -18.757051      -510.4053
   4   2.0000      -9.941311      -270.5168
   5   2.0000      -9.906275      -269.5635
   6   2.0000      -9.889512      -269.1073
   7   2.0000      -9.880432      -268.8602
   8   2.0000      -9.875799      -268.7342
   9   2.0000      -9.870054      -268.5778
  10   2.0000      -9.864885      -268.4372
  11   2.0000      -9.862084      -268.3609
  12   2.0000      -9.855952      -268.1941
  13   2.0000      -9.808920      -266.9143
  14   2.0000      -7.866028      -214.0455
  15   2.0000      -5.890396      -160.2858
  16   2.0000      -5.883861      -160.1080
  17   2.0000      -5.883541      -160.0993
  18   2.0000      -1.254690       -34.1419
  19   2.0000      -1.022818       -27.8323
  20   2.0000      -0.932607       -25.3775
  21   2.0000      -0.766680       -20.8624
  22   2.0000      -0.739294       -20.1172
  23   2.0000      -0.714266       -19.4362
  24   2.0000      -0.690065       -18.7776
  25   2.0000      -0.652950       -17.7677
  26   2.0000      -0.638928       -17.3861
  27   2.0000      -0.602559       -16.3965
  28   2.0000      -0.571194       -15.5430
  29   2.0000      -0.557178       -15.1616
  30   2.0000      -0.519070       -14.1246
  31   2.0000      -0.513311       -13.9679
  32   2.0000      -0.509859       -13.8740
  33   2.0000      -0.497798       -13.5458
  34   2.0000      -0.486511       -13.2386
  35   2.0000      -0.449084       -12.2202
  36   2.0000      -0.435191       -11.8421
  37   2.0000      -0.424533       -11.5521
  38   2.0000      -0.419762       -11.4223
  39   2.0000      -0.411856       -11.2072
  40   2.0000      -0.396228       -10.7819
  41   2.0000      -0.385768       -10.4973
  42   2.0000      -0.383341       -10.4312
  43   2.0000      -0.379747       -10.3335
  44   2.0000      -0.360167        -9.8006
  45   2.0000      -0.350698        -9.5430
  46   2.0000      -0.343170        -9.3381
  47   2.0000      -0.337680        -9.1888
  48   2.0000      -0.328832        -8.9480
  49   2.0000      -0.320186        -8.7127
  50   2.0000      -0.314431        -8.5561
  51   2.0000      -0.302531        -8.2323
  52   2.0000      -0.296002        -8.0546
  53   2.0000      -0.289771        -7.8851
  54   2.0000      -0.287821        -7.8320
  55   2.0000      -0.279837        -7.6147
  56   2.0000      -0.278140        -7.5686
  57   2.0000      -0.272335        -7.4106
  58   2.0000      -0.261806        -7.1241
  59   2.0000      -0.260096        -7.0776
  60   2.0000      -0.245077        -6.6689
  61   0.0000      -0.017437        -0.4745
  62   0.0000      -0.002747        -0.0747
  63   0.0000       0.018354         0.4994
  64   0.0000       0.020946         0.5700
  65   0.0000       0.025162         0.6847

MULLIKEN ATOMIC CHARGES
-----------------------
   0 C :   -0.148701
   1 C :   -0.426897
   2 C :   -0.078318
   3 C :   -0.263712
   4 S :    0.750105
   5 H :    0.094492
   6 H :    0.105444
   7 H :    0.157952
   8 O :   -0.391991
   9 F :   -0.079555
  10 H :    0.084110
  11 H :    0.067560
  12 O :   -0.355996
  13 C :   -0.243974
  14 H :    0.081675
  15 H :    0.071799
  16 C :   -0.229774
  17 H :    0.125275
  18 H :    0.084782
  19 C :   -0.107916
  20 H :    0.091759
  21 H :    0.099424
  22 C :   -0.208503
  23 H :    0.087083
  24 H :    0.086382
  25 C :   -0.272112
  26 H :    0.117907
  27 H :    0.091318
  28 C :   -0.111270
  29 H :    0.092537
  30 H :    0.098891
  31 H :    0.119448
  32 H :    0.109815
  33 H :    0.132915
  34 H :    0.168046
Sum of atomic charges:    0.0000000

LOEWDIN ATOMIC CHARGES
----------------------
   0 C :   -0.307442
   1 C :   -0.342461
   2 C :   -0.268642
   3 C :   -0.371741
   4 S :    0.507853
   5 H :    0.094374
   6 H :    0.106589
   7 H :    0.105206
   8 O :   -0.239694
   9 F :    0.086700
  10 H :    0.134716
  11 H :    0.129637
  12 O :   -0.223480
  13 C :   -0.269376
  14 H :    0.138095
  15 H :    0.135057
  16 C :   -0.274700
  17 H :    0.140398
  18 H :    0.136480
  19 C :   -0.271354
  20 H :    0.137678
  21 H :    0.133094
  22 C :   -0.273471
  23 H :    0.138811
  24 H :    0.136764
  25 C :   -0.274449
  26 H :    0.141779
  27 H :    0.138171
  28 C :   -0.284825
  29 H :    0.136883
  30 H :    0.137173
  31 H :    0.150118
  32 H :    0.145925
  33 H :    0.139539
  34 H :    0.150594

  Mayer bond orders larger than 0.100000
B(  0-C ,  1-C ) :   0.9838 B(  0-C ,  2-C ) :   1.0084 B(  0-C , 10-H ) :   0.9489
B(  0-C , 11-H ) :   0.9680 B(  1-C ,  5-H ) :   0.9700 B(  1-C ,  6-H ) :   0.9514
B(  1-C ,  7-H ) :   0.9790 B(  2-C , 13-C ) :   1.0159 B(  2-C , 14-H ) :   0.9426
B(  2-C , 15-H ) :   0.9444 B(  3-C ,  4-S ) :   0.8978 B(  3-C , 28-C ) :   0.9806
B(  3-C , 33-H ) :   0.9342 B(  3-C , 34-H ) :   0.9341 B(  4-S ,  8-O ) :   1.8342
B(  4-S ,  9-F ) :   1.1007 B(  4-S , 12-O ) :   2.0147 B( 13-C , 16-C ) :   1.0066
B( 13-C , 17-H ) :   0.9629 B( 13-C , 18-H ) :   0.9407 B( 16-C , 19-C ) :   0.9988
B( 16-C , 20-H ) :   0.9424 B( 16-C , 21-H ) :   0.9656 B( 19-C , 22-C ) :   1.0082
B( 19-C , 23-H ) :   0.9467 B( 19-C , 24-H ) :   0.9508 B( 22-C , 25-C ) :   1.0054
B( 22-C , 26-H ) :   0.9608 B( 22-C , 27-H ) :   0.9455 B( 25-C , 28-C ) :   0.9955
B( 25-C , 29-H ) :   0.9408 B( 25-C , 30-H ) :   0.9736 B( 28-C , 31-H ) :   0.9448
B( 28-C , 32-H ) :   0.9256

Dispersion correction           -0.041131564
FINAL SINGLE POINT ENERGY     -1041.462707608241

DIPOLE MOMENT
-------------
                                X             Y             Z
Electronic contribution:     -9.49538     -19.52325     -11.19567
Nuclear contribution   :      8.71934      19.48829      12.54264
                        -----------------------------------------
Total Dipole Moment    :     -0.77604      -0.03496       1.34697
                        -----------------------------------------
Magnitude (a.u.)       :      1.55492
Magnitude (Debye)      :      3.95230

Rotational constants in cm-1:     0.025810     0.015137     0.010647
Rotational constants in MHz :   773.773140   453.802427   319.195213

                             ****ORCA TERMINATED NORMALLY****
TOTAL RUN TIME: 0 days 0 hours 0 minutes 20 seconds 496 msec
