                         Program Version 5.0.0 -  RELEASE  -
|  1> !PBE0 D3BJ RIJCOSX def2-SVP def2/J TightSCF
|  2> *xyz -1 1
|  3> C         -1.91658       -2.48508       -3.64367
|  4> C         -1.36353       -1.98134       -2.29361
|  5> O         -0.35039       -2.74969       -1.79601
|  6> H         -2.22622       -1.90839       -1.60204
|  7> H         -1.05135       -0.91567       -2.44333
|  8> H         -1.11522       -2.57167       -4.34739
|  9> H         -2.64227       -1.79099       -4.01314
| 10> H         -2.37564       -3.44180       -3.50640
| 11> *
| 12>
| 13> %MaxCore 64000
| 14> %pal nprocs 4
| 15> end
| 16>
| 17> %scf
| 18>   MaxIter 150
| 19> end
| 20>
| 21>
| 22>                          ****END OF INPUT****

CARTESIAN COORDINATES (ANGSTROEM)
---------------------------------
  C     -1.916580   -2.485080   -3.643670
  C     -1.363530   -1.981340   -2.293610
  O     -0.350390   -2.749690   -1.796010
  H     -2.226220   -1.908390   -1.602040
  H     -1.051350   -0.915670   -2.443330
  H     -1.115220   -2.571670   -4.347390
  H     -2.642270   -1.790990   -4.013140
  H     -2.375640   -3.441800   -3.506400

 Total Charge           Charge          ....   -1
 Multiplicity           Mult            ....    1
 Number of Electrons    NEL             ....   26
 Basis Dimension        Dim             ....   67

ORBITAL ENERGIES
----------------

  NO   OCC          E(Eh)            E(eV)
   0   2.0000     -18.824374      -512.2373
   1   2.0000     -10.020650      -272.6758
   2   2.0000     -10.008351      -272.3411
   3   2.0000      -0.655259       -17.8305
   4   2.0000      -0.520923       -14.1750
   5   2.0000      -0.361841        -9.8462
   6   2.0000      -0.244735        -6.6596
   7   2.0000      -0.223305        -6.0765
   8   2.0000      -0.165478        -4.5029
   9   2.0000      -0.146992        -3.9999
  10   2.0000      -0.085140        -2.3168
  11   2.0000       0.063592         1.7304
  12   2.0000       0.067141         1.8270
  13   0.0000       0.262404         7.1404
  14   0.0000       0.306107         8.3296
  15   0.0000       0.318631         8.6704
  16   0.0000       0.328461         8.9379
  17   0.0000       0.370220        10.0742

MULLIKEN ATOMIC CHARGES
-----------------------
   0 C :   -0.008117
   1 C :    0.211286
   2 O :   -0.716970
   3 H :   -0.150211
   4 H :   -0.154012
   5 H :   -0.042439
   6 H :   -0.097381
   7 H :   -0.042158
Sum of atomic charges:   -1.0000000

LOEWDIN ATOMIC CHARGES
----------------------
   0 C :   -0.122172
   1 C :    0.002127
   2 O :   -0.663986
   3 H :   -0.079232
   4 H :   -0.082431
   5 H :   -0.011373
   6 H :   -0.031687
   7 H :   -0.011247

  Mayer bond orders larger than 0.100000
B(  0-C ,  1-C ) :   0.9863 B(  0-C ,  5-H ) :   0.9597 B(  0-C ,  6-H ) :   0.9248
B(  0-C ,  7-H ) :   0.9626 B(  1-C ,  2-O ) :   1.4935 B(  1-C ,  3-H ) :   0.8721
B(  1-C ,  4-H ) :   0.8712

Dispersion correction           -0.003046694
FINAL SINGLE POINT ENERGY      -154.099692795890

DIPOLE MOMENT
-------------
                                X             Y             Z
Electronic contribution:      2.30984      -1.09267       1.97598
Nuclear contribution   :     -3.14382       1.30299      -2.83231
                        -----------------------------------------
Total Dipole Moment    :     -0.83398       0.21032      -0.85633
                        -----------------------------------------
Magnitude (a.u.)       :      1.21369
Magnitude (Debye)      :      3.08496

Rotational constants in cm-1:     1.288206     0.322942     0.285188
Rotational constants in MHz : 38619.437223  9681.562038  8549.712012

                             ****ORCA TERMINATED NORMALLY****
TOTAL RUN TIME: 0 days 0 hours 0 minutes 8 seconds 19 msec
