                         Program Version 5.0.0 -  RELEASE  -
|  1> !PBE0 D3BJ RIJCOSX def2-SVP def2/J TightSCF
|  2> *xyz 1 1
|  3> C          1.64703       -2.34528       -5.02041
|  4> C          2.20996       -2.81239       -3.66571
|  5> C          2.48901       -1.66851       -2.73754
|  6> N          3.59631       -0.94761       -2.95225
|  7> N          1.66394       -1.41369       -1.77781
|  8> H          0.81164       -1.96318       -1.70275
|  9> H          1.84550       -0.63508       -1.15875
| 10> H          4.20535       -1.17600       -3.73383
| 11> H          3.81723       -0.12585       -2.40604
| 12> H          3.14311       -3.36280       -3.81152
| 13> H          1.48768       -3.45893       -3.16521
| 14> H          1.46566       -3.19589       -5.64368
| 15> H          2.35406       -1.69850       -5.49654
| 16> H          0.73014       -1.81680       -4.86253
| 17> *
| 18>
| 19> %MaxCore 64000
| 20> %pal nprocs 4
| 21> end
| 22>
| 23> %scf
| 24>   MaxIter 150
| 25> end
| 26>
| 27>
| 28>                          ****END OF INPUT****

CARTESIAN COORDINATES (ANGSTROEM)
---------------------------------
  C      1.647030   -2.345280   -5.020410
  C      2.209960   -2.812390   -3.665710
  C      2.489010   -1.668510   -2.737540
  N      3.596310   -0.947610   -2.952250
  N      1.663940   -1.413690   -1.777810
  H      0.811640   -1.963180   -1.702750
  H      1.845500   -0.635080   -1.158750
  H      4.205350   -1.176000   -3.733830
  H      3.817230   -0.125850   -2.406040
  H      3.143110   -3.362800   -3.811520
  H      1.487680   -3.458930   -3.165210
  H      1.465660   -3.195890   -5.643680
  H      2.354060   -1.698500   -5.496540
  H      0.730140   -1.816800   -4.862530

 Total Charge           Charge          ....    1
 Multiplicity           Mult            ....    1
 Number of Electrons    NEL             ....   40
 Basis Dimension        Dim             ....  115

ORBITAL ENERGIES
----------------

  NO   OCC          E(Eh)            E(eV)
   0   2.0000     -14.646808      -398.5599
   1   2.0000     -14.637436      -398.3049
   2   2.0000     -10.553184      -287.1667
   3   2.0000     -10.430821      -283.8371
   4   2.0000     -10.388260      -282.6789
   5   2.0000      -1.225031       -33.3348
   6   2.0000      -1.126454       -30.6524
   7   2.0000      -0.985772       -26.8242
   8   2.0000      -0.875890       -23.8342
   9   2.0000      -0.833288       -22.6749
  10   2.0000      -0.793173       -21.5833
  11   2.0000      -0.765571       -20.8322
  12   2.0000      -0.720466       -19.6049
  13   2.0000      -0.663625       -18.0581
  14   2.0000      -0.636188       -17.3116
  15   2.0000      -0.627683       -17.0801
  16   2.0000      -0.557767       -15.1776
  17   2.0000      -0.547424       -14.8962
  18   2.0000      -0.541516       -14.7354
  19   2.0000      -0.504930       -13.7398
  20   0.0000      -0.197504        -5.3743
  21   0.0000      -0.135151        -3.6777
  22   0.0000      -0.089445        -2.4339
  23   0.0000      -0.087377        -2.3777
  24   0.0000      -0.059758        -1.6261

MULLIKEN ATOMIC CHARGES
-----------------------
   0 C :   -0.036524
   1 C :   -0.083061
   2 C :   -0.019199
   3 N :   -0.056227
   4 N :    0.008775
   5 H :    0.200915
   6 H :    0.185036
   7 H :    0.195615
   8 H :    0.182130
   9 H :    0.109577
  10 H :    0.081865
  11 H :    0.102753
  12 H :    0.060901
  13 H :    0.067443
Sum of atomic charges:    1.0000000

LOEWDIN ATOMIC CHARGES
----------------------
   0 C :   -0.029987
   1 C :   -0.039470
   2 C :    0.147442
   3 N :    0.077228
   4 N :    0.114794
   5 H :    0.128812
   6 H :    0.116619
   7 H :    0.122985
   8 H :    0.111308
   9 H :    0.065295
  10 H :    0.054050
  11 H :    0.056299
  12 H :    0.034774
  13 H :    0.039849

  Mayer bond orders larger than 0.100000
B(  0-C ,  1-C ) :   1.0617 B(  0-C , 11-H ) :   0.9631 B(  0-C , 12-H ) :   0.9720
B(  0-C , 13-H ) :   0.9685 B(  1-C ,  2-C ) :   1.0166 B(  1-C ,  9-H ) :   0.9237
B(  1-C , 10-H ) :   0.9281 B(  2-C ,  3-N ) :   1.4728 B(  2-C ,  4-N ) :   1.5487
B(  3-N ,  7-H ) :   0.9210 B(  3-N ,  8-H ) :   0.9307 B(  4-N ,  5-H ) :   0.9100
B(  4-N ,  6-H ) :   0.9247

Dispersion correction           -0.008510887
FINAL SINGLE POINT ENERGY      -228.604753804157

DIPOLE MOMENT
-------------
                                X             Y             Z
Electronic contribution:      1.20351       1.69121       3.65305
Nuclear contribution   :     -0.98617      -1.03178      -2.77619
                        -----------------------------------------
Total Dipole Moment    :      0.21735       0.65943       0.87686
                        -----------------------------------------
Magnitude (a.u.)       :      1.11847
Magnitude (Debye)      :      2.84293

Rotational constants in cm-1:     0.257311     0.127495     0.099037
Rotational constants in MHz :  7713.982239  3822.189706  2969.039713

                             ****ORCA TERMINATED NORMALLY****
TOTAL RUN TIME: 0 days 0 hours 0 minutes 13 seconds 259 msec
