                         Program Version 5.0.0 -  RELEASE  -
|  1> !PBE0 D3BJ RIJCOSX def2-SVP def2/J TightSCF
|  2> *xyz 0 1
|  3> C         -1.91658       -2.48508       -3.64367
|  4> C         -1.36353       -1.98134       -2.29361
|  5> F         -0.35039       -2.74969       -1.79601
|  6> H         -2.22622       -1.90839       -1.60204
|  7> H         -1.05135       -0.91567       -2.44333
|  8> H         -1.11522       -2.57167       -4.34739
|  9> H         -2.64227       -1.79099       -4.01314
| 10> H         -2.37564       -3.44180       -3.50640
| 11> *
| 12>
| 13> %MaxCore 64000
| 14> %pal nprocs 4
| 15> end
| 16>
| 17> %scf
| 18>   MaxIter 150
| 19> end
| 20>
| 21>
| 22>                          ****END OF INPUT****

CARTESIAN COORDINATES (ANGSTROEM)
---------------------------------
  C     -1.916580   -2.485080   -3.643670
  C     -1.363530   -1.981340   -2.293610
  F     -0.350390   -2.749690   -1.796010
  H     -2.226220   -1.908390   -1.602040
  H     -1.051350   -0.915670   -2.443330
  H     -1.115220   -2.571670   -4.347390
  H     -2.642270   -1.790990   -4.013140
  H     -2.375640   -3.441800   -3.506400

 Total Charge           Charge          ....    0
 Multiplicity           Mult            ....    1
 Number of Electrons    NEL             ....   26
 Basis Dimension        Dim             ....   67

ORBITAL ENERGIES
----------------

  NO   OCC          E(Eh)            E(eV)
   0   2.0000     -24.751767      -673.5298
   1   2.0000     -10.306708      -280.4598
   2   2.0000     -10.226314      -278.2722
   3   2.0000      -1.203508       -32.7491
   4   2.0000      -0.776109       -21.1190
   5   2.0000      -0.640485       -17.4285
   6   2.0000      -0.517848       -14.0914
   7   2.0000      -0.504289       -13.7224
   8   2.0000      -0.467710       -12.7270
   9   2.0000      -0.414243       -11.2721
  10   2.0000      -0.411275       -11.1914
  11   2.0000      -0.342329        -9.3152
  12   2.0000      -0.335345        -9.1252
  13   0.0000       0.074796         2.0353
  14   0.0000       0.120171         3.2700
  15   0.0000       0.126289         3.4365
  16   0.0000       0.143134         3.8949
  17   0.0000       0.159112         4.3297

MULLIKEN ATOMIC CHARGES
-----------------------
   0 C :   -0.116097
   1 C :    0.185179
   2 F :   -0.268499
   3 H :    0.028998
   4 H :    0.029831
   5 H :    0.051269
   6 H :    0.039369
   7 H :    0.049950
Sum of atomic charges:   -0.0000000

LOEWDIN ATOMIC CHARGES
----------------------
   0 C :   -0.084206
   1 C :    0.100812
   2 F :   -0.133962
   3 H :    0.012499
   4 H :    0.013655
   5 H :    0.029394
   6 H :    0.033558
   7 H :    0.028249

  Mayer bond orders larger than 0.100000
B(  0-C ,  1-C ) :   1.0842 B(  0-C ,  5-H ) :   0.9713 B(  0-C ,  6-H ) :   0.9621
B(  0-C ,  7-H ) :   0.9726 B(  1-C ,  2-F ) :   0.9890 B(  1-C ,  3-H ) :   0.9577
B(  1-C ,  4-H ) :   0.9587

Dispersion correction           -0.002808038
FINAL SINGLE POINT ENERGY      -178.726485501899

DIPOLE MOMENT
-------------
                                X             Y             Z
Electronic contribution:      3.64521      -1.37167       3.45083
Nuclear contribution   :     -4.15401       1.70894      -3.75000
                        -----------------------------------------
Total Dipole Moment    :     -0.50880       0.33727      -0.29917
                        -----------------------------------------
Magnitude (a.u.)       :      0.67980
Magnitude (Debye)      :      1.72792

Rotational constants in cm-1:     1.266842     0.300492     0.266603
Rotational constants in MHz : 37978.968232  9008.526876  7992.551454

                             ****ORCA TERMINATED NORMALLY****
TOTAL RUN TIME: 0 days 0 hours 0 minutes 7 seconds 214 msec
