                         Program Version 5.0.0 -  RELEASE  -
|  1> !PBE0 D3BJ RIJCOSX def2-SVP def2/J TightSCF
|  2> *xyz 0 1
|  3> C          1.64703       -2.34528       -5.02041
|  4> C          2.20996       -2.81239       -3.66571
|  5> C          2.48901       -1.66851       -2.73754
|  6> C          3.59631       -0.94761       -2.95225
|  7> N          1.66394       -1.41369       -1.77781
|  8> H          0.81164       -1.96318       -1.70275
|  9> H          1.84550       -0.63508       -1.15875
| 10> H          4.20535       -1.17600       -3.73383
| 11> H          3.81723       -0.12585       -2.40604
| 12> H          3.14311       -3.36280       -3.81152
| 13> H          1.48768       -3.45893       -3.16521
| 14> H          1.46566       -3.19589       -5.64368
| 15> H          2.35406       -1.69850       -5.49654
| 16> H          0.73014       -1.81680       -4.86253
| 17> *
| 18>
| 19> %MaxCore 64000
| 20> %pal nprocs 4
| 21> end
| 22>
| 23> %scf
| 24>   MaxIter 150
| 25> end
| 26>
| 27>
| 28>                          ****END OF INPUT****

CARTESIAN COORDINATES (ANGSTROEM)
---------------------------------
  C      1.647030   -2.345280   -5.020410
  C      2.209960   -2.812390   -3.665710
  C      2.489010   -1.668510   -2.737540
  C      3.596310   -0.947610   -2.952250
  N      1.663940   -1.413690   -1.777810
  H      0.811640   -1.963180   -1.702750
  H      1.845500   -0.635080   -1.158750
  H      4.205350   -1.176000   -3.733830
  H      3.817230   -0.125850   -2.406040
  H      3.143110   -3.362800   -3.811520
  H      1.487680   -3.458930   -3.165210
  H      1.465660   -3.195890   -5.643680
  H      2.354060   -1.698500   -5.496540
  H      0.730140   -1.816800   -4.862530

 Total Charge           Charge          ....    0
 Multiplicity           Mult            ....    1
 Number of Electrons    NEL             ....   40
 Basis Dimension        Dim             ....  115

ORBITAL ENERGIES
----------------

  NO   OCC          E(Eh)            E(eV)
   0   2.0000     -14.393913      -391.6783
   1   2.0000     -10.245746      -278.8009
   2   2.0000     -10.229203      -278.3508
   3   2.0000     -10.215277      -277.9718
   4   2.0000     -10.156366      -276.3688
   5   2.0000      -0.951293       -25.8860
   6   2.0000      -0.791815       -21.5464
   7   2.0000      -0.718137       -19.5415
   8   2.0000      -0.649134       -17.6638
   9   2.0000      -0.578289       -15.7360
  10   2.0000      -0.542159       -14.7529
  11   2.0000      -0.489459       -13.3189
  12   2.0000      -0.452104       -12.3024
  13   2.0000      -0.420881       -11.4528
  14   2.0000      -0.402827       -10.9615
  15   2.0000      -0.388952       -10.5839
  16   2.0000      -0.360143        -9.8000
  17   2.0000      -0.343004        -9.3336
  18   2.0000      -0.342072        -9.3083
  19   2.0000      -0.186269        -5.0686
  20   0.0000       0.055811         1.5187
  21   0.0000       0.071700         1.9511
  22   0.0000       0.105146         2.8612
  23   0.0000       0.109850         2.9892
  24   0.0000       0.132208         3.5976

MULLIKEN ATOMIC CHARGES
-----------------------
   0 C :   -0.021059
   1 C :   -0.029074
   2 C :   -0.160959
   3 C :   -0.073898
   4 N :   -0.081278
   5 H :    0.123861
   6 H :    0.128361
   7 H :   -0.018172
   8 H :   -0.032618
   9 H :    0.053345
  10 H :    0.009385
  11 H :    0.033721
  12 H :    0.040185
  13 H :    0.028198
Sum of atomic charges:   -0.0000000

LOEWDIN ATOMIC CHARGES
----------------------
   0 C :   -0.050957
   1 C :   -0.036568
   2 C :   -0.006976
   3 C :   -0.197450
   4 N :    0.008655
   5 H :    0.075977
   6 H :    0.082190
   7 H :    0.000962
   8 H :   -0.007507
   9 H :    0.040576
  10 H :    0.017473
  11 H :    0.022873
  12 H :    0.027425
  13 H :    0.023325

  Mayer bond orders larger than 0.100000
B(  0-C ,  1-C ) :   1.0877 B(  0-C , 11-H ) :   0.9694 B(  0-C , 12-H ) :   0.9736
B(  0-C , 13-H ) :   0.9696 B(  1-C ,  2-C ) :   1.0049 B(  1-C ,  9-H ) :   0.9404
B(  1-C , 10-H ) :   0.9395 B(  2-C ,  3-C ) :   1.8267 B(  2-C ,  4-N ) :   1.2994
B(  3-C ,  7-H ) :   0.9467 B(  3-C ,  8-H ) :   0.9576 B(  4-N ,  5-H ) :   0.9433
B(  4-N ,  6-H ) :   0.9438

Dispersion correction           -0.008866053
FINAL SINGLE POINT ENERGY      -212.153145333881

DIPOLE MOMENT
-------------
                                X             Y             Z
Electronic contribution:     -0.10160       0.65591       3.06923
Nuclear contribution   :     -0.69146      -0.83112      -2.71336
                        -----------------------------------------
Total Dipole Moment    :     -0.79306      -0.17521       0.35587
                        -----------------------------------------
Magnitude (a.u.)       :      0.88673
Magnitude (Debye)      :      2.25388

Rotational constants in cm-1:     0.270661     0.129240     0.102040
Rotational constants in MHz :  8114.202941  3874.518141  3059.074383

                             ****ORCA TERMINATED NORMALLY****
TOTAL RUN TIME: 0 days 0 hours 0 minutes 13 seconds 732 msec
