                         Program Version 5.0.0 -  RELEASE  -
|  1> !PBE0 D3BJ RIJCOSX def2-SVP def2/J TightSCF
|  2> *xyz 0 1
|  3> C          1.64703       -2.34528       -5.02041
|  4> C          2.20996       -2.81239       -3.66571
|  5> C          2.48901       -1.66851       -2.73754
|  6> N          3.59631       -0.94761       -2.95225
|  7> C          1.66394       -1.41369       -1.77781
|  8> H          0.81164       -1.96318       -1.70275
|  9> H          1.84550       -0.63508       -1.15875
| 10> H          4.20535       -1.17600       -3.73383
| 11> H          3.81723       -0.12585       -2.40604
| 12> H          3.14311       -3.36280       -3.81152
| 13> H          1.48768       -3.45893       -3.16521
| 14> H          1.46566       -3.19589       -5.64368
| 15> H          2.35406       -1.69850       -5.49654
| 16> H          0.73014       -1.81680       -4.86253
| 17> *
| 18>
| 19> %MaxCore 64000
| 20> %pal nprocs 4
| 21> end
| 22>
| 23> %scf
| 24>   MaxIter 150
| 25> end
| 26>
| 27>
| 28>                          ****END OF INPUT****

CARTESIAN COORDINATES (ANGSTROEM)
---------------------------------
  C      1.647030   -2.345280   -5.020410
  C      2.209960   -2.812390   -3.665710
  C      2.489010   -1.668510   -2.737540
  N      3.596310   -0.947610   -2.952250
  C      1.663940   -1.413690   -1.777810
  H      0.811640   -1.963180   -1.702750
  H      1.845500   -0.635080   -1.158750
  H      4.205350   -1.176000   -3.733830
  H      3.817230   -0.125850   -2.406040
  H      3.143110   -3.362800   -3.811520
  H      1.487680   -3.458930   -3.165210
  H      1.465660   -3.195890   -5.643680
  H      2.354060   -1.698500   -5.496540
  H      0.730140   -1.816800   -4.862530

 Total Charge           Charge          ....    0
 Multiplicity           Mult            ....    1
 Number of Electrons    NEL             ....   40
 Basis Dimension        Dim             ....  115

ORBITAL ENERGIES
----------------

  NO   OCC          E(Eh)            E(eV)
   0   2.0000     -14.386983      -391.4897
   1   2.0000     -10.242902      -278.7235
   2   2.0000     -10.227641      -278.3083
   3   2.0000     -10.216763      -278.0123
   4   2.0000     -10.159978      -276.4671
   5   2.0000      -0.932326       -25.3699
   6   2.0000      -0.791978       -21.5508
   7   2.0000      -0.732865       -19.9423
   8   2.0000      -0.644647       -17.5417
   9   2.0000      -0.574444       -15.6314
  10   2.0000      -0.530050       -14.4234
  11   2.0000      -0.489644       -13.3239
  12   2.0000      -0.445174       -12.1138
  13   2.0000      -0.432325       -11.7642
  14   2.0000      -0.405342       -11.0299
  15   2.0000      -0.392965       -10.6931
  16   2.0000      -0.360258        -9.8031
  17   2.0000      -0.341648        -9.2967
  18   2.0000      -0.333722        -9.0810
  19   2.0000      -0.198031        -5.3887
  20   0.0000       0.057949         1.5769
  21   0.0000       0.075035         2.0418
  22   0.0000       0.108572         2.9544
  23   0.0000       0.114323         3.1109
  24   0.0000       0.128367         3.4930

MULLIKEN ATOMIC CHARGES
-----------------------
   0 C :   -0.022912
   1 C :   -0.026720
   2 C :   -0.110725
   3 N :   -0.141619
   4 C :   -0.050493
   5 H :   -0.018385
   6 H :   -0.031978
   7 H :    0.120426
   8 H :    0.124329
   9 H :    0.028378
  10 H :    0.034517
  11 H :    0.037073
  12 H :    0.021528
  13 H :    0.036581
Sum of atomic charges:   -0.0000000

LOEWDIN ATOMIC CHARGES
----------------------
   0 C :   -0.054982
   1 C :   -0.036614
   2 C :    0.002121
   3 N :   -0.024856
   4 C :   -0.168608
   5 H :    0.006041
   6 H :   -0.002617
   7 H :    0.071702
   8 H :    0.076139
   9 H :    0.024235
  10 H :    0.036033
  11 H :    0.024661
  12 H :    0.018870
  13 H :    0.027875

  Mayer bond orders larger than 0.100000
B(  0-C ,  1-C ) :   1.0813 B(  0-C , 11-H ) :   0.9708 B(  0-C , 12-H ) :   0.9717
B(  0-C , 13-H ) :   0.9706 B(  1-C ,  2-C ) :   1.0209 B(  1-C ,  9-H ) :   0.9359
B(  1-C , 10-H ) :   0.9381 B(  2-C ,  3-N ) :   1.2329 B(  2-C ,  4-C ) :   1.8870
B(  3-N ,  7-H ) :   0.9518 B(  3-N ,  8-H ) :   0.9505 B(  4-C ,  5-H ) :   0.9329
B(  4-C ,  6-H ) :   0.9509

Dispersion correction           -0.008857027
FINAL SINGLE POINT ENERGY      -212.156676130942

DIPOLE MOMENT
-------------
                                X             Y             Z
Electronic contribution:      1.71093       1.10593       1.97007
Nuclear contribution   :     -1.13902      -0.93906      -2.44135
                        -----------------------------------------
Total Dipole Moment    :      0.57191       0.16686      -0.47128
                        -----------------------------------------
Magnitude (a.u.)       :      0.75963
Magnitude (Debye)      :      1.93082

Rotational constants in cm-1:     0.267243     0.130607     0.102304
Rotational constants in MHz :  8011.748167  3915.504600  3066.999841

                             ****ORCA TERMINATED NORMALLY****
TOTAL RUN TIME: 0 days 0 hours 0 minutes 12 seconds 492 msec
