                         Program Version 5.0.0 -  RELEASE  -
|  1> !wB97X-D3 RIJCOSX def2-TZVP def2/J TightSCF
|  2> *xyz -1 1
|  3> C          3.34350        3.35457       -3.59200
|  4> C          2.95263        1.86308       -3.57485
|  5> C          4.12921        0.89839       -3.41895
|  6> H          3.73369       -0.10060       -3.23763
|  7> H          4.71910        0.86256       -4.33901
|  8> C          5.01734        1.31521       -2.22130
|  9> H          2.27894        1.73525       -2.72550
| 10> H          2.37747        1.62579       -4.47587
| 11> O          4.73706        0.85411       -1.12283
| 12> O          5.92815        2.16811       -2.49136
| 13> H          4.00801        3.53975       -4.40994
| 14> H          3.83025        3.60631       -2.67298
| 15> H          2.46347        3.95263       -3.70497
| 16> *
| 17> %MaxCore 64000
| 18>
| 19> %pal nprocs 18
| 20> end
| 21>
| 22> %scf
| 23>   MaxIter 150
| 24> end
| 25>
| 26>
| 27>                          ****END OF INPUT****

CARTESIAN COORDINATES (ANGSTROEM)
---------------------------------
  C      3.343500    3.354570   -3.592000
  C      2.952630    1.863080   -3.574850
  C      4.129210    0.898390   -3.418950
  H      3.733690   -0.100600   -3.237630
  H      4.719100    0.862560   -4.339010
  C      5.017340    1.315210   -2.221300
  H      2.278940    1.735250   -2.725500
  H      2.377470    1.625790   -4.475870
  O      4.737060    0.854110   -1.122830
  O      5.928150    2.168110   -2.491360
  H      4.008010    3.539750   -4.409940
  H      3.830250    3.606310   -2.672980
  H      2.463470    3.952630   -3.704970

 Total Charge           Charge          ....   -1
 Multiplicity           Mult            ....    1
 Number of Electrons    NEL             ....   48
 Basis Dimension        Dim             ....  228

ORBITAL ENERGIES
----------------

  NO   OCC          E(Eh)            E(eV)
   0   2.0000     -18.963290      -516.0174
   1   2.0000     -18.951565      -515.6983
   2   2.0000     -10.153579      -276.2929
   3   2.0000     -10.124949      -275.5139
   4   2.0000     -10.108191      -275.0579
   5   2.0000     -10.095154      -274.7031
   6   2.0000      -0.937086       -25.4994
   7   2.0000      -0.838086       -22.8055
   8   2.0000      -0.747482       -20.3400
   9   2.0000      -0.648105       -17.6358
  10   2.0000      -0.548227       -14.9180
  11   2.0000      -0.429322       -11.6825
  12   2.0000      -0.395033       -10.7494
  13   2.0000      -0.387641       -10.5482
  14   2.0000      -0.345970        -9.4143
  15   2.0000      -0.329253        -8.9594
  16   2.0000      -0.303778        -8.2662
  17   2.0000      -0.294691        -8.0189
  18   2.0000      -0.290665        -7.9094
  19   2.0000      -0.264352        -7.1934
  20   2.0000      -0.257724        -7.0130
  21   2.0000      -0.137129        -3.7315
  22   2.0000      -0.128979        -3.5097
  23   2.0000      -0.119047        -3.2394
  24   0.0000       0.251856         6.8533
  25   0.0000       0.289264         7.8713
  26   0.0000       0.300399         8.1743
  27   0.0000       0.315721         8.5912
  28   0.0000       0.326753         8.8914

MULLIKEN ATOMIC CHARGES
-----------------------
   0 C :   -0.320573
   1 C :   -0.166625
   2 C :   -0.128728
   3 H :    0.037512
   4 H :    0.039297
   5 C :    0.260766
   6 H :    0.068747
   7 H :    0.038726
   8 O :   -0.517535
   9 O :   -0.586872
  10 H :    0.078563
  11 H :    0.142778
  12 H :    0.053945
Sum of atomic charges:   -1.0000000

LOEWDIN ATOMIC CHARGES
----------------------
   0 C :   -0.314244
   1 C :   -0.302032
   2 C :   -0.267795
   3 H :    0.118836
   4 H :    0.118228
   5 C :   -0.698109
   6 H :    0.127198
   7 H :    0.109903
   8 O :   -0.065595
   9 O :   -0.151235
  10 H :    0.108454
  11 H :    0.123855
  12 H :    0.092534

  Mayer bond orders larger than 0.100000
B(  0-C ,  1-C ) :   0.9947 B(  0-C , 10-H ) :   0.9792 B(  0-C , 11-H ) :   0.9765
B(  0-C , 12-H ) :   0.9725 B(  1-C ,  2-C ) :   1.0056 B(  1-C ,  6-H ) :   0.9772
B(  1-C ,  7-H ) :   0.9718 B(  2-C ,  3-H ) :   0.9601 B(  2-C ,  4-H ) :   0.9631
B(  2-C ,  5-C ) :   0.9089 B(  5-C ,  8-O ) :   1.8891 B(  5-C ,  9-O ) :   1.7915

Dispersion correction           -0.003467761
FINAL SINGLE POINT ENERGY      -307.182850071465

DIPOLE MOMENT
-------------
                                X             Y             Z
Electronic contribution:      4.97870      -2.54889       4.52383
Nuclear contribution   :     -6.63819       2.74067      -6.05656
                        -----------------------------------------
Total Dipole Moment    :     -1.65950       0.19178      -1.53273
                        -----------------------------------------
Magnitude (a.u.)       :      2.26715
Magnitude (Debye)      :      5.76263

Rotational constants in cm-1:     0.190880     0.089683     0.076466
Rotational constants in MHz :  5722.446013  2688.617255  2292.390699

                             ****ORCA TERMINATED NORMALLY****
TOTAL RUN TIME: 0 days 0 hours 0 minutes 17 seconds 765 msec
