                         Program Version 5.0.0 -  RELEASE  -
|  1> !wB97X-D3 RIJCOSX def2-TZVP def2/J TightSCF
|  2> *xyz 1 1
|  3> C          3.34350        3.35457       -3.59200
|  4> C          2.95263        1.86308       -3.57485
|  5> C          4.12921        0.89839       -3.41895
|  6> C          4.25587        3.70385       -4.72605
|  7> N          3.73403        4.29378       -5.80077
|  8> N          5.51504        3.40725       -4.63718
|  9> H          6.14919        3.60120       -5.39905
| 10> H          5.81358        2.89950       -3.80879
| 11> H          2.74138        4.51311       -5.82470
| 12> H          4.28755        4.52126       -6.61434
| 13> H          2.27894        1.73525       -2.72550
| 14> H          2.37747        1.62579       -4.47587
| 15> H          3.86125        3.59725       -2.66298
| 16> H          2.44649        3.97346       -3.65656
| 17> H          4.79753        1.01430       -4.24649
| 18> H          3.76482       -0.10731       -3.39293
| 19> H          4.64840        1.11330       -2.50837
| 20> *
| 21> %MaxCore 64000
| 22>
| 23> %pal nprocs 18
| 24> end
| 25>
| 26> %scf
| 27>   MaxIter 150
| 28> end
| 29>
| 30>
| 31>                          ****END OF INPUT****

CARTESIAN COORDINATES (ANGSTROEM)
---------------------------------
  C      3.343500    3.354570   -3.592000
  C      2.952630    1.863080   -3.574850
  C      4.129210    0.898390   -3.418950
  C      4.255870    3.703850   -4.726050
  N      3.734030    4.293780   -5.800770
  N      5.515040    3.407250   -4.637180
  H      6.149190    3.601200   -5.399050
  H      5.813580    2.899500   -3.808790
  H      2.741380    4.513110   -5.824700
  H      4.287550    4.521260   -6.614340
  H      2.278940    1.735250   -2.725500
  H      2.377470    1.625790   -4.475870
  H      3.861250    3.597250   -2.662980
  H      2.446490    3.973460   -3.656560
  H      4.797530    1.014300   -4.246490
  H      3.764820   -0.107310   -3.392930
  H      4.648400    1.113300   -2.508370

 Total Charge           Charge          ....    1
 Multiplicity           Mult            ....    1
 Number of Electrons    NEL             ....   48
 Basis Dimension        Dim             ....  252

ORBITAL ENERGIES
----------------

  NO   OCC          E(Eh)            E(eV)
   0   2.0000     -14.664794      -399.0493
   1   2.0000     -14.660867      -398.9425
   2   2.0000     -10.595522      -288.3188
   3   2.0000     -10.468515      -284.8628
   4   2.0000     -10.436599      -283.9943
   5   2.0000     -10.404210      -283.1129
   6   2.0000      -1.319246       -35.8985
   7   2.0000      -1.221962       -33.2513
   8   2.0000      -1.089734       -29.6532
   9   2.0000      -1.003984       -27.3198
  10   2.0000      -0.938155       -25.5285
  11   2.0000      -0.895550       -24.3691
  12   2.0000      -0.873243       -23.7621
  13   2.0000      -0.837482       -22.7890
  14   2.0000      -0.797309       -21.6959
  15   2.0000      -0.754223       -20.5235
  16   2.0000      -0.721053       -19.6209
  17   2.0000      -0.706460       -19.2238
  18   2.0000      -0.671670       -18.2771
  19   2.0000      -0.656871       -17.8744
  20   2.0000      -0.602389       -16.3918
  21   2.0000      -0.595568       -16.2062
  22   2.0000      -0.591823       -16.1043
  23   2.0000      -0.576075       -15.6758
  24   0.0000      -0.120061        -3.2670
  25   0.0000      -0.070166        -1.9093
  26   0.0000      -0.025966        -0.7066
  27   0.0000      -0.023166        -0.6304
  28   0.0000       0.000345         0.0094

MULLIKEN ATOMIC CHARGES
-----------------------
   0 C :   -0.294577
   1 C :   -0.154276
   2 C :   -0.442406
   3 C :    0.348165
   4 N :   -0.399699
   5 N :   -0.371763
   6 H :    0.293993
   7 H :    0.320581
   8 H :    0.312474
   9 H :    0.293545
  10 H :    0.158072
  11 H :    0.134929
  12 H :    0.192199
  13 H :    0.164813
  14 H :    0.120555
  15 H :    0.172832
  16 H :    0.150562
Sum of atomic charges:    1.0000000

LOEWDIN ATOMIC CHARGES
----------------------
   0 C :   -0.201749
   1 C :   -0.262463
   2 C :   -0.294930
   3 C :   -0.285303
   4 N :    0.095733
   5 N :    0.125551
   6 H :    0.202700
   7 H :    0.214528
   8 H :    0.209868
   9 H :    0.195755
  10 H :    0.155692
  11 H :    0.145095
  12 H :    0.167319
  13 H :    0.161915
  14 H :    0.112146
  15 H :    0.135927
  16 H :    0.122216

  Mayer bond orders larger than 0.100000
B(  0-C ,  1-C ) :   0.9339 B(  0-C ,  3-C ) :   0.9621 B(  0-C , 12-H ) :   0.9683
B(  0-C , 13-H ) :   0.9648 B(  1-C ,  2-C ) :   0.9486 B(  1-C , 10-H ) :   0.9645
B(  1-C , 11-H ) :   0.9524 B(  2-C , 14-H ) :   0.9660 B(  2-C , 15-H ) :   0.9699
B(  2-C , 16-H ) :   0.9729 B(  3-C ,  4-N ) :   1.4390 B(  3-C ,  5-N ) :   1.4769
B(  4-N ,  8-H ) :   0.8798 B(  4-N ,  9-H ) :   0.8890 B(  5-N ,  6-H ) :   0.8855
B(  5-N ,  7-H ) :   0.8771

Dispersion correction           -0.004541151
FINAL SINGLE POINT ENERGY      -268.375654232812

DIPOLE MOMENT
-------------
                                X             Y             Z
Electronic contribution:      1.42599       4.43312      -2.94438
Nuclear contribution   :     -0.87169      -3.40560       1.97790
                        -----------------------------------------
Total Dipole Moment    :      0.55430       1.02753      -0.96648
                        -----------------------------------------
Magnitude (a.u.)       :      1.51563
Magnitude (Debye)      :      3.85243

Rotational constants in cm-1:     0.188632     0.081113     0.066356
Rotational constants in MHz :  5655.057814  2431.708101  1989.304146

                             ****ORCA TERMINATED NORMALLY****
TOTAL RUN TIME: 0 days 0 hours 0 minutes 16 seconds 179 msec
