                         Program Version 5.0.0 -  RELEASE  -
|  1> !wB97X-D3 RIJCOSX def2-TZVP def2/J TightSCF
|  2> *xyz 0 1
|  3> C          3.34350        3.35457       -3.59200
|  4> C          2.95263        1.86308       -3.57485
|  5> C          4.12921        0.89839       -3.41895
|  6> H          3.73369       -0.10060       -3.23763
|  7> H          4.71910        0.86256       -4.33901
|  8> C          5.01734        1.31521       -2.22130
|  9> H          2.27894        1.73525       -2.72550
| 10> H          2.37747        1.62579       -4.47587
| 11> F          4.73706        0.85411       -1.12283
| 12> O          5.92815        2.16811       -2.49136
| 13> H          4.00801        3.53975       -4.40994
| 14> H          3.83025        3.60631       -2.67298
| 15> H          2.46347        3.95263       -3.70497
| 16> *
| 17> %MaxCore 64000
| 18>
| 19> %pal nprocs 18
| 20> end
| 21>
| 22> %scf
| 23>   MaxIter 150
| 24> end
| 25>
| 26>
| 27>                          ****END OF INPUT****

CARTESIAN COORDINATES (ANGSTROEM)
---------------------------------
  C      3.343500    3.354570   -3.592000
  C      2.952630    1.863080   -3.574850
  C      4.129210    0.898390   -3.418950
  H      3.733690   -0.100600   -3.237630
  H      4.719100    0.862560   -4.339010
  C      5.017340    1.315210   -2.221300
  H      2.278940    1.735250   -2.725500
  H      2.377470    1.625790   -4.475870
  F      4.737060    0.854110   -1.122830
  O      5.928150    2.168110   -2.491360
  H      4.008010    3.539750   -4.409940
  H      3.830250    3.606310   -2.672980
  H      2.463470    3.952630   -3.704970

 Total Charge           Charge          ....    0
 Multiplicity           Mult            ....    1
 Number of Electrons    NEL             ....   48
 Basis Dimension        Dim             ....  228

ORBITAL ENERGIES
----------------

  NO   OCC          E(Eh)            E(eV)
   0   2.0000     -24.868358      -676.7024
   1   2.0000     -19.230613      -523.2916
   2   2.0000     -10.456905      -284.5469
   3   2.0000     -10.303460      -280.3714
   4   2.0000     -10.291867      -280.0559
   5   2.0000     -10.259700      -279.1806
   6   2.0000      -1.460514       -39.7426
   7   2.0000      -1.134973       -30.8842
   8   2.0000      -0.929151       -25.2835
   9   2.0000      -0.839731       -22.8502
  10   2.0000      -0.781159       -21.2564
  11   2.0000      -0.723001       -19.6739
  12   2.0000      -0.668704       -18.1964
  13   2.0000      -0.652202       -17.7473
  14   2.0000      -0.605650       -16.4806
  15   2.0000      -0.570316       -15.5191
  16   2.0000      -0.554398       -15.0859
  17   2.0000      -0.512791       -13.9538
  18   2.0000      -0.491297       -13.3689
  19   2.0000      -0.459440       -12.5020
  20   2.0000      -0.455339       -12.3904
  21   2.0000      -0.442442       -12.0394
  22   2.0000      -0.430385       -11.7114
  23   2.0000      -0.378645       -10.3035
  24   0.0000       0.056234         1.5302
  25   0.0000       0.114191         3.1073
  26   0.0000       0.154110         4.1935
  27   0.0000       0.155913         4.2426
  28   0.0000       0.170010         4.6262

MULLIKEN ATOMIC CHARGES
-----------------------
   0 C :   -0.332757
   1 C :   -0.229197
   2 C :   -0.204419
   3 H :    0.117131
   4 H :    0.136953
   5 C :    0.387985
   6 H :    0.107037
   7 H :    0.114780
   8 F :   -0.079276
   9 O :   -0.375037
  10 H :    0.117094
  11 H :    0.123548
  12 H :    0.116159
Sum of atomic charges:    0.0000000

LOEWDIN ATOMIC CHARGES
----------------------
   0 C :   -0.296667
   1 C :   -0.286477
   2 C :   -0.237248
   3 H :    0.140232
   4 H :    0.151686
   5 C :   -0.502141
   6 H :    0.136129
   7 H :    0.136574
   8 F :    0.376313
   9 O :    0.030570
  10 H :    0.118758
  11 H :    0.117867
  12 H :    0.114403

  Mayer bond orders larger than 0.100000
B(  0-C ,  1-C ) :   0.9830 B(  0-C , 10-H ) :   0.9758 B(  0-C , 11-H ) :   0.9709
B(  0-C , 12-H ) :   0.9748 B(  1-C ,  2-C ) :   0.9799 B(  1-C ,  6-H ) :   0.9767
B(  1-C ,  7-H ) :   0.9722 B(  2-C ,  3-H ) :   0.9622 B(  2-C ,  4-H ) :   0.9637
B(  2-C ,  5-C ) :   0.9674 B(  5-C ,  8-F ) :   1.1850 B(  5-C ,  9-O ) :   2.0074

Dispersion correction           -0.003380459
FINAL SINGLE POINT ENERGY      -331.741430634105

DIPOLE MOMENT
-------------
                                X             Y             Z
Electronic contribution:      6.08178      -4.37681       7.60270
Nuclear contribution   :     -7.06456       3.75953      -7.86734
                        -----------------------------------------
Total Dipole Moment    :     -0.98278      -0.61728      -0.26464
                        -----------------------------------------
Magnitude (a.u.)       :      1.19035
Magnitude (Debye)      :      3.02562

Rotational constants in cm-1:     0.185871     0.085512     0.073500
Rotational constants in MHz :  5572.269993  2563.593529  2203.466497

                             ****ORCA TERMINATED NORMALLY****
TOTAL RUN TIME: 0 days 0 hours 0 minutes 14 seconds 645 msec
