                         Program Version 5.0.0 -  RELEASE  -
|  1> !wB97X-D3 RIJCOSX def2-TZVP def2/J TightSCF
|  2> *xyz 0 1
|  3> C          3.34350        3.35457       -3.59200
|  4> C          2.95263        1.86308       -3.57485
|  5> C          4.12921        0.89839       -3.41895
|  6> C          4.25587        3.70385       -4.72605
|  7> C          3.73403        4.29378       -5.80077
|  8> N          5.51504        3.40725       -4.63718
|  9> H          6.14919        3.60120       -5.39905
| 10> H          5.81358        2.89950       -3.80879
| 11> H          2.74138        4.51311       -5.82470
| 12> H          4.28755        4.52126       -6.61434
| 13> H          2.27894        1.73525       -2.72550
| 14> H          2.37747        1.62579       -4.47587
| 15> H          3.86125        3.59725       -2.66298
| 16> H          2.44649        3.97346       -3.65656
| 17> H          4.79753        1.01430       -4.24649
| 18> H          3.76482       -0.10731       -3.39293
| 19> H          4.64840        1.11330       -2.50837
| 20> *
| 21> %MaxCore 64000
| 22>
| 23> %pal nprocs 18
| 24> end
| 25>
| 26> %scf
| 27>   MaxIter 150
| 28> end
| 29>
| 30>
| 31>                          ****END OF INPUT****

CARTESIAN COORDINATES (ANGSTROEM)
---------------------------------
  C      3.343500    3.354570   -3.592000
  C      2.952630    1.863080   -3.574850
  C      4.129210    0.898390   -3.418950
  C      4.255870    3.703850   -4.726050
  C      3.734030    4.293780   -5.800770
  N      5.515040    3.407250   -4.637180
  H      6.149190    3.601200   -5.399050
  H      5.813580    2.899500   -3.808790
  H      2.741380    4.513110   -5.824700
  H      4.287550    4.521260   -6.614340
  H      2.278940    1.735250   -2.725500
  H      2.377470    1.625790   -4.475870
  H      3.861250    3.597250   -2.662980
  H      2.446490    3.973460   -3.656560
  H      4.797530    1.014300   -4.246490
  H      3.764820   -0.107310   -3.392930
  H      4.648400    1.113300   -2.508370

 Total Charge           Charge          ....    0
 Multiplicity           Mult            ....    1
 Number of Electrons    NEL             ....   48
 Basis Dimension        Dim             ....  252

ORBITAL ENERGIES
----------------

  NO   OCC          E(Eh)            E(eV)
   0   2.0000     -14.421304      -392.4236
   1   2.0000     -10.294069      -280.1159
   2   2.0000     -10.272217      -279.5212
   3   2.0000     -10.271718      -279.5077
   4   2.0000     -10.258147      -279.1384
   5   2.0000     -10.201044      -277.5845
   6   2.0000      -1.054089       -28.6832
   7   2.0000      -0.909657       -24.7530
   8   2.0000      -0.850138       -23.1334
   9   2.0000      -0.792556       -21.5665
  10   2.0000      -0.717194       -19.5158
  11   2.0000      -0.670229       -18.2378
  12   2.0000      -0.630238       -17.1496
  13   2.0000      -0.587024       -15.9737
  14   2.0000      -0.551666       -15.0116
  15   2.0000      -0.533406       -14.5147
  16   2.0000      -0.508735       -13.8434
  17   2.0000      -0.487062       -13.2536
  18   2.0000      -0.469745       -12.7824
  19   2.0000      -0.457415       -12.4469
  20   2.0000      -0.433199       -11.7879
  21   2.0000      -0.419515       -11.4156
  22   2.0000      -0.414732       -11.2854
  23   2.0000      -0.272417        -7.4128
  24   0.0000       0.105436         2.8691
  25   0.0000       0.126890         3.4529
  26   0.0000       0.145316         3.9543
  27   0.0000       0.147812         4.0222
  28   0.0000       0.166891         4.5413

MULLIKEN ATOMIC CHARGES
-----------------------
   0 C :   -0.252859
   1 C :   -0.118224
   2 C :   -0.414211
   3 C :    0.227806
   4 C :   -0.448958
   5 N :   -0.481186
   6 H :    0.242398
   7 H :    0.247021
   8 H :    0.102505
   9 H :    0.096356
  10 H :    0.093710
  11 H :    0.104568
  12 H :    0.114970
  13 H :    0.123554
  14 H :    0.127732
  15 H :    0.121159
  16 H :    0.113657
Sum of atomic charges:    0.0000000

LOEWDIN ATOMIC CHARGES
----------------------
   0 C :   -0.216519
   1 C :   -0.278831
   2 C :   -0.311740
   3 C :   -0.374315
   4 C :   -0.282375
   5 N :    0.014355
   6 H :    0.177009
   7 H :    0.175546
   8 H :    0.104123
   9 H :    0.093376
  10 H :    0.132126
  11 H :    0.136048
  12 H :    0.137962
  13 H :    0.149978
  14 H :    0.114765
  15 H :    0.116596
  16 H :    0.111895

  Mayer bond orders larger than 0.100000
B(  0-C ,  1-C ) :   0.9566 B(  0-C ,  3-C ) :   0.9316 B(  0-C , 12-H ) :   0.9985
B(  0-C , 13-H ) :   0.9843 B(  1-C ,  2-C ) :   0.9549 B(  1-C , 10-H ) :   0.9759
B(  1-C , 11-H ) :   0.9644 B(  2-C , 14-H ) :   0.9742 B(  2-C , 15-H ) :   0.9789
B(  2-C , 16-H ) :   0.9815 B(  3-C ,  4-C ) :   1.7453 B(  3-C ,  5-N ) :   1.1772
B(  4-C ,  8-H ) :   0.9984 B(  4-C ,  9-H ) :   0.9958 B(  5-N ,  6-H ) :   0.9168
B(  5-N ,  7-H ) :   0.9208

Dispersion correction           -0.004552828
FINAL SINGLE POINT ENERGY      -251.900194510204

DIPOLE MOMENT
-------------
                                X             Y             Z
Electronic contribution:      1.45760       2.64547      -1.20176
Nuclear contribution   :     -0.93682      -3.08083       1.62582
                        -----------------------------------------
Total Dipole Moment    :      0.52078      -0.43536       0.42406
                        -----------------------------------------
Magnitude (a.u.)       :      0.80036
Magnitude (Debye)      :      2.03436

Rotational constants in cm-1:     0.191400     0.084268     0.068511
Rotational constants in MHz :  5738.038424  2526.291061  2053.912421

                             ****ORCA TERMINATED NORMALLY****
TOTAL RUN TIME: 0 days 0 hours 0 minutes 18 seconds 517 msec
