                         Program Version 5.0.0 -  RELEASE  -
|  1> !wB97X-D3 RIJCOSX def2-TZVP def2/J TightSCF
|  2> *xyz 0 1
|  3> C          3.34350        3.35457       -3.59200
|  4> C          2.95263        1.86308       -3.57485
|  5> C          4.12921        0.89839       -3.41895
|  6> H          3.73369       -0.10060       -3.23763
|  7> H          4.71910        0.86256       -4.33901
|  8> C          5.01734        1.31521       -2.22130
|  9> H          2.27894        1.73525       -2.72550
| 10> H          2.37747        1.62579       -4.47587
| 11> O          4.73706        0.85411       -1.12283
| 12> F          5.92815        2.16811       -2.49136
| 13> H          4.00801        3.53975       -4.40994
| 14> H          3.83025        3.60631       -2.67298
| 15> H          2.46347        3.95263       -3.70497
| 16> *
| 17> %MaxCore 64000
| 18>
| 19> %pal nprocs 18
| 20> end
| 21>
| 22> %scf
| 23>   MaxIter 150
| 24> end
| 25>
| 26>
| 27>                          ****END OF INPUT****

CARTESIAN COORDINATES (ANGSTROEM)
---------------------------------
  C      3.343500    3.354570   -3.592000
  C      2.952630    1.863080   -3.574850
  C      4.129210    0.898390   -3.418950
  H      3.733690   -0.100600   -3.237630
  H      4.719100    0.862560   -4.339010
  C      5.017340    1.315210   -2.221300
  H      2.278940    1.735250   -2.725500
  H      2.377470    1.625790   -4.475870
  O      4.737060    0.854110   -1.122830
  F      5.928150    2.168110   -2.491360
  H      4.008010    3.539750   -4.409940
  H      3.830250    3.606310   -2.672980
  H      2.463470    3.952630   -3.704970

 Total Charge           Charge          ....    0
 Multiplicity           Mult            ....    1
 Number of Electrons    NEL             ....   48
 Basis Dimension        Dim             ....  228

ORBITAL ENERGIES
----------------

  NO   OCC          E(Eh)            E(eV)
   0   2.0000     -24.846398      -676.1049
   1   2.0000     -19.240188      -523.5521
   2   2.0000     -10.452303      -284.4216
   3   2.0000     -10.302930      -280.3570
   4   2.0000     -10.292320      -280.0683
   5   2.0000     -10.268726      -279.4262
   6   2.0000      -1.419605       -38.6294
   7   2.0000      -1.168201       -31.7884
   8   2.0000      -0.931323       -25.3426
   9   2.0000      -0.839642       -22.8478
  10   2.0000      -0.766075       -20.8460
  11   2.0000      -0.719845       -19.5880
  12   2.0000      -0.647982       -17.6325
  13   2.0000      -0.630687       -17.1619
  14   2.0000      -0.612197       -16.6587
  15   2.0000      -0.565524       -15.3887
  16   2.0000      -0.553977       -15.0745
  17   2.0000      -0.517242       -14.0749
  18   2.0000      -0.506174       -13.7737
  19   2.0000      -0.480192       -13.0667
  20   2.0000      -0.454341       -12.3633
  21   2.0000      -0.444989       -12.1088
  22   2.0000      -0.440822       -11.9954
  23   2.0000      -0.390150       -10.6165
  24   0.0000       0.062755         1.7076
  25   0.0000       0.114859         3.1255
  26   0.0000       0.151113         4.1120
  27   0.0000       0.154635         4.2078
  28   0.0000       0.168587         4.5875

MULLIKEN ATOMIC CHARGES
-----------------------
   0 C :   -0.354802
   1 C :   -0.212537
   2 C :   -0.208980
   3 H :    0.134794
   4 H :    0.121342
   5 C :    0.372075
   6 H :    0.118423
   7 H :    0.110958
   8 O :   -0.319397
   9 F :   -0.120483
  10 H :    0.114303
  11 H :    0.121424
  12 H :    0.122880
Sum of atomic charges:   -0.0000000

LOEWDIN ATOMIC CHARGES
----------------------
   0 C :   -0.298674
   1 C :   -0.284216
   2 C :   -0.235684
   3 H :    0.151660
   4 H :    0.140912
   5 C :   -0.496252
   6 H :    0.141333
   7 H :    0.135648
   8 O :    0.103563
   9 F :    0.292115
  10 H :    0.115689
  11 H :    0.116508
  12 H :    0.117398

  Mayer bond orders larger than 0.100000
B(  0-C ,  1-C ) :   0.9793 B(  0-C , 10-H ) :   0.9768 B(  0-C , 11-H ) :   0.9709
B(  0-C , 12-H ) :   0.9768 B(  1-C ,  2-C ) :   0.9809 B(  1-C ,  6-H ) :   0.9712
B(  1-C ,  7-H ) :   0.9708 B(  2-C ,  3-H ) :   0.9648 B(  2-C ,  4-H ) :   0.9588
B(  2-C ,  5-C ) :   0.9647 B(  5-C ,  8-O ) :   2.0825 B(  5-C ,  9-F ) :   1.1286

Dispersion correction           -0.003414802
FINAL SINGLE POINT ENERGY      -331.758426903443

DIPOLE MOMENT
-------------
                                X             Y             Z
Electronic contribution:      8.07469      -2.12772       5.24681
Nuclear contribution   :     -8.40998       2.27527      -6.32148
                        -----------------------------------------
Total Dipole Moment    :     -0.33529       0.14755      -1.07467
                        -----------------------------------------
Magnitude (a.u.)       :      1.13539
Magnitude (Debye)      :      2.88594

Rotational constants in cm-1:     0.181105     0.088112     0.073966
Rotational constants in MHz :  5429.384816  2641.525058  2217.445966

                             ****ORCA TERMINATED NORMALLY****
TOTAL RUN TIME: 0 days 0 hours 0 minutes 15 seconds 364 msec
