                         Program Version 5.0.0 -  RELEASE  -
|  1> !wB97X-D3 RIJCOSX def2-TZVP def2/J TightSCF
|  2> *xyz 0 1
|  3> C          3.34350        3.35457       -3.59200
|  4> C          2.95263        1.86308       -3.57485
|  5> C          4.12921        0.89839       -3.41895
|  6> C          4.25587        3.70385       -4.72605
|  7> N          3.73403        4.29378       -5.80077
|  8> C          5.51504        3.40725       -4.63718
|  9> H          6.14919        3.60120       -5.39905
| 10> H          5.81358        2.89950       -3.80879
| 11> H          2.74138        4.51311       -5.82470
| 12> H          4.28755        4.52126       -6.61434
| 13> H          2.27894        1.73525       -2.72550
| 14> H          2.37747        1.62579       -4.47587
| 15> H          3.86125        3.59725       -2.66298
| 16> H          2.44649        3.97346       -3.65656
| 17> H          4.79753        1.01430       -4.24649
| 18> H          3.76482       -0.10731       -3.39293
| 19> H          4.64840        1.11330       -2.50837
| 20> *
| 21> %MaxCore 64000
| 22>
| 23> %pal nprocs 18
| 24> end
| 25>
| 26> %scf
| 27>   MaxIter 150
| 28> end
| 29>
| 30>
| 31>                          ****END OF INPUT****

CARTESIAN COORDINATES (ANGSTROEM)
---------------------------------
  C      3.343500    3.354570   -3.592000
  C      2.952630    1.863080   -3.574850
  C      4.129210    0.898390   -3.418950
  C      4.255870    3.703850   -4.726050
  N      3.734030    4.293780   -5.800770
  C      5.515040    3.407250   -4.637180
  H      6.149190    3.601200   -5.399050
  H      5.813580    2.899500   -3.808790
  H      2.741380    4.513110   -5.824700
  H      4.287550    4.521260   -6.614340
  H      2.278940    1.735250   -2.725500
  H      2.377470    1.625790   -4.475870
  H      3.861250    3.597250   -2.662980
  H      2.446490    3.973460   -3.656560
  H      4.797530    1.014300   -4.246490
  H      3.764820   -0.107310   -3.392930
  H      4.648400    1.113300   -2.508370

 Total Charge           Charge          ....    0
 Multiplicity           Mult            ....    1
 Number of Electrons    NEL             ....   48
 Basis Dimension        Dim             ....  252

ORBITAL ENERGIES
----------------

  NO   OCC          E(Eh)            E(eV)
   0   2.0000     -14.417543      -392.3213
   1   2.0000     -10.290874      -280.0289
   2   2.0000     -10.271455      -279.5005
   3   2.0000     -10.269571      -279.4492
   4   2.0000     -10.246107      -278.8107
   5   2.0000     -10.198939      -277.5272
   6   2.0000      -1.038520       -28.2596
   7   2.0000      -0.910220       -24.7683
   8   2.0000      -0.845625       -23.0106
   9   2.0000      -0.799128       -21.7454
  10   2.0000      -0.706458       -19.2237
  11   2.0000      -0.667451       -18.1623
  12   2.0000      -0.620387       -16.8816
  13   2.0000      -0.581088       -15.8122
  14   2.0000      -0.552846       -15.0437
  15   2.0000      -0.533735       -14.5237
  16   2.0000      -0.490857       -13.3569
  17   2.0000      -0.488852       -13.3023
  18   2.0000      -0.469885       -12.7862
  19   2.0000      -0.454864       -12.3775
  20   2.0000      -0.427526       -11.6336
  21   2.0000      -0.415799       -11.3145
  22   2.0000      -0.409847       -11.1525
  23   2.0000      -0.277816        -7.5597
  24   0.0000       0.106293         2.8924
  25   0.0000       0.126782         3.4499
  26   0.0000       0.147067         4.0019
  27   0.0000       0.151552         4.1239
  28   0.0000       0.167207         4.5499

MULLIKEN ATOMIC CHARGES
-----------------------
   0 C :   -0.241089
   1 C :   -0.128932
   2 C :   -0.391842
   3 C :    0.260206
   4 N :   -0.514459
   5 C :   -0.466957
   6 H :    0.093486
   7 H :    0.129087
   8 H :    0.237254
   9 H :    0.239903
  10 H :    0.095684
  11 H :    0.092012
  12 H :    0.131957
  13 H :    0.094561
  14 H :    0.145228
  15 H :    0.113461
  16 H :    0.110439
Sum of atomic charges:   -0.0000000

LOEWDIN ATOMIC CHARGES
----------------------
   0 C :   -0.216071
   1 C :   -0.278809
   2 C :   -0.305391
   3 C :   -0.363138
   4 N :   -0.015826
   5 C :   -0.266914
   6 H :    0.099078
   7 H :    0.111827
   8 H :    0.168912
   9 H :    0.169223
  10 H :    0.132149
  11 H :    0.131803
  12 H :    0.150297
  13 H :    0.134839
  14 H :    0.120457
  15 H :    0.113345
  16 H :    0.114220

  Mayer bond orders larger than 0.100000
B(  0-C ,  1-C ) :   0.9641 B(  0-C ,  3-C ) :   0.9205 B(  0-C , 12-H ) :   1.0006
B(  0-C , 13-H ) :   0.9842 B(  1-C ,  2-C ) :   0.9686 B(  1-C , 10-H ) :   0.9787
B(  1-C , 11-H ) :   0.9659 B(  2-C , 14-H ) :   0.9766 B(  2-C , 15-H ) :   0.9788
B(  2-C , 16-H ) :   0.9819 B(  3-C ,  4-N ) :   1.1363 B(  3-C ,  5-C ) :   1.7490
B(  4-N ,  8-H ) :   0.9217 B(  4-N ,  9-H ) :   0.9198 B(  5-C ,  6-H ) :   0.9986
B(  5-C ,  7-H ) :   1.0099

Dispersion correction           -0.004495537
FINAL SINGLE POINT ENERGY      -251.899742514067

DIPOLE MOMENT
-------------
                                X             Y             Z
Electronic contribution:     -0.10334       3.48105      -2.24936
Nuclear contribution   :     -0.51555      -3.29052       1.90104
                        -----------------------------------------
Total Dipole Moment    :     -0.61890       0.19053      -0.34832
                        -----------------------------------------
Magnitude (a.u.)       :      0.73529
Magnitude (Debye)      :      1.86897

Rotational constants in cm-1:     0.197086     0.081749     0.067746
Rotational constants in MHz :  5908.486274  2450.769911  2030.963952

                             ****ORCA TERMINATED NORMALLY****
TOTAL RUN TIME: 0 days 0 hours 0 minutes 16 seconds 903 msec
