                         Program Version 5.0.0 -  RELEASE  -
|  1> !wB97X-D3 RIJCOSX def2-TZVP def2/J TightSCF
|  2> *xyz -1 1
|  3> C          0.28725       -1.71177       -2.52740
|  4> O          0.71050       -0.92751       -1.48177
|  5> H          0.92384       -1.55316       -3.37267
|  6> H         -0.71828       -1.45137       -2.78433
|  7> H          0.32655       -2.74158       -2.23955
|  8> *
|  9> %MaxCore 64000
| 10>
| 11> %pal nprocs 18
| 12> end
| 13>
| 14> %scf
| 15>   MaxIter 150
| 16> end
| 17>
| 18>
| 19>                          ****END OF INPUT****

CARTESIAN COORDINATES (ANGSTROEM)
---------------------------------
  C      0.287250   -1.711770   -2.527400
  O      0.710500   -0.927510   -1.481770
  H      0.923840   -1.553160   -3.372670
  H     -0.718280   -1.451370   -2.784330
  H      0.326550   -2.741580   -2.239550

 Total Charge           Charge          ....   -1
 Multiplicity           Mult            ....    1
 Number of Electrons    NEL             ....   18
 Basis Dimension        Dim             ....   80

ORBITAL ENERGIES
----------------

  NO   OCC          E(Eh)            E(eV)
   0   2.0000     -18.839450      -512.6475
   1   2.0000     -10.043496      -273.2974
   2   2.0000      -0.748683       -20.3727
   3   2.0000      -0.495813       -13.4918
   4   2.0000      -0.282457        -7.6860
   5   2.0000      -0.282431        -7.6853
   6   2.0000      -0.173131        -4.7111
   7   2.0000      -0.019274        -0.5245
   8   2.0000      -0.019262        -0.5241
   9   0.0000       0.330072         8.9817
  10   0.0000       0.403058        10.9678
  11   0.0000       0.403064        10.9679
  12   0.0000       0.408206        11.1078
  13   0.0000       0.514108        13.9896

MULLIKEN ATOMIC CHARGES
-----------------------
   0 C :   -0.011774
   1 O :   -0.873929
   2 H :   -0.038128
   3 H :   -0.038106
   4 H :   -0.038063
Sum of atomic charges:   -1.0000000

LOEWDIN ATOMIC CHARGES
----------------------
   0 C :   -0.564677
   1 O :   -0.533408
   2 H :    0.032685
   3 H :    0.032696
   4 H :    0.032704

  Mayer bond orders larger than 0.100000
B(  0-C ,  1-O ) :   1.4563 B(  0-C ,  2-H ) :   0.9554 B(  0-C ,  3-H ) :   0.9554
B(  0-C ,  4-H ) :   0.9555

Dispersion correction           -0.000091576
FINAL SINGLE POINT ENERGY      -115.095459995162

DIPOLE MOMENT
-------------
                                X             Y             Z
Electronic contribution:      0.60810       1.12651       1.50204
Nuclear contribution   :     -0.89006      -1.64923      -2.19886
                        -----------------------------------------
Total Dipole Moment    :     -0.28196      -0.52272      -0.69682
                        -----------------------------------------
Magnitude (a.u.)       :      0.91558
Magnitude (Debye)      :      2.32723

Rotational constants in cm-1:     5.477712     0.934243     0.934241
Rotational constants in MHz : 164217.678885 28007.889263 28007.851448

                             ****ORCA TERMINATED NORMALLY****
TOTAL RUN TIME: 0 days 0 hours 0 minutes 3 seconds 609 msec
