                         Program Version 5.0.0 -  RELEASE  -
|  1> !wB97X-D3 RIJCOSX def2-TZVP def2/J TightSCF
|  2> *xyz 1 1
|  3> C          3.48828        1.60092       -1.52204
|  4> N          2.81029        0.42878       -1.01420
|  5> C          3.29098       -0.41802       -0.12908
|  6> N          2.51754       -1.43202        0.23936
|  7> N          4.53549       -0.28441        0.39580
|  8> H          5.04363        0.57189        0.22290
|  9> H          4.72335       -0.73327        1.28180
| 10> H          1.93479        0.10230       -1.40379
| 11> H          1.67464       -1.50562       -0.31610
| 12> H          2.92850       -2.21850        0.72549
| 13> H          2.85802        2.09943       -2.22855
| 14> H          4.39853        1.30677       -2.00144
| 15> H          3.70992        2.26379       -0.71187
| 16> *
| 17> %MaxCore 64000
| 18>
| 19> %pal nprocs 18
| 20> end
| 21>
| 22> %scf
| 23>   MaxIter 150
| 24> end
| 25>
| 26>
| 27>                          ****END OF INPUT****

CARTESIAN COORDINATES (ANGSTROEM)
---------------------------------
  C      3.488280    1.600920   -1.522040
  N      2.810290    0.428780   -1.014200
  C      3.290980   -0.418020   -0.129080
  N      2.517540   -1.432020    0.239360
  N      4.535490   -0.284410    0.395800
  H      5.043630    0.571890    0.222900
  H      4.723350   -0.733270    1.281800
  H      1.934790    0.102300   -1.403790
  H      1.674640   -1.505620   -0.316100
  H      2.928500   -2.218500    0.725490
  H      2.858020    2.099430   -2.228550
  H      4.398530    1.306770   -2.001440
  H      3.709920    2.263790   -0.711870

 Total Charge           Charge          ....    1
 Multiplicity           Mult            ....    1
 Number of Electrons    NEL             ....   40
 Basis Dimension        Dim             ....  203

ORBITAL ENERGIES
----------------

  NO   OCC          E(Eh)            E(eV)
   0   2.0000     -14.656684      -398.8286
   1   2.0000     -14.648092      -398.5948
   2   2.0000     -14.647309      -398.5735
   3   2.0000     -10.616276      -288.8836
   4   2.0000     -10.481107      -285.2054
   5   2.0000      -1.342879       -36.5416
   6   2.0000      -1.227575       -33.4040
   7   2.0000      -1.213586       -33.0234
   8   2.0000      -1.026522       -27.9331
   9   2.0000      -0.938076       -25.5263
  10   2.0000      -0.887605       -24.1530
  11   2.0000      -0.863760       -23.5041
  12   2.0000      -0.796088       -21.6627
  13   2.0000      -0.785618       -21.3778
  14   2.0000      -0.765743       -20.8369
  15   2.0000      -0.746109       -20.3027
  16   2.0000      -0.694980       -18.9114
  17   2.0000      -0.680912       -18.5286
  18   2.0000      -0.578274       -15.7356
  19   2.0000      -0.553254       -15.0548
  20   0.0000      -0.089016        -2.4223
  21   0.0000      -0.075232        -2.0472
  22   0.0000      -0.037567        -1.0223
  23   0.0000      -0.025483        -0.6934
  24   0.0000       0.003173         0.0863

MULLIKEN ATOMIC CHARGES
-----------------------
   0 C :   -0.311692
   1 N :   -0.270189
   2 C :    0.475195
   3 N :   -0.424357
   4 N :   -0.458387
   5 H :    0.301250
   6 H :    0.299370
   7 H :    0.259779
   8 H :    0.279273
   9 H :    0.307822
  10 H :    0.183518
  11 H :    0.183812
  12 H :    0.174605
Sum of atomic charges:    1.0000000

LOEWDIN ATOMIC CHARGES
----------------------
   0 C :   -0.263402
   1 N :    0.149513
   2 C :   -0.396080
   3 N :    0.061429
   4 N :    0.046058
   5 H :    0.195438
   6 H :    0.198835
   7 H :    0.211259
   8 H :    0.199998
   9 H :    0.203316
  10 H :    0.139242
  11 H :    0.127427
  12 H :    0.126968

  Mayer bond orders larger than 0.100000
B(  0-C ,  1-N ) :   0.8823 B(  0-C , 10-H ) :   0.9545 B(  0-C , 11-H ) :   0.9635
B(  0-C , 12-H ) :   0.9626 B(  1-N ,  2-C ) :   1.4006 B(  1-N ,  7-H ) :   0.9014
B(  2-C ,  3-N ) :   1.3350 B(  2-C ,  4-N ) :   1.3096 B(  3-N ,  8-H ) :   0.8973
B(  3-N ,  9-H ) :   0.8853 B(  4-N ,  5-H ) :   0.8916 B(  4-N ,  6-H ) :   0.8913

Dispersion correction           -0.002381218
FINAL SINGLE POINT ENERGY      -245.104814891002

DIPOLE MOMENT
-------------
                                X             Y             Z
Electronic contribution:     -0.69777      -2.30730       1.34697
Nuclear contribution   :      0.56176       1.95858      -1.15445
                        -----------------------------------------
Total Dipole Moment    :     -0.13601      -0.34872       0.19252
                        -----------------------------------------
Magnitude (a.u.)       :      0.42091
Magnitude (Debye)      :      1.06988

Rotational constants in cm-1:     0.309570     0.135399     0.096056
Rotational constants in MHz :  9280.673410  4059.171112  2879.675555

                             ****ORCA TERMINATED NORMALLY****
TOTAL RUN TIME: 0 days 0 hours 0 minutes 10 seconds 780 msec
