                         Program Version 5.0.0 -  RELEASE  -
|  1> !wB97X-D3 RIJCOSX def2-TZVP def2/J TightSCF
|  2> *xyz 0 1
|  3> C          0.28725       -1.71177       -2.52740
|  4> F          0.71050       -0.92751       -1.48177
|  5> H          0.92384       -1.55316       -3.37267
|  6> H         -0.71828       -1.45137       -2.78433
|  7> H          0.32655       -2.74158       -2.23955
|  8> *
|  9> %MaxCore 64000
| 10>
| 11> %pal nprocs 18
| 12> end
| 13>
| 14> %scf
| 15>   MaxIter 150
| 16> end
| 17>
| 18>
| 19>                          ****END OF INPUT****

CARTESIAN COORDINATES (ANGSTROEM)
---------------------------------
  C      0.287250   -1.711770   -2.527400
  F      0.710500   -0.927510   -1.481770
  H      0.923840   -1.553160   -3.372670
  H     -0.718280   -1.451370   -2.784330
  H      0.326550   -2.741580   -2.239550

 Total Charge           Charge          ....    0
 Multiplicity           Mult            ....    1
 Number of Electrons    NEL             ....   18
 Basis Dimension        Dim             ....   80

ORBITAL ENERGIES
----------------

  NO   OCC          E(Eh)            E(eV)
   0   2.0000     -24.762990      -673.8352
   1   2.0000     -10.338780      -281.3325
   2   2.0000      -1.307090       -35.5677
   3   2.0000      -0.819972       -22.3126
   4   2.0000      -0.592225       -16.1153
   5   2.0000      -0.589464       -16.0401
   6   2.0000      -0.589443       -16.0396
   7   2.0000      -0.445948       -12.1348
   8   2.0000      -0.445939       -12.1346
   9   0.0000       0.139153         3.7866
  10   0.0000       0.163143         4.4393
  11   0.0000       0.203885         5.5480
  12   0.0000       0.203895         5.5483
  13   0.0000       0.295061         8.0290

MULLIKEN ATOMIC CHARGES
-----------------------
   0 C :   -0.069980
   1 F :   -0.250193
   2 H :    0.106740
   3 H :    0.106662
   4 H :    0.106771
Sum of atomic charges:   -0.0000000

LOEWDIN ATOMIC CHARGES
----------------------
   0 C :   -0.340948
   1 F :    0.056768
   2 H :    0.094724
   3 H :    0.094719
   4 H :    0.094736

  Mayer bond orders larger than 0.100000
B(  0-C ,  1-F ) :   0.9789 B(  0-C ,  2-H ) :   0.9787 B(  0-C ,  3-H ) :   0.9787
B(  0-C ,  4-H ) :   0.9787

Dispersion correction           -0.000131477
FINAL SINGLE POINT ENERGY      -139.764843301885

DIPOLE MOMENT
-------------
                                X             Y             Z
Electronic contribution:      0.90622       1.67897       2.23857
Nuclear contribution   :     -1.12906      -2.09208      -2.78929
                        -----------------------------------------
Total Dipole Moment    :     -0.22283      -0.41311      -0.55072
                        -----------------------------------------
Magnitude (a.u.)       :      0.72360
Magnitude (Debye)      :      1.83925

Rotational constants in cm-1:     5.477712     0.869598     0.869597
Rotational constants in MHz : 164217.678885 26069.889584 26069.856821

                             ****ORCA TERMINATED NORMALLY****
TOTAL RUN TIME: 0 days 0 hours 0 minutes 4 seconds 86 msec
