                         Program Version 5.0.0 -  RELEASE  -
|  1> !wB97X-D3 RIJCOSX def2-TZVP def2/J TightSCF
|  2> *xyz 0 1
|  3> C          3.48828        1.60092       -1.52204
|  4> C          2.81029        0.42878       -1.01420
|  5> C          3.29098       -0.41802       -0.12908
|  6> N          2.51754       -1.43202        0.23936
|  7> N          4.53549       -0.28441        0.39580
|  8> H          5.04363        0.57189        0.22290
|  9> H          4.72335       -0.73327        1.28180
| 10> H          1.93479        0.10230       -1.40379
| 11> H          1.67464       -1.50562       -0.31610
| 12> H          2.92850       -2.21850        0.72549
| 13> H          2.85802        2.09943       -2.22855
| 14> H          4.39853        1.30677       -2.00144
| 15> H          3.70992        2.26379       -0.71187
| 16> *
| 17> %MaxCore 64000
| 18>
| 19> %pal nprocs 18
| 20> end
| 21>
| 22> %scf
| 23>   MaxIter 150
| 24> end
| 25>
| 26>
| 27>                          ****END OF INPUT****

CARTESIAN COORDINATES (ANGSTROEM)
---------------------------------
  C      3.488280    1.600920   -1.522040
  C      2.810290    0.428780   -1.014200
  C      3.290980   -0.418020   -0.129080
  N      2.517540   -1.432020    0.239360
  N      4.535490   -0.284410    0.395800
  H      5.043630    0.571890    0.222900
  H      4.723350   -0.733270    1.281800
  H      1.934790    0.102300   -1.403790
  H      1.674640   -1.505620   -0.316100
  H      2.928500   -2.218500    0.725490
  H      2.858020    2.099430   -2.228550
  H      4.398530    1.306770   -2.001440
  H      3.709920    2.263790   -0.711870

 Total Charge           Charge          ....    0
 Multiplicity           Mult            ....    1
 Number of Electrons    NEL             ....   40
 Basis Dimension        Dim             ....  203

ORBITAL ENERGIES
----------------

  NO   OCC          E(Eh)            E(eV)
   0   2.0000     -14.419731      -392.3808
   1   2.0000     -14.412499      -392.1840
   2   2.0000     -10.311545      -280.5914
   3   2.0000     -10.236601      -278.5521
   4   2.0000     -10.193551      -277.3806
   5   2.0000      -1.073882       -29.2218
   6   2.0000      -0.983561       -26.7641
   7   2.0000      -0.869636       -23.6640
   8   2.0000      -0.767534       -20.8857
   9   2.0000      -0.687088       -18.6966
  10   2.0000      -0.636530       -17.3209
  11   2.0000      -0.610067       -16.6008
  12   2.0000      -0.560120       -15.2416
  13   2.0000      -0.526500       -14.3268
  14   2.0000      -0.511347       -13.9145
  15   2.0000      -0.471297       -12.8246
  16   2.0000      -0.459733       -12.5100
  17   2.0000      -0.435587       -11.8529
  18   2.0000      -0.358644        -9.7592
  19   2.0000      -0.244928        -6.6648
  20   0.0000       0.105757         2.8778
  21   0.0000       0.135026         3.6742
  22   0.0000       0.152003         4.1362
  23   0.0000       0.165507         4.5037
  24   0.0000       0.178957         4.8697

MULLIKEN ATOMIC CHARGES
-----------------------
   0 C :   -0.375054
   1 C :   -0.277469
   2 C :    0.333165
   3 N :   -0.502723
   4 N :   -0.533449
   5 H :    0.255462
   6 H :    0.229748
   7 H :    0.067700
   8 H :    0.244737
   9 H :    0.231627
  10 H :    0.111352
  11 H :    0.111507
  12 H :    0.103397
Sum of atomic charges:    0.0000000

LOEWDIN ATOMIC CHARGES
----------------------
   0 C :   -0.318824
   1 C :   -0.312803
   2 C :   -0.458177
   3 N :   -0.027102
   4 N :   -0.035188
   5 H :    0.173789
   6 H :    0.161657
   7 H :    0.117245
   8 H :    0.182223
   9 H :    0.163412
  10 H :    0.124561
  11 H :    0.115058
  12 H :    0.114149

  Mayer bond orders larger than 0.100000
B(  0-C ,  1-C ) :   0.9656 B(  0-C , 10-H ) :   0.9864 B(  0-C , 11-H ) :   0.9848
B(  0-C , 12-H ) :   0.9903 B(  1-C ,  2-C ) :   1.7073 B(  1-C ,  7-H ) :   0.9860
B(  2-C ,  3-N ) :   1.1478 B(  2-C ,  4-N ) :   1.1269 B(  3-N ,  8-H ) :   0.9191
B(  3-N ,  9-H ) :   0.9221 B(  4-N ,  5-H ) :   0.9210 B(  4-N ,  6-H ) :   0.9255

Dispersion correction           -0.002384138
FINAL SINGLE POINT ENERGY      -228.625659157678

DIPOLE MOMENT
-------------
                                X             Y             Z
Electronic contribution:     -0.21567      -2.60552       1.85093
Nuclear contribution   :      0.45569       2.05070      -1.27895
                        -----------------------------------------
Total Dipole Moment    :      0.24002      -0.55483       0.57198
                        -----------------------------------------
Magnitude (a.u.)       :      0.83223
Magnitude (Debye)      :      2.11535

Rotational constants in cm-1:     0.314404     0.136412     0.097030
Rotational constants in MHz :  9425.600285  4089.541372  2908.875289

                             ****ORCA TERMINATED NORMALLY****
TOTAL RUN TIME: 0 days 0 hours 0 minutes 13 seconds 109 msec
