                         Program Version 5.0.0 -  RELEASE  -
|  1> !wB97X-D3 RIJCOSX def2-TZVP def2/J TightSCF
|  2> *xyz 0 1
|  3> C          3.48828        1.60092       -1.52204
|  4> N          2.81029        0.42878       -1.01420
|  5> C          3.29098       -0.41802       -0.12908
|  6> C          2.51754       -1.43202        0.23936
|  7> N          4.53549       -0.28441        0.39580
|  8> H          5.04363        0.57189        0.22290
|  9> H          4.72335       -0.73327        1.28180
| 10> H          1.93479        0.10230       -1.40379
| 11> H          1.67464       -1.50562       -0.31610
| 12> H          2.92850       -2.21850        0.72549
| 13> H          2.85802        2.09943       -2.22855
| 14> H          4.39853        1.30677       -2.00144
| 15> H          3.70992        2.26379       -0.71187
| 16> *
| 17> %MaxCore 64000
| 18>
| 19> %pal nprocs 18
| 20> end
| 21>
| 22> %scf
| 23>   MaxIter 150
| 24> end
| 25>
| 26>
| 27>                          ****END OF INPUT****

CARTESIAN COORDINATES (ANGSTROEM)
---------------------------------
  C      3.488280    1.600920   -1.522040
  N      2.810290    0.428780   -1.014200
  C      3.290980   -0.418020   -0.129080
  C      2.517540   -1.432020    0.239360
  N      4.535490   -0.284410    0.395800
  H      5.043630    0.571890    0.222900
  H      4.723350   -0.733270    1.281800
  H      1.934790    0.102300   -1.403790
  H      1.674640   -1.505620   -0.316100
  H      2.928500   -2.218500    0.725490
  H      2.858020    2.099430   -2.228550
  H      4.398530    1.306770   -2.001440
  H      3.709920    2.263790   -0.711870

 Total Charge           Charge          ....    0
 Multiplicity           Mult            ....    1
 Number of Electrons    NEL             ....   40
 Basis Dimension        Dim             ....  203

ORBITAL ENERGIES
----------------

  NO   OCC          E(Eh)            E(eV)
   0   2.0000     -14.422337      -392.4517
   1   2.0000     -14.420314      -392.3967
   2   2.0000     -10.319847      -280.8173
   3   2.0000     -10.307437      -280.4796
   4   2.0000     -10.178614      -276.9742
   5   2.0000      -1.086533       -29.5661
   6   2.0000      -0.997915       -27.1546
   7   2.0000      -0.864725       -23.5304
   8   2.0000      -0.778938       -21.1960
   9   2.0000      -0.703634       -19.1469
  10   2.0000      -0.635296       -17.2873
  11   2.0000      -0.593939       -16.1619
  12   2.0000      -0.577698       -15.7200
  13   2.0000      -0.558749       -15.2043
  14   2.0000      -0.504465       -13.7272
  15   2.0000      -0.481732       -13.1086
  16   2.0000      -0.473114       -12.8741
  17   2.0000      -0.464810       -12.6481
  18   2.0000      -0.353138        -9.6094
  19   2.0000      -0.247117        -6.7244
  20   0.0000       0.104845         2.8530
  21   0.0000       0.135285         3.6813
  22   0.0000       0.145517         3.9597
  23   0.0000       0.158771         4.3204
  24   0.0000       0.186878         5.0852

MULLIKEN ATOMIC CHARGES
-----------------------
   0 C :   -0.280477
   1 N :   -0.336083
   2 C :    0.404826
   3 C :   -0.533736
   4 N :   -0.526519
   5 H :    0.234349
   6 H :    0.259733
   7 H :    0.228584
   8 H :    0.054192
   9 H :    0.101082
  10 H :    0.130932
  11 H :    0.135581
  12 H :    0.127535
Sum of atomic charges:   -0.0000000

LOEWDIN ATOMIC CHARGES
----------------------
   0 C :   -0.311252
   1 N :    0.090994
   2 C :   -0.455390
   3 C :   -0.354263
   4 N :   -0.030417
   5 H :    0.160506
   6 H :    0.177746
   7 H :    0.196992
   8 H :    0.096167
   9 H :    0.096295
  10 H :    0.117759
  11 H :    0.107428
  12 H :    0.107436

  Mayer bond orders larger than 0.100000
B(  0-C ,  1-N ) :   0.9380 B(  0-C , 10-H ) :   0.9750 B(  0-C , 11-H ) :   0.9753
B(  0-C , 12-H ) :   0.9743 B(  1-N ,  2-C ) :   1.1921 B(  1-N ,  7-H ) :   0.9237
B(  2-C ,  3-C ) :   1.6143 B(  2-C ,  4-N ) :   1.1197 B(  3-C ,  8-H ) :   1.0141
B(  3-C ,  9-H ) :   1.0105 B(  4-N ,  5-H ) :   0.9256 B(  4-N ,  6-H ) :   0.9203

Dispersion correction           -0.002394858
FINAL SINGLE POINT ENERGY      -228.611661509533

DIPOLE MOMENT
-------------
                                X             Y             Z
Electronic contribution:      0.13077      -0.67839       0.62756
Nuclear contribution   :      0.39640       1.67380      -1.02505
                        -----------------------------------------
Total Dipole Moment    :      0.52717       0.99542      -0.39749
                        -----------------------------------------
Magnitude (a.u.)       :      1.19447
Magnitude (Debye)      :      3.03610

Rotational constants in cm-1:     0.316500     0.141146     0.099607
Rotational constants in MHz :  9488.425850  4231.454938  2986.155520

                             ****ORCA TERMINATED NORMALLY****
TOTAL RUN TIME: 0 days 0 hours 0 minutes 10 seconds 487 msec
