                         Program Version 5.0.0 -  RELEASE  -
|  1> !wB97X-D3 RIJCOSX def2-TZVP def2/J TightSCF
|  2> *xyz 0 1
|  3> C          3.48828        1.60092       -1.52204
|  4> N          2.81029        0.42878       -1.01420
|  5> C          3.29098       -0.41802       -0.12908
|  6> N          2.51754       -1.43202        0.23936
|  7> C          4.53549       -0.28441        0.39580
|  8> H          5.04363        0.57189        0.22290
|  9> H          4.72335       -0.73327        1.28180
| 10> H          1.93479        0.10230       -1.40379
| 11> H          1.67464       -1.50562       -0.31610
| 12> H          2.92850       -2.21850        0.72549
| 13> H          2.85802        2.09943       -2.22855
| 14> H          4.39853        1.30677       -2.00144
| 15> H          3.70992        2.26379       -0.71187
| 16> *
| 17> %MaxCore 64000
| 18>
| 19> %pal nprocs 18
| 20> end
| 21>
| 22> %scf
| 23>   MaxIter 150
| 24> end
| 25>
| 26>
| 27>                          ****END OF INPUT****

CARTESIAN COORDINATES (ANGSTROEM)
---------------------------------
  C      3.488280    1.600920   -1.522040
  N      2.810290    0.428780   -1.014200
  C      3.290980   -0.418020   -0.129080
  N      2.517540   -1.432020    0.239360
  C      4.535490   -0.284410    0.395800
  H      5.043630    0.571890    0.222900
  H      4.723350   -0.733270    1.281800
  H      1.934790    0.102300   -1.403790
  H      1.674640   -1.505620   -0.316100
  H      2.928500   -2.218500    0.725490
  H      2.858020    2.099430   -2.228550
  H      4.398530    1.306770   -2.001440
  H      3.709920    2.263790   -0.711870

 Total Charge           Charge          ....    0
 Multiplicity           Mult            ....    1
 Number of Electrons    NEL             ....   40
 Basis Dimension        Dim             ....  203

ORBITAL ENERGIES
----------------

  NO   OCC          E(Eh)            E(eV)
   0   2.0000     -14.429628      -392.6501
   1   2.0000     -14.421573      -392.4309
   2   2.0000     -10.322394      -280.8866
   3   2.0000     -10.300148      -280.2813
   4   2.0000     -10.181281      -277.0467
   5   2.0000      -1.096106       -29.8266
   6   2.0000      -1.002927       -27.2910
   7   2.0000      -0.833375       -22.6773
   8   2.0000      -0.812348       -22.1051
   9   2.0000      -0.673583       -18.3291
  10   2.0000      -0.644760       -17.5448
  11   2.0000      -0.632005       -17.1977
  12   2.0000      -0.557882       -15.1807
  13   2.0000      -0.548271       -14.9192
  14   2.0000      -0.512773       -13.9533
  15   2.0000      -0.483117       -13.1463
  16   2.0000      -0.465720       -12.6729
  17   2.0000      -0.461424       -12.5560
  18   2.0000      -0.345190        -9.3931
  19   2.0000      -0.252307        -6.8656
  20   0.0000       0.099096         2.6965
  21   0.0000       0.137408         3.7391
  22   0.0000       0.147972         4.0265
  23   0.0000       0.162508         4.4221
  24   0.0000       0.178972         4.8701

MULLIKEN ATOMIC CHARGES
-----------------------
   0 C :   -0.248909
   1 N :   -0.337463
   2 C :    0.381198
   3 N :   -0.494588
   4 C :   -0.555804
   5 H :    0.093233
   6 H :    0.092678
   7 H :    0.191431
   8 H :    0.210995
   9 H :    0.266818
  10 H :    0.123097
  11 H :    0.140888
  12 H :    0.136425
Sum of atomic charges:   -0.0000000

LOEWDIN ATOMIC CHARGES
----------------------
   0 C :   -0.293157
   1 N :    0.092471
   2 C :   -0.467907
   3 N :   -0.016244
   4 C :   -0.369033
   5 H :    0.094585
   6 H :    0.094378
   7 H :    0.177501
   8 H :    0.163702
   9 H :    0.182495
  10 H :    0.113793
  11 H :    0.112930
  12 H :    0.114487

  Mayer bond orders larger than 0.100000
B(  0-C ,  1-N ) :   0.9336 B(  0-C , 10-H ) :   0.9697 B(  0-C , 11-H ) :   0.9767
B(  0-C , 12-H ) :   0.9750 B(  1-N ,  2-C ) :   1.1861 B(  1-N ,  7-H ) :   0.9320
B(  2-C ,  3-N ) :   1.1453 B(  2-C ,  4-C ) :   1.6072 B(  3-N ,  8-H ) :   0.9282
B(  3-N ,  9-H ) :   0.9140 B(  4-C ,  5-H ) :   1.0128 B(  4-C ,  6-H ) :   1.0080

Dispersion correction           -0.002378018
FINAL SINGLE POINT ENERGY      -228.613021831326

DIPOLE MOMENT
-------------
                                X             Y             Z
Electronic contribution:     -1.93474      -1.97144       0.36922
Nuclear contribution   :      0.80512       1.90624      -0.99336
                        -----------------------------------------
Total Dipole Moment    :     -1.12962      -0.06519      -0.62414
                        -----------------------------------------
Magnitude (a.u.)       :      1.29223
Magnitude (Debye)      :      3.28458

Rotational constants in cm-1:     0.332728     0.136065     0.098521
Rotational constants in MHz :  9974.927067  4079.126590  2953.598000

                             ****ORCA TERMINATED NORMALLY****
TOTAL RUN TIME: 0 days 0 hours 0 minutes 13 seconds 315 msec
