                         Program Version 5.0.0 -  RELEASE  -
|  1> !wB97X-D3 RIJCOSX def2-TZVP def2/J TightSCF xyzfile
|  2>
|  3> *xyzfile 0 1 D3.xyz
|  4>
|  5> %MaxCore 64000
|  6>
|  7> %pal nprocs 18
|  8> end
|  9>
| 10> %scf
| 11>   MaxIter 150
| 12> end
| 13>
| 14>
| 15>                          ****END OF INPUT****

CARTESIAN COORDINATES (ANGSTROEM)
---------------------------------
  C      3.488276    1.600919   -1.522040
  C      4.342970    1.313419   -2.756826
  N      2.810285    0.428783   -1.014196
  H      5.132033    0.604994   -2.484466
  C      3.535896    0.749253   -3.924604
  H      4.841247    2.242136   -3.054083
  H      2.991617   -0.132199   -3.574137
  H      4.225505    0.392784   -4.695962
  C      2.564776    1.750890   -4.544523
  H      1.918749    2.171679   -3.769419
  C      1.686235    1.161657   -5.650111
  H      3.132494    2.594775   -4.951604
  C      0.839616   -0.037582   -5.220473
  H      2.323886    0.866395   -6.490796
  H      1.029518    1.951850   -6.029329
  C     -0.151019    0.254955   -4.094256
  H      1.499442   -0.857141   -4.922958
  H      0.290097   -0.410143   -6.091131
  H      0.328265    0.833022   -3.299125
  C     -0.721843   -0.999513   -3.439309
  H     -0.957367    0.884951   -4.485450
  H     -1.083403   -1.697555   -4.205656
  H     -1.581056   -0.723848   -2.820490
  C      0.287250   -1.711771   -2.527405
  H      1.131780   -2.067380   -3.159396
  H     -0.204137   -2.637326   -2.170480
  F      0.710505   -0.927506   -1.481767
  H      2.714548    2.331455   -1.760302
  H      4.090991    2.063151   -0.733382
  C      3.290978   -0.418021   -0.129083
  N      2.517536   -1.432017    0.239360
  C      4.535490   -0.284410    0.395800
  H      5.043627    0.571888    0.222899
  H      4.723346   -0.733273    1.281800
  H      1.934787    0.102305   -1.403788
  H      1.674638   -1.505616   -0.316095
  H      2.928503   -2.218502    0.725494

 Total Charge           Charge          ....    0
 Multiplicity           Mult            ....    1
 Number of Electrons    NEL             ....  112
 Basis Dimension        Dim             ....  572

ORBITAL ENERGIES
----------------

  NO   OCC          E(Eh)            E(eV)
   0   2.0000     -24.829079      -675.6336
   1   2.0000     -14.399145      -391.8207
   2   2.0000     -14.392212      -391.6320
   3   2.0000     -10.383044      -282.5370
   4   2.0000     -10.303343      -280.3682
   5   2.0000     -10.300976      -280.3038
   6   2.0000     -10.293826      -280.1093
   7   2.0000     -10.286228      -279.9025
   8   2.0000     -10.280138      -279.7368
   9   2.0000     -10.275019      -279.5975
  10   2.0000     -10.269315      -279.4423
  11   2.0000     -10.265327      -279.3337
  12   2.0000     -10.259356      -279.1713
  13   2.0000     -10.162336      -276.5312
  14   2.0000      -1.378741       -37.5174
  15   2.0000      -1.074527       -29.2394
  16   2.0000      -0.984338       -26.7852
  17   2.0000      -0.951605       -25.8945
  18   2.0000      -0.920841       -25.0574
  19   2.0000      -0.885889       -24.1063
  20   2.0000      -0.842764       -22.9328
  21   2.0000      -0.808637       -22.0041
  22   2.0000      -0.801441       -21.8083
  23   2.0000      -0.766973       -20.8704
  24   2.0000      -0.731911       -19.9163
  25   2.0000      -0.704353       -19.1664
  26   2.0000      -0.680809       -18.5258
  27   2.0000      -0.668323       -18.1860
  28   2.0000      -0.661991       -18.0137
  29   2.0000      -0.632957       -17.2236
  30   2.0000      -0.624034       -16.9808
  31   2.0000      -0.611906       -16.6508
  32   2.0000      -0.595760       -16.2115
  33   2.0000      -0.580456       -15.7950
  34   2.0000      -0.565329       -15.3834
  35   2.0000      -0.554816       -15.0973
  36   2.0000      -0.540536       -14.7087
  37   2.0000      -0.536879       -14.6092
  38   2.0000      -0.528606       -14.3841
  39   2.0000      -0.508112       -13.8264
  40   2.0000      -0.500233       -13.6120
  41   2.0000      -0.482131       -13.1194
  42   2.0000      -0.476272       -12.9600
  43   2.0000      -0.468472       -12.7478
  44   2.0000      -0.467326       -12.7166
  45   2.0000      -0.455589       -12.3972
  46   2.0000      -0.446384       -12.1467
  47   2.0000      -0.443453       -12.0670
  48   2.0000      -0.433825       -11.8050
  49   2.0000      -0.430063       -11.7026
  50   2.0000      -0.423310       -11.5188
  51   2.0000      -0.408684       -11.1208
  52   2.0000      -0.407236       -11.0815
  53   2.0000      -0.399794       -10.8790
  54   2.0000      -0.322561        -8.7773
  55   2.0000      -0.232659        -6.3310
  56   0.0000       0.098316         2.6753
  57   0.0000       0.111518         3.0345
  58   0.0000       0.121356         3.3023
  59   0.0000       0.125511         3.4153
  60   0.0000       0.137892         3.7522

MULLIKEN ATOMIC CHARGES
-----------------------
   0 C :   -0.213860
   1 C :   -0.093772
   2 N :   -0.334116
   3 H :    0.134274
   4 C :   -0.250182
   5 H :    0.091243
   6 H :    0.087686
   7 H :    0.107820
   8 C :   -0.252454
   9 H :    0.103184
  10 C :   -0.139242
  11 H :    0.107998
  12 C :   -0.264383
  13 H :    0.107143
  14 H :    0.103527
  15 C :   -0.221190
  16 H :    0.107104
  17 H :    0.114445
  18 H :    0.112737
  19 C :   -0.168771
  20 H :    0.117670
  21 H :    0.118193
  22 H :    0.122513
  23 C :   -0.038108
  24 H :    0.125925
  25 H :    0.134363
  26 F :   -0.256745
  27 H :    0.130383
  28 H :    0.136482
  29 C :    0.378790
  30 N :   -0.519323
  31 C :   -0.575761
  32 H :    0.073625
  33 H :    0.088705
  34 H :    0.231299
  35 H :    0.241390
  36 H :    0.251408
Sum of atomic charges:    0.0000000

LOEWDIN ATOMIC CHARGES
----------------------
   0 C :   -0.278848
   1 C :   -0.265257
   2 N :    0.119987
   3 H :    0.144079
   4 C :   -0.269436
   5 H :    0.135360
   6 H :    0.129198
   7 H :    0.136810
   8 C :   -0.270034
   9 H :    0.129362
  10 C :   -0.266463
  11 H :    0.137494
  12 C :   -0.270157
  13 H :    0.137532
  14 H :    0.136452
  15 C :   -0.267445
  16 H :    0.130670
  17 H :    0.136471
  18 H :    0.137085
  19 C :   -0.271063
  20 H :    0.139544
  21 H :    0.147059
  22 H :    0.141582
  23 C :   -0.335862
  24 H :    0.127921
  25 H :    0.130369
  26 F :    0.135738
  27 H :    0.127768
  28 H :    0.138660
  29 C :   -0.460971
  30 N :   -0.023210
  31 C :   -0.385709
  32 H :    0.090002
  33 H :    0.091430
  34 H :    0.161933
  35 H :    0.147142
  36 H :    0.174807

  Mayer bond orders larger than 0.100000
B(  0-C ,  1-C ) :   0.9335 B(  0-C ,  2-N ) :   0.9100 B(  0-C , 27-H ) :   0.9987
B(  0-C , 28-H ) :   0.9771 B(  1-C ,  3-H ) :   0.9634 B(  1-C ,  4-C ) :   0.9726
B(  1-C ,  5-H ) :   0.9819 B(  2-N , 29-C ) :   1.2082 B(  2-N , 34-H ) :   0.8877
B(  4-C ,  6-H ) :   0.9843 B(  4-C ,  7-H ) :   0.9720 B(  4-C ,  8-C ) :   0.9428
B(  8-C ,  9-H ) :   0.9951 B(  8-C , 10-C ) :   0.9749 B(  8-C , 11-H ) :   0.9714
B( 10-C , 12-C ) :   0.9687 B( 10-C , 13-H ) :   0.9777 B( 10-C , 14-H ) :   0.9817
B( 12-C , 15-C ) :   0.9362 B( 12-C , 16-H ) :   0.9962 B( 12-C , 17-H ) :   0.9685
B( 15-C , 18-H ) :   0.9945 B( 15-C , 19-C ) :   0.9613 B( 15-C , 20-H ) :   0.9664
B( 19-C , 21-H ) :   0.9616 B( 19-C , 22-H ) :   0.9721 B( 19-C , 23-C ) :   1.0025
B( 23-C , 24-H ) :   0.9752 B( 23-C , 25-H ) :   0.9674 B( 23-C , 26-F ) :   0.8673
B( 29-C , 30-N ) :   1.1522 B( 29-C , 31-C ) :   1.5793 B( 30-N , 35-H ) :   0.8964
B( 30-N , 36-H ) :   0.9208 B( 31-C , 32-H ) :   1.0153 B( 31-C , 33-H ) :   1.0029

Dispersion correction           -0.017696423
FINAL SINGLE POINT ENERGY      -642.396089542283

DIPOLE MOMENT
-------------
                                X             Y             Z
Electronic contribution:     -3.28733      -4.33009       9.06600
Nuclear contribution   :      1.49917       3.80845     -10.61369
                        -----------------------------------------
Total Dipole Moment    :     -1.78816      -0.52164      -1.54769
                        -----------------------------------------
Magnitude (a.u.)       :      2.42177
Magnitude (Debye)      :      6.15565

Rotational constants in cm-1:     0.026547     0.016542     0.011018
Rotational constants in MHz :   795.873737   495.912559   330.323979

                             ****ORCA TERMINATED NORMALLY****
TOTAL RUN TIME: 0 days 0 hours 1 minutes 59 seconds 523 msec
