                         Program Version 5.0.0 -  RELEASE  -
|  1> !M062X D3Zero RIJCOSX def2-SVPD def2/J TightSCF
|  2> *xyz -1 1
|  3> C          0.28725       -1.71177       -2.52740
|  4> O          0.71050       -0.92751       -1.48177
|  5> H          0.92384       -1.55316       -3.37267
|  6> H         -0.71828       -1.45137       -2.78433
|  7> H          0.32655       -2.74158       -2.23955
|  8> *
|  9> %MaxCore 64000
| 10>
| 11> %pal nprocs 4
| 12> end
| 13>
| 14> %scf
| 15>   MaxIter 150
| 16> end
| 17>
| 18>
| 19>                          ****END OF INPUT****

CARTESIAN COORDINATES (ANGSTROEM)
---------------------------------
  C      0.287250   -1.711770   -2.527400
  O      0.710500   -0.927510   -1.481770
  H      0.923840   -1.553160   -3.372670
  H     -0.718280   -1.451370   -2.784330
  H      0.326550   -2.741580   -2.239550

 Total Charge           Charge          ....   -1
 Multiplicity           Mult            ....    1
 Number of Electrons    NEL             ....   18
 Basis Dimension        Dim             ....   67

ORBITAL ENERGIES
----------------

  NO   OCC          E(Eh)            E(eV)
   0   2.0000     -19.277366      -524.5638
   1   2.0000     -10.334312      -281.2109
   2   2.0000      -0.754217       -20.5233
   3   2.0000      -0.476432       -12.9644
   4   2.0000      -0.262677        -7.1478
   5   2.0000      -0.262614        -7.1461
   6   2.0000      -0.162692        -4.4271
   7   2.0000      -0.012712        -0.3459
   8   2.0000      -0.012690        -0.3453
   9   0.0000       0.217690         5.9236
  10   0.0000       0.296699         8.0736
  11   0.0000       0.296707         8.0738
  12   0.0000       0.304921         8.2973
  13   0.0000       0.338886         9.2216

MULLIKEN ATOMIC CHARGES
-----------------------
   0 C :    0.759680
   1 O :   -1.044348
   2 H :   -0.237800
   3 H :   -0.239115
   4 H :   -0.238417
Sum of atomic charges:   -1.0000000

LOEWDIN ATOMIC CHARGES
----------------------
   0 C :   -0.106055
   1 O :   -0.664599
   2 H :   -0.076421
   3 H :   -0.076502
   4 H :   -0.076423

  Mayer bond orders larger than 0.100000
B(  0-C ,  1-O ) :   1.1828 B(  0-C ,  2-H ) :   0.9216 B(  0-C ,  3-H ) :   0.9214
B(  0-C ,  4-H ) :   0.9213

Dispersion correction           -0.000000446
FINAL SINGLE POINT ENERGY      -114.953774935080

DIPOLE MOMENT
-------------
                                X             Y             Z
Electronic contribution:      0.57060       1.05756       1.41033
Nuclear contribution   :     -0.89006      -1.64923      -2.19886
                        -----------------------------------------
Total Dipole Moment    :     -0.31946      -0.59167      -0.78853
                        -----------------------------------------
Magnitude (a.u.)       :      1.03630
Magnitude (Debye)      :      2.63406

Rotational constants in cm-1:     5.477712     0.934243     0.934241
Rotational constants in MHz : 164217.678885 28007.889263 28007.851448

                             ****ORCA TERMINATED NORMALLY****
TOTAL RUN TIME: 0 days 0 hours 0 minutes 3 seconds 951 msec
