                         Program Version 5.0.0 -  RELEASE  -
|  1> !M062X D3Zero RIJCOSX def2-SVPD def2/J TightSCF
|  2> *xyz 1 1
|  3> C          3.48828        1.60092       -1.52204
|  4> N          2.81029        0.42878       -1.01420
|  5> C          3.29098       -0.41802       -0.12908
|  6> N          2.51754       -1.43202        0.23936
|  7> N          4.53549       -0.28441        0.39580
|  8> H          5.04363        0.57189        0.22290
|  9> H          4.72335       -0.73327        1.28180
| 10> H          1.93479        0.10230       -1.40379
| 11> H          1.67464       -1.50562       -0.31610
| 12> H          2.92850       -2.21850        0.72549
| 13> H          2.85802        2.09943       -2.22855
| 14> H          4.39853        1.30677       -2.00144
| 15> H          3.70992        2.26379       -0.71187
| 16> *
| 17> %MaxCore 64000
| 18>
| 19> %pal nprocs 4
| 20> end
| 21>
| 22> %scf
| 23>   MaxIter 150
| 24> end
| 25>
| 26>
| 27>                          ****END OF INPUT****

CARTESIAN COORDINATES (ANGSTROEM)
---------------------------------
  C      3.488280    1.600920   -1.522040
  N      2.810290    0.428780   -1.014200
  C      3.290980   -0.418020   -0.129080
  N      2.517540   -1.432020    0.239360
  N      4.535490   -0.284410    0.395800
  H      5.043630    0.571890    0.222900
  H      4.723350   -0.733270    1.281800
  H      1.934790    0.102300   -1.403790
  H      1.674640   -1.505620   -0.316100
  H      2.928500   -2.218500    0.725490
  H      2.858020    2.099430   -2.228550
  H      4.398530    1.306770   -2.001440
  H      3.709920    2.263790   -0.711870

 Total Charge           Charge          ....    1
 Multiplicity           Mult            ....    1
 Number of Electrons    NEL             ....   40
 Basis Dimension        Dim             ....  164

ORBITAL ENERGIES
----------------

  NO   OCC          E(Eh)            E(eV)
   0   2.0000     -14.998453      -408.1286
   1   2.0000     -14.990527      -407.9130
   2   2.0000     -14.990279      -407.9062
   3   2.0000     -10.896083      -296.4975
   4   2.0000     -10.761402      -292.8326
   5   2.0000      -1.328731       -36.1566
   6   2.0000      -1.207208       -32.8498
   7   2.0000      -1.192406       -32.4470
   8   2.0000      -1.000559       -27.2266
   9   2.0000      -0.911330       -24.7986
  10   2.0000      -0.863498       -23.4970
  11   2.0000      -0.837172       -22.7806
  12   2.0000      -0.769378       -20.9359
  13   2.0000      -0.758759       -20.6469
  14   2.0000      -0.740083       -20.1387
  15   2.0000      -0.718165       -19.5423
  16   2.0000      -0.666435       -18.1346
  17   2.0000      -0.650500       -17.7010
  18   2.0000      -0.549699       -14.9581
  19   2.0000      -0.523486       -14.2448
  20   0.0000      -0.139841        -3.8053
  21   0.0000      -0.136546        -3.7156
  22   0.0000      -0.100736        -2.7412
  23   0.0000      -0.094119        -2.5611
  24   0.0000      -0.065752        -1.7892

MULLIKEN ATOMIC CHARGES
-----------------------
   0 C :    1.033812
   1 N :   -0.666516
   2 C :    1.325399
   3 N :   -0.079323
   4 N :   -0.111058
   5 H :   -0.020991
   6 H :   -0.049887
   7 H :   -0.192592
   8 H :    0.046926
   9 H :   -0.070794
  10 H :   -0.277661
  11 H :    0.037627
  12 H :    0.025059
Sum of atomic charges:    1.0000000

LOEWDIN ATOMIC CHARGES
----------------------
   0 C :    0.261121
   1 N :    0.001232
   2 C :   -0.025305
   3 N :    0.256499
   4 N :    0.276500
   5 H :    0.017114
   6 H :    0.037948
   7 H :    0.056376
   8 H :    0.035594
   9 H :    0.048069
  10 H :    0.016392
  11 H :    0.009613
  12 H :    0.008847

  Mayer bond orders larger than 0.100000
B(  0-C ,  1-N ) :   0.9499 B(  0-C ,  7-H ) :  -0.1262 B(  0-C , 10-H ) :   0.8707
B(  0-C , 11-H ) :   0.8152 B(  0-C , 12-H ) :   0.8015 B(  1-N ,  2-C ) :   1.0280
B(  1-N ,  3-N ) :   0.2255 B(  1-N ,  4-N ) :   0.2012 B(  1-N ,  7-H ) :   1.2981
B(  1-N , 10-H ) :   0.1859 B(  1-N , 11-H ) :   0.1473 B(  1-N , 12-H ) :   0.1592
B(  2-C ,  3-N ) :   0.9001 B(  2-C ,  4-N ) :   0.9509 B(  2-C ,  5-H ) :  -0.1130
B(  2-C ,  6-H ) :  -0.1020 B(  2-C ,  7-H ) :  -0.2281 B(  2-C ,  9-H ) :  -0.1155
B(  3-N ,  4-N ) :   0.1256 B(  3-N ,  8-H ) :   1.0508 B(  3-N ,  9-H ) :   1.2019
B(  4-N ,  5-H ) :   1.0528 B(  4-N ,  6-H ) :   1.1748 B(  5-H ,  6-H ) :  -0.1424
B(  8-H ,  9-H ) :  -0.1458

Dispersion correction           -0.000172896
FINAL SINGLE POINT ENERGY      -244.793996895514

DIPOLE MOMENT
-------------
                                X             Y             Z
Electronic contribution:     -0.68465      -2.27959       1.33013
Nuclear contribution   :      0.56176       1.95858      -1.15445
                        -----------------------------------------
Total Dipole Moment    :     -0.12289      -0.32101       0.17568
                        -----------------------------------------
Magnitude (a.u.)       :      0.38602
Magnitude (Debye)      :      0.98119

Rotational constants in cm-1:     0.309570     0.135399     0.096056
Rotational constants in MHz :  9280.673410  4059.171112  2879.675555

                             ****ORCA TERMINATED NORMALLY****
TOTAL RUN TIME: 0 days 0 hours 0 minutes 16 seconds 850 msec
