                         Program Version 5.0.0 -  RELEASE  -
|  1> !M062X D3Zero RIJCOSX def2-SVPD def2/J TightSCF
|  2> *xyz 0 1
|  3> C          0.28725       -1.71177       -2.52740
|  4> F          0.71050       -0.92751       -1.48177
|  5> H          0.92384       -1.55316       -3.37267
|  6> H         -0.71828       -1.45137       -2.78433
|  7> H          0.32655       -2.74158       -2.23955
|  8> *
|  9> %MaxCore 64000
| 10>
| 11> %pal nprocs 4
| 12> end
| 13>
| 14> %scf
| 15>   MaxIter 150
| 16> end
| 17>
| 18>
| 19>                          ****END OF INPUT****

CARTESIAN COORDINATES (ANGSTROEM)
---------------------------------
  C      0.287250   -1.711770   -2.527400
  F      0.710500   -0.927510   -1.481770
  H      0.923840   -1.553160   -3.372670
  H     -0.718280   -1.451370   -2.784330
  H      0.326550   -2.741580   -2.239550

 Total Charge           Charge          ....    0
 Multiplicity           Mult            ....    1
 Number of Electrons    NEL             ....   18
 Basis Dimension        Dim             ....   67

ORBITAL ENERGIES
----------------

  NO   OCC          E(Eh)            E(eV)
   0   2.0000     -25.240078      -686.8174
   1   2.0000     -10.622350      -289.0488
   2   2.0000      -1.316047       -35.8114
   3   2.0000      -0.796933       -21.6856
   4   2.0000      -0.576611       -15.6904
   5   2.0000      -0.576520       -15.6879
   6   2.0000      -0.576442       -15.6858
   7   2.0000      -0.429775       -11.6948
   8   2.0000      -0.429737       -11.6937
   9   0.0000       0.040193         1.0937
  10   0.0000       0.093762         2.5514
  11   0.0000       0.120718         3.2849
  12   0.0000       0.120727         3.2852
  13   0.0000       0.156371         4.2551

MULLIKEN ATOMIC CHARGES
-----------------------
   0 C :    0.802056
   1 F :   -0.516709
   2 H :   -0.094175
   3 H :   -0.096449
   4 H :   -0.094724
Sum of atomic charges:    0.0000000

LOEWDIN ATOMIC CHARGES
----------------------
   0 C :    0.283642
   1 F :   -0.268331
   2 H :   -0.005074
   3 H :   -0.005176
   4 H :   -0.005061

  Mayer bond orders larger than 0.100000
B(  0-C ,  1-F ) :   0.7911 B(  0-C ,  2-H ) :   0.9557 B(  0-C ,  3-H ) :   0.9558
B(  0-C ,  4-H ) :   0.9553

Dispersion correction           -0.000000631
FINAL SINGLE POINT ENERGY      -139.580699303446

DIPOLE MOMENT
-------------
                                X             Y             Z
Electronic contribution:      0.89750       1.66342       2.21804
Nuclear contribution   :     -1.12906      -2.09208      -2.78929
                        -----------------------------------------
Total Dipole Moment    :     -0.23155      -0.42866      -0.57125
                        -----------------------------------------
Magnitude (a.u.)       :      0.75079
Magnitude (Debye)      :      1.90835

Rotational constants in cm-1:     5.477712     0.869598     0.869597
Rotational constants in MHz : 164217.678885 26069.889584 26069.856821

                             ****ORCA TERMINATED NORMALLY****
TOTAL RUN TIME: 0 days 0 hours 0 minutes 3 seconds 450 msec
