                         Program Version 5.0.0 -  RELEASE  -
|  1> !M062X D3Zero RIJCOSX def2-SVPD def2/J TightSCF
|  2> *xyz 0 1
|  3> C          3.48828        1.60092       -1.52204
|  4> C          2.81029        0.42878       -1.01420
|  5> C          3.29098       -0.41802       -0.12908
|  6> N          2.51754       -1.43202        0.23936
|  7> N          4.53549       -0.28441        0.39580
|  8> H          5.04363        0.57189        0.22290
|  9> H          4.72335       -0.73327        1.28180
| 10> H          1.93479        0.10230       -1.40379
| 11> H          1.67464       -1.50562       -0.31610
| 12> H          2.92850       -2.21850        0.72549
| 13> H          2.85802        2.09943       -2.22855
| 14> H          4.39853        1.30677       -2.00144
| 15> H          3.70992        2.26379       -0.71187
| 16> *
| 17> %MaxCore 64000
| 18>
| 19> %pal nprocs 4
| 20> end
| 21>
| 22> %scf
| 23>   MaxIter 150
| 24> end
| 25>
| 26>
| 27>                          ****END OF INPUT****

CARTESIAN COORDINATES (ANGSTROEM)
---------------------------------
  C      3.488280    1.600920   -1.522040
  C      2.810290    0.428780   -1.014200
  C      3.290980   -0.418020   -0.129080
  N      2.517540   -1.432020    0.239360
  N      4.535490   -0.284410    0.395800
  H      5.043630    0.571890    0.222900
  H      4.723350   -0.733270    1.281800
  H      1.934790    0.102300   -1.403790
  H      1.674640   -1.505620   -0.316100
  H      2.928500   -2.218500    0.725490
  H      2.858020    2.099430   -2.228550
  H      4.398530    1.306770   -2.001440
  H      3.709920    2.263790   -0.711870

 Total Charge           Charge          ....    0
 Multiplicity           Mult            ....    1
 Number of Electrons    NEL             ....   40
 Basis Dimension        Dim             ....  164

ORBITAL ENERGIES
----------------

  NO   OCC          E(Eh)            E(eV)
   0   2.0000     -14.763260      -401.7287
   1   2.0000     -14.755673      -401.5223
   2   2.0000     -10.589888      -288.1655
   3   2.0000     -10.517008      -286.1823
   4   2.0000     -10.475159      -285.0436
   5   2.0000      -1.057883       -28.7865
   6   2.0000      -0.962096       -26.1800
   7   2.0000      -0.845467       -23.0063
   8   2.0000      -0.739810       -20.1313
   9   2.0000      -0.660800       -17.9813
  10   2.0000      -0.610854       -16.6222
  11   2.0000      -0.581170       -15.8145
  12   2.0000      -0.532593       -14.4926
  13   2.0000      -0.498459       -13.5638
  14   2.0000      -0.482881       -13.1399
  15   2.0000      -0.443272       -12.0620
  16   2.0000      -0.430236       -11.7073
  17   2.0000      -0.406070       -11.0497
  18   2.0000      -0.330948        -9.0056
  19   2.0000      -0.213261        -5.8031
  20   0.0000       0.037142         1.0107
  21   0.0000       0.062923         1.7122
  22   0.0000       0.072217         1.9651
  23   0.0000       0.099220         2.6999
  24   0.0000       0.107960         2.9377

MULLIKEN ATOMIC CHARGES
-----------------------
   0 C :    0.820813
   1 C :   -0.664232
   2 C :    0.669125
   3 N :   -0.014562
   4 N :   -0.132253
   5 H :   -0.009956
   6 H :   -0.166030
   7 H :   -0.368264
   8 H :    0.068212
   9 H :   -0.173344
  10 H :   -0.033693
  11 H :   -0.008338
  12 H :    0.012522
Sum of atomic charges:   -0.0000000

LOEWDIN ATOMIC CHARGES
----------------------
   0 C :    0.086510
   1 C :   -0.068939
   2 C :   -0.231070
   3 N :    0.161384
   4 N :    0.194946
   5 H :   -0.014986
   6 H :   -0.011307
   7 H :   -0.056324
   8 H :    0.001718
   9 H :   -0.004423
  10 H :   -0.016032
  11 H :   -0.020112
  12 H :   -0.021365

  Mayer bond orders larger than 0.100000
B(  0-C ,  1-C ) :   1.2029 B(  0-C ,  7-H ) :   0.1265 B(  0-C , 10-H ) :   0.7670
B(  0-C , 11-H ) :   0.6843 B(  0-C , 12-H ) :   0.6544 B(  1-C ,  2-C ) :   1.5573
B(  1-C ,  3-N ) :   0.2733 B(  1-C ,  4-N ) :   0.1841 B(  1-C ,  5-H ) :  -0.1161
B(  1-C ,  7-H ) :   1.0039 B(  1-C , 10-H ) :   0.3166 B(  1-C , 11-H ) :   0.2293
B(  1-C , 12-H ) :   0.2985 B(  2-C ,  3-N ) :   0.9394 B(  2-C ,  4-N ) :   0.8997
B(  2-C ,  7-H ) :   0.2137 B(  3-N ,  8-H ) :   1.0307 B(  3-N ,  9-H ) :   1.1626
B(  4-N ,  5-H ) :   1.0189 B(  4-N ,  6-H ) :   1.1966 B(  5-H ,  6-H ) :  -0.1249
B(  7-H , 10-H ) :  -0.1533 B(  8-H ,  9-H ) :  -0.1389

Dispersion correction           -0.000171981
FINAL SINGLE POINT ENERGY      -228.334908872549

DIPOLE MOMENT
-------------
                                X             Y             Z
Electronic contribution:     -0.24178      -2.54572       1.78777
Nuclear contribution   :      0.45569       2.05070      -1.27895
                        -----------------------------------------
Total Dipole Moment    :      0.21391      -0.49502       0.50882
                        -----------------------------------------
Magnitude (a.u.)       :      0.74142
Magnitude (Debye)      :      1.88455

Rotational constants in cm-1:     0.314404     0.136412     0.097030
Rotational constants in MHz :  9425.600285  4089.541372  2908.875289

                             ****ORCA TERMINATED NORMALLY****
TOTAL RUN TIME: 0 days 0 hours 0 minutes 17 seconds 173 msec
