                         Program Version 5.0.0 -  RELEASE  -
|  1> !M062X D3Zero RIJCOSX def2-SVPD def2/J TightSCF
|  2> *xyz 0 1
|  3> C          3.48828        1.60092       -1.52204
|  4> N          2.81029        0.42878       -1.01420
|  5> C          3.29098       -0.41802       -0.12908
|  6> C          2.51754       -1.43202        0.23936
|  7> N          4.53549       -0.28441        0.39580
|  8> H          5.04363        0.57189        0.22290
|  9> H          4.72335       -0.73327        1.28180
| 10> H          1.93479        0.10230       -1.40379
| 11> H          1.67464       -1.50562       -0.31610
| 12> H          2.92850       -2.21850        0.72549
| 13> H          2.85802        2.09943       -2.22855
| 14> H          4.39853        1.30677       -2.00144
| 15> H          3.70992        2.26379       -0.71187
| 16> *
| 17> %MaxCore 64000
| 18>
| 19> %pal nprocs 4
| 20> end
| 21>
| 22> %scf
| 23>   MaxIter 150
| 24> end
| 25>
| 26>
| 27>                          ****END OF INPUT****

CARTESIAN COORDINATES (ANGSTROEM)
---------------------------------
  C      3.488280    1.600920   -1.522040
  N      2.810290    0.428780   -1.014200
  C      3.290980   -0.418020   -0.129080
  C      2.517540   -1.432020    0.239360
  N      4.535490   -0.284410    0.395800
  H      5.043630    0.571890    0.222900
  H      4.723350   -0.733270    1.281800
  H      1.934790    0.102300   -1.403790
  H      1.674640   -1.505620   -0.316100
  H      2.928500   -2.218500    0.725490
  H      2.858020    2.099430   -2.228550
  H      4.398530    1.306770   -2.001440
  H      3.709920    2.263790   -0.711870

 Total Charge           Charge          ....    0
 Multiplicity           Mult            ....    1
 Number of Electrons    NEL             ....   40
 Basis Dimension        Dim             ....  164

ORBITAL ENERGIES
----------------

  NO   OCC          E(Eh)            E(eV)
   0   2.0000     -14.762849      -401.7175
   1   2.0000     -14.762741      -401.7146
   2   2.0000     -10.596656      -288.3497
   3   2.0000     -10.586277      -288.0672
   4   2.0000     -10.460121      -284.6344
   5   2.0000      -1.069839       -29.1118
   6   2.0000      -0.976019       -26.5588
   7   2.0000      -0.838745       -22.8234
   8   2.0000      -0.749758       -20.4020
   9   2.0000      -0.676565       -18.4103
  10   2.0000      -0.607797       -16.5390
  11   2.0000      -0.564716       -15.3667
  12   2.0000      -0.549188       -14.9442
  13   2.0000      -0.529650       -14.4125
  14   2.0000      -0.472816       -12.8660
  15   2.0000      -0.451550       -12.2873
  16   2.0000      -0.443810       -12.0767
  17   2.0000      -0.435818       -11.8592
  18   2.0000      -0.324147        -8.8205
  19   2.0000      -0.213393        -5.8067
  20   0.0000       0.029262         0.7963
  21   0.0000       0.064562         1.7568
  22   0.0000       0.069820         1.8999
  23   0.0000       0.100757         2.7417
  24   0.0000       0.101880         2.7723

MULLIKEN ATOMIC CHARGES
-----------------------
   0 C :    1.061238
   1 N :   -0.575068
   2 C :    0.625892
   3 C :    0.410786
   4 N :   -0.048964
   5 H :   -0.147116
   6 H :   -0.049151
   7 H :   -0.236049
   8 H :   -0.222938
   9 H :   -0.416658
  10 H :   -0.329398
  11 H :   -0.027830
  12 H :   -0.044743
Sum of atomic charges:    0.0000000

LOEWDIN ATOMIC CHARGES
----------------------
   0 C :    0.206399
   1 N :   -0.066188
   2 C :   -0.230874
   3 C :    0.137093
   4 N :    0.191925
   5 H :   -0.027017
   6 H :    0.005412
   7 H :    0.028793
   8 H :   -0.104870
   9 H :   -0.097292
  10 H :   -0.010005
  11 H :   -0.016383
  12 H :   -0.016994

  Mayer bond orders larger than 0.100000
B(  0-C ,  1-N ) :   0.9589 B(  0-C ,  7-H ) :  -0.1444 B(  0-C , 10-H ) :   0.8601
B(  0-C , 11-H ) :   0.8178 B(  0-C , 12-H ) :   0.8103 B(  1-N ,  2-C ) :   1.0662
B(  1-N ,  3-C ) :   0.2288 B(  1-N ,  4-N ) :   0.1131 B(  1-N ,  7-H ) :   1.2588
B(  1-N , 10-H ) :   0.1843 B(  1-N , 11-H ) :   0.1706 B(  1-N , 12-H ) :   0.1620
B(  2-C ,  3-C ) :   1.6922 B(  2-C ,  4-N ) :   0.8809 B(  2-C ,  7-H ) :  -0.1651
B(  2-C ,  8-H ) :   0.2314 B(  2-C ,  9-H ) :   0.2054 B(  3-C ,  4-N ) :   0.2197
B(  3-C ,  8-H ) :   0.7851 B(  3-C ,  9-H ) :   0.7614 B(  4-N ,  5-H ) :   1.0737
B(  4-N ,  6-H ) :   1.1288 B(  5-H ,  6-H ) :  -0.1352

Dispersion correction           -0.000168855
FINAL SINGLE POINT ENERGY      -228.320372063214

DIPOLE MOMENT
-------------
                                X             Y             Z
Electronic contribution:      0.09290      -0.72216       0.64144
Nuclear contribution   :      0.39640       1.67380      -1.02505
                        -----------------------------------------
Total Dipole Moment    :      0.48929       0.95164      -0.38360
                        -----------------------------------------
Magnitude (a.u.)       :      1.13674
Magnitude (Debye)      :      2.88936

Rotational constants in cm-1:     0.316500     0.141146     0.099607
Rotational constants in MHz :  9488.425850  4231.454938  2986.155520

                             ****ORCA TERMINATED NORMALLY****
TOTAL RUN TIME: 0 days 0 hours 0 minutes 17 seconds 748 msec
