                         Program Version 5.0.0 -  RELEASE  -
|  1> !M062X D3Zero RIJCOSX def2-SVPD def2/J TightSCF
|  2> *xyz 0 1
|  3> C          3.48828        1.60092       -1.52204
|  4> N          2.81029        0.42878       -1.01420
|  5> C          3.29098       -0.41802       -0.12908
|  6> N          2.51754       -1.43202        0.23936
|  7> C          4.53549       -0.28441        0.39580
|  8> H          5.04363        0.57189        0.22290
|  9> H          4.72335       -0.73327        1.28180
| 10> H          1.93479        0.10230       -1.40379
| 11> H          1.67464       -1.50562       -0.31610
| 12> H          2.92850       -2.21850        0.72549
| 13> H          2.85802        2.09943       -2.22855
| 14> H          4.39853        1.30677       -2.00144
| 15> H          3.70992        2.26379       -0.71187
| 16> *
| 17> %MaxCore 64000
| 18>
| 19> %pal nprocs 4
| 20> end
| 21>
| 22> %scf
| 23>   MaxIter 150
| 24> end
| 25>
| 26>
| 27>                          ****END OF INPUT****

CARTESIAN COORDINATES (ANGSTROEM)
---------------------------------
  C      3.488280    1.600920   -1.522040
  N      2.810290    0.428780   -1.014200
  C      3.290980   -0.418020   -0.129080
  N      2.517540   -1.432020    0.239360
  C      4.535490   -0.284410    0.395800
  H      5.043630    0.571890    0.222900
  H      4.723350   -0.733270    1.281800
  H      1.934790    0.102300   -1.403790
  H      1.674640   -1.505620   -0.316100
  H      2.928500   -2.218500    0.725490
  H      2.858020    2.099430   -2.228550
  H      4.398530    1.306770   -2.001440
  H      3.709920    2.263790   -0.711870

 Total Charge           Charge          ....    0
 Multiplicity           Mult            ....    1
 Number of Electrons    NEL             ....   40
 Basis Dimension        Dim             ....  164

ORBITAL ENERGIES
----------------

  NO   OCC          E(Eh)            E(eV)
   0   2.0000     -14.770458      -401.9246
   1   2.0000     -14.763590      -401.7377
   2   2.0000     -10.599464      -288.4261
   3   2.0000     -10.579602      -287.8856
   4   2.0000     -10.464000      -284.7399
   5   2.0000      -1.079706       -29.3803
   6   2.0000      -0.981200       -26.6998
   7   2.0000      -0.806267       -21.9396
   8   2.0000      -0.785637       -21.3783
   9   2.0000      -0.644695       -17.5430
  10   2.0000      -0.618412       -16.8278
  11   2.0000      -0.603362       -16.4183
  12   2.0000      -0.529838       -14.4176
  13   2.0000      -0.519354       -14.1323
  14   2.0000      -0.482013       -13.1162
  15   2.0000      -0.453397       -12.3376
  16   2.0000      -0.436205       -11.8697
  17   2.0000      -0.433223       -11.7886
  18   2.0000      -0.315622        -8.5885
  19   2.0000      -0.218988        -5.9590
  20   0.0000       0.032239         0.8773
  21   0.0000       0.053668         1.4604
  22   0.0000       0.071415         1.9433
  23   0.0000       0.104725         2.8497
  24   0.0000       0.105397         2.8680

MULLIKEN ATOMIC CHARGES
-----------------------
   0 C :    1.023836
   1 N :   -0.595579
   2 C :    0.511088
   3 N :   -0.041036
   4 C :    0.470149
   5 H :   -0.151552
   6 H :   -0.429041
   7 H :   -0.338398
   8 H :   -0.100559
   9 H :   -0.064884
  10 H :   -0.356552
  11 H :    0.041206
  12 H :    0.031321
Sum of atomic charges:   -0.0000000

LOEWDIN ATOMIC CHARGES
----------------------
   0 C :    0.214003
   1 N :   -0.067971
   2 C :   -0.243699
   3 N :    0.174575
   4 C :    0.163736
   5 H :   -0.125761
   6 H :   -0.107813
   7 H :    0.016537
   8 H :   -0.011312
   9 H :    0.015647
  10 H :   -0.011533
  11 H :   -0.008577
  12 H :   -0.007832

  Mayer bond orders larger than 0.100000
B(  0-C ,  1-N ) :   0.9727 B(  0-C ,  7-H ) :  -0.1401 B(  0-C , 10-H ) :   0.8761
B(  0-C , 11-H ) :   0.8122 B(  0-C , 12-H ) :   0.8040 B(  1-N ,  2-C ) :   1.0148
B(  1-N ,  3-N ) :   0.1562 B(  1-N ,  4-C ) :   0.2988 B(  1-N ,  7-H ) :   1.3477
B(  1-N , 10-H ) :   0.1777 B(  1-N , 11-H ) :   0.1398 B(  1-N , 12-H ) :   0.1465
B(  2-C ,  3-N ) :   0.8545 B(  2-C ,  4-C ) :   1.8375 B(  2-C ,  5-H ) :   0.3154
B(  2-C ,  6-H ) :   0.2537 B(  2-C ,  7-H ) :  -0.2188 B(  3-N ,  4-C ) :   0.2357
B(  3-N ,  8-H ) :   1.0967 B(  3-N ,  9-H ) :   1.1657 B(  4-C ,  5-H ) :   0.6831
B(  4-C ,  6-H ) :   0.7570 B(  5-H ,  6-H ) :   0.1496 B(  8-H ,  9-H ) :  -0.1379

Dispersion correction           -0.000170488
FINAL SINGLE POINT ENERGY      -228.322810556411

DIPOLE MOMENT
-------------
                                X             Y             Z
Electronic contribution:     -1.83121      -1.94415       0.39770
Nuclear contribution   :      0.80512       1.90624      -0.99336
                        -----------------------------------------
Total Dipole Moment    :     -1.02609      -0.03791      -0.59566
                        -----------------------------------------
Magnitude (a.u.)       :      1.18706
Magnitude (Debye)      :      3.01727

Rotational constants in cm-1:     0.332728     0.136065     0.098521
Rotational constants in MHz :  9974.927067  4079.126590  2953.598000

                             ****ORCA TERMINATED NORMALLY****
TOTAL RUN TIME: 0 days 0 hours 0 minutes 16 seconds 958 msec
