                         Program Version 5.0.0 -  RELEASE  -
|  1> !M062X D3Zero RIJCOSX def2-SVPD def2/J TightSCF xyzfile
|  2>
|  3> *xyzfile 0 1 D3.xyz
|  4>
|  5> %MaxCore 64000
|  6>
|  7> %pal nprocs 4
|  8> end
|  9>
| 10> %scf
| 11>   MaxIter 150
| 12> end
| 13>
| 14>
| 15>                          ****END OF INPUT****

CARTESIAN COORDINATES (ANGSTROEM)
---------------------------------
  C      3.488276    1.600919   -1.522040
  C      4.342970    1.313419   -2.756826
  N      2.810285    0.428783   -1.014196
  H      5.132033    0.604994   -2.484466
  C      3.535896    0.749253   -3.924604
  H      4.841247    2.242136   -3.054083
  H      2.991617   -0.132199   -3.574137
  H      4.225505    0.392784   -4.695962
  C      2.564776    1.750890   -4.544523
  H      1.918749    2.171679   -3.769419
  C      1.686235    1.161657   -5.650111
  H      3.132494    2.594775   -4.951604
  C      0.839616   -0.037582   -5.220473
  H      2.323886    0.866395   -6.490796
  H      1.029518    1.951850   -6.029329
  C     -0.151019    0.254955   -4.094256
  H      1.499442   -0.857141   -4.922958
  H      0.290097   -0.410143   -6.091131
  H      0.328265    0.833022   -3.299125
  C     -0.721843   -0.999513   -3.439309
  H     -0.957367    0.884951   -4.485450
  H     -1.083403   -1.697555   -4.205656
  H     -1.581056   -0.723848   -2.820490
  C      0.287250   -1.711771   -2.527405
  H      1.131780   -2.067380   -3.159396
  H     -0.204137   -2.637326   -2.170480
  F      0.710505   -0.927506   -1.481767
  H      2.714548    2.331455   -1.760302
  H      4.090991    2.063151   -0.733382
  C      3.290978   -0.418021   -0.129083
  N      2.517536   -1.432017    0.239360
  C      4.535490   -0.284410    0.395800
  H      5.043627    0.571888    0.222899
  H      4.723346   -0.733273    1.281800
  H      1.934787    0.102305   -1.403788
  H      1.674638   -1.505616   -0.316095
  H      2.928503   -2.218502    0.725494

 Total Charge           Charge          ....    0
 Multiplicity           Mult            ....    1
 Number of Electrons    NEL             ....  112
 Basis Dimension        Dim             ....  467

ORBITAL ENERGIES
----------------

  NO   OCC          E(Eh)            E(eV)
   0   2.0000     -25.301393      -688.4859
   1   2.0000     -14.739439      -401.0805
   2   2.0000     -14.734326      -400.9414
   3   2.0000     -10.660335      -290.0825
   4   2.0000     -10.580210      -287.9021
   5   2.0000     -10.576404      -287.7986
   6   2.0000     -10.570577      -287.6400
   7   2.0000     -10.562364      -287.4165
   8   2.0000     -10.556122      -287.2467
   9   2.0000     -10.550881      -287.1041
  10   2.0000     -10.545403      -286.9550
  11   2.0000     -10.541699      -286.8542
  12   2.0000     -10.535677      -286.6903
  13   2.0000     -10.444297      -284.2038
  14   2.0000      -1.383015       -37.6338
  15   2.0000      -1.058288       -28.7975
  16   2.0000      -0.962850       -26.2005
  17   2.0000      -0.926258       -25.2048
  18   2.0000      -0.894907       -24.3516
  19   2.0000      -0.859241       -23.3811
  20   2.0000      -0.815277       -22.1848
  21   2.0000      -0.780816       -21.2471
  22   2.0000      -0.774337       -21.0708
  23   2.0000      -0.737058       -20.0564
  24   2.0000      -0.702120       -19.1057
  25   2.0000      -0.674067       -18.3423
  26   2.0000      -0.656502       -17.8643
  27   2.0000      -0.646404       -17.5896
  28   2.0000      -0.636214       -17.3123
  29   2.0000      -0.605318       -16.4715
  30   2.0000      -0.600424       -16.3384
  31   2.0000      -0.587917       -15.9980
  32   2.0000      -0.567633       -15.4461
  33   2.0000      -0.551222       -14.9995
  34   2.0000      -0.537917       -14.6375
  35   2.0000      -0.526315       -14.3218
  36   2.0000      -0.509827       -13.8731
  37   2.0000      -0.507423       -13.8077
  38   2.0000      -0.499927       -13.6037
  39   2.0000      -0.478069       -13.0089
  40   2.0000      -0.470817       -12.8116
  41   2.0000      -0.452620       -12.3164
  42   2.0000      -0.446360       -12.1461
  43   2.0000      -0.437916       -11.9163
  44   2.0000      -0.436001       -11.8642
  45   2.0000      -0.424897       -11.5620
  46   2.0000      -0.416072       -11.3219
  47   2.0000      -0.413389       -11.2489
  48   2.0000      -0.402839       -10.9618
  49   2.0000      -0.399123       -10.8607
  50   2.0000      -0.391234       -10.6460
  51   2.0000      -0.376093       -10.2340
  52   2.0000      -0.374908       -10.2018
  53   2.0000      -0.367451        -9.9989
  54   2.0000      -0.292781        -7.9670
  55   2.0000      -0.198939        -5.4134
  56   0.0000       0.026319         0.7162
  57   0.0000       0.037652         1.0246
  58   0.0000       0.045754         1.2450
  59   0.0000       0.048796         1.3278
  60   0.0000       0.064268         1.7488

MULLIKEN ATOMIC CHARGES
-----------------------
   0 C :    1.193890
   1 C :    0.375347
   2 N :    0.231023
   3 H :   -0.105620
   4 C :    0.387879
   5 H :   -0.145875
   6 H :   -0.377872
   7 H :   -0.185118
   8 C :   -0.055772
   9 H :    0.056384
  10 C :    0.674340
  11 H :   -0.251481
  12 C :    0.045031
  13 H :   -0.027333
  14 H :   -0.151008
  15 C :    0.276612
  16 H :   -0.046889
  17 H :   -0.262039
  18 H :   -0.372144
  19 C :    0.290920
  20 H :   -0.128129
  21 H :   -0.063537
  22 H :   -0.039361
  23 C :    0.896257
  24 H :   -0.073414
  25 H :   -0.218671
  26 F :   -0.716069
  27 H :   -0.327962
  28 H :   -0.196174
  29 C :    0.705136
  30 N :    0.359995
  31 C :    0.558585
  32 H :    0.035649
  33 H :   -0.654705
  34 H :   -1.203202
  35 H :   -0.346094
  36 H :   -0.138580
Sum of atomic charges:    0.0000000

LOEWDIN ATOMIC CHARGES
----------------------
   0 C :    0.072306
   1 C :   -0.011137
   2 N :   -0.002227
   3 H :    0.022261
   4 C :   -0.030875
   5 H :    0.023730
   6 H :   -0.006093
   7 H :    0.028311
   8 C :   -0.035508
   9 H :   -0.003423
  10 C :   -0.028855
  11 H :    0.027693
  12 C :   -0.033840
  13 H :    0.025142
  14 H :    0.023957
  15 C :   -0.022811
  16 H :   -0.003138
  17 H :    0.025753
  18 H :    0.004205
  19 C :   -0.008043
  20 H :    0.032240
  21 H :    0.038959
  22 H :    0.030649
  23 C :    0.174454
  24 H :    0.038015
  25 H :    0.042326
  26 F :   -0.227084
  27 H :    0.010584
  28 H :    0.018481
  29 C :   -0.214634
  30 N :    0.199702
  31 C :    0.156384
  32 H :   -0.132153
  33 H :   -0.112847
  34 H :   -0.056990
  35 H :   -0.078957
  36 H :    0.013461

  Mayer bond orders larger than 0.100000
B(  0-C ,  1-C ) :   1.0136 B(  0-C ,  2-N ) :   1.0195 B(  0-C ,  4-C ) :   0.1276
B(  0-C , 27-H ) :   0.6838 B(  0-C , 28-H ) :   0.7864 B(  0-C , 34-H ) :  -0.7637
B(  1-C ,  3-H ) :   0.7727 B(  1-C ,  4-C ) :   1.2123 B(  1-C ,  5-H ) :   0.9311
B(  1-C , 28-H ) :   0.1110 B(  2-N , 27-H ) :   0.2041 B(  2-N , 29-C ) :   0.9437
B(  2-N , 31-C ) :   0.4840 B(  2-N , 33-H ) :   0.1374 B(  2-N , 34-H ) :   0.7437
B(  3-H ,  4-C ) :   0.2126 B(  3-H ,  5-H ) :  -0.1376 B(  4-C ,  6-H ) :   0.8352
B(  4-C ,  7-H ) :   0.8034 B(  4-C ,  8-C ) :   1.1577 B(  4-C , 11-H ) :   0.1704
B(  6-H ,  8-C ) :   0.1671 B(  6-H , 34-H ) :   0.1066 B(  7-H ,  8-C ) :   0.1396
B(  8-C ,  9-H ) :   0.8484 B(  8-C , 10-C ) :   1.1668 B(  8-C , 11-H ) :   0.9523
B(  8-C , 12-C ) :   0.1195 B(  8-C , 13-H ) :   0.1071 B(  8-C , 14-H ) :   0.3039
B(  9-H , 18-H ) :   0.1065 B( 10-C , 12-C ) :   1.1937 B( 10-C , 13-H ) :   0.7092
B( 10-C , 14-H ) :   0.6815 B( 12-C , 13-H ) :   0.2410 B( 12-C , 15-C ) :   1.1773
B( 12-C , 16-H ) :   0.8838 B( 12-C , 17-H ) :   0.8967 B( 12-C , 18-H ) :   0.1539
B( 12-C , 20-H ) :   0.1933 B( 13-H , 14-H ) :  -0.1720 B( 15-C , 17-H ) :   0.2459
B( 15-C , 18-H ) :   0.8602 B( 15-C , 19-C ) :   1.1649 B( 15-C , 20-H ) :   0.8471
B( 15-C , 22-H ) :   0.2223 B( 18-H , 19-C ) :   0.1132 B( 19-C , 21-H ) :   0.8075
B( 19-C , 22-H ) :   0.7380 B( 19-C , 23-C ) :   1.2090 B( 19-C , 24-H ) :   0.1218
B( 19-C , 25-H ) :   0.1352 B( 19-C , 26-F ) :   0.1039 B( 21-H , 23-C ) :   0.1580
B( 22-H , 23-C ) :   0.1489 B( 23-C , 24-H ) :   0.8143 B( 23-C , 25-H ) :   0.9225
B( 23-C , 26-F ) :   0.5132 B( 24-H , 26-F ) :   0.1567 B( 26-F , 34-H ) :   0.1633
B( 26-F , 35-H ) :   0.1352 B( 27-H , 28-H ) :  -0.1855 B( 27-H , 34-H ) :   0.1552
B( 29-C , 30-N ) :   0.7779 B( 29-C , 31-C ) :   1.6998 B( 29-C , 32-H ) :   0.3908
B( 29-C , 33-H ) :   0.3510 B( 29-C , 34-H ) :  -0.7342 B( 29-C , 36-H ) :  -0.1017
B( 30-N , 31-C ) :   0.2557 B( 30-N , 35-H ) :   1.0027 B( 30-N , 36-H ) :   1.1893
B( 31-C , 32-H ) :   0.5366 B( 31-C , 33-H ) :   0.6326 B( 35-H , 36-H ) :  -0.1513

Dispersion correction           -0.002349069
FINAL SINGLE POINT ENERGY      -641.575105271354

DIPOLE MOMENT
-------------
                                X             Y             Z
Electronic contribution:     -3.20970      -4.30662       9.07547
Nuclear contribution   :      1.49917       3.80845     -10.61369
                        -----------------------------------------
Total Dipole Moment    :     -1.71053      -0.49816      -1.53822
                        -----------------------------------------
Magnitude (a.u.)       :      2.35376
Magnitude (Debye)      :      5.98278

Rotational constants in cm-1:     0.026547     0.016542     0.011018
Rotational constants in MHz :   795.873737   495.912559   330.323979

                             ****ORCA TERMINATED NORMALLY****
TOTAL RUN TIME: 0 days 0 hours 3 minutes 11 seconds 43 msec
