                         Program Version 5.0.0 -  RELEASE  -
|  1> !PBE D3BJ RIJCOSX def2-SVPD def2/J TightSCF
|  2> *xyz -1 1
|  3> C         -0.72184       -0.99951       -3.43931
|  4> C          0.28725       -1.71177       -2.52740
|  5> H          1.13178       -2.06738       -3.15940
|  6> H         -0.20414       -2.63733       -2.17048
|  7> O          0.71050       -0.92751       -1.48177
|  8> H         -1.01315       -1.65739       -4.23129
|  9> H         -0.27123       -0.12142       -3.85259
| 10> H         -1.58442       -0.72333       -2.86958
| 11> *
| 12> %MaxCore 64000
| 13>
| 14> %pal nprocs 4
| 15> end
| 16>
| 17> %scf
| 18>   MaxIter 150
| 19> end
| 20>
| 21>
| 22>                          ****END OF INPUT****

CARTESIAN COORDINATES (ANGSTROEM)
---------------------------------
  C     -0.721840   -0.999510   -3.439310
  C      0.287250   -1.711770   -2.527400
  H      1.131780   -2.067380   -3.159400
  H     -0.204140   -2.637330   -2.170480
  O      0.710500   -0.927510   -1.481770
  H     -1.013150   -1.657390   -4.231290
  H     -0.271230   -0.121420   -3.852590
  H     -1.584420   -0.723330   -2.869580

 Total Charge           Charge          ....   -1
 Multiplicity           Mult            ....    1
 Number of Electrons    NEL             ....   26
 Basis Dimension        Dim             ....  103

ORBITAL ENERGIES
----------------

  NO   OCC          E(Eh)            E(eV)
   0   2.0000     -18.443707      -501.8788
   1   2.0000      -9.711083      -264.2520
   2   2.0000      -9.688740      -263.6440
   3   2.0000      -0.592635       -16.1264
   4   2.0000      -0.452226       -12.3057
   5   2.0000      -0.309737        -8.4284
   6   2.0000      -0.203448        -5.5361
   7   2.0000      -0.182067        -4.9543
   8   2.0000      -0.133323        -3.6279
   9   2.0000      -0.114083        -3.1044
  10   2.0000      -0.072335        -1.9683
  11   2.0000       0.065886         1.7928
  12   2.0000       0.069970         1.9040
  13   0.0000       0.163156         4.4397
  14   0.0000       0.193013         5.2522
  15   0.0000       0.223989         6.0950
  16   0.0000       0.236602         6.4383
  17   0.0000       0.255150         6.9430

MULLIKEN ATOMIC CHARGES
-----------------------
   0 C :    0.213254
   1 C :    0.111852
   2 H :   -0.148111
   3 H :   -0.154328
   4 O :   -0.863551
   5 H :   -0.026860
   6 H :   -0.067521
   7 H :   -0.064735
Sum of atomic charges:   -1.0000000

LOEWDIN ATOMIC CHARGES
----------------------
   0 C :    0.055439
   1 C :   -0.271846
   2 H :   -0.036763
   3 H :   -0.040168
   4 O :   -0.549601
   5 H :   -0.066432
   6 H :   -0.045777
   7 H :   -0.044853

  Mayer bond orders larger than 0.100000
B(  0-C ,  1-C ) :   1.2194 B(  0-C ,  2-H ) :   0.1496 B(  0-C ,  3-H ) :   0.1599
B(  0-C ,  4-O ) :   0.3058 B(  0-C ,  5-H ) :   0.9293 B(  0-C ,  6-H ) :   0.9173
B(  0-C ,  7-H ) :   0.9104 B(  1-C ,  2-H ) :   0.9816 B(  1-C ,  3-H ) :   0.9731
B(  1-C ,  4-O ) :   1.0943 B(  1-C ,  5-H ) :   0.1372 B(  1-C ,  6-H ) :   0.1859
B(  1-C ,  7-H ) :   0.1870

Dispersion correction           -0.003761384
FINAL SINGLE POINT ENERGY      -154.134069442610

DIPOLE MOMENT
-------------
                                X             Y             Z
Electronic contribution:      1.51972       0.72155       2.45182
Nuclear contribution   :     -2.24828      -1.06600      -3.62481
                        -----------------------------------------
Total Dipole Moment    :     -0.72855      -0.34445      -1.17299
                        -----------------------------------------
Magnitude (a.u.)       :      1.42315
Magnitude (Debye)      :      3.61735

Rotational constants in cm-1:     1.278116     0.325414     0.286672
Rotational constants in MHz : 38316.964654  9755.653004  8594.216906

                             ****ORCA TERMINATED NORMALLY****
TOTAL RUN TIME: 0 days 0 hours 0 minutes 6 seconds 564 msec
