                         Program Version 5.0.0 -  RELEASE  -
|  1> !PBE D3BJ RIJCOSX def2-SVPD def2/J TightSCF
|  2> *xyz 1 1
|  3> C          3.48828        1.60092       -1.52204
|  4> C          4.34297        1.31342       -2.75683
|  5> N          2.81029        0.42878       -1.01420
|  6> H          2.71455        2.33145       -1.76030
|  7> H          4.09099        2.06315       -0.73338
|  8> C          3.29098       -0.41802       -0.12908
|  9> N          2.51754       -1.43202        0.23936
| 10> N          4.53549       -0.28441        0.39580
| 11> H          5.04363        0.57189        0.22290
| 12> H          4.72335       -0.73327        1.28180
| 13> H          1.93479        0.10230       -1.40379
| 14> H          1.67464       -1.50562       -0.31610
| 15> H          2.92850       -2.21850        0.72549
| 16> H          3.73575        0.86277       -3.51385
| 17> H          5.13754        0.64699       -2.49333
| 18> H          4.75374        2.22930       -3.12740
| 19> *
| 20> %MaxCore 64000
| 21>
| 22> %pal nprocs 4
| 23> end
| 24>
| 25> %scf
| 26>   MaxIter 150
| 27> end
| 28>
| 29>
| 30>                          ****END OF INPUT****

CARTESIAN COORDINATES (ANGSTROEM)
---------------------------------
  C      3.488280    1.600920   -1.522040
  C      4.342970    1.313420   -2.756830
  N      2.810290    0.428780   -1.014200
  H      2.714550    2.331450   -1.760300
  H      4.090990    2.063150   -0.733380
  C      3.290980   -0.418020   -0.129080
  N      2.517540   -1.432020    0.239360
  N      4.535490   -0.284410    0.395800
  H      5.043630    0.571890    0.222900
  H      4.723350   -0.733270    1.281800
  H      1.934790    0.102300   -1.403790
  H      1.674640   -1.505620   -0.316100
  H      2.928500   -2.218500    0.725490
  H      3.735750    0.862770   -3.513850
  H      5.137540    0.646990   -2.493330
  H      4.753740    2.229300   -3.127400

 Total Charge           Charge          ....    1
 Multiplicity           Mult            ....    1
 Number of Electrons    NEL             ....   48
 Basis Dimension        Dim             ....  200

ORBITAL ENERGIES
----------------

  NO   OCC          E(Eh)            E(eV)
   0   2.0000     -14.230085      -387.2203
   1   2.0000     -14.223451      -387.0398
   2   2.0000     -14.221545      -386.9879
   3   2.0000     -10.218234      -278.0523
   4   2.0000     -10.107209      -275.0311
   5   2.0000     -10.034432      -273.0508
   6   2.0000      -1.128780       -30.7157
   7   2.0000      -1.023419       -27.8486
   8   2.0000      -1.010198       -27.4889
   9   2.0000      -0.861861       -23.4524
  10   2.0000      -0.776023       -21.1166
  11   2.0000      -0.749038       -20.3824
  12   2.0000      -0.728606       -19.8264
  13   2.0000      -0.693636       -18.8748
  14   2.0000      -0.645921       -17.5764
  15   2.0000      -0.636648       -17.3241
  16   2.0000      -0.609242       -16.5783
  17   2.0000      -0.591342       -16.0912
  18   2.0000      -0.557688       -15.1755
  19   2.0000      -0.519954       -14.1487
  20   2.0000      -0.490598       -13.3498
  21   2.0000      -0.472050       -12.8451
  22   2.0000      -0.438842       -11.9415
  23   2.0000      -0.416452       -11.3322
  24   0.0000      -0.205624        -5.5953
  25   0.0000      -0.180974        -4.9245
  26   0.0000      -0.149906        -4.0791
  27   0.0000      -0.134281        -3.6540
  28   0.0000      -0.109480        -2.9791

MULLIKEN ATOMIC CHARGES
-----------------------
   0 C :    0.322065
   1 C :    0.694191
   2 N :   -0.404623
   3 H :   -0.293897
   4 H :   -0.076030
   5 C :    1.347553
   6 N :    0.015307
   7 N :    0.020681
   8 H :   -0.051359
   9 H :   -0.152827
  10 H :   -0.261084
  11 H :    0.010389
  12 H :   -0.087186
  13 H :   -0.049453
  14 H :   -0.062805
  15 H :    0.029078
Sum of atomic charges:    1.0000000

LOEWDIN ATOMIC CHARGES
----------------------
   0 C :    0.038154
   1 C :    0.165072
   2 N :    0.049942
   3 H :    0.043627
   4 H :    0.030230
   5 C :   -0.054629
   6 N :    0.274922
   7 N :    0.295209
   8 H :    0.006585
   9 H :    0.032986
  10 H :    0.057225
  11 H :    0.031344
  12 H :    0.043483
  13 H :   -0.004413
  14 H :   -0.014020
  15 H :    0.004283

  Mayer bond orders larger than 0.100000
B(  0-C ,  1-C ) :   1.2960 B(  0-C ,  2-N ) :   0.9695 B(  0-C ,  3-H ) :   0.8868
B(  0-C ,  4-H ) :   0.8364 B(  0-C , 10-H ) :  -0.2184 B(  0-C , 13-H ) :   0.2457
B(  0-C , 14-H ) :   0.2058 B(  0-C , 15-H ) :   0.1688 B(  1-C , 13-H ) :   0.7891
B(  1-C , 14-H ) :   0.8179 B(  1-C , 15-H ) :   0.7925 B(  2-N ,  3-H ) :   0.1881
B(  2-N ,  4-H ) :   0.1516 B(  2-N ,  5-C ) :   0.9596 B(  2-N ,  6-N ) :   0.3049
B(  2-N ,  7-N ) :   0.2401 B(  2-N , 10-H ) :   1.3386 B(  5-C ,  6-N ) :   0.8825
B(  5-C ,  7-N ) :   0.8996 B(  5-C ,  8-H ) :  -0.1147 B(  5-C ,  9-H ) :  -0.1499
B(  5-C , 10-H ) :  -0.2842 B(  5-C , 12-H ) :  -0.1056 B(  6-N ,  7-N ) :   0.1791
B(  6-N , 11-H ) :   1.0589 B(  6-N , 12-H ) :   1.1897 B(  7-N ,  8-H ) :   1.0295
B(  7-N ,  9-H ) :   1.2632 B(  8-H ,  9-H ) :  -0.1698 B( 11-H , 12-H ) :  -0.1459

Dispersion correction           -0.012363355
FINAL SINGLE POINT ENERGY      -283.862080062023

DIPOLE MOMENT
-------------
                                X             Y             Z
Electronic contribution:     -1.92057      -2.99146       3.72106
Nuclear contribution   :      1.59382       2.33278      -3.02574
                        -----------------------------------------
Total Dipole Moment    :     -0.32675      -0.65868       0.69532
                        -----------------------------------------
Magnitude (a.u.)       :      1.01198
Magnitude (Debye)      :      2.57225

Rotational constants in cm-1:     0.232230     0.073139     0.063030
Rotational constants in MHz :  6962.079716  2192.649203  1889.578947

                             ****ORCA TERMINATED NORMALLY****
TOTAL RUN TIME: 0 days 0 hours 0 minutes 12 seconds 738 msec
