                         Program Version 5.0.0 -  RELEASE  -
|  1> !PBE D3BJ RIJCOSX def2-SVPD def2/J TightSCF
|  2> *xyz 0 1
|  3> C         -0.72184       -0.99951       -3.43931
|  4> C          0.28725       -1.71177       -2.52740
|  5> H          1.13178       -2.06738       -3.15940
|  6> H         -0.20414       -2.63733       -2.17048
|  7> F          0.71050       -0.92751       -1.48177
|  8> H         -1.01315       -1.65739       -4.23129
|  9> H         -0.27123       -0.12142       -3.85259
| 10> H         -1.58442       -0.72333       -2.86958
| 11> *
| 12> %MaxCore 64000
| 13>
| 14> %pal nprocs 4
| 15> end
| 16>
| 17> %scf
| 18>   MaxIter 150
| 19> end
| 20>
| 21>
| 22>                          ****END OF INPUT****

CARTESIAN COORDINATES (ANGSTROEM)
---------------------------------
  C     -0.721840   -0.999510   -3.439310
  C      0.287250   -1.711770   -2.527400
  H      1.131780   -2.067380   -3.159400
  H     -0.204140   -2.637330   -2.170480
  F      0.710500   -0.927510   -1.481770
  H     -1.013150   -1.657390   -4.231290
  H     -0.271230   -0.121420   -3.852590
  H     -1.584420   -0.723330   -2.869580

 Total Charge           Charge          ....    0
 Multiplicity           Mult            ....    1
 Number of Electrons    NEL             ....   26
 Basis Dimension        Dim             ....  103

ORBITAL ENERGIES
----------------

  NO   OCC          E(Eh)            E(eV)
   0   2.0000     -24.264422      -660.2685
   1   2.0000      -9.974338      -271.4155
   2   2.0000      -9.893457      -269.2147
   3   2.0000      -1.084361       -29.5070
   4   2.0000      -0.689603       -18.7651
   5   2.0000      -0.565062       -15.3761
   6   2.0000      -0.458153       -12.4670
   7   2.0000      -0.441314       -12.0088
   8   2.0000      -0.405374       -11.0308
   9   2.0000      -0.356906        -9.7119
  10   2.0000      -0.355449        -9.6723
  11   2.0000      -0.291154        -7.9227
  12   2.0000      -0.284390        -7.7386
  13   0.0000       0.005064         0.1378
  14   0.0000       0.037073         1.0088
  15   0.0000       0.049748         1.3537
  16   0.0000       0.061078         1.6620
  17   0.0000       0.083791         2.2801

MULLIKEN ATOMIC CHARGES
-----------------------
   0 C :    0.348929
   1 C :    0.394872
   2 H :   -0.070099
   3 H :   -0.078544
   4 F :   -0.419128
   5 H :   -0.042339
   6 H :   -0.068841
   7 H :   -0.064850
Sum of atomic charges:    0.0000000

LOEWDIN ATOMIC CHARGES
----------------------
   0 C :    0.134156
   1 C :    0.047270
   2 H :    0.031692
   3 H :    0.027257
   4 F :   -0.198229
   5 H :   -0.012738
   6 H :   -0.015023
   7 H :   -0.014386

  Mayer bond orders larger than 0.100000
B(  0-C ,  1-C ) :   1.3761 B(  0-C ,  5-H ) :   0.8516 B(  0-C ,  6-H ) :   0.8846
B(  0-C ,  7-H ) :   0.8798 B(  1-C ,  2-H ) :   0.9331 B(  1-C ,  3-H ) :   0.9294
B(  1-C ,  4-F ) :   0.7785 B(  1-C ,  5-H ) :   0.1281 B(  1-C ,  6-H ) :   0.1486
B(  1-C ,  7-H ) :   0.1511

Dispersion correction           -0.003480207
FINAL SINGLE POINT ENERGY      -178.727738053885

DIPOLE MOMENT
-------------
                                X             Y             Z
Electronic contribution:      2.70402       1.05966       4.23415
Nuclear contribution   :     -2.97459      -1.40206      -4.79987
                        -----------------------------------------
Total Dipole Moment    :     -0.27057      -0.34240      -0.56572
                        -----------------------------------------
Magnitude (a.u.)       :      0.71448
Magnitude (Debye)      :      1.81607

Rotational constants in cm-1:     1.257024     0.302702     0.267953
Rotational constants in MHz : 37684.643733  9074.792567  8033.038070

                             ****ORCA TERMINATED NORMALLY****
TOTAL RUN TIME: 0 days 0 hours 0 minutes 6 seconds 528 msec
