                         Program Version 5.0.0 -  RELEASE  -
|  1> !PBE D3BJ RIJCOSX def2-SVPD def2/J TightSCF
|  2> *xyz 0 1
|  3> C          3.48828        1.60092       -1.52204
|  4> C          4.34297        1.31342       -2.75683
|  5> C          2.81029        0.42878       -1.01420
|  6> H          2.71455        2.33145       -1.76030
|  7> H          4.09099        2.06315       -0.73338
|  8> C          3.29098       -0.41802       -0.12908
|  9> N          2.51754       -1.43202        0.23936
| 10> N          4.53549       -0.28441        0.39580
| 11> H          5.04363        0.57189        0.22290
| 12> H          4.72335       -0.73327        1.28180
| 13> H          1.93479        0.10230       -1.40379
| 14> H          1.67464       -1.50562       -0.31610
| 15> H          2.92850       -2.21850        0.72549
| 16> H          3.73575        0.86277       -3.51385
| 17> H          5.13754        0.64699       -2.49333
| 18> H          4.75374        2.22930       -3.12740
| 19> *
| 20> %MaxCore 64000
| 21>
| 22> %pal nprocs 4
| 23> end
| 24>
| 25> %scf
| 26>   MaxIter 150
| 27> end
| 28>
| 29>
| 30>                          ****END OF INPUT****

CARTESIAN COORDINATES (ANGSTROEM)
---------------------------------
  C      3.488280    1.600920   -1.522040
  C      4.342970    1.313420   -2.756830
  C      2.810290    0.428780   -1.014200
  H      2.714550    2.331450   -1.760300
  H      4.090990    2.063150   -0.733380
  C      3.290980   -0.418020   -0.129080
  N      2.517540   -1.432020    0.239360
  N      4.535490   -0.284410    0.395800
  H      5.043630    0.571890    0.222900
  H      4.723350   -0.733270    1.281800
  H      1.934790    0.102300   -1.403790
  H      1.674640   -1.505620   -0.316100
  H      2.928500   -2.218500    0.725490
  H      3.735750    0.862770   -3.513850
  H      5.137540    0.646990   -2.493330
  H      4.753740    2.229300   -3.127400

 Total Charge           Charge          ....    0
 Multiplicity           Mult            ....    1
 Number of Electrons    NEL             ....   48
 Basis Dimension        Dim             ....  200

ORBITAL ENERGIES
----------------

  NO   OCC          E(Eh)            E(eV)
   0   2.0000     -14.002272      -381.0212
   1   2.0000     -13.997867      -380.9013
   2   2.0000      -9.930220      -270.2150
   3   2.0000      -9.875068      -268.7143
   4   2.0000      -9.862677      -268.3771
   5   2.0000      -9.822773      -267.2912
   6   2.0000      -0.870655       -23.6917
   7   2.0000      -0.788038       -21.4436
   8   2.0000      -0.697689       -18.9851
   9   2.0000      -0.623589       -16.9687
  10   2.0000      -0.550642       -14.9837
  11   2.0000      -0.524721       -14.2784
  12   2.0000      -0.487363       -13.2618
  13   2.0000      -0.457479       -12.4486
  14   2.0000      -0.421280       -11.4636
  15   2.0000      -0.392525       -10.6811
  16   2.0000      -0.371727       -10.1152
  17   2.0000      -0.350597        -9.5402
  18   2.0000      -0.336998        -9.1702
  19   2.0000      -0.312076        -8.4920
  20   2.0000      -0.291494        -7.9320
  21   2.0000      -0.279291        -7.5999
  22   2.0000      -0.224053        -6.0968
  23   2.0000      -0.134228        -3.6525
  24   0.0000      -0.005789        -0.1575
  25   0.0000       0.020593         0.5604
  26   0.0000       0.026792         0.7291
  27   0.0000       0.039594         1.0774
  28   0.0000       0.057038         1.5521

MULLIKEN ATOMIC CHARGES
-----------------------
   0 C :   -0.174154
   1 C :    0.644619
   2 C :   -0.304058
   3 H :   -0.066216
   4 H :   -0.056086
   5 C :    0.749223
   6 N :   -0.001114
   7 N :   -0.020418
   8 H :   -0.026301
   9 H :   -0.254151
  10 H :   -0.237682
  11 H :    0.063666
  12 H :   -0.204651
  13 H :   -0.045120
  14 H :   -0.064526
  15 H :   -0.003033
Sum of atomic charges:   -0.0000000

LOEWDIN ATOMIC CHARGES
----------------------
   0 C :   -0.101380
   1 C :    0.120902
   2 C :   -0.037392
   3 H :    0.014825
   4 H :    0.006265
   5 C :   -0.234094
   6 N :    0.185884
   7 N :    0.216414
   8 H :   -0.024117
   9 H :   -0.018343
  10 H :   -0.046585
  11 H :   -0.001649
  12 H :   -0.010112
  13 H :   -0.018620
  14 H :   -0.024544
  15 H :   -0.027456

  Mayer bond orders larger than 0.100000
B(  0-C ,  1-C ) :   1.2562 B(  0-C ,  2-C ) :   1.2504 B(  0-C ,  3-H ) :   0.8380
B(  0-C ,  4-H ) :   0.8234 B(  0-C , 10-H ) :   0.2485 B(  0-C , 13-H ) :   0.2390
B(  0-C , 14-H ) :   0.2178 B(  0-C , 15-H ) :   0.1703 B(  1-C , 13-H ) :   0.8167
B(  1-C , 14-H ) :   0.8257 B(  1-C , 15-H ) :   0.8099 B(  2-C ,  3-H ) :   0.2282
B(  2-C ,  4-H ) :   0.2644 B(  2-C ,  5-C ) :   1.5819 B(  2-C ,  6-N ) :   0.3660
B(  2-C ,  7-N ) :   0.2019 B(  2-C ,  8-H ) :  -0.1102 B(  2-C , 10-H ) :   0.9092
B(  5-C ,  6-N ) :   0.8402 B(  5-C ,  7-N ) :   0.8899 B(  5-C ,  9-H ) :  -0.1012
B(  5-C , 10-H ) :   0.2370 B(  6-N ,  7-N ) :   0.1426 B(  6-N , 11-H ) :   1.0163
B(  6-N , 12-H ) :   1.2078 B(  7-N ,  8-H ) :   0.9894 B(  7-N ,  9-H ) :   1.2731
B(  8-H ,  9-H ) :  -0.1449 B( 11-H , 12-H ) :  -0.1420

Dispersion correction           -0.012821481
FINAL SINGLE POINT ENERGY      -267.400076897791

DIPOLE MOMENT
-------------
                                X             Y             Z
Electronic contribution:     -1.28670      -2.93105       3.65436
Nuclear contribution   :      1.44676       2.38443      -3.07370
                        -----------------------------------------
Total Dipole Moment    :      0.16006      -0.54662       0.58066
                        -----------------------------------------
Magnitude (a.u.)       :      0.81338
Magnitude (Debye)      :      2.06744

Rotational constants in cm-1:     0.235977     0.073199     0.063283
Rotational constants in MHz :  7074.404583  2194.453291  1897.179599

                             ****ORCA TERMINATED NORMALLY****
TOTAL RUN TIME: 0 days 0 hours 0 minutes 13 seconds 63 msec
