                         Program Version 5.0.0 -  RELEASE  -
|  1> !PBE D3BJ RIJCOSX def2-SVPD def2/J TightSCF
|  2> *xyz 0 1
|  3> C          3.48828        1.60092       -1.52204
|  4> C          4.34297        1.31342       -2.75683
|  5> N          2.81029        0.42878       -1.01420
|  6> H          2.71455        2.33145       -1.76030
|  7> H          4.09099        2.06315       -0.73338
|  8> C          3.29098       -0.41802       -0.12908
|  9> C          2.51754       -1.43202        0.23936
| 10> N          4.53549       -0.28441        0.39580
| 11> H          5.04363        0.57189        0.22290
| 12> H          4.72335       -0.73327        1.28180
| 13> H          1.93479        0.10230       -1.40379
| 14> H          1.67464       -1.50562       -0.31610
| 15> H          2.92850       -2.21850        0.72549
| 16> H          3.73575        0.86277       -3.51385
| 17> H          5.13754        0.64699       -2.49333
| 18> H          4.75374        2.22930       -3.12740
| 19> *
| 20> %MaxCore 64000
| 21>
| 22> %pal nprocs 4
| 23> end
| 24>
| 25> %scf
| 26>   MaxIter 150
| 27> end
| 28>
| 29>
| 30>                          ****END OF INPUT****

CARTESIAN COORDINATES (ANGSTROEM)
---------------------------------
  C      3.488280    1.600920   -1.522040
  C      4.342970    1.313420   -2.756830
  N      2.810290    0.428780   -1.014200
  H      2.714550    2.331450   -1.760300
  H      4.090990    2.063150   -0.733380
  C      3.290980   -0.418020   -0.129080
  C      2.517540   -1.432020    0.239360
  N      4.535490   -0.284410    0.395800
  H      5.043630    0.571890    0.222900
  H      4.723350   -0.733270    1.281800
  H      1.934790    0.102300   -1.403790
  H      1.674640   -1.505620   -0.316100
  H      2.928500   -2.218500    0.725490
  H      3.735750    0.862770   -3.513850
  H      5.137540    0.646990   -2.493330
  H      4.753740    2.229300   -3.127400

 Total Charge           Charge          ....    0
 Multiplicity           Mult            ....    1
 Number of Electrons    NEL             ....   48
 Basis Dimension        Dim             ....  200

ORBITAL ENERGIES
----------------

  NO   OCC          E(Eh)            E(eV)
   0   2.0000     -14.003953      -381.0669
   1   2.0000     -14.001259      -380.9936
   2   2.0000      -9.938799      -270.4485
   3   2.0000      -9.933053      -270.2921
   4   2.0000      -9.887805      -269.0609
   5   2.0000      -9.807204      -266.8676
   6   2.0000      -0.881119       -23.9765
   7   2.0000      -0.800175       -21.7739
   8   2.0000      -0.700882       -19.0720
   9   2.0000      -0.629470       -17.1287
  10   2.0000      -0.564848       -15.3703
  11   2.0000      -0.542334       -14.7577
  12   2.0000      -0.485059       -13.1991
  13   2.0000      -0.450085       -12.2474
  14   2.0000      -0.432540       -11.7700
  15   2.0000      -0.394992       -10.7483
  16   2.0000      -0.384087       -10.4515
  17   2.0000      -0.358339        -9.7509
  18   2.0000      -0.333255        -9.0683
  19   2.0000      -0.329925        -8.9777
  20   2.0000      -0.320353        -8.7173
  21   2.0000      -0.314639        -8.5618
  22   2.0000      -0.218083        -5.9343
  23   2.0000      -0.131898        -3.5891
  24   0.0000      -0.008774        -0.2387
  25   0.0000       0.018486         0.5030
  26   0.0000       0.022748         0.6190
  27   0.0000       0.034706         0.9444
  28   0.0000       0.047675         1.2973

MULLIKEN ATOMIC CHARGES
-----------------------
   0 C :    0.326224
   1 C :    0.675203
   2 N :   -0.260432
   3 H :   -0.354450
   4 H :   -0.109801
   5 C :    0.635832
   6 C :    0.458209
   7 N :    0.072570
   8 H :   -0.174606
   9 H :   -0.152792
  10 H :   -0.309528
  11 H :   -0.213053
  12 H :   -0.434448
  13 H :   -0.076312
  14 H :   -0.072612
  15 H :   -0.010004
Sum of atomic charges:    0.0000000

LOEWDIN ATOMIC CHARGES
----------------------
   0 C :    0.006198
   1 C :    0.134356
   2 N :   -0.010568
   3 H :    0.018241
   4 H :    0.011639
   5 C :   -0.244235
   6 C :    0.138442
   7 N :    0.214839
   8 H :   -0.038412
   9 H :    0.000574
  10 H :    0.030948
  11 H :   -0.103719
  12 H :   -0.096900
  13 H :   -0.017862
  14 H :   -0.022575
  15 H :   -0.020966

  Mayer bond orders larger than 0.100000
B(  0-C ,  1-C ) :   1.2685 B(  0-C ,  2-N ) :   0.9502 B(  0-C ,  3-H ) :   0.8932
B(  0-C ,  4-H ) :   0.8454 B(  0-C , 10-H ) :  -0.2380 B(  0-C , 13-H ) :   0.2591
B(  0-C , 14-H ) :   0.2159 B(  0-C , 15-H ) :   0.1825 B(  1-C , 13-H ) :   0.7900
B(  1-C , 14-H ) :   0.8201 B(  1-C , 15-H ) :   0.8098 B(  2-N ,  3-H ) :   0.1921
B(  2-N ,  4-H ) :   0.1565 B(  2-N ,  5-C ) :   1.0443 B(  2-N ,  6-C ) :   0.2908
B(  2-N ,  7-N ) :   0.1492 B(  2-N , 10-H ) :   1.2832 B(  5-C ,  6-C ) :   1.5634
B(  5-C ,  7-N ) :   0.8441 B(  5-C ,  9-H ) :  -0.1222 B(  5-C , 10-H ) :  -0.2169
B(  5-C , 11-H ) :   0.2592 B(  5-C , 12-H ) :   0.2123 B(  6-C ,  7-N ) :   0.2450
B(  6-C , 11-H ) :   0.7819 B(  6-C , 12-H ) :   0.7261 B(  7-N ,  8-H ) :   1.0266
B(  7-N ,  9-H ) :   1.2197 B(  8-H ,  9-H ) :  -0.1560

Dispersion correction           -0.012710156
FINAL SINGLE POINT ENERGY      -267.386811363516

DIPOLE MOMENT
-------------
                                X             Y             Z
Electronic contribution:     -0.88812      -1.07763       2.43549
Nuclear contribution   :      1.38466       1.98967      -2.80776
                        -----------------------------------------
Total Dipole Moment    :      0.49654       0.91204      -0.37227
                        -----------------------------------------
Magnitude (a.u.)       :      1.10315
Magnitude (Debye)      :      2.80400

Rotational constants in cm-1:     0.235618     0.075969     0.065309
Rotational constants in MHz :  7063.646698  2277.495424  1957.925383

                             ****ORCA TERMINATED NORMALLY****
TOTAL RUN TIME: 0 days 0 hours 0 minutes 13 seconds 688 msec
