                         Program Version 5.0.0 -  RELEASE  -
|  1> !PBE D3BJ RIJCOSX def2-SVPD def2/J TightSCF
|  2> *xyz 0 1
|  3> C          3.48828        1.60092       -1.52204
|  4> C          4.34297        1.31342       -2.75683
|  5> N          2.81029        0.42878       -1.01420
|  6> H          2.71455        2.33145       -1.76030
|  7> H          4.09099        2.06315       -0.73338
|  8> C          3.29098       -0.41802       -0.12908
|  9> N          2.51754       -1.43202        0.23936
| 10> C          4.53549       -0.28441        0.39580
| 11> H          5.04363        0.57189        0.22290
| 12> H          4.72335       -0.73327        1.28180
| 13> H          1.93479        0.10230       -1.40379
| 14> H          1.67464       -1.50562       -0.31610
| 15> H          2.92850       -2.21850        0.72549
| 16> H          3.73575        0.86277       -3.51385
| 17> H          5.13754        0.64699       -2.49333
| 18> H          4.75374        2.22930       -3.12740
| 19> *
| 20> %MaxCore 64000
| 21>
| 22> %pal nprocs 4
| 23> end
| 24>
| 25> %scf
| 26>   MaxIter 150
| 27> end
| 28>
| 29>
| 30>                          ****END OF INPUT****

CARTESIAN COORDINATES (ANGSTROEM)
---------------------------------
  C      3.488280    1.600920   -1.522040
  C      4.342970    1.313420   -2.756830
  N      2.810290    0.428780   -1.014200
  H      2.714550    2.331450   -1.760300
  H      4.090990    2.063150   -0.733380
  C      3.290980   -0.418020   -0.129080
  N      2.517540   -1.432020    0.239360
  C      4.535490   -0.284410    0.395800
  H      5.043630    0.571890    0.222900
  H      4.723350   -0.733270    1.281800
  H      1.934790    0.102300   -1.403790
  H      1.674640   -1.505620   -0.316100
  H      2.928500   -2.218500    0.725490
  H      3.735750    0.862770   -3.513850
  H      5.137540    0.646990   -2.493330
  H      4.753740    2.229300   -3.127400

 Total Charge           Charge          ....    0
 Multiplicity           Mult            ....    1
 Number of Electrons    NEL             ....   48
 Basis Dimension        Dim             ....  200

ORBITAL ENERGIES
----------------

  NO   OCC          E(Eh)            E(eV)
   0   2.0000     -14.009745      -381.2245
   1   2.0000     -14.003287      -381.0488
   2   2.0000      -9.935541      -270.3598
   3   2.0000      -9.931312      -270.2447
   4   2.0000      -9.880361      -268.8583
   5   2.0000      -9.809255      -266.9234
   6   2.0000      -0.889809       -24.2129
   7   2.0000      -0.805429       -21.9168
   8   2.0000      -0.682233       -18.5645
   9   2.0000      -0.633389       -17.2354
  10   2.0000      -0.580452       -15.7949
  11   2.0000      -0.506973       -13.7954
  12   2.0000      -0.492639       -13.4054
  13   2.0000      -0.476972       -12.9791
  14   2.0000      -0.423317       -11.5190
  15   2.0000      -0.393663       -10.7121
  16   2.0000      -0.380157       -10.3446
  17   2.0000      -0.349764        -9.5176
  18   2.0000      -0.335538        -9.1304
  19   2.0000      -0.324848        -8.8395
  20   2.0000      -0.316216        -8.6047
  21   2.0000      -0.305763        -8.3202
  22   2.0000      -0.213062        -5.7977
  23   2.0000      -0.135779        -3.6947
  24   0.0000      -0.011780        -0.3206
  25   0.0000       0.017050         0.4639
  26   0.0000       0.026868         0.7311
  27   0.0000       0.034759         0.9458
  28   0.0000       0.054122         1.4727

MULLIKEN ATOMIC CHARGES
-----------------------
   0 C :    0.320942
   1 C :    0.684452
   2 N :   -0.404678
   3 H :   -0.338878
   4 H :    0.019445
   5 C :    0.664008
   6 N :    0.064963
   7 C :    0.439663
   8 H :   -0.159112
   9 H :   -0.512901
  10 H :   -0.377358
  11 H :   -0.133989
  12 H :   -0.080890
  13 H :   -0.083047
  14 H :   -0.090308
  15 H :   -0.012312
Sum of atomic charges:   -0.0000000

LOEWDIN ATOMIC CHARGES
----------------------
   0 C :    0.014427
   1 C :    0.138772
   2 N :   -0.013154
   3 H :    0.018201
   4 H :    0.019780
   5 C :   -0.251884
   6 N :    0.197405
   7 C :    0.161532
   8 H :   -0.126760
   9 H :   -0.107907
  10 H :    0.017327
  11 H :   -0.017437
  12 H :    0.011023
  13 H :   -0.021565
  14 H :   -0.020270
  15 H :   -0.019491

  Mayer bond orders larger than 0.100000
B(  0-C ,  1-C ) :   1.2521 B(  0-C ,  2-N ) :   0.9511 B(  0-C ,  3-H ) :   0.9232
B(  0-C ,  4-H ) :   0.8199 B(  0-C , 10-H ) :  -0.2146 B(  0-C , 13-H ) :   0.2289
B(  0-C , 14-H ) :   0.2138 B(  0-C , 15-H ) :   0.1792 B(  1-C , 13-H ) :   0.8048
B(  1-C , 14-H ) :   0.8282 B(  1-C , 15-H ) :   0.8115 B(  2-N ,  3-H ) :   0.1704
B(  2-N ,  4-H ) :   0.1383 B(  2-N ,  5-C ) :   0.8716 B(  2-N ,  6-N ) :   0.2026
B(  2-N ,  7-C ) :   0.4268 B(  2-N , 10-H ) :   1.3973 B(  5-C ,  6-N ) :   0.8448
B(  5-C ,  7-C ) :   1.6619 B(  5-C ,  8-H ) :   0.3130 B(  5-C ,  9-H ) :   0.1942
B(  5-C , 10-H ) :  -0.2957 B(  6-N ,  7-C ) :   0.3103 B(  6-N , 11-H ) :   1.0811
B(  6-N , 12-H ) :   1.1707 B(  7-C ,  8-H ) :   0.6385 B(  7-C ,  9-H ) :   0.7867
B(  8-H ,  9-H ) :   0.1473 B( 11-H , 12-H ) :  -0.1357

Dispersion correction           -0.012783879
FINAL SINGLE POINT ENERGY      -267.387319560490

DIPOLE MOMENT
-------------
                                X             Y             Z
Electronic contribution:     -2.79724      -2.29623       2.21308
Nuclear contribution   :      1.81275       2.23313      -2.77458
                        -----------------------------------------
Total Dipole Moment    :     -0.98449      -0.06310      -0.56150
                        -----------------------------------------
Magnitude (a.u.)       :      1.13511
Magnitude (Debye)      :      2.88522

Rotational constants in cm-1:     0.245202     0.073668     0.064348
Rotational constants in MHz :  7350.977980  2208.513334  1929.108541

                             ****ORCA TERMINATED NORMALLY****
TOTAL RUN TIME: 0 days 0 hours 0 minutes 13 seconds 450 msec
