                         Program Version 5.0.0 -  RELEASE  -
|  1> !wB97X-D3 RIJCOSX def2-TZVP def2/J TightSCF
|  2> *xyz -1 1
|  3> C          3.93993        0.32036       -4.36773
|  4> C          5.10585        0.66802       -5.30546
|  5> O          4.80913        1.15019       -6.41436
|  6> O          6.26737        0.56500       -4.81948
|  7> H          3.01376        0.44480       -4.88890
|  8> H          3.96058        0.96928       -3.51722
|  9> H          4.03331       -0.69517       -4.04388
| 10> *
| 11>
| 12> %MaxCore 64000
| 13>
| 14> %pal nprocs 18
| 15> end
| 16>
| 17> %scf
| 18>   MaxIter 150
| 19> end
| 20>
| 21>
| 22>                          ****END OF INPUT****

CARTESIAN COORDINATES (ANGSTROEM)
---------------------------------
  C      3.939930    0.320360   -4.367730
  C      5.105850    0.668020   -5.305460
  O      4.809130    1.150190   -6.414360
  O      6.267370    0.565000   -4.819480
  H      3.013760    0.444800   -4.888900
  H      3.960580    0.969280   -3.517220
  H      4.033310   -0.695170   -4.043880

 Total Charge           Charge          ....   -1
 Multiplicity           Mult            ....    1
 Number of Electrons    NEL             ....   32
 Basis Dimension        Dim             ....  142

ORBITAL ENERGIES
----------------

  NO   OCC          E(Eh)            E(eV)
   0   2.0000     -18.950176      -515.6605
   1   2.0000     -18.945314      -515.5282
   2   2.0000     -10.147604      -276.1303
   3   2.0000     -10.077598      -274.2254
   4   2.0000      -0.923016       -25.1165
   5   2.0000      -0.828678       -22.5495
   6   2.0000      -0.650547       -17.7023
   7   2.0000      -0.401060       -10.9134
   8   2.0000      -0.353038        -9.6067
   9   2.0000      -0.338697        -9.2164
  10   2.0000      -0.316933        -8.6242
  11   2.0000      -0.273503        -7.4424
  12   2.0000      -0.254041        -6.9128
  13   2.0000      -0.128533        -3.4976
  14   2.0000      -0.122485        -3.3330
  15   2.0000      -0.111105        -3.0233
  16   0.0000       0.286583         7.7983
  17   0.0000       0.331514         9.0209
  18   0.0000       0.358054         9.7432
  19   0.0000       0.385446        10.4885
  20   0.0000       0.393806        10.7160

MULLIKEN ATOMIC CHARGES
-----------------------
   0 C :   -0.308869
   1 C :    0.277365
   2 O :   -0.559820
   3 O :   -0.588776
   4 H :    0.058331
   5 H :    0.064524
   6 H :    0.057245
Sum of atomic charges:   -1.0000000

LOEWDIN ATOMIC CHARGES
----------------------
   0 C :   -0.326913
   1 C :   -0.716517
   2 O :   -0.112224
   3 O :   -0.145186
   4 H :    0.097374
   5 H :    0.103358
   6 H :    0.100108

  Mayer bond orders larger than 0.100000
B(  0-C ,  1-C ) :   0.9278 B(  0-C ,  4-H ) :   0.9739 B(  0-C ,  5-H ) :   0.9725
B(  0-C ,  6-H ) :   0.9721 B(  1-C ,  2-O ) :   1.8533 B(  1-C ,  3-O ) :   1.8187

Dispersion correction           -0.000905523
FINAL SINGLE POINT ENERGY      -228.547184021914

DIPOLE MOMENT
-------------
                                X             Y             Z
Electronic contribution:      2.75218       0.87315      -2.24355
Nuclear contribution   :     -3.81330      -1.22874       3.01208
                        -----------------------------------------
Total Dipole Moment    :     -1.06112      -0.35559       0.76853
                        -----------------------------------------
Magnitude (a.u.)       :      1.35759
Magnitude (Debye)      :      3.45072

Rotational constants in cm-1:     0.390282     0.335702     0.186718
Rotational constants in MHz : 11700.346989 10064.094211  5597.661196

                             ****ORCA TERMINATED NORMALLY****
TOTAL RUN TIME: 0 days 0 hours 0 minutes 6 seconds 441 msec
