                         Program Version 5.0.0 -  RELEASE  -
|  1> !wB97X-D3 RIJCOSX def2-TZVP def2/J TightSCF
|  2> *xyz 1 1
|  3> C          3.90595        2.81985       -3.75292
|  4> N          5.29562        3.13151       -4.10533
|  5> C          5.70862        3.46889       -5.32419
|  6> N          6.90470        3.03895       -5.71708
|  7> N          4.98188        4.29357       -6.09746
|  8> H          5.00055        4.10131       -7.08776
|  9> H          4.08469        4.59690       -5.73965
| 10> H          5.96336        2.52611       -3.64239
| 11> H          7.04716        2.06686       -5.47360
| 12> H          7.19815        3.30799       -6.64523
| 13> H          3.24866        3.48801       -4.26909
| 14> H          3.77188        2.93227       -2.69732
| 15> H          3.68381        1.81198       -4.03533
| 16> *
| 17>
| 18> %MaxCore 64000
| 19>
| 20> %pal nprocs 18
| 21> end
| 22>
| 23> %scf
| 24>   MaxIter 150
| 25> end
| 26>
| 27>
| 28>                          ****END OF INPUT****

CARTESIAN COORDINATES (ANGSTROEM)
---------------------------------
  C      3.905950    2.819850   -3.752920
  N      5.295620    3.131510   -4.105330
  C      5.708620    3.468890   -5.324190
  N      6.904700    3.038950   -5.717080
  N      4.981880    4.293570   -6.097460
  H      5.000550    4.101310   -7.087760
  H      4.084690    4.596900   -5.739650
  H      5.963360    2.526110   -3.642390
  H      7.047160    2.066860   -5.473600
  H      7.198150    3.307990   -6.645230
  H      3.248660    3.488010   -4.269090
  H      3.771880    2.932270   -2.697320
  H      3.683810    1.811980   -4.035330

 Total Charge           Charge          ....    1
 Multiplicity           Mult            ....    1
 Number of Electrons    NEL             ....   40
 Basis Dimension        Dim             ....  203

ORBITAL ENERGIES
----------------

  NO   OCC          E(Eh)            E(eV)
   0   2.0000     -14.656305      -398.8183
   1   2.0000     -14.652497      -398.7147
   2   2.0000     -14.652265      -398.7084
   3   2.0000     -10.621003      -289.0122
   4   2.0000     -10.482969      -285.2561
   5   2.0000      -1.345587       -36.6153
   6   2.0000      -1.229227       -33.4490
   7   2.0000      -1.221441       -33.2371
   8   2.0000      -1.023800       -27.8590
   9   2.0000      -0.935419       -25.4540
  10   2.0000      -0.887807       -24.1585
  11   2.0000      -0.862753       -23.4767
  12   2.0000      -0.808160       -21.9911
  13   2.0000      -0.791393       -21.5349
  14   2.0000      -0.747776       -20.3480
  15   2.0000      -0.742374       -20.2010
  16   2.0000      -0.688853       -18.7446
  17   2.0000      -0.680428       -18.5154
  18   2.0000      -0.590001       -16.0548
  19   2.0000      -0.560686       -15.2570
  20   0.0000      -0.115453        -3.1416
  21   0.0000      -0.075366        -2.0508
  22   0.0000      -0.035888        -0.9766
  23   0.0000      -0.026001        -0.7075
  24   0.0000      -0.001174        -0.0319

MULLIKEN ATOMIC CHARGES
-----------------------
   0 C :   -0.239012
   1 N :   -0.282795
   2 C :    0.454866
   3 N :   -0.418320
   4 N :   -0.431029
   5 H :    0.298322
   6 H :    0.287060
   7 H :    0.265395
   8 H :    0.294151
   9 H :    0.293051
  10 H :    0.118652
  11 H :    0.188063
  12 H :    0.171597
Sum of atomic charges:    1.0000000

LOEWDIN ATOMIC CHARGES
----------------------
   0 C :   -0.253486
   1 N :    0.142344
   2 C :   -0.404086
   3 N :    0.061385
   4 N :    0.061893
   5 H :    0.199265
   6 H :    0.196044
   7 H :    0.213005
   8 H :    0.203684
   9 H :    0.200048
  10 H :    0.118945
  11 H :    0.135065
  12 H :    0.125895

  Mayer bond orders larger than 0.100000
B(  0-C ,  1-N ) :   0.8873 B(  0-C , 10-H ) :   0.9736 B(  0-C , 11-H ) :   0.9579
B(  0-C , 12-H ) :   0.9639 B(  1-N ,  2-C ) :   1.3777 B(  1-N ,  7-H ) :   0.9018
B(  2-C ,  3-N ) :   1.3137 B(  2-C ,  4-N ) :   1.3198 B(  3-N ,  8-H ) :   0.8855
B(  3-N ,  9-H ) :   0.8921 B(  4-N ,  5-H ) :   0.8830 B(  4-N ,  6-H ) :   0.8971

Dispersion correction           -0.002448326
FINAL SINGLE POINT ENERGY      -245.096528613105

DIPOLE MOMENT
-------------
                                X             Y             Z
Electronic contribution:      2.50380       1.05510      -1.22119
Nuclear contribution   :     -2.62204      -1.73043       0.52001
                        -----------------------------------------
Total Dipole Moment    :     -0.11824      -0.67533      -0.70118
                        -----------------------------------------
Magnitude (a.u.)       :      0.98066
Magnitude (Debye)      :      2.49265

Rotational constants in cm-1:     0.299316     0.133886     0.097604
Rotational constants in MHz :  8973.254382  4013.798371  2926.103660

                             ****ORCA TERMINATED NORMALLY****
TOTAL RUN TIME: 0 days 0 hours 0 minutes 10 seconds 676 msec
