                         Program Version 5.0.0 -  RELEASE  -
|  1> !wB97X-D3 RIJCOSX def2-TZVP def2/J TightSCF xyzfile
|  2>
|  3> *xyzfile 0 1 B.xyz
|  4>
|  5> %MaxCore 64000
|  6>
|  7> %pal nprocs 18
|  8> end
|  9>
| 10> %scf
| 11>   MaxIter 150
| 12> end
| 13>
| 14>
| 15>                          ****END OF INPUT****

CARTESIAN COORDINATES (ANGSTROEM)
---------------------------------
  C      3.905947    2.819855   -3.752920
  N      5.295615    3.131515   -4.105334
  C      3.803511    1.374716   -3.260807
  C      3.939934    0.320362   -4.367729
  H      4.105043   -0.655085   -3.907733
  H      3.022801    0.280517   -4.957117
  C      5.105846    0.668022   -5.305463
  C      5.708619    3.468885   -5.324190
  N      6.904696    3.038954   -5.717084
  N      4.981884    4.293570   -6.097457
  H      5.000546    4.101311   -7.087761
  H      4.084693    4.596899   -5.739652
  H      5.963358    2.526112   -3.642391
  H      7.047164    2.066861   -5.473604
  H      7.198145    3.307994   -6.645225
  H      3.282025    2.949187   -4.640259
  H      3.565254    3.514574   -2.982523
  H      4.574833    1.215157   -2.500443
  H      2.843514    1.260845   -2.751465
  O      4.809132    1.150187   -6.414361
  O      6.267366    0.564999   -4.819481

 Total Charge           Charge          ....    0
 Multiplicity           Mult            ....    1
 Number of Electrons    NEL             ....   78
 Basis Dimension        Dim             ....  376

ORBITAL ENERGIES
----------------

  NO   OCC          E(Eh)            E(eV)
   0   2.0000     -19.142032      -520.8812
   1   2.0000     -19.139115      -520.8018
   2   2.0000     -14.486015      -394.1845
   3   2.0000     -14.478219      -393.9724
   4   2.0000     -14.454866      -393.3369
   5   2.0000     -10.444349      -284.2052
   6   2.0000     -10.337092      -281.2866
   7   2.0000     -10.331136      -281.1245
   8   2.0000     -10.286376      -279.9065
   9   2.0000     -10.252056      -278.9726
  10   2.0000      -1.169599       -31.8264
  11   2.0000      -1.117014       -30.3955
  12   2.0000      -1.059686       -28.8355
  13   2.0000      -1.040682       -28.3184
  14   2.0000      -1.022623       -27.8270
  15   2.0000      -0.912169       -24.8214
  16   2.0000      -0.827131       -22.5074
  17   2.0000      -0.765556       -20.8318
  18   2.0000      -0.733359       -19.9557
  19   2.0000      -0.711782       -19.3686
  20   2.0000      -0.678467       -18.4620
  21   2.0000      -0.637491       -17.3470
  22   2.0000      -0.615808       -16.7570
  23   2.0000      -0.600638       -16.3442
  24   2.0000      -0.578568       -15.7436
  25   2.0000      -0.575825       -15.6690
  26   2.0000      -0.530993       -14.4491
  27   2.0000      -0.523319       -14.2402
  28   2.0000      -0.508817       -13.8456
  29   2.0000      -0.485095       -13.2001
  30   2.0000      -0.478244       -13.0137
  31   2.0000      -0.472754       -12.8643
  32   2.0000      -0.435250       -11.8438
  33   2.0000      -0.429850       -11.6968
  34   2.0000      -0.411240       -11.1904
  35   2.0000      -0.383546       -10.4368
  36   2.0000      -0.323082        -8.7915
  37   2.0000      -0.309223        -8.4144
  38   2.0000      -0.300839        -8.1862
  39   0.0000       0.062637         1.7044
  40   0.0000       0.088363         2.4045
  41   0.0000       0.113960         3.1010
  42   0.0000       0.125534         3.4159
  43   0.0000       0.142973         3.8905

MULLIKEN ATOMIC CHARGES
-----------------------
   0 C :   -0.110917
   1 N :   -0.248670
   2 C :   -0.271908
   3 C :   -0.180096
   4 H :    0.104611
   5 H :    0.096469
   6 C :    0.326562
   7 C :    0.365558
   8 N :   -0.382284
   9 N :   -0.462300
  10 H :    0.288488
  11 H :    0.266686
  12 H :    0.263473
  13 H :    0.289701
  14 H :    0.245380
  15 H :    0.116129
  16 H :    0.131872
  17 H :    0.124345
  18 H :    0.114888
  19 O :   -0.494449
  20 O :   -0.583538
Sum of atomic charges:   -0.0000000

LOEWDIN ATOMIC CHARGES
----------------------
   0 C :   -0.264112
   1 N :    0.159776
   2 C :   -0.265180
   3 C :   -0.240964
   4 H :    0.140487
   5 H :    0.136574
   6 C :   -0.664947
   7 C :   -0.418929
   8 N :    0.052052
   9 N :    0.029921
  10 H :    0.190206
  11 H :    0.182232
  12 H :    0.210271
  13 H :    0.176157
  14 H :    0.179343
  15 H :    0.138658
  16 H :    0.129936
  17 H :    0.141336
  18 H :    0.139657
  19 O :   -0.053791
  20 O :   -0.098683

  Mayer bond orders larger than 0.100000
B(  0-C ,  1-N ) :   0.9036 B(  0-C ,  2-C ) :   0.9741 B(  0-C , 15-H ) :   0.9748
B(  0-C , 16-H ) :   0.9656 B(  1-N ,  7-C ) :   1.3696 B(  1-N , 12-H ) :   0.8869
B(  2-C ,  3-C ) :   0.9801 B(  2-C , 17-H ) :   0.9739 B(  2-C , 18-H ) :   0.9712
B(  3-C ,  4-H ) :   0.9556 B(  3-C ,  5-H ) :   0.9759 B(  3-C ,  6-C ) :   0.9351
B(  6-C , 19-O ) :   1.8154 B(  6-C , 20-O ) :   1.6608 B(  7-C ,  8-N ) :   1.3889
B(  7-C ,  9-N ) :   1.2610 B(  7-C , 19-O ) :   0.1593 B(  8-N , 13-H ) :   0.8032
B(  8-N , 14-H ) :   0.9154 B(  9-N , 10-H ) :   0.8977 B(  9-N , 11-H ) :   0.9111
B( 13-H , 20-O ) :   0.1541

Dispersion correction           -0.009113476
FINAL SINGLE POINT ENERGY      -511.948105732546

DIPOLE MOMENT
-------------
                                X             Y             Z
Electronic contribution:      4.16884       0.43903      -3.45621
Nuclear contribution   :     -4.94498       2.03334       3.78956
                        -----------------------------------------
Total Dipole Moment    :     -0.77614       2.47238       0.33334
                        -----------------------------------------
Magnitude (a.u.)       :      2.61269
Magnitude (Debye)      :      6.64093

Rotational constants in cm-1:     0.062533     0.042832     0.033687
Rotational constants in MHz :  1874.701390  1284.063603  1009.911042

                             ****ORCA TERMINATED NORMALLY****
TOTAL RUN TIME: 0 days 0 hours 0 minutes 37 seconds 873 msec
