                         Program Version 5.0.0 -  RELEASE  -
|  1> !wB97X-D3 RIJCOSX def2-TZVP def2/J TightSCF
|  2> *xyz 0 1
|  3> C          3.93993        0.32036       -4.36773
|  4> C          5.10585        0.66802       -5.30546
|  5> F          4.80913        1.15019       -6.41436
|  6> O          6.26737        0.56500       -4.81948
|  7> H          3.01376        0.44480       -4.88890
|  8> H          3.96058        0.96928       -3.51722
|  9> H          4.03331       -0.69517       -4.04388
| 10> *
| 11>
| 12> %MaxCore 64000
| 13>
| 14> %pal nprocs 18
| 15> end
| 16>
| 17> %scf
| 18>   MaxIter 150
| 19> end
| 20>
| 21>
| 22>                          ****END OF INPUT****

CARTESIAN COORDINATES (ANGSTROEM)
---------------------------------
  C      3.939930    0.320360   -4.367730
  C      5.105850    0.668020   -5.305460
  F      4.809130    1.150190   -6.414360
  O      6.267370    0.565000   -4.819480
  H      3.013760    0.444800   -4.888900
  H      3.960580    0.969280   -3.517220
  H      4.033310   -0.695170   -4.043880

 Total Charge           Charge          ....    0
 Multiplicity           Mult            ....    1
 Number of Electrons    NEL             ....   32
 Basis Dimension        Dim             ....  142

ORBITAL ENERGIES
----------------

  NO   OCC          E(Eh)            E(eV)
   0   2.0000     -24.861344      -676.5116
   1   2.0000     -19.234765      -523.4046
   2   2.0000     -10.460538      -284.6457
   3   2.0000     -10.298636      -280.2401
   4   2.0000      -1.445695       -39.3394
   5   2.0000      -1.144583       -31.1457
   6   2.0000      -0.886408       -24.1204
   7   2.0000      -0.772785       -21.0285
   8   2.0000      -0.658552       -17.9201
   9   2.0000      -0.654183       -17.8012
  10   2.0000      -0.608122       -16.5478
  11   2.0000      -0.544319       -14.8117
  12   2.0000      -0.531285       -14.4570
  13   2.0000      -0.497762       -13.5448
  14   2.0000      -0.445779       -12.1303
  15   2.0000      -0.389080       -10.5874
  16   0.0000       0.055426         1.5082
  17   0.0000       0.118932         3.2363
  18   0.0000       0.183188         4.9848
  19   0.0000       0.199485         5.4283
  20   0.0000       0.207344         5.6421

MULLIKEN ATOMIC CHARGES
-----------------------
   0 C :   -0.353011
   1 C :    0.390244
   2 F :   -0.095653
   3 O :   -0.365682
   4 H :    0.123788
   5 H :    0.151724
   6 H :    0.148589
Sum of atomic charges:   -0.0000000

LOEWDIN ATOMIC CHARGES
----------------------
   0 C :   -0.262923
   1 C :   -0.513161
   2 F :    0.338417
   3 O :    0.042826
   4 H :    0.120978
   5 H :    0.137741
   6 H :    0.136121

  Mayer bond orders larger than 0.100000
B(  0-C ,  1-C ) :   0.9909 B(  0-C ,  4-H ) :   0.9671 B(  0-C ,  5-H ) :   0.9524
B(  0-C ,  6-H ) :   0.9560 B(  1-C ,  2-F ) :   1.1675 B(  1-C ,  3-O ) :   2.0274

Dispersion correction           -0.000910951
FINAL SINGLE POINT ENERGY      -253.115695740269

DIPOLE MOMENT
-------------
                                X             Y             Z
Electronic contribution:      2.40442       1.63226      -4.17770
Nuclear contribution   :     -3.58567      -1.71656       4.24175
                        -----------------------------------------
Total Dipole Moment    :     -1.18125      -0.08430       0.06405
                        -----------------------------------------
Magnitude (a.u.)       :      1.18599
Magnitude (Debye)      :      3.01454

Rotational constants in cm-1:     0.365806     0.323297     0.177262
Rotational constants in MHz : 10966.600844  9692.195205  5314.176777

                             ****ORCA TERMINATED NORMALLY****
TOTAL RUN TIME: 0 days 0 hours 0 minutes 7 seconds 33 msec
