                         Program Version 5.0.0 -  RELEASE  -
|  1> !wB97X-D3 RIJCOSX def2-TZVP def2/J TightSCF
|  2> *xyz 0 1
|  3> C          3.90595        2.81985       -3.75292
|  4> C          5.29562        3.13151       -4.10533
|  5> C          5.70862        3.46889       -5.32419
|  6> N          6.90470        3.03895       -5.71708
|  7> N          4.98188        4.29357       -6.09746
|  8> H          5.00055        4.10131       -7.08776
|  9> H          4.08469        4.59690       -5.73965
| 10> H          5.96336        2.52611       -3.64239
| 11> H          7.04716        2.06686       -5.47360
| 12> H          7.19815        3.30799       -6.64523
| 13> H          3.24866        3.48801       -4.26909
| 14> H          3.77188        2.93227       -2.69732
| 15> H          3.68381        1.81198       -4.03533
| 16> *
| 17>
| 18> %MaxCore 64000
| 19>
| 20> %pal nprocs 18
| 21> end
| 22>
| 23> %scf
| 24>   MaxIter 150
| 25> end
| 26>
| 27>
| 28>                          ****END OF INPUT****

CARTESIAN COORDINATES (ANGSTROEM)
---------------------------------
  C      3.905950    2.819850   -3.752920
  C      5.295620    3.131510   -4.105330
  C      5.708620    3.468890   -5.324190
  N      6.904700    3.038950   -5.717080
  N      4.981880    4.293570   -6.097460
  H      5.000550    4.101310   -7.087760
  H      4.084690    4.596900   -5.739650
  H      5.963360    2.526110   -3.642390
  H      7.047160    2.066860   -5.473600
  H      7.198150    3.307990   -6.645230
  H      3.248660    3.488010   -4.269090
  H      3.771880    2.932270   -2.697320
  H      3.683810    1.811980   -4.035330

 Total Charge           Charge          ....    0
 Multiplicity           Mult            ....    1
 Number of Electrons    NEL             ....   40
 Basis Dimension        Dim             ....  203

ORBITAL ENERGIES
----------------

  NO   OCC          E(Eh)            E(eV)
   0   2.0000     -14.421623      -392.4323
   1   2.0000     -14.419962      -392.3871
   2   2.0000     -10.316835      -280.7353
   3   2.0000     -10.239353      -278.6270
   4   2.0000     -10.197590      -277.4905
   5   2.0000      -1.082039       -29.4438
   6   2.0000      -0.991137       -26.9702
   7   2.0000      -0.869192       -23.6519
   8   2.0000      -0.768061       -20.9000
   9   2.0000      -0.684824       -18.6350
  10   2.0000      -0.638210       -17.3666
  11   2.0000      -0.609480       -16.5848
  12   2.0000      -0.575191       -15.6517
  13   2.0000      -0.527987       -14.3672
  14   2.0000      -0.501367       -13.6429
  15   2.0000      -0.476453       -12.9649
  16   2.0000      -0.449446       -12.2300
  17   2.0000      -0.426224       -11.5981
  18   2.0000      -0.368422       -10.0253
  19   2.0000      -0.252777        -6.8784
  20   0.0000       0.100210         2.7268
  21   0.0000       0.129607         3.5268
  22   0.0000       0.144680         3.9369
  23   0.0000       0.149777         4.0756
  24   0.0000       0.179557         4.8860

MULLIKEN ATOMIC CHARGES
-----------------------
   0 C :   -0.268299
   1 C :   -0.327801
   2 C :    0.337446
   3 N :   -0.498538
   4 N :   -0.502108
   5 H :    0.220771
   6 H :    0.243193
   7 H :    0.059901
   8 H :    0.257565
   9 H :    0.221080
  10 H :    0.045593
  11 H :    0.113317
  12 H :    0.097882
Sum of atomic charges:    0.0000000

LOEWDIN ATOMIC CHARGES
----------------------
   0 C :   -0.313366
   1 C :   -0.302917
   2 C :   -0.470814
   3 N :   -0.019872
   4 N :   -0.025702
   5 H :    0.157984
   6 H :    0.174156
   7 H :    0.119843
   8 H :    0.181743
   9 H :    0.161550
  10 H :    0.106080
  11 H :    0.117853
  12 H :    0.113462

  Mayer bond orders larger than 0.100000
B(  0-C ,  1-C ) :   0.9777 B(  0-C , 10-H ) :   0.9823 B(  0-C , 11-H ) :   0.9909
B(  0-C , 12-H ) :   0.9749 B(  1-C ,  2-C ) :   1.6835 B(  1-C ,  7-H ) :   1.0257
B(  2-C ,  3-N ) :   1.1191 B(  2-C ,  4-N ) :   1.1252 B(  3-N ,  8-H ) :   0.9152
B(  3-N ,  9-H ) :   0.9283 B(  4-N ,  5-H ) :   0.9143 B(  4-N ,  6-H ) :   0.9288

Dispersion correction           -0.002449451
FINAL SINGLE POINT ENERGY      -228.617841529386

DIPOLE MOMENT
-------------
                                X             Y             Z
Electronic contribution:      2.52808       1.33039      -1.89298
Nuclear contribution   :     -2.63304      -1.77161       0.70501
                        -----------------------------------------
Total Dipole Moment    :     -0.10496      -0.44123      -1.18797
                        -----------------------------------------
Magnitude (a.u.)       :      1.27160
Magnitude (Debye)      :      3.23216

Rotational constants in cm-1:     0.303572     0.135185     0.098519
Rotational constants in MHz :  9100.846149  4052.756012  2953.539431

                             ****ORCA TERMINATED NORMALLY****
TOTAL RUN TIME: 0 days 0 hours 0 minutes 11 seconds 800 msec
