                         Program Version 5.0.0 -  RELEASE  -
|  1> !wB97X-D3 RIJCOSX def2-TZVP def2/J TightSCF
|  2> *xyz 0 1
|  3> C          3.93993        0.32036       -4.36773
|  4> C          5.10585        0.66802       -5.30546
|  5> O          4.80913        1.15019       -6.41436
|  6> F          6.26737        0.56500       -4.81948
|  7> H          3.01376        0.44480       -4.88890
|  8> H          3.96058        0.96928       -3.51722
|  9> H          4.03331       -0.69517       -4.04388
| 10> *
| 11>
| 12> %MaxCore 64000
| 13>
| 14> %pal nprocs 18
| 15> end
| 16>
| 17> %scf
| 18>   MaxIter 150
| 19> end
| 20>
| 21>
| 22>                          ****END OF INPUT****

CARTESIAN COORDINATES (ANGSTROEM)
---------------------------------
  C      3.939930    0.320360   -4.367730
  C      5.105850    0.668020   -5.305460
  O      4.809130    1.150190   -6.414360
  F      6.267370    0.565000   -4.819480
  H      3.013760    0.444800   -4.888900
  H      3.960580    0.969280   -3.517220
  H      4.033310   -0.695170   -4.043880

 Total Charge           Charge          ....    0
 Multiplicity           Mult            ....    1
 Number of Electrons    NEL             ....   32
 Basis Dimension        Dim             ....  142

ORBITAL ENERGIES
----------------

  NO   OCC          E(Eh)            E(eV)
   0   2.0000     -24.854420      -676.3231
   1   2.0000     -19.238083      -523.4948
   2   2.0000     -10.458733      -284.5966
   3   2.0000     -10.298345      -280.2322
   4   2.0000      -1.431949       -38.9653
   5   2.0000      -1.156392       -31.4670
   6   2.0000      -0.885734       -24.1020
   7   2.0000      -0.765263       -20.8239
   8   2.0000      -0.651326       -17.7235
   9   2.0000      -0.647284       -17.6135
  10   2.0000      -0.608224       -16.5506
  11   2.0000      -0.543028       -14.7765
  12   2.0000      -0.532413       -14.4877
  13   2.0000      -0.500537       -13.6203
  14   2.0000      -0.455110       -12.3842
  15   2.0000      -0.391487       -10.6529
  16   0.0000       0.060909         1.6574
  17   0.0000       0.118572         3.2265
  18   0.0000       0.189024         5.1436
  19   0.0000       0.190457         5.1826
  20   0.0000       0.206773         5.6266

MULLIKEN ATOMIC CHARGES
-----------------------
   0 C :   -0.350311
   1 C :    0.384294
   2 O :   -0.347419
   3 F :   -0.110754
   4 H :    0.150860
   5 H :    0.139476
   6 H :    0.133855
Sum of atomic charges:   -0.0000000

LOEWDIN ATOMIC CHARGES
----------------------
   0 C :   -0.261619
   1 C :   -0.510149
   2 O :    0.068976
   3 F :    0.308731
   4 H :    0.134334
   5 H :    0.131613
   6 H :    0.128114

  Mayer bond orders larger than 0.100000
B(  0-C ,  1-C ) :   1.0012 B(  0-C ,  4-H ) :   0.9711 B(  0-C ,  5-H ) :   0.9494
B(  0-C ,  6-H ) :   0.9532 B(  1-C ,  2-O ) :   2.0496 B(  1-C ,  3-F ) :   1.1464

Dispersion correction           -0.000899961
FINAL SINGLE POINT ENERGY      -253.121475230040

DIPOLE MOMENT
-------------
                                X             Y             Z
Electronic contribution:      4.78693       0.67669      -1.57288
Nuclear contribution   :     -5.09247      -1.11188       2.59376
                        -----------------------------------------
Total Dipole Moment    :     -0.30554      -0.43519       1.02088
                        -----------------------------------------
Magnitude (a.u.)       :      1.15106
Magnitude (Debye)      :      2.92576

Rotational constants in cm-1:     0.367940     0.321271     0.177147
Rotational constants in MHz : 11030.570495  9631.458923  5310.737691

                             ****ORCA TERMINATED NORMALLY****
TOTAL RUN TIME: 0 days 0 hours 0 minutes 6 seconds 825 msec
