                         Program Version 5.0.0 -  RELEASE  -
|  1> !wB97X-D3 RIJCOSX def2-TZVP def2/J TightSCF
|  2> *xyz 0 1
|  3> C          3.90595        2.81985       -3.75292
|  4> N          5.29562        3.13151       -4.10533
|  5> C          5.70862        3.46889       -5.32419
|  6> C          6.90470        3.03895       -5.71708
|  7> N          4.98188        4.29357       -6.09746
|  8> H          5.00055        4.10131       -7.08776
|  9> H          4.08469        4.59690       -5.73965
| 10> H          5.96336        2.52611       -3.64239
| 11> H          7.04716        2.06686       -5.47360
| 12> H          7.19815        3.30799       -6.64523
| 13> H          3.24866        3.48801       -4.26909
| 14> H          3.77188        2.93227       -2.69732
| 15> H          3.68381        1.81198       -4.03533
| 16> *
| 17>
| 18> %MaxCore 64000
| 19>
| 20> %pal nprocs 18
| 21> end
| 22>
| 23> %scf
| 24>   MaxIter 150
| 25> end
| 26>
| 27>
| 28>                          ****END OF INPUT****

CARTESIAN COORDINATES (ANGSTROEM)
---------------------------------
  C      3.905950    2.819850   -3.752920
  N      5.295620    3.131510   -4.105330
  C      5.708620    3.468890   -5.324190
  C      6.904700    3.038950   -5.717080
  N      4.981880    4.293570   -6.097460
  H      5.000550    4.101310   -7.087760
  H      4.084690    4.596900   -5.739650
  H      5.963360    2.526110   -3.642390
  H      7.047160    2.066860   -5.473600
  H      7.198150    3.307990   -6.645230
  H      3.248660    3.488010   -4.269090
  H      3.771880    2.932270   -2.697320
  H      3.683810    1.811980   -4.035330

 Total Charge           Charge          ....    0
 Multiplicity           Mult            ....    1
 Number of Electrons    NEL             ....   40
 Basis Dimension        Dim             ....  203

ORBITAL ENERGIES
----------------

  NO   OCC          E(Eh)            E(eV)
   0   2.0000     -14.425981      -392.5509
   1   2.0000     -14.424331      -392.5060
   2   2.0000     -10.324592      -280.9464
   3   2.0000     -10.306679      -280.4590
   4   2.0000     -10.183987      -277.1204
   5   2.0000      -1.088657       -29.6239
   6   2.0000      -1.002750       -27.2862
   7   2.0000      -0.861829       -23.4516
   8   2.0000      -0.785882       -21.3849
   9   2.0000      -0.702459       -19.1149
  10   2.0000      -0.637050       -17.3350
  11   2.0000      -0.593721       -16.1560
  12   2.0000      -0.580665       -15.8007
  13   2.0000      -0.553114       -15.0510
  14   2.0000      -0.504697       -13.7335
  15   2.0000      -0.489553       -13.3214
  16   2.0000      -0.481486       -13.1019
  17   2.0000      -0.441275       -12.0077
  18   2.0000      -0.353725        -9.6253
  19   2.0000      -0.263030        -7.1574
  20   0.0000       0.101893         2.7727
  21   0.0000       0.123548         3.3619
  22   0.0000       0.142385         3.8745
  23   0.0000       0.157947         4.2980
  24   0.0000       0.178022         4.8442

MULLIKEN ATOMIC CHARGES
-----------------------
   0 C :   -0.220132
   1 N :   -0.330490
   2 C :    0.350750
   3 C :   -0.498259
   4 N :   -0.503052
   5 H :    0.259832
   6 H :    0.217887
   7 H :    0.228484
   8 H :    0.087385
   9 H :    0.069196
  10 H :    0.087670
  11 H :    0.132979
  12 H :    0.117750
Sum of atomic charges:    0.0000000

LOEWDIN ATOMIC CHARGES
----------------------
   0 C :   -0.301061
   1 N :    0.082636
   2 C :   -0.466953
   3 C :   -0.351859
   4 N :   -0.015298
   5 H :    0.176885
   6 H :    0.159936
   7 H :    0.195956
   8 H :    0.102963
   9 H :    0.095845
  10 H :    0.105302
  11 H :    0.112083
  12 H :    0.103563

  Mayer bond orders larger than 0.100000
B(  0-C ,  1-N ) :   0.9377 B(  0-C , 10-H ) :   0.9817 B(  0-C , 11-H ) :   0.9766
B(  0-C , 12-H ) :   0.9733 B(  1-N ,  2-C ) :   1.2103 B(  1-N ,  7-H ) :   0.9232
B(  2-C ,  3-C ) :   1.6493 B(  2-C ,  4-N ) :   1.1033 B(  3-C ,  8-H ) :   0.9906
B(  3-C ,  9-H ) :   1.0277 B(  4-N ,  5-H ) :   0.9150 B(  4-N ,  6-H ) :   0.9331

Dispersion correction           -0.002460091
FINAL SINGLE POINT ENERGY      -228.605816021332

DIPOLE MOMENT
-------------
                                X             Y             Z
Electronic contribution:      0.89096       1.44970      -0.29666
Nuclear contribution   :     -2.30713      -1.79036       0.37856
                        -----------------------------------------
Total Dipole Moment    :     -1.41617      -0.34066       0.08190
                        -----------------------------------------
Magnitude (a.u.)       :      1.45887
Magnitude (Debye)      :      3.70816

Rotational constants in cm-1:     0.307513     0.139026     0.101190
Rotational constants in MHz :  9218.994719  4167.905268  3033.592538

                             ****ORCA TERMINATED NORMALLY****
TOTAL RUN TIME: 0 days 0 hours 0 minutes 12 seconds 9 msec
