                         Program Version 5.0.0 -  RELEASE  -
|  1> !wB97X-D3 RIJCOSX def2-TZVP def2/J TightSCF
|  2> *xyz 0 1
|  3> C          3.90595        2.81985       -3.75292
|  4> N          5.29562        3.13151       -4.10533
|  5> C          5.70862        3.46889       -5.32419
|  6> N          6.90470        3.03895       -5.71708
|  7> C          4.98188        4.29357       -6.09746
|  8> H          5.00055        4.10131       -7.08776
|  9> H          4.08469        4.59690       -5.73965
| 10> H          5.96336        2.52611       -3.64239
| 11> H          7.04716        2.06686       -5.47360
| 12> H          7.19815        3.30799       -6.64523
| 13> H          3.24866        3.48801       -4.26909
| 14> H          3.77188        2.93227       -2.69732
| 15> H          3.68381        1.81198       -4.03533
| 16> *
| 17>
| 18> %MaxCore 64000
| 19>
| 20> %pal nprocs 18
| 21> end
| 22>
| 23> %scf
| 24>   MaxIter 150
| 25> end
| 26>
| 27>
| 28>                          ****END OF INPUT****

CARTESIAN COORDINATES (ANGSTROEM)
---------------------------------
  C      3.905950    2.819850   -3.752920
  N      5.295620    3.131510   -4.105330
  C      5.708620    3.468890   -5.324190
  N      6.904700    3.038950   -5.717080
  C      4.981880    4.293570   -6.097460
  H      5.000550    4.101310   -7.087760
  H      4.084690    4.596900   -5.739650
  H      5.963360    2.526110   -3.642390
  H      7.047160    2.066860   -5.473600
  H      7.198150    3.307990   -6.645230
  H      3.248660    3.488010   -4.269090
  H      3.771880    2.932270   -2.697320
  H      3.683810    1.811980   -4.035330

 Total Charge           Charge          ....    0
 Multiplicity           Mult            ....    1
 Number of Electrons    NEL             ....   40
 Basis Dimension        Dim             ....  203

ORBITAL ENERGIES
----------------

  NO   OCC          E(Eh)            E(eV)
   0   2.0000     -14.426902      -392.5760
   1   2.0000     -14.424051      -392.4984
   2   2.0000     -10.323581      -280.9189
   3   2.0000     -10.299986      -280.2769
   4   2.0000     -10.187808      -277.2243
   5   2.0000      -1.093484       -29.7552
   6   2.0000      -1.004261       -27.3273
   7   2.0000      -0.837839       -22.7988
   8   2.0000      -0.809939       -22.0396
   9   2.0000      -0.673378       -18.3235
  10   2.0000      -0.642779       -17.4909
  11   2.0000      -0.624801       -17.0017
  12   2.0000      -0.554523       -15.0893
  13   2.0000      -0.546207       -14.8631
  14   2.0000      -0.516454       -14.0534
  15   2.0000      -0.483595       -13.1593
  16   2.0000      -0.473886       -12.8951
  17   2.0000      -0.444208       -12.0875
  18   2.0000      -0.354616        -9.6496
  19   2.0000      -0.262964        -7.1556
  20   0.0000       0.101472         2.7612
  21   0.0000       0.129281         3.5179
  22   0.0000       0.145574         3.9613
  23   0.0000       0.156270         4.2523
  24   0.0000       0.174242         4.7414

MULLIKEN ATOMIC CHARGES
-----------------------
   0 C :   -0.205540
   1 N :   -0.351294
   2 C :    0.363147
   3 N :   -0.494371
   4 C :   -0.497568
   5 H :    0.096097
   6 H :    0.060883
   7 H :    0.194098
   8 H :    0.218204
   9 H :    0.254148
  10 H :    0.124309
  11 H :    0.125071
  12 H :    0.112817
Sum of atomic charges:    0.0000000

LOEWDIN ATOMIC CHARGES
----------------------
   0 C :   -0.288331
   1 N :    0.082535
   2 C :   -0.476177
   3 N :   -0.018523
   4 C :   -0.341429
   5 H :    0.097477
   6 H :    0.093925
   7 H :    0.177710
   8 H :    0.162614
   9 H :    0.178680
  10 H :    0.117750
  11 H :    0.110460
  12 H :    0.103308

  Mayer bond orders larger than 0.100000
B(  0-C ,  1-N ) :   0.9245 B(  0-C , 10-H ) :   0.9773 B(  0-C , 11-H ) :   0.9745
B(  0-C , 12-H ) :   0.9819 B(  1-N ,  2-C ) :   1.1564 B(  1-N ,  7-H ) :   0.9339
B(  2-C ,  3-N ) :   1.1292 B(  2-C ,  4-C ) :   1.6078 B(  3-N ,  8-H ) :   0.9175
B(  3-N ,  9-H ) :   0.9204 B(  4-C ,  5-H ) :   0.9797 B(  4-C ,  6-H ) :   1.0294

Dispersion correction           -0.002442571
FINAL SINGLE POINT ENERGY      -228.609218492028

DIPOLE MOMENT
-------------
                                X             Y             Z
Electronic contribution:      2.81344       0.21533       0.01299
Nuclear contribution   :     -2.69659      -1.53624       0.30152
                        -----------------------------------------
Total Dipole Moment    :      0.11685      -1.32091       0.31451
                        -----------------------------------------
Magnitude (a.u.)       :      1.36286
Magnitude (Debye)      :      3.46411

Rotational constants in cm-1:     0.320409     0.134796     0.100241
Rotational constants in MHz :  9605.632807  4041.079317  3005.150506

                             ****ORCA TERMINATED NORMALLY****
TOTAL RUN TIME: 0 days 0 hours 0 minutes 10 seconds 822 msec
