                         Program Version 5.0.0 -  RELEASE  -
|  1> !wB97X-D3 RIJCOSX def2-TZVP def2/J TightSCF xyzfile
|  2>
|  3> *xyzfile 0 1 D2.xyz
|  4>
|  5> %MaxCore 64000
|  6>
|  7> %pal nprocs 18
|  8> end
|  9>
| 10> %scf
| 11>   MaxIter 150
| 12> end
| 13>
| 14>
| 15>                          ****END OF INPUT****

CARTESIAN COORDINATES (ANGSTROEM)
---------------------------------
  C      3.905947    2.819855   -3.752920
  N      5.295615    3.131515   -4.105334
  C      3.803511    1.374716   -3.260807
  C      3.939934    0.320362   -4.367729
  H      4.105043   -0.655085   -3.907733
  H      3.022801    0.280517   -4.957117
  C      5.105846    0.668022   -5.305463
  C      5.708619    3.468885   -5.324190
  C      6.904696    3.038954   -5.717084
  N      4.981884    4.293570   -6.097457
  H      5.000546    4.101311   -7.087761
  H      4.084693    4.596899   -5.739652
  H      5.963358    2.526112   -3.642391
  H      7.047164    2.066861   -5.473604
  H      7.198145    3.307994   -6.645225
  H      3.282025    2.949187   -4.640259
  H      3.565254    3.514574   -2.982523
  H      4.574833    1.215157   -2.500443
  H      2.843514    1.260845   -2.751465
  F      4.809132    1.150187   -6.414361
  O      6.267366    0.564999   -4.819481

 Total Charge           Charge          ....    0
 Multiplicity           Mult            ....    1
 Number of Electrons    NEL             ....   78
 Basis Dimension        Dim             ....  376

ORBITAL ENERGIES
----------------

  NO   OCC          E(Eh)            E(eV)
   0   2.0000     -24.864712      -676.6032
   1   2.0000     -19.237212      -523.4711
   2   2.0000     -14.422324      -392.4514
   3   2.0000     -14.418856      -392.3570
   4   2.0000     -10.463883      -284.7367
   5   2.0000     -10.324227      -280.9365
   6   2.0000     -10.315629      -280.7025
   7   2.0000     -10.313217      -280.6369
   8   2.0000     -10.306440      -280.4525
   9   2.0000     -10.164745      -276.5968
  10   2.0000      -1.449408       -39.4404
  11   2.0000      -1.154694       -31.4208
  12   2.0000      -1.087281       -29.5864
  13   2.0000      -1.004951       -27.3461
  14   2.0000      -0.937280       -25.5047
  15   2.0000      -0.859239       -23.3811
  16   2.0000      -0.813453       -22.1352
  17   2.0000      -0.775316       -21.0974
  18   2.0000      -0.731894       -19.9158
  19   2.0000      -0.701007       -19.0754
  20   2.0000      -0.668787       -18.1986
  21   2.0000      -0.653275       -17.7765
  22   2.0000      -0.639532       -17.4026
  23   2.0000      -0.614820       -16.7301
  24   2.0000      -0.598848       -16.2955
  25   2.0000      -0.584894       -15.9158
  26   2.0000      -0.568358       -15.4658
  27   2.0000      -0.542527       -14.7629
  28   2.0000      -0.517155       -14.0725
  29   2.0000      -0.504022       -13.7151
  30   2.0000      -0.492928       -13.4132
  31   2.0000      -0.488331       -13.2882
  32   2.0000      -0.463445       -12.6110
  33   2.0000      -0.462113       -12.5747
  34   2.0000      -0.439632       -11.9630
  35   2.0000      -0.432705       -11.7745
  36   2.0000      -0.377917       -10.2837
  37   2.0000      -0.351161        -9.5556
  38   2.0000      -0.251539        -6.8447
  39   0.0000       0.044779         1.2185
  40   0.0000       0.100275         2.7286
  41   0.0000       0.120169         3.2700
  42   0.0000       0.133508         3.6329
  43   0.0000       0.140568         3.8250

MULLIKEN ATOMIC CHARGES
-----------------------
   0 C :   -0.133139
   1 N :   -0.298862
   2 C :   -0.259015
   3 C :   -0.218407
   4 H :    0.143777
   5 H :    0.121949
   6 C :    0.429678
   7 C :    0.246903
   8 C :   -0.476989
   9 N :   -0.502816
  10 H :    0.257368
  11 H :    0.223215
  12 H :    0.243144
  13 H :    0.139837
  14 H :    0.063256
  15 H :    0.102594
  16 H :    0.128132
  17 H :    0.138750
  18 H :    0.120985
  19 F :   -0.087524
  20 O :   -0.382835
Sum of atomic charges:    0.0000000

LOEWDIN ATOMIC CHARGES
----------------------
   0 C :   -0.283550
   1 N :    0.117983
   2 C :   -0.260009
   3 C :   -0.228054
   4 H :    0.155774
   5 H :    0.141836
   6 C :   -0.492014
   7 C :   -0.493119
   8 C :   -0.338766
   9 N :   -0.018780
  10 H :    0.174893
  11 H :    0.158354
  12 H :    0.201820
  13 H :    0.103430
  14 H :    0.093126
  15 H :    0.129422
  16 H :    0.128779
  17 H :    0.145685
  18 H :    0.142395
  19 F :    0.360833
  20 O :    0.059964

  Mayer bond orders larger than 0.100000
B(  0-C ,  1-N ) :   0.9414 B(  0-C ,  2-C ) :   0.9661 B(  0-C , 15-H ) :   0.9796
B(  0-C , 16-H ) :   0.9690 B(  1-N ,  7-C ) :   1.1719 B(  1-N , 12-H ) :   0.9159
B(  2-C ,  3-C ) :   0.9680 B(  2-C , 17-H ) :   0.9743 B(  2-C , 18-H ) :   0.9705
B(  3-C ,  4-H ) :   0.9547 B(  3-C ,  5-H ) :   0.9628 B(  3-C ,  6-C ) :   0.9744
B(  6-C , 19-F ) :   1.1726 B(  6-C , 20-O ) :   1.9695 B(  7-C ,  8-C ) :   1.6702
B(  7-C ,  9-N ) :   1.0734 B(  8-C , 13-H ) :   0.9680 B(  8-C , 14-H ) :   1.0269
B(  9-N , 10-H ) :   0.9166 B(  9-N , 11-H ) :   0.9319

Dispersion correction           -0.008917352
FINAL SINGLE POINT ENERGY      -519.822741934015

DIPOLE MOMENT
-------------
                                X             Y             Z
Electronic contribution:      2.01584      -3.78438      -5.19704
Nuclear contribution   :     -4.40347       3.21582       5.36161
                        -----------------------------------------
Total Dipole Moment    :     -2.38764      -0.56856       0.16457
                        -----------------------------------------
Magnitude (a.u.)       :      2.45991
Magnitude (Debye)      :      6.25260

Rotational constants in cm-1:     0.061226     0.043199     0.033926
Rotational constants in MHz :  1835.503528  1295.087558  1017.061512

                             ****ORCA TERMINATED NORMALLY****
TOTAL RUN TIME: 0 days 0 hours 0 minutes 46 seconds 852 msec
