                         Program Version 5.0.0 -  RELEASE  -
|  1> !wB97X-D3 RIJCOSX def2-TZVP def2/J TightSCF xyzfile
|  2>
|  3> *xyzfile 0 1 D4.xyz
|  4>
|  5> %MaxCore 64000
|  6>
|  7> %pal nprocs 18
|  8> end
|  9>
| 10> %scf
| 11>   MaxIter 150
| 12> end
| 13>
| 14>
| 15>                          ****END OF INPUT****

CARTESIAN COORDINATES (ANGSTROEM)
---------------------------------
  C      3.905947    2.819855   -3.752920
  C      5.295615    3.131515   -4.105334
  C      3.803511    1.374716   -3.260807
  C      3.939934    0.320362   -4.367729
  H      4.105043   -0.655085   -3.907733
  H      3.022801    0.280517   -4.957117
  C      5.105846    0.668022   -5.305463
  C      5.708619    3.468885   -5.324190
  N      6.904696    3.038954   -5.717084
  N      4.981884    4.293570   -6.097457
  H      5.000546    4.101311   -7.087761
  H      4.084693    4.596899   -5.739652
  H      5.963358    2.526112   -3.642391
  H      7.047164    2.066861   -5.473604
  H      7.198145    3.307994   -6.645225
  H      3.282025    2.949187   -4.640259
  H      3.565254    3.514574   -2.982523
  H      4.574833    1.215157   -2.500443
  H      2.843514    1.260845   -2.751465
  O      4.809132    1.150187   -6.414361
  F      6.267366    0.564999   -4.819481

 Total Charge           Charge          ....    0
 Multiplicity           Mult            ....    1
 Number of Electrons    NEL             ....   78
 Basis Dimension        Dim             ....  376

ORBITAL ENERGIES
----------------

  NO   OCC          E(Eh)            E(eV)
   0   2.0000     -24.862684      -676.5480
   1   2.0000     -19.235802      -523.4328
   2   2.0000     -14.419872      -392.3847
   3   2.0000     -14.409436      -392.1007
   4   2.0000     -10.456663      -284.5403
   5   2.0000     -10.318563      -280.7824
   6   2.0000     -10.300742      -280.2974
   7   2.0000     -10.282018      -279.7879
   8   2.0000     -10.260752      -279.2092
   9   2.0000     -10.197590      -277.4905
  10   2.0000      -1.443055       -39.2675
  11   2.0000      -1.157643       -31.5011
  12   2.0000      -1.078161       -29.3382
  13   2.0000      -0.986854       -26.8536
  14   2.0000      -0.934866       -25.4390
  15   2.0000      -0.865694       -23.5567
  16   2.0000      -0.806446       -21.9445
  17   2.0000      -0.768439       -20.9103
  18   2.0000      -0.718084       -19.5400
  19   2.0000      -0.694863       -18.9082
  20   2.0000      -0.661521       -18.0009
  21   2.0000      -0.648429       -17.6447
  22   2.0000      -0.629641       -17.1334
  23   2.0000      -0.611114       -16.6293
  24   2.0000      -0.604948       -16.4615
  25   2.0000      -0.567183       -15.4338
  26   2.0000      -0.565053       -15.3759
  27   2.0000      -0.541589       -14.7374
  28   2.0000      -0.527745       -14.3607
  29   2.0000      -0.495640       -13.4870
  30   2.0000      -0.482416       -13.1272
  31   2.0000      -0.467873       -12.7315
  32   2.0000      -0.458396       -12.4736
  33   2.0000      -0.439169       -11.9504
  34   2.0000      -0.431137       -11.7318
  35   2.0000      -0.420171       -11.4334
  36   2.0000      -0.386207       -10.5092
  37   2.0000      -0.358864        -9.7652
  38   2.0000      -0.257184        -6.9983
  39   0.0000       0.056791         1.5454
  40   0.0000       0.111235         3.0268
  41   0.0000       0.125615         3.4182
  42   0.0000       0.138064         3.7569
  43   0.0000       0.147021         4.0006

MULLIKEN ATOMIC CHARGES
-----------------------
   0 C :   -0.156309
   1 C :   -0.289331
   2 C :   -0.247689
   3 C :   -0.231773
   4 H :    0.125310
   5 H :    0.132283
   6 C :    0.440020
   7 C :    0.206607
   8 N :   -0.439959
   9 N :   -0.493132
  10 H :    0.233640
  11 H :    0.248335
  12 H :    0.085772
  13 H :    0.239447
  14 H :    0.222874
  15 H :    0.068828
  16 H :    0.109747
  17 H :    0.126091
  18 H :    0.111290
  19 O :   -0.350583
  20 F :   -0.141468
Sum of atomic charges:    0.0000000

LOEWDIN ATOMIC CHARGES
----------------------
   0 C :   -0.282983
   1 C :   -0.280374
   2 C :   -0.253458
   3 C :   -0.224494
   4 H :    0.144182
   5 H :    0.152778
   6 C :   -0.497499
   7 C :   -0.472023
   8 N :   -0.005022
   9 N :   -0.010319
  10 H :    0.162996
  11 H :    0.174801
  12 H :    0.122570
  13 H :    0.166051
  14 H :    0.163231
  15 H :    0.134711
  16 H :    0.134198
  17 H :    0.141174
  18 H :    0.137300
  19 O :    0.078128
  20 F :    0.314052

  Mayer bond orders larger than 0.100000
B(  0-C ,  1-C ) :   0.9443 B(  0-C ,  2-C ) :   0.9566 B(  0-C , 15-H ) :   0.9701
B(  0-C , 16-H ) :   0.9665 B(  1-C ,  7-C ) :   1.6226 B(  1-C , 12-H ) :   1.0619
B(  2-C ,  3-C ) :   0.9725 B(  2-C , 17-H ) :   0.9806 B(  2-C , 18-H ) :   0.9725
B(  3-C ,  4-H ) :   0.9546 B(  3-C ,  5-H ) :   0.9688 B(  3-C ,  6-C ) :   0.9946
B(  6-C , 19-O ) :   2.0320 B(  6-C , 20-F ) :   1.0819 B(  7-C ,  8-N ) :   1.1689
B(  7-C ,  9-N ) :   1.1698 B(  8-N , 13-H ) :   0.9090 B(  8-N , 14-H ) :   0.9273
B(  9-N , 10-H ) :   0.9146 B(  9-N , 11-H ) :   0.9221

Dispersion correction           -0.008974818
FINAL SINGLE POINT ENERGY      -519.852357603850

DIPOLE MOMENT
-------------
                                X             Y             Z
Electronic contribution:      5.83412      -4.55101      -3.97166
Nuclear contribution   :     -6.25608       3.89116       3.75052
                        -----------------------------------------
Total Dipole Moment    :     -0.42196      -0.65985      -0.22113
                        -----------------------------------------
Magnitude (a.u.)       :      0.81385
Magnitude (Debye)      :      2.06864

Rotational constants in cm-1:     0.061229     0.042568     0.033282
Rotational constants in MHz :  1835.590871  1276.154029   997.769927

                             ****ORCA TERMINATED NORMALLY****
TOTAL RUN TIME: 0 days 0 hours 0 minutes 51 seconds 628 msec
