                         Program Version 5.0.0 -  RELEASE  -
|  1> !wB97X-D3 RIJCOSX def2-TZVP def2/J TightSCF xyzfile
|  2>
|  3> *xyzfile 0 1 D6.xyz
|  4>
|  5> %MaxCore 64000
|  6>
|  7> %pal nprocs 18
|  8> end
|  9>
| 10> %scf
| 11>   MaxIter 150
| 12> end
| 13>
| 14>
| 15>                          ****END OF INPUT****

CARTESIAN COORDINATES (ANGSTROEM)
---------------------------------
  C      3.905947    2.819855   -3.752920
  N      5.295615    3.131515   -4.105334
  C      3.803511    1.374716   -3.260807
  C      3.939934    0.320362   -4.367729
  H      4.105043   -0.655085   -3.907733
  H      3.022801    0.280517   -4.957117
  C      5.105846    0.668022   -5.305463
  C      5.708619    3.468885   -5.324190
  N      6.904696    3.038954   -5.717084
  C      4.981884    4.293570   -6.097457
  H      5.000546    4.101311   -7.087761
  H      4.084693    4.596899   -5.739652
  H      5.963358    2.526112   -3.642391
  H      7.047164    2.066861   -5.473604
  H      7.198145    3.307994   -6.645225
  H      3.282025    2.949187   -4.640259
  H      3.565254    3.514574   -2.982523
  H      4.574833    1.215157   -2.500443
  H      2.843514    1.260845   -2.751465
  O      4.809132    1.150187   -6.414361
  F      6.267366    0.564999   -4.819481

 Total Charge           Charge          ....    0
 Multiplicity           Mult            ....    1
 Number of Electrons    NEL             ....   78
 Basis Dimension        Dim             ....  376

ORBITAL ENERGIES
----------------

  NO   OCC          E(Eh)            E(eV)
   0   2.0000     -24.877124      -676.9410
   1   2.0000     -19.248988      -523.7916
   2   2.0000     -14.429794      -392.6546
   3   2.0000     -14.407980      -392.0611
   4   2.0000     -10.466414      -284.8056
   5   2.0000     -10.319062      -280.7960
   6   2.0000     -10.317200      -280.7453
   7   2.0000     -10.315866      -280.7090
   8   2.0000     -10.307490      -280.4811
   9   2.0000     -10.180425      -277.0235
  10   2.0000      -1.458009       -39.6744
  11   2.0000      -1.168669       -31.8011
  12   2.0000      -1.092485       -29.7280
  13   2.0000      -1.006644       -27.3922
  14   2.0000      -0.935549       -25.4576
  15   2.0000      -0.853083       -23.2136
  16   2.0000      -0.816188       -22.2096
  17   2.0000      -0.790980       -21.5237
  18   2.0000      -0.745230       -20.2787
  19   2.0000      -0.685474       -18.6527
  20   2.0000      -0.680045       -18.5050
  21   2.0000      -0.669336       -18.2136
  22   2.0000      -0.627004       -17.0617
  23   2.0000      -0.615111       -16.7380
  24   2.0000      -0.604157       -16.4399
  25   2.0000      -0.586202       -15.9514
  26   2.0000      -0.581237       -15.8163
  27   2.0000      -0.530078       -14.4241
  28   2.0000      -0.525887       -14.3101
  29   2.0000      -0.503035       -13.6883
  30   2.0000      -0.491333       -13.3699
  31   2.0000      -0.485347       -13.2070
  32   2.0000      -0.477956       -13.0059
  33   2.0000      -0.462361       -12.5815
  34   2.0000      -0.455142       -12.3851
  35   2.0000      -0.427665       -11.6374
  36   2.0000      -0.396094       -10.7783
  37   2.0000      -0.349547        -9.5117
  38   2.0000      -0.257564        -7.0087
  39   0.0000       0.045813         1.2466
  40   0.0000       0.101713         2.7677
  41   0.0000       0.129168         3.5148
  42   0.0000       0.141450         3.8490
  43   0.0000       0.145556         3.9608

MULLIKEN ATOMIC CHARGES
-----------------------
   0 C :   -0.093904
   1 N :   -0.290477
   2 C :   -0.291125
   3 C :   -0.203395
   4 H :    0.132699
   5 H :    0.143343
   6 C :    0.368606
   7 C :    0.249036
   8 N :   -0.449416
   9 C :   -0.466247
  10 H :    0.105594
  11 H :    0.065970
  12 H :    0.193328
  13 H :    0.215132
  14 H :    0.251051
  15 H :    0.138575
  16 H :    0.127168
  17 H :    0.131135
  18 H :    0.127201
  19 O :   -0.305968
  20 F :   -0.148305
Sum of atomic charges:    0.0000000

LOEWDIN ATOMIC CHARGES
----------------------
   0 C :   -0.265162
   1 N :    0.122281
   2 C :   -0.266224
   3 C :   -0.225920
   4 H :    0.146222
   5 H :    0.156334
   6 C :   -0.510146
   7 C :   -0.493450
   8 N :   -0.011138
   9 C :   -0.329379
  10 H :    0.099481
  11 H :    0.093978
  12 H :    0.176597
  13 H :    0.151845
  14 H :    0.178362
  15 H :    0.145848
  16 H :    0.130971
  17 H :    0.139125
  18 H :    0.144574
  19 O :    0.110012
  20 F :    0.305791

  Mayer bond orders larger than 0.100000
B(  0-C ,  1-N ) :   0.9231 B(  0-C ,  2-C ) :   0.9598 B(  0-C , 15-H ) :   0.9717
B(  0-C , 16-H ) :   0.9726 B(  1-N ,  7-C ) :   1.1383 B(  1-N , 12-H ) :   0.9298
B(  2-C ,  3-C ) :   0.9586 B(  2-C , 17-H ) :   0.9820 B(  2-C , 18-H ) :   0.9697
B(  3-C ,  4-H ) :   0.9569 B(  3-C ,  5-H ) :   0.9670 B(  3-C ,  6-C ) :   0.9806
B(  6-C , 19-O ) :   2.0626 B(  6-C , 20-F ) :   1.0723 B(  7-C ,  8-N ) :   1.1747
B(  7-C ,  9-C ) :   1.6632 B(  8-N , 13-H ) :   0.9227 B(  8-N , 14-H ) :   0.9221
B(  9-C , 10-H ) :   0.9805 B(  9-C , 11-H ) :   1.0181

Dispersion correction           -0.009056826
FINAL SINGLE POINT ENERGY      -519.838701093850

DIPOLE MOMENT
-------------
                                X             Y             Z
Electronic contribution:      5.97395      -5.73703      -2.33083
Nuclear contribution   :     -6.29470       4.03423       3.50525
                        -----------------------------------------
Total Dipole Moment    :     -0.32075      -1.70280       1.17442
                        -----------------------------------------
Magnitude (a.u.)       :      2.09324
Magnitude (Debye)      :      5.32060

Rotational constants in cm-1:     0.061094     0.043661     0.033867
Rotational constants in MHz :  1831.559881  1308.929520  1015.295167

                             ****ORCA TERMINATED NORMALLY****
TOTAL RUN TIME: 0 days 0 hours 0 minutes 42 seconds 477 msec
