                         Program Version 5.0.0 -  RELEASE  -
|  1> !LC-PBE RIJCOSX def2-SVPD def2/J TightSCF
|  2> *xyz -1 1
|  3> C         -0.96015       -0.52236       -0.48987
|  4> O          0.26170       -0.58031        0.13861
|  5> H         -0.85050       -0.82220       -1.51113
|  6> H         -1.33436        0.47929       -0.45044
|  7> H         -1.64624       -1.17908        0.00297
|  8> *
|  9>
| 10> %MaxCore 64000
| 11>
| 12> %pal nprocs 4
| 13> end
| 14>
| 15> %scf
| 16>   MaxIter 150
| 17> end
| 18>
| 19>
| 20>                          ****END OF INPUT****

CARTESIAN COORDINATES (ANGSTROEM)
---------------------------------
  C     -0.960150   -0.522360   -0.489870
  O      0.261700   -0.580310    0.138610
  H     -0.850500   -0.822200   -1.511130
  H     -1.334360    0.479290   -0.450440
  H     -1.646240   -1.179080    0.002970

 Total Charge           Charge          ....   -1
 Multiplicity           Mult            ....    1
 Number of Electrons    NEL             ....   18
 Basis Dimension        Dim             ....   67

ORBITAL ENERGIES
----------------

  NO   OCC          E(Eh)            E(eV)
   0   2.0000     -18.629619      -506.9377
   1   2.0000      -9.910054      -269.6663
   2   2.0000      -0.809792       -22.0355
   3   2.0000      -0.549346       -14.9485
   4   2.0000      -0.337782        -9.1915
   5   2.0000      -0.337774        -9.1913
   6   2.0000      -0.230975        -6.2851
   7   2.0000      -0.074864        -2.0372
   8   2.0000      -0.074861        -2.0371
   9   0.0000       0.262277         7.1369
  10   0.0000       0.340590         9.2679
  11   0.0000       0.340596         9.2681
  12   0.0000       0.350164         9.5284
  13   0.0000       0.387431        10.5425

MULLIKEN ATOMIC CHARGES
-----------------------
   0 C :    0.535528
   1 O :   -1.005804
   2 H :   -0.176496
   3 H :   -0.176708
   4 H :   -0.176521
Sum of atomic charges:   -1.0000000

LOEWDIN ATOMIC CHARGES
----------------------
   0 C :   -0.148192
   1 O :   -0.663529
   2 H :   -0.062768
   3 H :   -0.062758
   4 H :   -0.062754

  Mayer bond orders larger than 0.100000
B(  0-C ,  1-O ) :   1.2868 B(  0-C ,  2-H ) :   0.9444 B(  0-C ,  3-H ) :   0.9445
B(  0-C ,  4-H ) :   0.9444

FINAL SINGLE POINT ENERGY      -114.684583273053

DIPOLE MOMENT
-------------
                                X             Y             Z
Electronic contribution:      1.54938      -0.07339       0.79679
Nuclear contribution   :     -2.56864       0.12183      -1.32123
                        -----------------------------------------
Total Dipole Moment    :     -1.01926       0.04844      -0.52444
                        -----------------------------------------
Magnitude (a.u.)       :      1.14729
Magnitude (Debye)      :      2.91618

Rotational constants in cm-1:     5.477744     0.932677     0.932677
Rotational constants in MHz : 164218.635293 27960.967920 27960.945417

                             ****ORCA TERMINATED NORMALLY****
TOTAL RUN TIME: 0 days 0 hours 0 minutes 3 seconds 649 msec
