                         Program Version 5.0.0 -  RELEASE  -
|  1> !LC-PBE RIJCOSX def2-SVPD def2/J TightSCF
|  2> *xyz 1 1
|  3> C          4.36645       -0.13321       -1.41606
|  4> C          3.05650       -0.32080       -0.70738
|  5> N          2.38983        0.71129       -0.24391
|  6> N          2.51600       -1.50772       -0.55023
|  7> H          2.96768       -2.32291       -0.95631
|  8> H          1.54987       -1.49063       -0.24988
|  9> H          2.74307        1.64947       -0.41280
| 10> H          1.44036        0.50278        0.03703
| 11> H          4.74975       -1.08632       -1.71533
| 12> H          5.06373        0.34075       -0.75722
| 13> H          4.21960        0.47966       -2.28077
| 14> *
| 15>
| 16> %MaxCore 64000
| 17>
| 18> %pal nprocs 4
| 19> end
| 20>
| 21> %scf
| 22>   MaxIter 150
| 23> end
| 24>
| 25>
| 26>                          ****END OF INPUT****

CARTESIAN COORDINATES (ANGSTROEM)
---------------------------------
  C      4.366450   -0.133210   -1.416060
  C      3.056500   -0.320800   -0.707380
  N      2.389830    0.711290   -0.243910
  N      2.516000   -1.507720   -0.550230
  H      2.967680   -2.322910   -0.956310
  H      1.549870   -1.490630   -0.249880
  H      2.743070    1.649470   -0.412800
  H      1.440360    0.502780    0.037030
  H      4.749750   -1.086320   -1.715330
  H      5.063730    0.340750   -0.757220
  H      4.219600    0.479660   -2.280770

 Total Charge           Charge          ....    1
 Multiplicity           Mult            ....    1
 Number of Electrons    NEL             ....   32
 Basis Dimension        Dim             ....  136

ORBITAL ENERGIES
----------------

  NO   OCC          E(Eh)            E(eV)
   0   2.0000     -14.484177      -394.1345
   1   2.0000     -14.481787      -394.0695
   2   2.0000     -10.470086      -284.9055
   3   2.0000     -10.329463      -281.0790
   4   2.0000      -1.391785       -37.8724
   5   2.0000      -1.274710       -34.6866
   6   2.0000      -1.127499       -30.6808
   7   2.0000      -0.994147       -27.0521
   8   2.0000      -0.935586       -25.4586
   9   2.0000      -0.922412       -25.1001
  10   2.0000      -0.850994       -23.1567
  11   2.0000      -0.818609       -22.2755
  12   2.0000      -0.760401       -20.6916
  13   2.0000      -0.742459       -20.2033
  14   2.0000      -0.719076       -19.5671
  15   2.0000      -0.632134       -17.2012
  16   0.0000      -0.126945        -3.4543
  17   0.0000      -0.086052        -2.3416
  18   0.0000      -0.043311        -1.1785
  19   0.0000      -0.034120        -0.9285
  20   0.0000      -0.014685        -0.3996

MULLIKEN ATOMIC CHARGES
-----------------------
   0 C :    0.310925
   1 C :    0.237266
   2 N :    0.015355
   3 N :   -0.080282
   4 H :    0.086326
   5 H :    0.010136
   6 H :    0.069199
   7 H :   -0.037857
   8 H :    0.140832
   9 H :    0.131172
  10 H :    0.116927
Sum of atomic charges:    1.0000000

LOEWDIN ATOMIC CHARGES
----------------------
   0 C :    0.206972
   1 C :   -0.068150
   2 N :    0.260741
   3 N :    0.264606
   4 H :    0.069038
   5 H :    0.053127
   6 H :    0.073208
   7 H :    0.052021
   8 H :    0.018772
   9 H :    0.034637
  10 H :    0.035028

  Mayer bond orders larger than 0.100000
B(  0-C ,  1-C ) :   1.3439 B(  0-C ,  8-H ) :   0.7921 B(  0-C ,  9-H ) :   0.7571
B(  0-C , 10-H ) :   0.8289 B(  1-C ,  2-N ) :   1.1782 B(  1-C ,  3-N ) :   1.0719
B(  1-C ,  5-H ) :  -0.1351 B(  1-C ,  7-H ) :  -0.1123 B(  1-C ,  8-H ) :   0.2073
B(  1-C ,  9-H ) :   0.1717 B(  1-C , 10-H ) :   0.1202 B(  2-N ,  3-N ) :   0.2061
B(  2-N ,  6-H ) :   1.0868 B(  2-N ,  7-H ) :   1.1869 B(  3-N ,  4-H ) :   1.0775
B(  3-N ,  5-H ) :   1.1973 B(  4-H ,  5-H ) :  -0.1424 B(  6-H ,  7-H ) :  -0.1338
B(  8-H ,  9-H ) :   0.1084 B(  8-H , 10-H ) :   0.1016

FINAL SINGLE POINT ENERGY      -188.980568776227

DIPOLE MOMENT
-------------
                                X             Y             Z
Electronic contribution:     -1.73582      -0.26389       1.09277
Nuclear contribution   :      1.22976       0.25273      -1.15956
                        -----------------------------------------
Total Dipole Moment    :     -0.50606      -0.01115      -0.06679
                        -----------------------------------------
Magnitude (a.u.)       :      0.51057
Magnitude (Debye)      :      1.29778

Rotational constants in cm-1:     0.347067     0.291236     0.163306
Rotational constants in MHz : 10404.811357  8731.035118  4895.793931

                             ****ORCA TERMINATED NORMALLY****
TOTAL RUN TIME: 0 days 0 hours 0 minutes 10 seconds 952 msec
