                         Program Version 5.0.0 -  RELEASE  -
|  1> !LC-PBE RIJCOSX def2-SVPD def2/J TightSCF
|  2> *xyz 0 1
|  3> C         -0.96015       -0.52236       -0.48987
|  4> F          0.26170       -0.58031        0.13861
|  5> H         -0.85050       -0.82220       -1.51113
|  6> H         -1.33436        0.47929       -0.45044
|  7> H         -1.64624       -1.17908        0.00297
|  8> *
|  9>
| 10> %MaxCore 64000
| 11>
| 12> %pal nprocs 4
| 13> end
| 14>
| 15> %scf
| 16>   MaxIter 150
| 17> end
| 18>
| 19>
| 20>                          ****END OF INPUT****

CARTESIAN COORDINATES (ANGSTROEM)
---------------------------------
  C     -0.960150   -0.522360   -0.489870
  F      0.261700   -0.580310    0.138610
  H     -0.850500   -0.822200   -1.511130
  H     -1.334360    0.479290   -0.450440
  H     -1.646240   -1.179080    0.002970

 Total Charge           Charge          ....    0
 Multiplicity           Mult            ....    1
 Number of Electrons    NEL             ....   18
 Basis Dimension        Dim             ....   67

ORBITAL ENERGIES
----------------

  NO   OCC          E(Eh)            E(eV)
   0   2.0000     -24.490783      -666.4281
   1   2.0000     -10.198130      -277.5052
   2   2.0000      -1.336908       -36.3791
   3   2.0000      -0.869915       -23.6716
   4   2.0000      -0.643891       -17.5212
   5   2.0000      -0.642262       -17.4768
   6   2.0000      -0.642255       -17.4766
   7   2.0000      -0.490133       -13.3372
   8   2.0000      -0.490125       -13.3370
   9   0.0000       0.091879         2.5002
  10   0.0000       0.146888         3.9970
  11   0.0000       0.175896         4.7864
  12   0.0000       0.175898         4.7864
  13   0.0000       0.213901         5.8205

MULLIKEN ATOMIC CHARGES
-----------------------
   0 C :    0.599089
   1 F :   -0.464341
   2 H :   -0.044817
   3 H :   -0.045072
   4 H :   -0.044858
Sum of atomic charges:    0.0000000

LOEWDIN ATOMIC CHARGES
----------------------
   0 C :    0.231843
   1 F :   -0.248950
   2 H :    0.005701
   3 H :    0.005703
   4 H :    0.005704

  Mayer bond orders larger than 0.100000
B(  0-C ,  1-F ) :   0.8883 B(  0-C ,  2-H ) :   0.9648 B(  0-C ,  3-H ) :   0.9649
B(  0-C ,  4-H ) :   0.9647

FINAL SINGLE POINT ENERGY      -139.286206842607

DIPOLE MOMENT
-------------
                                X             Y             Z
Electronic contribution:      2.56735      -0.12173       1.32049
Nuclear contribution   :     -3.25854       0.15455      -1.67609
                        -----------------------------------------
Total Dipole Moment    :     -0.69119       0.03282      -0.35560
                        -----------------------------------------
Magnitude (a.u.)       :      0.77799
Magnitude (Debye)      :      1.97750

Rotational constants in cm-1:     5.477744     0.868130     0.868129
Rotational constants in MHz : 164218.635293 26025.869915 26025.850419

                             ****ORCA TERMINATED NORMALLY****
TOTAL RUN TIME: 0 days 0 hours 0 minutes 3 seconds 288 msec
