                         Program Version 5.0.0 -  RELEASE  -
|  1> !LC-PBE RIJCOSX def2-SVPD def2/J TightSCF
|  2> *xyz 0 1
|  3> C          4.36645       -0.13321       -1.41606
|  4> C          3.05650       -0.32080       -0.70738
|  5> C          2.38983        0.71129       -0.24391
|  6> N          2.51600       -1.50772       -0.55023
|  7> H          2.96768       -2.32291       -0.95631
|  8> H          1.54987       -1.49063       -0.24988
|  9> H          2.74307        1.64947       -0.41280
| 10> H          1.44036        0.50278        0.03703
| 11> H          4.74975       -1.08632       -1.71533
| 12> H          5.06373        0.34075       -0.75722
| 13> H          4.21960        0.47966       -2.28077
| 14> *
| 15>
| 16> %MaxCore 64000
| 17>
| 18> %pal nprocs 4
| 19> end
| 20>
| 21> %scf
| 22>   MaxIter 150
| 23> end
| 24>
| 25>
| 26>                          ****END OF INPUT****

CARTESIAN COORDINATES (ANGSTROEM)
---------------------------------
  C      4.366450   -0.133210   -1.416060
  C      3.056500   -0.320800   -0.707380
  C      2.389830    0.711290   -0.243910
  N      2.516000   -1.507720   -0.550230
  H      2.967680   -2.322910   -0.956310
  H      1.549870   -1.490630   -0.249880
  H      2.743070    1.649470   -0.412800
  H      1.440360    0.502780    0.037030
  H      4.749750   -1.086320   -1.715330
  H      5.063730    0.340750   -0.757220
  H      4.219600    0.479660   -2.280770

 Total Charge           Charge          ....    0
 Multiplicity           Mult            ....    1
 Number of Electrons    NEL             ....   32
 Basis Dimension        Dim             ....  136

ORBITAL ENERGIES
----------------

  NO   OCC          E(Eh)            E(eV)
   0   2.0000     -14.228537      -387.1782
   1   2.0000     -10.153062      -276.2789
   2   2.0000     -10.119843      -275.3749
   3   2.0000     -10.054605      -273.5997
   4   2.0000      -1.101537       -29.9744
   5   2.0000      -0.923071       -25.1180
   6   2.0000      -0.857053       -23.3216
   7   2.0000      -0.715146       -19.4601
   8   2.0000      -0.680213       -18.5095
   9   2.0000      -0.614219       -16.7137
  10   2.0000      -0.577725       -15.7207
  11   2.0000      -0.537286       -14.6203
  12   2.0000      -0.525618       -14.3028
  13   2.0000      -0.492655       -13.4058
  14   2.0000      -0.475746       -12.9457
  15   2.0000      -0.307372        -8.3640
  16   0.0000       0.090922         2.4741
  17   0.0000       0.125559         3.4166
  18   0.0000       0.128788         3.5045
  19   0.0000       0.130350         3.5470
  20   0.0000       0.164998         4.4898

MULLIKEN ATOMIC CHARGES
-----------------------
   0 C :    0.512334
   1 C :   -0.407610
   2 C :    0.229951
   3 N :    0.062358
   4 H :   -0.054626
   5 H :   -0.013591
   6 H :   -0.164740
   7 H :   -0.294442
   8 H :   -0.005113
   9 H :    0.082118
  10 H :    0.053360
Sum of atomic charges:   -0.0000000

LOEWDIN ATOMIC CHARGES
----------------------
   0 C :    0.140573
   1 C :   -0.295835
   2 C :    0.128603
   3 N :    0.141314
   4 H :    0.012963
   5 H :    0.012653
   6 H :   -0.061270
   7 H :   -0.075763
   8 H :   -0.014654
   9 H :    0.005785
  10 H :    0.005632

  Mayer bond orders larger than 0.100000
B(  0-C ,  1-C ) :   1.1964 B(  0-C ,  8-H ) :   0.7589 B(  0-C ,  9-H ) :   0.7672
B(  0-C , 10-H ) :   0.8331 B(  1-C ,  2-C ) :   1.9306 B(  1-C ,  3-N ) :   1.1046
B(  1-C ,  6-H ) :   0.1327 B(  1-C ,  7-H ) :   0.1907 B(  1-C ,  8-H ) :   0.2609
B(  1-C ,  9-H ) :   0.1728 B(  1-C , 10-H ) :   0.1218 B(  2-C ,  3-N ) :   0.2570
B(  2-C ,  6-H ) :   0.8791 B(  2-C ,  7-H ) :   0.8462 B(  3-N ,  4-H ) :   1.1309
B(  3-N ,  5-H ) :   1.1225 B(  4-H ,  5-H ) :  -0.1280

FINAL SINGLE POINT ENERGY      -172.540880222299

DIPOLE MOMENT
-------------
                                X             Y             Z
Electronic contribution:     -0.99620      -1.14571       0.65465
Nuclear contribution   :      1.07959       0.48266      -1.05101
                        -----------------------------------------
Total Dipole Moment    :      0.08338      -0.66305      -0.39636
                        -----------------------------------------
Magnitude (a.u.)       :      0.77697
Magnitude (Debye)      :      1.97491

Rotational constants in cm-1:     0.369235     0.294626     0.169175
Rotational constants in MHz : 11069.394850  8832.653024  5071.734673

                             ****ORCA TERMINATED NORMALLY****
TOTAL RUN TIME: 0 days 0 hours 0 minutes 12 seconds 246 msec
