                         Program Version 5.0.0 -  RELEASE  -
|  1> !LC-PBE RIJCOSX def2-SVPD def2/J TightSCF
|  2> *xyz 0 1
|  3> C          4.36645       -0.13321       -1.41606
|  4> C          3.05650       -0.32080       -0.70738
|  5> N          2.38983        0.71129       -0.24391
|  6> C          2.51600       -1.50772       -0.55023
|  7> H          2.96768       -2.32291       -0.95631
|  8> H          1.54987       -1.49063       -0.24988
|  9> H          2.74307        1.64947       -0.41280
| 10> H          1.44036        0.50278        0.03703
| 11> H          4.74975       -1.08632       -1.71533
| 12> H          5.06373        0.34075       -0.75722
| 13> H          4.21960        0.47966       -2.28077
| 14> *
| 15>
| 16> %MaxCore 64000
| 17>
| 18> %pal nprocs 4
| 19> end
| 20>
| 21> %scf
| 22>   MaxIter 150
| 23> end
| 24>
| 25>
| 26>                          ****END OF INPUT****

CARTESIAN COORDINATES (ANGSTROEM)
---------------------------------
  C      4.366450   -0.133210   -1.416060
  C      3.056500   -0.320800   -0.707380
  N      2.389830    0.711290   -0.243910
  C      2.516000   -1.507720   -0.550230
  H      2.967680   -2.322910   -0.956310
  H      1.549870   -1.490630   -0.249880
  H      2.743070    1.649470   -0.412800
  H      1.440360    0.502780    0.037030
  H      4.749750   -1.086320   -1.715330
  H      5.063730    0.340750   -0.757220
  H      4.219600    0.479660   -2.280770

 Total Charge           Charge          ....    0
 Multiplicity           Mult            ....    1
 Number of Electrons    NEL             ....   32
 Basis Dimension        Dim             ....  136

ORBITAL ENERGIES
----------------

  NO   OCC          E(Eh)            E(eV)
   0   2.0000     -14.227103      -387.1392
   1   2.0000     -10.153623      -276.2941
   2   2.0000     -10.119605      -275.3685
   3   2.0000     -10.058552      -273.7071
   4   2.0000      -1.101602       -29.9761
   5   2.0000      -0.922153       -25.0931
   6   2.0000      -0.858532       -23.3618
   7   2.0000      -0.715277       -19.4637
   8   2.0000      -0.680320       -18.5125
   9   2.0000      -0.614374       -16.7180
  10   2.0000      -0.579763       -15.7762
  11   2.0000      -0.535360       -14.5679
  12   2.0000      -0.528100       -14.3703
  13   2.0000      -0.492477       -13.4010
  14   2.0000      -0.474200       -12.9036
  15   2.0000      -0.310667        -8.4537
  16   0.0000       0.090886         2.4731
  17   0.0000       0.126062         3.4303
  18   0.0000       0.129917         3.5352
  19   0.0000       0.133869         3.6428
  20   0.0000       0.167659         4.5622

MULLIKEN ATOMIC CHARGES
-----------------------
   0 C :    0.547627
   1 C :   -0.544474
   2 N :    0.164465
   3 C :    0.230130
   4 H :   -0.111864
   5 H :   -0.310627
   6 H :   -0.090579
   7 H :   -0.070547
   8 H :    0.113261
   9 H :    0.041485
  10 H :    0.031123
Sum of atomic charges:    0.0000000

LOEWDIN ATOMIC CHARGES
----------------------
   0 C :    0.139466
   1 C :   -0.304030
   2 N :    0.139400
   3 C :    0.137349
   4 H :   -0.066165
   5 H :   -0.073888
   6 H :    0.017314
   7 H :    0.011686
   8 H :   -0.002108
   9 H :   -0.000513
  10 H :    0.001489

  Mayer bond orders larger than 0.100000
B(  0-C ,  1-C ) :   1.3625 B(  0-C ,  8-H ) :   0.8139 B(  0-C ,  9-H ) :   0.7136
B(  0-C , 10-H ) :   0.7383 B(  1-C ,  2-N ) :   1.1904 B(  1-C ,  3-C ) :   1.8932
B(  1-C ,  5-H ) :   0.1864 B(  1-C ,  8-H ) :   0.1946 B(  1-C ,  9-H ) :   0.2286
B(  1-C , 10-H ) :   0.2283 B(  2-N ,  3-C ) :   0.2466 B(  2-N ,  6-H ) :   1.1411
B(  2-N ,  7-H ) :   1.1231 B(  3-C ,  4-H ) :   0.9722 B(  3-C ,  5-H ) :   0.8125
B(  6-H ,  7-H ) :  -0.1113 B(  8-H , 10-H ) :   0.1031

FINAL SINGLE POINT ENERGY      -172.543870601366

DIPOLE MOMENT
-------------
                                X             Y             Z
Electronic contribution:     -1.12529       0.76109       0.93056
Nuclear contribution   :      1.10788      -0.01499      -1.11971
                        -----------------------------------------
Total Dipole Moment    :     -0.01741       0.74610      -0.18915
                        -----------------------------------------
Magnitude (a.u.)       :      0.76990
Magnitude (Debye)      :      1.95692

Rotational constants in cm-1:     0.367851     0.295709     0.169239
Rotational constants in MHz : 11027.892768  8865.123922  5073.656136

                             ****ORCA TERMINATED NORMALLY****
TOTAL RUN TIME: 0 days 0 hours 0 minutes 11 seconds 567 msec
