                         Program Version 5.0.0 -  RELEASE  -
|  1> !wB97X-D3 RIJCOSX def2-TZVPD def2/J TightSCF
|  2> *xyz -1 1
|  3> C         -1.10433        0.25137       -2.86006
|  4> C         -0.71189        0.84252       -4.21834
|  5> H          0.15463        1.49980       -4.13091
|  6> H         -1.53813        1.45922       -4.58267
|  7> C         -0.39762       -0.20587       -5.28802
|  8> O          0.61717       -0.00535       -5.99827
|  9> O         -1.13317       -1.22138       -5.34147
| 10> H         -1.95489       -0.38644       -2.98099
| 11> H         -1.34603        1.04362       -2.18269
| 12> H         -0.28606       -0.31581       -2.46809
| 13> *
| 14>
| 15> %MaxCore 64000
| 16>
| 17> %pal nprocs 4
| 18> end
| 19>
| 20> %scf
| 21>   MaxIter 150
| 22> end
| 23>
| 24>
| 25>                          ****END OF INPUT****

CARTESIAN COORDINATES (ANGSTROEM)
---------------------------------
  C     -1.104330    0.251370   -2.860060
  C     -0.711890    0.842520   -4.218340
  H      0.154630    1.499800   -4.130910
  H     -1.538130    1.459220   -4.582670
  C     -0.397620   -0.205870   -5.288020
  O      0.617170   -0.005350   -5.998270
  O     -1.133170   -1.221380   -5.341470
  H     -1.954890   -0.386440   -2.980990
  H     -1.346030    1.043620   -2.182690
  H     -0.286060   -0.315810   -2.468090

 Total Charge           Charge          ....   -1
 Multiplicity           Mult            ....    1
 Number of Electrons    NEL             ....   40
 Basis Dimension        Dim             ....  236

ORBITAL ENERGIES
----------------

  NO   OCC          E(Eh)            E(eV)
   0   2.0000     -18.963625      -516.0265
   1   2.0000     -18.962838      -516.0050
   2   2.0000     -10.157378      -276.3963
   3   2.0000     -10.108635      -275.0699
   4   2.0000     -10.100263      -274.8421
   5   2.0000      -0.935883       -25.4667
   6   2.0000      -0.840871       -22.8813
   7   2.0000      -0.720587       -19.6082
   8   2.0000      -0.586076       -15.9479
   9   2.0000      -0.423326       -11.5193
  10   2.0000      -0.394210       -10.7270
  11   2.0000      -0.361847        -9.8463
  12   2.0000      -0.328602        -8.9417
  13   2.0000      -0.312536        -8.5045
  14   2.0000      -0.304632        -8.2894
  15   2.0000      -0.274299        -7.4641
  16   2.0000      -0.256486        -6.9793
  17   2.0000      -0.140597        -3.8258
  18   2.0000      -0.134588        -3.6623
  19   2.0000      -0.122826        -3.3423
  20   0.0000       0.192275         5.2321
  21   0.0000       0.212445         5.7809
  22   0.0000       0.219497         5.9728
  23   0.0000       0.237054         6.4506
  24   0.0000       0.257148         6.9974

MULLIKEN ATOMIC CHARGES
-----------------------
   0 C :   -1.025485
   1 C :   -0.057809
   2 H :    0.216325
   3 H :    0.194304
   4 C :    0.364966
   5 O :   -0.769839
   6 O :   -0.760275
   7 H :    0.255804
   8 H :    0.294193
   9 H :    0.287816
Sum of atomic charges:   -1.0000000

LOEWDIN ATOMIC CHARGES
----------------------
   0 C :   -0.134477
   1 C :   -0.210288
   2 H :    0.087986
   3 H :    0.094957
   4 C :   -0.771623
   5 O :   -0.115917
   6 O :   -0.107509
   7 H :    0.053858
   8 H :    0.042614
   9 H :    0.060399

  Mayer bond orders larger than 0.100000
B(  0-C ,  1-C ) :   0.5928 B(  0-C ,  4-C ) :   0.1418 B(  0-C ,  7-H ) :   1.0134
B(  0-C ,  8-H ) :   0.9377 B(  0-C ,  9-H ) :   0.9687 B(  1-C ,  2-H ) :   1.0036
B(  1-C ,  3-H ) :   0.9415 B(  1-C ,  4-C ) :   0.9670 B(  4-C ,  5-O ) :   1.4463
B(  4-C ,  6-O ) :   1.4793

Dispersion correction           -0.001932078
FINAL SINGLE POINT ENERGY      -267.871577858628

DIPOLE MOMENT
-------------
                                X             Y             Z
Electronic contribution:      1.53882      -2.35386      -5.20123
Nuclear contribution   :     -2.09607       3.44215       6.87744
                        -----------------------------------------
Total Dipole Moment    :     -0.55725       1.08828       1.67621
                        -----------------------------------------
Magnitude (a.u.)       :      2.07474
Magnitude (Debye)      :      5.27358

Rotational constants in cm-1:     0.324698     0.133739     0.103466
Rotational constants in MHz :  9734.203431  4009.406827  3101.846422

                             ****ORCA TERMINATED NORMALLY****
TOTAL RUN TIME: 0 days 0 hours 0 minutes 45 seconds 123 msec
