                         Program Version 5.0.0 -  RELEASE  -
|  1> !wB97X-D3 RIJCOSX def2-TZVPD def2/J TightSCF
|  2> *xyz 1 1
|  3> C          2.23447       -2.98975       -2.39762
|  4> N          2.75680       -2.94555       -3.76503
|  5> C          1.98721       -2.59045       -4.81898
|  6> N          0.74322       -3.01749       -4.91352
|  7> N          2.49964       -1.84860       -5.80324
|  8> H          3.30978       -1.29282       -5.55895
|  9> H          1.80103       -1.30430       -6.28913
| 10> H          3.71612       -2.62880       -3.82953
| 11> H          0.39583       -3.62775       -4.18502
| 12> H          0.03920       -2.45438       -5.37137
| 13> C          2.19120       -1.61950       -1.71549
| 14> H          2.87278       -3.66637       -1.82801
| 15> H          1.24619       -3.44744       -2.40784
| 16> H          1.56387       -0.96046       -2.27853
| 17> H          3.18033       -1.21449       -1.66568
| 18> H          1.79916       -1.72608       -0.72562
| 19> *
| 20>
| 21> %MaxCore 64000
| 22>
| 23> %pal nprocs 4
| 24> end
| 25>
| 26> %scf
| 27>   MaxIter 150
| 28> end
| 29>
| 30>
| 31>                          ****END OF INPUT****

CARTESIAN COORDINATES (ANGSTROEM)
---------------------------------
  C      2.234470   -2.989750   -2.397620
  N      2.756800   -2.945550   -3.765030
  C      1.987210   -2.590450   -4.818980
  N      0.743220   -3.017490   -4.913520
  N      2.499640   -1.848600   -5.803240
  H      3.309780   -1.292820   -5.558950
  H      1.801030   -1.304300   -6.289130
  H      3.716120   -2.628800   -3.829530
  H      0.395830   -3.627750   -4.185020
  H      0.039200   -2.454380   -5.371370
  C      2.191200   -1.619500   -1.715490
  H      2.872780   -3.666370   -1.828010
  H      1.246190   -3.447440   -2.407840
  H      1.563870   -0.960460   -2.278530
  H      3.180330   -1.214490   -1.665680
  H      1.799160   -1.726080   -0.725620

 Total Charge           Charge          ....    1
 Multiplicity           Mult            ....    1
 Number of Electrons    NEL             ....   48
 Basis Dimension        Dim             ....  312

ORBITAL ENERGIES
----------------

  NO   OCC          E(Eh)            E(eV)
   0   2.0000     -14.651792      -398.6955
   1   2.0000     -14.647855      -398.5884
   2   2.0000     -14.645937      -398.5362
   3   2.0000     -10.619057      -288.9592
   4   2.0000     -10.484797      -285.3058
   5   2.0000     -10.414192      -283.3846
   6   2.0000      -1.340237       -36.4697
   7   2.0000      -1.223551       -33.2945
   8   2.0000      -1.219056       -33.1722
   9   2.0000      -1.044777       -28.4298
  10   2.0000      -0.953755       -25.9530
  11   2.0000      -0.914445       -24.8833
  12   2.0000      -0.889999       -24.2181
  13   2.0000      -0.845179       -22.9985
  14   2.0000      -0.803005       -21.8509
  15   2.0000      -0.784424       -21.3453
  16   2.0000      -0.750386       -20.4190
  17   2.0000      -0.722507       -19.6604
  18   2.0000      -0.702893       -19.1267
  19   2.0000      -0.667814       -18.1721
  20   2.0000      -0.632032       -17.1985
  21   2.0000      -0.612110       -16.6563
  22   2.0000      -0.584608       -15.9080
  23   2.0000      -0.543852       -14.7990
  24   0.0000      -0.115515        -3.1433
  25   0.0000      -0.090071        -2.4509
  26   0.0000      -0.060051        -1.6341
  27   0.0000      -0.048162        -1.3106
  28   0.0000      -0.031208        -0.8492

MULLIKEN ATOMIC CHARGES
-----------------------
   0 C :   -0.452864
   1 N :   -0.148483
   2 C :    0.648499
   3 N :   -0.383190
   4 N :   -0.474189
   5 H :    0.265505
   6 H :    0.269913
   7 H :    0.267815
   8 H :    0.269389
   9 H :    0.252550
  10 C :   -1.114294
  11 H :    0.297418
  12 H :    0.283659
  13 H :    0.306867
  14 H :    0.349178
  15 H :    0.362229
Sum of atomic charges:    1.0000000

LOEWDIN ATOMIC CHARGES
----------------------
   0 C :   -0.207070
   1 N :    0.080118
   2 C :   -0.429209
   3 N :    0.220894
   4 N :    0.203752
   5 H :    0.138360
   6 H :    0.137841
   7 H :    0.159529
   8 H :    0.133191
   9 H :    0.148545
  10 C :   -0.057800
  11 H :    0.129734
  12 H :    0.108585
  13 H :    0.072312
  14 H :    0.077156
  15 H :    0.084060

  Mayer bond orders larger than 0.100000
B(  0-C ,  1-N ) :   0.8548 B(  0-C , 10-C ) :   0.7109 B(  0-C , 11-H ) :   0.9613
B(  0-C , 12-H ) :   0.8948 B(  1-N ,  2-C ) :   1.2695 B(  1-N ,  7-H ) :   0.8937
B(  2-C ,  3-N ) :   1.1354 B(  2-C ,  4-N ) :   1.1282 B(  3-N ,  8-H ) :   0.8951
B(  3-N ,  9-H ) :   0.9611 B(  4-N ,  5-H ) :   0.9271 B(  4-N ,  6-H ) :   0.9014
B( 10-C , 13-H ) :   0.9585 B( 10-C , 14-H ) :   0.9379 B( 10-C , 15-H ) :   0.9387

Dispersion correction           -0.003912956
FINAL SINGLE POINT ENERGY      -284.420054899282

DIPOLE MOMENT
-------------
                                X             Y             Z
Electronic contribution:      0.18063      -1.67770      -5.20082
Nuclear contribution   :     -0.59121       2.30298       4.63196
                        -----------------------------------------
Total Dipole Moment    :     -0.41057       0.62528      -0.56887
                        -----------------------------------------
Magnitude (a.u.)       :      0.93976
Magnitude (Debye)      :      2.38869

Rotational constants in cm-1:     0.205874     0.074757     0.066901
Rotational constants in MHz :  6171.937773  2241.151057  2005.629823

                             ****ORCA TERMINATED NORMALLY****
TOTAL RUN TIME: 0 days 0 hours 1 minutes 23 seconds 765 msec
