                         Program Version 5.0.0 -  RELEASE  -
|  1> !wB97X-D3 RIJCOSX def2-TZVPD def2/J TightSCF xyzfile
|  2>
|  3> *xyzfile 0 1 B.xyz
|  4>
|  5> %MaxCore 64000
|  6>
|  7> %pal nprocs 18
|  8> end
|  9>
| 10> %scf
| 11>   MaxIter 150
| 12> end
| 13>
| 14>
| 15>                          ****END OF INPUT****

CARTESIAN COORDINATES (ANGSTROEM)
---------------------------------
  C      2.234473   -2.989754   -2.397622
  N      2.756799   -2.945553   -3.765029
  C     -1.104325    0.251374   -2.860056
  C     -0.711893    0.842517   -4.218344
  H      0.154626    1.499800   -4.130909
  H     -1.538134    1.459222   -4.582671
  C     -0.397624   -0.205875   -5.288018
  C      1.987208   -2.590451   -4.818975
  N      0.743221   -3.017493   -4.913524
  N      2.499636   -1.848598   -5.803241
  H      3.309780   -1.292818   -5.558947
  H      1.801025   -1.304298   -6.289129
  H      3.716116   -2.628797   -3.829533
  H      0.395828   -3.627747   -4.185024
  H      0.039201   -2.454383   -5.371367
  O      0.617165   -0.005348   -5.998273
  O     -1.133173   -1.221380   -5.341465
  C      2.191199   -1.619503   -1.715492
  H      2.872783   -3.666368   -1.828014
  H      1.246188   -3.447444   -2.407842
  C      1.298729   -0.554314   -2.359773
  H      1.872917   -1.787955   -0.681310
  H      3.216809   -1.238432   -1.654428
  C     -0.196255   -0.863365   -2.325763
  H      1.612531   -0.371346   -3.393065
  H      1.480944    0.388638   -1.834444
  H     -0.404105   -1.761825   -2.909448
  H     -0.490439   -1.087880   -1.294131
  H     -1.143842    1.066711   -2.129680
  H     -2.114401   -0.156834   -2.930323

 Total Charge           Charge          ....    0
 Multiplicity           Mult            ....    1
 Number of Electrons    NEL             ....  102
 Basis Dimension        Dim             ....  640

ORBITAL ENERGIES
----------------

  NO   OCC          E(Eh)            E(eV)
   0   2.0000     -19.145933      -520.9873
   1   2.0000     -19.144099      -520.9374
   2   2.0000     -14.491652      -394.3379
   3   2.0000     -14.460595      -393.4928
   4   2.0000     -14.459705      -393.4686
   5   2.0000     -10.445575      -284.2385
   6   2.0000     -10.351429      -281.6767
   7   2.0000     -10.334169      -281.2070
   8   2.0000     -10.300326      -280.2861
   9   2.0000     -10.280493      -279.7464
  10   2.0000     -10.266708      -279.3713
  11   2.0000     -10.257106      -279.1101
  12   2.0000     -10.243564      -278.7415
  13   2.0000      -1.169024       -31.8108
  14   2.0000      -1.122811       -30.5532
  15   2.0000      -1.061494       -28.8847
  16   2.0000      -1.041060       -28.3287
  17   2.0000      -1.023115       -27.8404
  18   2.0000      -0.937574       -25.5127
  19   2.0000      -0.893791       -24.3213
  20   2.0000      -0.840879       -22.8815
  21   2.0000      -0.794739       -21.6259
  22   2.0000      -0.764764       -20.8103
  23   2.0000      -0.731739       -19.9116
  24   2.0000      -0.718778       -19.5589
  25   2.0000      -0.687015       -18.6946
  26   2.0000      -0.663372       -18.0513
  27   2.0000      -0.637799       -17.3554
  28   2.0000      -0.613060       -16.6822
  29   2.0000      -0.602329       -16.3902
  30   2.0000      -0.584018       -15.8919
  31   2.0000      -0.573416       -15.6034
  32   2.0000      -0.567532       -15.4433
  33   2.0000      -0.550113       -14.9693
  34   2.0000      -0.537902       -14.6371
  35   2.0000      -0.526853       -14.3364
  36   2.0000      -0.511403       -13.9160
  37   2.0000      -0.507463       -13.8088
  38   2.0000      -0.488939       -13.3047
  39   2.0000      -0.477829       -13.0024
  40   2.0000      -0.464173       -12.6308
  41   2.0000      -0.453714       -12.3462
  42   2.0000      -0.439661       -11.9638
  43   2.0000      -0.422605       -11.4997
  44   2.0000      -0.408577       -11.1180
  45   2.0000      -0.401995       -10.9388
  46   2.0000      -0.397680       -10.8214
  47   2.0000      -0.387147       -10.5348
  48   2.0000      -0.323207        -8.7949
  49   2.0000      -0.313088        -8.5196
  50   2.0000      -0.308299        -8.3892
  51   0.0000       0.041413         1.1269
  52   0.0000       0.052624         1.4320
  53   0.0000       0.060239         1.6392
  54   0.0000       0.071667         1.9501
  55   0.0000       0.079719         2.1693

MULLIKEN ATOMIC CHARGES
-----------------------
   0 C :   -0.797931
   1 N :   -0.086164
   2 C :   -0.597050
   3 C :   -0.483231
   4 H :    0.275703
   5 H :    0.289437
   6 C :    0.653730
   7 C :    0.279853
   8 N :   -0.306606
   9 N :   -0.426652
  10 H :    0.242513
  11 H :    0.344749
  12 H :    0.286134
  13 H :    0.273473
  14 H :    0.284475
  15 O :   -0.865743
  16 O :   -0.873346
  17 C :   -0.600623
  18 H :    0.268286
  19 H :    0.333131
  20 C :   -0.307074
  21 H :    0.310524
  22 H :    0.269329
  23 C :   -0.375161
  24 H :    0.211797
  25 H :    0.396568
  26 H :    0.099736
  27 H :    0.321516
  28 H :    0.254812
  29 H :    0.323816
Sum of atomic charges:   -0.0000000

LOEWDIN ATOMIC CHARGES
----------------------
   0 C :   -0.176554
   1 N :    0.070203
   2 C :   -0.200716
   3 C :   -0.127394
   4 H :    0.106486
   5 H :    0.117605
   6 C :   -0.676585
   7 C :   -0.445781
   8 N :    0.228751
   9 N :    0.191478
  10 H :    0.126464
  11 H :    0.072622
  12 H :    0.147627
  13 H :    0.124229
  14 H :    0.064584
  15 O :   -0.067421
  16 O :   -0.060122
  17 C :   -0.183928
  18 H :    0.120011
  19 H :    0.107812
  20 C :   -0.200472
  21 H :    0.116222
  22 H :    0.110594
  23 C :   -0.209608
  24 H :    0.101474
  25 H :    0.121766
  26 H :    0.087199
  27 H :    0.114883
  28 H :    0.108076
  29 H :    0.110495

  Mayer bond orders larger than 0.100000
B(  0-C ,  1-N ) :   0.8822 B(  0-C ,  8-N ) :   0.1342 B(  0-C , 17-C ) :   0.7725
B(  0-C , 18-H ) :   0.9829 B(  0-C , 19-H ) :   0.8907 B(  0-C , 23-C ) :   0.1201
B(  1-N ,  7-C ) :   1.1956 B(  1-N , 12-H ) :   0.8303 B(  2-C ,  3-C ) :   0.9048
B(  2-C , 20-C ) :   0.3105 B(  2-C , 23-C ) :   1.0244 B(  2-C , 26-H ) :   0.1077
B(  2-C , 28-H ) :   0.9440 B(  2-C , 29-H ) :   0.8635 B(  3-C ,  4-H ) :   0.9720
B(  3-C ,  5-H ) :   0.8711 B(  3-C ,  6-C ) :   0.9850 B(  3-C , 20-C ) :   0.1717
B(  6-C , 15-O ) :   1.1899 B(  6-C , 16-O ) :   1.2591 B(  7-C ,  8-N ) :   1.2658
B(  7-C ,  9-N ) :   1.1601 B(  7-C , 20-C ) :   0.1219 B(  8-N , 13-H ) :   0.8461
B(  8-N , 14-H ) :   0.7385 B(  9-N , 10-H ) :   0.9062 B(  9-N , 11-H ) :   0.7391
B( 14-H , 16-O ) :   0.1209 B( 15-O , 16-O ) :   0.1072 B( 17-C , 20-C ) :   0.8900
B( 17-C , 21-H ) :   0.9453 B( 17-C , 22-H ) :   0.9543 B( 17-C , 23-C ) :   0.4050
B( 20-C , 23-C ) :   0.4654 B( 20-C , 24-H ) :   1.1090 B( 20-C , 25-H ) :   0.6992
B( 20-C , 26-H ) :  -0.1608 B( 23-C , 26-H ) :   1.1760 B( 23-C , 27-H ) :   0.8030

Dispersion correction           -0.016101868
FINAL SINGLE POINT ENERGY      -629.912423187225

DIPOLE MOMENT
-------------
                                X             Y             Z
Electronic contribution:      0.60286      -2.85529     -10.22201
Nuclear contribution   :      1.76912       1.50070      12.36652
                        -----------------------------------------
Total Dipole Moment    :      2.37198      -1.35459       2.14451
                        -----------------------------------------
Magnitude (a.u.)       :      3.47277
Magnitude (Debye)      :      8.82708

Rotational constants in cm-1:     0.033272     0.023886     0.017112
Rotational constants in MHz :   997.469575   716.074432   513.001395

                             ****ORCA TERMINATED NORMALLY****
TOTAL RUN TIME: 0 days 0 hours 2 minutes 45 seconds 427 msec
