                         Program Version 5.0.0 -  RELEASE  -
|  1> !wB97X-D3 RIJCOSX def2-TZVPD def2/J TightSCF
|  2> *xyz 0 1
|  3> C         -1.10433        0.25137       -2.86006
|  4> C         -0.71189        0.84252       -4.21834
|  5> H          0.15463        1.49980       -4.13091
|  6> H         -1.53813        1.45922       -4.58267
|  7> C         -0.39762       -0.20587       -5.28802
|  8> F          0.61717       -0.00535       -5.99827
|  9> O         -1.13317       -1.22138       -5.34147
| 10> H         -1.95489       -0.38644       -2.98099
| 11> H         -1.34603        1.04362       -2.18269
| 12> H         -0.28606       -0.31581       -2.46809
| 13> *
| 14>
| 15> %MaxCore 64000
| 16>
| 17> %pal nprocs 4
| 18> end
| 19>
| 20> %scf
| 21>   MaxIter 150
| 22> end
| 23>
| 24>
| 25>                          ****END OF INPUT****

CARTESIAN COORDINATES (ANGSTROEM)
---------------------------------
  C     -1.104330    0.251370   -2.860060
  C     -0.711890    0.842520   -4.218340
  H      0.154630    1.499800   -4.130910
  H     -1.538130    1.459220   -4.582670
  C     -0.397620   -0.205870   -5.288020
  F      0.617170   -0.005350   -5.998270
  O     -1.133170   -1.221380   -5.341470
  H     -1.954890   -0.386440   -2.980990
  H     -1.346030    1.043620   -2.182690
  H     -0.286060   -0.315810   -2.468090

 Total Charge           Charge          ....    0
 Multiplicity           Mult            ....    1
 Number of Electrons    NEL             ....   40
 Basis Dimension        Dim             ....  236

ORBITAL ENERGIES
----------------

  NO   OCC          E(Eh)            E(eV)
   0   2.0000     -24.856388      -676.3767
   1   2.0000     -19.236486      -523.4514
   2   2.0000     -10.456060      -284.5239
   3   2.0000     -10.308370      -280.5050
   4   2.0000     -10.276317      -279.6328
   5   2.0000      -1.436920       -39.1006
   6   2.0000      -1.149611       -31.2825
   7   2.0000      -0.916700       -24.9447
   8   2.0000      -0.804045       -21.8792
   9   2.0000      -0.746333       -20.3087
  10   2.0000      -0.654742       -17.8164
  11   2.0000      -0.640982       -17.4420
  12   2.0000      -0.613437       -16.6925
  13   2.0000      -0.567261       -15.4359
  14   2.0000      -0.534526       -14.5452
  15   2.0000      -0.493083       -13.4175
  16   2.0000      -0.473518       -12.8851
  17   2.0000      -0.471165       -12.8210
  18   2.0000      -0.443361       -12.0645
  19   2.0000      -0.390665       -10.6305
  20   0.0000       0.052451         1.4273
  21   0.0000       0.065507         1.7825
  22   0.0000       0.087296         2.3755
  23   0.0000       0.093391         2.5413
  24   0.0000       0.106674         2.9027

MULLIKEN ATOMIC CHARGES
-----------------------
   0 C :   -1.097508
   1 C :   -0.172393
   2 H :    0.278616
   3 H :    0.267259
   4 C :    0.582157
   5 F :   -0.234229
   6 O :   -0.564573
   7 H :    0.302295
   8 H :    0.313478
   9 H :    0.324898
Sum of atomic charges:    0.0000000

LOEWDIN ATOMIC CHARGES
----------------------
   0 C :   -0.090480
   1 C :   -0.156691
   2 H :    0.109086
   3 H :    0.121919
   4 C :   -0.477173
   5 F :    0.203977
   6 O :    0.073947
   7 H :    0.071502
   8 H :    0.069118
   9 H :    0.074795

  Mayer bond orders larger than 0.100000
B(  0-C ,  1-C ) :   0.6766 B(  0-C ,  4-C ) :   0.1263 B(  0-C ,  7-H ) :   0.9828
B(  0-C ,  8-H ) :   0.9427 B(  0-C ,  9-H ) :   0.9338 B(  1-C ,  2-H ) :   0.9476
B(  1-C ,  3-H ) :   0.9138 B(  1-C ,  4-C ) :   0.9477 B(  4-C ,  5-F ) :   0.9555
B(  4-C ,  6-O ) :   1.6801

Dispersion correction           -0.001898312
FINAL SINGLE POINT ENERGY      -292.438960005525

DIPOLE MOMENT
-------------
                                X             Y             Z
Electronic contribution:      3.61301      -2.34861      -7.70981
Nuclear contribution   :     -3.36368       3.36392       8.24820
                        -----------------------------------------
Total Dipole Moment    :      0.24932       1.01530       0.53838
                        -----------------------------------------
Magnitude (a.u.)       :      1.17595
Magnitude (Debye)      :      2.98903

Rotational constants in cm-1:     0.315013     0.126712     0.098430
Rotational constants in MHz :  9443.861322  3798.734540  2950.846388

                             ****ORCA TERMINATED NORMALLY****
TOTAL RUN TIME: 0 days 0 hours 0 minutes 44 seconds 812 msec
