                         Program Version 5.0.0 -  RELEASE  -
|  1> !wB97X-D3 RIJCOSX def2-TZVPD def2/J TightSCF
|  2> *xyz 0 1
|  3> C          2.23447       -2.98975       -2.39762
|  4> C          2.75680       -2.94555       -3.76503
|  5> C          1.98721       -2.59045       -4.81898
|  6> N          0.74322       -3.01749       -4.91352
|  7> N          2.49964       -1.84860       -5.80324
|  8> H          3.30978       -1.29282       -5.55895
|  9> H          1.80103       -1.30430       -6.28913
| 10> H          3.71612       -2.62880       -3.82953
| 11> H          0.39583       -3.62775       -4.18502
| 12> H          0.03920       -2.45438       -5.37137
| 13> C          2.19120       -1.61950       -1.71549
| 14> H          2.87278       -3.66637       -1.82801
| 15> H          1.24619       -3.44744       -2.40784
| 16> H          1.56387       -0.96046       -2.27853
| 17> H          3.18033       -1.21449       -1.66568
| 18> H          1.79916       -1.72608       -0.72562
| 19> *
| 20>
| 21> %MaxCore 64000
| 22>
| 23> %pal nprocs 4
| 24> end
| 25>
| 26> %scf
| 27>   MaxIter 150
| 28> end
| 29>
| 30>
| 31>                          ****END OF INPUT****

CARTESIAN COORDINATES (ANGSTROEM)
---------------------------------
  C      2.234470   -2.989750   -2.397620
  C      2.756800   -2.945550   -3.765030
  C      1.987210   -2.590450   -4.818980
  N      0.743220   -3.017490   -4.913520
  N      2.499640   -1.848600   -5.803240
  H      3.309780   -1.292820   -5.558950
  H      1.801030   -1.304300   -6.289130
  H      3.716120   -2.628800   -3.829530
  H      0.395830   -3.627750   -4.185020
  H      0.039200   -2.454380   -5.371370
  C      2.191200   -1.619500   -1.715490
  H      2.872780   -3.666370   -1.828010
  H      1.246190   -3.447440   -2.407840
  H      1.563870   -0.960460   -2.278530
  H      3.180330   -1.214490   -1.665680
  H      1.799160   -1.726080   -0.725620

 Total Charge           Charge          ....    0
 Multiplicity           Mult            ....    1
 Number of Electrons    NEL             ....   48
 Basis Dimension        Dim             ....  312

ORBITAL ENERGIES
----------------

  NO   OCC          E(Eh)            E(eV)
   0   2.0000     -14.428086      -392.6082
   1   2.0000     -14.424105      -392.4999
   2   2.0000     -10.325876      -280.9814
   3   2.0000     -10.251902      -278.9684
   4   2.0000     -10.241711      -278.6911
   5   2.0000     -10.198643      -277.5192
   6   2.0000      -1.090231       -29.6667
   7   2.0000      -0.996059       -27.1042
   8   2.0000      -0.891180       -24.2502
   9   2.0000      -0.806689       -21.9511
  10   2.0000      -0.729685       -19.8557
  11   2.0000      -0.686729       -18.6868
  12   2.0000      -0.646720       -17.5981
  13   2.0000      -0.611086       -16.6285
  14   2.0000      -0.568694       -15.4749
  15   2.0000      -0.553242       -15.0545
  16   2.0000      -0.513308       -13.9678
  17   2.0000      -0.494602       -13.4588
  18   2.0000      -0.470782       -12.8106
  19   2.0000      -0.455864       -12.4047
  20   2.0000      -0.422284       -11.4909
  21   2.0000      -0.414743       -11.2857
  22   2.0000      -0.371972       -10.1219
  23   2.0000      -0.247211        -6.7269
  24   0.0000       0.060592         1.6488
  25   0.0000       0.087957         2.3934
  26   0.0000       0.092074         2.5055
  27   0.0000       0.098662         2.6847
  28   0.0000       0.118637         3.2283

MULLIKEN ATOMIC CHARGES
-----------------------
   0 C :   -0.099750
   1 C :   -0.676723
   2 C :    0.256330
   3 N :   -0.424115
   4 N :   -0.532665
   5 H :    0.259718
   6 H :    0.213356
   7 H :    0.413367
   8 H :    0.242584
   9 H :    0.170383
  10 C :   -1.250767
  11 H :    0.203436
  12 H :    0.279487
  13 H :    0.295388
  14 H :    0.328188
  15 H :    0.321783
Sum of atomic charges:   -0.0000000

LOEWDIN ATOMIC CHARGES
----------------------
   0 C :   -0.293083
   1 C :   -0.140151
   2 C :   -0.552962
   3 N :    0.124329
   4 N :    0.109750
   5 H :    0.109349
   6 H :    0.098860
   7 H :    0.059124
   8 H :    0.106553
   9 H :    0.107450
  10 C :   -0.101928
  11 H :    0.099104
  12 H :    0.085629
  13 H :    0.063946
  14 H :    0.065094
  15 H :    0.058936

  Mayer bond orders larger than 0.100000
B(  0-C ,  1-C ) :   0.7284 B(  0-C , 10-C ) :   0.4940 B(  0-C , 11-H ) :   1.0535
B(  0-C , 12-H ) :   0.9436 B(  1-C ,  2-C ) :   1.5920 B(  1-C ,  7-H ) :   0.8760
B(  1-C , 10-C ) :   0.1569 B(  2-C ,  3-N ) :   1.0019 B(  2-C ,  4-N ) :   1.0734
B(  2-C ,  7-H ) :  -0.1662 B(  2-C , 10-C ) :   0.1707 B(  3-N ,  8-H ) :   0.9124
B(  3-N ,  9-H ) :   1.0193 B(  4-N ,  5-H ) :   0.9050 B(  4-N ,  6-H ) :   0.9449
B( 10-C , 13-H ) :   0.9879 B( 10-C , 14-H ) :   0.9716 B( 10-C , 15-H ) :   0.9424

Dispersion correction           -0.003907135
FINAL SINGLE POINT ENERGY      -267.937030742794

DIPOLE MOMENT
-------------
                                X             Y             Z
Electronic contribution:     -0.33164      -1.36231      -4.98302
Nuclear contribution   :     -0.44240       2.20379       4.66256
                        -----------------------------------------
Total Dipole Moment    :     -0.77404       0.84148      -0.32046
                        -----------------------------------------
Magnitude (a.u.)       :      1.18740
Magnitude (Debye)      :      3.01813

Rotational constants in cm-1:     0.209447     0.075194     0.066975
Rotational constants in MHz :  6279.068019  2254.272519  2007.845458

                             ****ORCA TERMINATED NORMALLY****
TOTAL RUN TIME: 0 days 0 hours 1 minutes 30 seconds 304 msec
