                         Program Version 5.0.0 -  RELEASE  -
|  1> !wB97X-D3 RIJCOSX def2-TZVPD def2/J TightSCF
|  2> *xyz 0 1
|  3> C         -1.10433        0.25137       -2.86006
|  4> C         -0.71189        0.84252       -4.21834
|  5> H          0.15463        1.49980       -4.13091
|  6> H         -1.53813        1.45922       -4.58267
|  7> C         -0.39762       -0.20587       -5.28802
|  8> O          0.61717       -0.00535       -5.99827
|  9> F         -1.13317       -1.22138       -5.34147
| 10> H         -1.95489       -0.38644       -2.98099
| 11> H         -1.34603        1.04362       -2.18269
| 12> H         -0.28606       -0.31581       -2.46809
| 13> *
| 14>
| 15> %MaxCore 64000
| 16>
| 17> %pal nprocs 4
| 18> end
| 19>
| 20> %scf
| 21>   MaxIter 150
| 22> end
| 23>
| 24>
| 25>                          ****END OF INPUT****

CARTESIAN COORDINATES (ANGSTROEM)
---------------------------------
  C     -1.104330    0.251370   -2.860060
  C     -0.711890    0.842520   -4.218340
  H      0.154630    1.499800   -4.130910
  H     -1.538130    1.459220   -4.582670
  C     -0.397620   -0.205870   -5.288020
  O      0.617170   -0.005350   -5.998270
  F     -1.133170   -1.221380   -5.341470
  H     -1.954890   -0.386440   -2.980990
  H     -1.346030    1.043620   -2.182690
  H     -0.286060   -0.315810   -2.468090

 Total Charge           Charge          ....    0
 Multiplicity           Mult            ....    1
 Number of Electrons    NEL             ....   40
 Basis Dimension        Dim             ....  236

ORBITAL ENERGIES
----------------

  NO   OCC          E(Eh)            E(eV)
   0   2.0000     -24.857123      -676.3967
   1   2.0000     -19.235480      -523.4240
   2   2.0000     -10.455444      -284.5071
   3   2.0000     -10.307639      -280.4851
   4   2.0000     -10.282180      -279.7923
   5   2.0000      -1.437349       -39.1122
   6   2.0000      -1.148697       -31.2576
   7   2.0000      -0.921020       -25.0622
   8   2.0000      -0.799041       -21.7430
   9   2.0000      -0.753973       -20.5166
  10   2.0000      -0.657045       -17.8791
  11   2.0000      -0.648106       -17.6359
  12   2.0000      -0.602816       -16.4035
  13   2.0000      -0.568769       -15.4770
  14   2.0000      -0.534564       -14.5462
  15   2.0000      -0.499349       -13.5880
  16   2.0000      -0.482728       -13.1357
  17   2.0000      -0.474841       -12.9211
  18   2.0000      -0.443643       -12.0721
  19   2.0000      -0.385737       -10.4964
  20   0.0000       0.053814         1.4644
  21   0.0000       0.064865         1.7651
  22   0.0000       0.086661         2.3582
  23   0.0000       0.092446         2.5156
  24   0.0000       0.106621         2.9013

MULLIKEN ATOMIC CHARGES
-----------------------
   0 C :   -1.126823
   1 C :   -0.119745
   2 H :    0.247552
   3 H :    0.275227
   4 C :    0.564199
   5 O :   -0.571531
   6 F :   -0.230439
   7 H :    0.314158
   8 H :    0.306149
   9 H :    0.341254
Sum of atomic charges:    0.0000000

LOEWDIN ATOMIC CHARGES
----------------------
   0 C :   -0.095146
   1 C :   -0.152003
   2 H :    0.117955
   3 H :    0.120462
   4 C :   -0.480805
   5 O :    0.070175
   6 F :    0.206896
   7 H :    0.068146
   8 H :    0.069588
   9 H :    0.074732

  Mayer bond orders larger than 0.100000
B(  0-C ,  1-C ) :   0.6271 B(  0-C ,  4-C ) :   0.1032 B(  0-C ,  7-H ) :   0.9586
B(  0-C ,  8-H ) :   0.9618 B(  0-C ,  9-H ) :   0.9379 B(  1-C ,  2-H ) :   0.9781
B(  1-C ,  3-H ) :   0.9073 B(  1-C ,  4-C ) :   0.9544 B(  4-C ,  5-O ) :   1.6609
B(  4-C ,  6-F ) :   0.9713

Dispersion correction           -0.001893142
FINAL SINGLE POINT ENERGY      -292.438115432522

DIPOLE MOMENT
-------------
                                X             Y             Z
Electronic contribution:      0.66755      -4.37344      -6.58060
Nuclear contribution   :     -1.45527       4.68977       7.53208
                        -----------------------------------------
Total Dipole Moment    :     -0.78772       0.31633       0.95148
                        -----------------------------------------
Magnitude (a.u.)       :      1.27510
Magnitude (Debye)      :      3.24104

Rotational constants in cm-1:     0.298240     0.132464     0.099915
Rotational constants in MHz :  8940.998095  3971.171647  2995.369122

                             ****ORCA TERMINATED NORMALLY****
TOTAL RUN TIME: 0 days 0 hours 0 minutes 43 seconds 32 msec
