                         Program Version 5.0.0 -  RELEASE  -
|  1> !wB97X-D3 RIJCOSX def2-TZVPD def2/J TightSCF
|  2> *xyz 0 1
|  3> C          2.23447       -2.98975       -2.39762
|  4> N          2.75680       -2.94555       -3.76503
|  5> C          1.98721       -2.59045       -4.81898
|  6> C          0.74322       -3.01749       -4.91352
|  7> N          2.49964       -1.84860       -5.80324
|  8> H          3.30978       -1.29282       -5.55895
|  9> H          1.80103       -1.30430       -6.28913
| 10> H          3.71612       -2.62880       -3.82953
| 11> H          0.39583       -3.62775       -4.18502
| 12> H          0.03920       -2.45438       -5.37137
| 13> C          2.19120       -1.61950       -1.71549
| 14> H          2.87278       -3.66637       -1.82801
| 15> H          1.24619       -3.44744       -2.40784
| 16> H          1.56387       -0.96046       -2.27853
| 17> H          3.18033       -1.21449       -1.66568
| 18> H          1.79916       -1.72608       -0.72562
| 19> *
| 20>
| 21> %MaxCore 64000
| 22>
| 23> %pal nprocs 4
| 24> end
| 25>
| 26> %scf
| 27>   MaxIter 150
| 28> end
| 29>
| 30>
| 31>                          ****END OF INPUT****

CARTESIAN COORDINATES (ANGSTROEM)
---------------------------------
  C      2.234470   -2.989750   -2.397620
  N      2.756800   -2.945550   -3.765030
  C      1.987210   -2.590450   -4.818980
  C      0.743220   -3.017490   -4.913520
  N      2.499640   -1.848600   -5.803240
  H      3.309780   -1.292820   -5.558950
  H      1.801030   -1.304300   -6.289130
  H      3.716120   -2.628800   -3.829530
  H      0.395830   -3.627750   -4.185020
  H      0.039200   -2.454380   -5.371370
  C      2.191200   -1.619500   -1.715490
  H      2.872780   -3.666370   -1.828010
  H      1.246190   -3.447440   -2.407840
  H      1.563870   -0.960460   -2.278530
  H      3.180330   -1.214490   -1.665680
  H      1.799160   -1.726080   -0.725620

 Total Charge           Charge          ....    0
 Multiplicity           Mult            ....    1
 Number of Electrons    NEL             ....   48
 Basis Dimension        Dim             ....  312

ORBITAL ENERGIES
----------------

  NO   OCC          E(Eh)            E(eV)
   0   2.0000     -14.424648      -392.5146
   1   2.0000     -14.422263      -392.4497
   2   2.0000     -10.322886      -280.9000
   3   2.0000     -10.308192      -280.5002
   4   2.0000     -10.262352      -279.2528
   5   2.0000     -10.189717      -277.2763
   6   2.0000      -1.086692       -29.5704
   7   2.0000      -1.005146       -27.3514
   8   2.0000      -0.872048       -23.7296
   9   2.0000      -0.829681       -22.5768
  10   2.0000      -0.751806       -20.4577
  11   2.0000      -0.669022       -18.2050
  12   2.0000      -0.647015       -17.6062
  13   2.0000      -0.614923       -16.7329
  14   2.0000      -0.562287       -15.3006
  15   2.0000      -0.547326       -14.8935
  16   2.0000      -0.516208       -14.0467
  17   2.0000      -0.495282       -13.4773
  18   2.0000      -0.491751       -13.3812
  19   2.0000      -0.466893       -12.7048
  20   2.0000      -0.456657       -12.4263
  21   2.0000      -0.443093       -12.0572
  22   2.0000      -0.346828        -9.4377
  23   2.0000      -0.265047        -7.2123
  24   0.0000       0.063573         1.7299
  25   0.0000       0.086135         2.3439
  26   0.0000       0.092961         2.5296
  27   0.0000       0.094843         2.5808
  28   0.0000       0.119574         3.2538

MULLIKEN ATOMIC CHARGES
-----------------------
   0 C :   -0.400788
   1 N :   -0.185504
   2 C :    0.692657
   3 C :   -1.335008
   4 N :   -0.516434
   5 H :    0.220431
   6 H :    0.224792
   7 H :    0.237183
   8 H :    0.406155
   9 H :    0.286496
  10 C :   -1.081875
  11 H :    0.263853
  12 H :    0.242773
  13 H :    0.286800
  14 H :    0.313000
  15 H :    0.345469
Sum of atomic charges:   -0.0000000

LOEWDIN ATOMIC CHARGES
----------------------
   0 C :   -0.238783
   1 N :    0.008139
   2 C :   -0.564607
   3 C :    0.005825
   4 N :    0.106856
   5 H :    0.097397
   6 H :    0.107155
   7 H :    0.128733
   8 H :    0.010143
   9 H :    0.019486
  10 C :   -0.084489
  11 H :    0.109804
  12 H :    0.100337
  13 H :    0.066689
  14 H :    0.062315
  15 H :    0.065000

  Mayer bond orders larger than 0.100000
B(  0-C ,  1-N ) :   0.8227 B(  0-C , 10-C ) :   0.6260 B(  0-C , 11-H ) :   0.9603
B(  0-C , 12-H ) :   0.9502 B(  1-N ,  2-C ) :   1.0329 B(  1-N ,  7-H ) :   0.9056
B(  2-C ,  3-C ) :   1.3340 B(  2-C ,  4-N ) :   0.9205 B(  2-C ,  9-H ) :  -0.1066
B(  3-C ,  8-H ) :   0.8338 B(  3-C ,  9-H ) :   1.0482 B(  4-N ,  5-H ) :   0.9487
B(  4-N ,  6-H ) :   0.9249 B( 10-C , 13-H ) :   0.9992 B( 10-C , 14-H ) :   0.9573
B( 10-C , 15-H ) :   0.9358

Dispersion correction           -0.003916130
FINAL SINGLE POINT ENERGY      -267.932796701881

DIPOLE MOMENT
-------------
                                X             Y             Z
Electronic contribution:      1.50100      -1.24125      -3.83184
Nuclear contribution   :     -0.86957       2.18853       4.41892
                        -----------------------------------------
Total Dipole Moment    :      0.63144       0.94728       0.58708
                        -----------------------------------------
Magnitude (a.u.)       :      1.28090
Magnitude (Debye)      :      3.25579

Rotational constants in cm-1:     0.214718     0.075736     0.068547
Rotational constants in MHz :  6437.075121  2270.519635  2054.974198

                             ****ORCA TERMINATED NORMALLY****
TOTAL RUN TIME: 0 days 0 hours 1 minutes 25 seconds 552 msec
