                         Program Version 5.0.0 -  RELEASE  -
|  1> !wB97X-D3 RIJCOSX def2-TZVPD def2/J TightSCF
|  2> *xyz 0 1
|  3> C          2.23447       -2.98975       -2.39762
|  4> N          2.75680       -2.94555       -3.76503
|  5> C          1.98721       -2.59045       -4.81898
|  6> N          0.74322       -3.01749       -4.91352
|  7> C          2.49964       -1.84860       -5.80324
|  8> H          3.30978       -1.29282       -5.55895
|  9> H          1.80103       -1.30430       -6.28913
| 10> H          3.71612       -2.62880       -3.82953
| 11> H          0.39583       -3.62775       -4.18502
| 12> H          0.03920       -2.45438       -5.37137
| 13> C          2.19120       -1.61950       -1.71549
| 14> H          2.87278       -3.66637       -1.82801
| 15> H          1.24619       -3.44744       -2.40784
| 16> H          1.56387       -0.96046       -2.27853
| 17> H          3.18033       -1.21449       -1.66568
| 18> H          1.79916       -1.72608       -0.72562
| 19> *
| 20>
| 21> %MaxCore 64000
| 22>
| 23> %pal nprocs 4
| 24> end
| 25>
| 26> %scf
| 27>   MaxIter 150
| 28> end
| 29>
| 30>
| 31>                          ****END OF INPUT****

CARTESIAN COORDINATES (ANGSTROEM)
---------------------------------
  C      2.234470   -2.989750   -2.397620
  N      2.756800   -2.945550   -3.765030
  C      1.987210   -2.590450   -4.818980
  N      0.743220   -3.017490   -4.913520
  C      2.499640   -1.848600   -5.803240
  H      3.309780   -1.292820   -5.558950
  H      1.801030   -1.304300   -6.289130
  H      3.716120   -2.628800   -3.829530
  H      0.395830   -3.627750   -4.185020
  H      0.039200   -2.454380   -5.371370
  C      2.191200   -1.619500   -1.715490
  H      2.872780   -3.666370   -1.828010
  H      1.246190   -3.447440   -2.407840
  H      1.563870   -0.960460   -2.278530
  H      3.180330   -1.214490   -1.665680
  H      1.799160   -1.726080   -0.725620

 Total Charge           Charge          ....    0
 Multiplicity           Mult            ....    1
 Number of Electrons    NEL             ....   48
 Basis Dimension        Dim             ....  312

ORBITAL ENERGIES
----------------

  NO   OCC          E(Eh)            E(eV)
   0   2.0000     -14.425298      -392.5323
   1   2.0000     -14.423828      -392.4923
   2   2.0000     -10.327018      -281.0124
   3   2.0000     -10.316684      -280.7312
   4   2.0000     -10.266432      -279.3638
   5   2.0000     -10.184815      -277.1429
   6   2.0000      -1.089013       -29.6336
   7   2.0000      -1.005426       -27.3590
   8   2.0000      -0.884679       -24.0733
   9   2.0000      -0.822961       -22.3939
  10   2.0000      -0.741822       -20.1860
  11   2.0000      -0.707947       -19.2642
  12   2.0000      -0.643490       -17.5103
  13   2.0000      -0.592573       -16.1247
  14   2.0000      -0.591880       -16.1059
  15   2.0000      -0.538285       -14.6475
  16   2.0000      -0.528872       -14.3913
  17   2.0000      -0.500715       -13.6252
  18   2.0000      -0.473934       -12.8964
  19   2.0000      -0.463792       -12.6204
  20   2.0000      -0.461948       -12.5702
  21   2.0000      -0.450978       -12.2717
  22   2.0000      -0.349574        -9.5124
  23   2.0000      -0.259870        -7.0714
  24   0.0000       0.062110         1.6901
  25   0.0000       0.083947         2.2843
  26   0.0000       0.090980         2.4757
  27   0.0000       0.096332         2.6213
  28   0.0000       0.122154         3.3240

MULLIKEN ATOMIC CHARGES
-----------------------
   0 C :   -0.463637
   1 N :   -0.177493
   2 C :    0.677796
   3 N :   -0.420585
   4 C :   -1.285199
   5 H :    0.300186
   6 H :    0.301031
   7 H :    0.249524
   8 H :    0.225280
   9 H :    0.198833
  10 C :   -1.067149
  11 H :    0.267128
  12 H :    0.244600
  13 H :    0.287256
  14 H :    0.307266
  15 H :    0.355161
Sum of atomic charges:    0.0000000

LOEWDIN ATOMIC CHARGES
----------------------
   0 C :   -0.242661
   1 N :    0.011296
   2 C :   -0.566858
   3 N :    0.122264
   4 C :   -0.013164
   5 H :    0.007786
   6 H :    0.008963
   7 H :    0.136260
   8 H :    0.096797
   9 H :    0.118524
  10 C :   -0.082811
  11 H :    0.109239
  12 H :    0.095487
  13 H :    0.067981
  14 H :    0.066378
  15 H :    0.064518

  Mayer bond orders larger than 0.100000
B(  0-C ,  1-N ) :   0.8969 B(  0-C , 10-C ) :   0.6750 B(  0-C , 11-H ) :   0.9806
B(  0-C , 12-H ) :   0.9370 B(  1-N ,  2-C ) :   1.0967 B(  1-N ,  7-H ) :   0.8557
B(  2-C ,  3-N ) :   0.9973 B(  2-C ,  4-C ) :   1.1618 B(  2-C ,  5-H ) :  -0.1020
B(  3-N ,  8-H ) :   0.9254 B(  3-N ,  9-H ) :   0.9656 B(  4-C ,  5-H ) :   1.0649
B(  4-C ,  6-H ) :   1.0143 B( 10-C , 13-H ) :   0.9900 B( 10-C , 14-H ) :   0.9599
B( 10-C , 15-H ) :   0.9228

Dispersion correction           -0.003936280
FINAL SINGLE POINT ENERGY      -267.926960897500

DIPOLE MOMENT
-------------
                                X             Y             Z
Electronic contribution:     -0.13111      -2.38751      -2.93679
Nuclear contribution   :     -0.49695       2.43650       4.23017
                        -----------------------------------------
Total Dipole Moment    :     -0.62806       0.04899       1.29338
                        -----------------------------------------
Magnitude (a.u.)       :      1.43864
Magnitude (Debye)      :      3.65673

Rotational constants in cm-1:     0.211102     0.077011     0.069221
Rotational constants in MHz :  6328.667765  2308.731604  2075.192956

                             ****ORCA TERMINATED NORMALLY****
TOTAL RUN TIME: 0 days 0 hours 1 minutes 29 seconds 926 msec
