                         Program Version 5.0.0 -  RELEASE  -
|  1> !LC-PBE RIJCOSX def2-SVPD def2/J TightSCF
|  2> *xyz -1 1
|  3> C          2.49670       -1.84416       -5.73570
|  4> O          2.45973       -0.50920       -5.50576
|  5> H          2.07863       -2.36209       -4.89793
|  6> H          3.51118       -2.15388       -5.87645
|  7> H          1.92949       -2.07059       -6.61428
|  8> *
|  9>
| 10> %MaxCore 64000
| 11>
| 12> %pal nprocs 4
| 13> end
| 14>
| 15> %scf
| 16>   MaxIter 150
| 17> end
| 18>
| 19>
| 20>                          ****END OF INPUT****

CARTESIAN COORDINATES (ANGSTROEM)
---------------------------------
  C      2.496700   -1.844160   -5.735700
  O      2.459730   -0.509200   -5.505760
  H      2.078630   -2.362090   -4.897930
  H      3.511180   -2.153880   -5.876450
  H      1.929490   -2.070590   -6.614280

 Total Charge           Charge          ....   -1
 Multiplicity           Mult            ....    1
 Number of Electrons    NEL             ....   18
 Basis Dimension        Dim             ....   67

ORBITAL ENERGIES
----------------

  NO   OCC          E(Eh)            E(eV)
   0   2.0000     -18.627919      -506.8914
   1   2.0000      -9.908199      -269.6158
   2   2.0000      -0.817329       -22.2407
   3   2.0000      -0.546305       -14.8657
   4   2.0000      -0.338761        -9.2181
   5   2.0000      -0.338758        -9.2181
   6   2.0000      -0.233583        -6.3561
   7   2.0000      -0.074035        -2.0146
   8   2.0000      -0.074022        -2.0142
   9   0.0000       0.262920         7.1544
  10   0.0000       0.340051         9.2533
  11   0.0000       0.340055         9.2534
  12   0.0000       0.349786         9.5181
  13   0.0000       0.388237        10.5645

MULLIKEN ATOMIC CHARGES
-----------------------
   0 C :    0.535465
   1 O :   -0.991117
   2 H :   -0.181427
   3 H :   -0.181469
   4 H :   -0.181452
Sum of atomic charges:   -1.0000000

LOEWDIN ATOMIC CHARGES
----------------------
   0 C :   -0.159498
   1 O :   -0.653911
   2 H :   -0.062199
   3 H :   -0.062201
   4 H :   -0.062190

  Mayer bond orders larger than 0.100000
B(  0-C ,  1-O ) :   1.2991 B(  0-C ,  2-H ) :   0.9417 B(  0-C ,  3-H ) :   0.9417
B(  0-C ,  4-H ) :   0.9417

FINAL SINGLE POINT ENERGY      -114.684528680301

DIPOLE MOMENT
-------------
                                X             Y             Z
Electronic contribution:     -0.04798       1.73325       0.29847
Nuclear contribution   :      0.07809      -2.81948      -0.48564
                        -----------------------------------------
Total Dipole Moment    :      0.03011      -1.08623      -0.18717
                        -----------------------------------------
Magnitude (a.u.)       :      1.10265
Magnitude (Debye)      :      2.80271

Rotational constants in cm-1:     5.477724     0.956378     0.956377
Rotational constants in MHz : 164218.041992 28671.483536 28671.460928

                             ****ORCA TERMINATED NORMALLY****
TOTAL RUN TIME: 0 days 0 hours 0 minutes 3 seconds 479 msec
