                         Program Version 5.0.0 -  RELEASE  -
|  1> !LC-PBE RIJCOSX def2-SVPD def2/J TightSCF
|  2> *xyz 1 1
|  3> C          4.99986       -1.59613       -5.92488
|  4> N          5.28156       -1.97413       -4.53576
|  5> C          4.79250       -1.36132       -3.45730
|  6> N          3.93990       -0.37492       -3.55736
|  7> N          5.25986       -1.75422       -2.23913
|  8> H          5.92282       -2.52145       -2.18672
|  9> H          4.65468       -1.64040       -1.44202
| 10> H          5.70914       -2.87560       -4.38702
| 11> H          3.33010       -0.31764       -4.36125
| 12> H          3.69849        0.11447       -2.70833
| 13> H          5.52133       -2.25562       -6.58673
| 14> H          5.32493       -0.59081       -6.09388
| 15> H          3.94785       -1.66624       -6.10727
| 16> *
| 17>
| 18> %MaxCore 64000
| 19>
| 20> %pal nprocs 4
| 21> end
| 22>
| 23> %scf
| 24>   MaxIter 150
| 25> end
| 26>
| 27>
| 28>                          ****END OF INPUT****

CARTESIAN COORDINATES (ANGSTROEM)
---------------------------------
  C      4.999860   -1.596130   -5.924880
  N      5.281560   -1.974130   -4.535760
  C      4.792500   -1.361320   -3.457300
  N      3.939900   -0.374920   -3.557360
  N      5.259860   -1.754220   -2.239130
  H      5.922820   -2.521450   -2.186720
  H      4.654680   -1.640400   -1.442020
  H      5.709140   -2.875600   -4.387020
  H      3.330100   -0.317640   -4.361250
  H      3.698490    0.114470   -2.708330
  H      5.521330   -2.255620   -6.586730
  H      5.324930   -0.590810   -6.093880
  H      3.947850   -1.666240   -6.107270

 Total Charge           Charge          ....    1
 Multiplicity           Mult            ....    1
 Number of Electrons    NEL             ....   40
 Basis Dimension        Dim             ....  164

ORBITAL ENERGIES
----------------

  NO   OCC          E(Eh)            E(eV)
   0   2.0000     -14.464128      -393.5889
   1   2.0000     -14.464014      -393.5858
   2   2.0000     -14.453209      -393.2918
   3   2.0000     -10.479017      -285.1485
   4   2.0000     -10.332531      -281.1625
   5   2.0000      -1.394464       -37.9453
   6   2.0000      -1.275123       -34.6979
   7   2.0000      -1.258257       -34.2389
   8   2.0000      -1.070308       -29.1246
   9   2.0000      -0.986103       -26.8332
  10   2.0000      -0.946961       -25.7681
  11   2.0000      -0.900995       -24.5173
  12   2.0000      -0.850995       -23.1567
  13   2.0000      -0.839183       -22.8353
  14   2.0000      -0.802805       -21.8454
  15   2.0000      -0.776995       -21.1431
  16   2.0000      -0.736223       -20.0337
  17   2.0000      -0.717039       -19.5116
  18   2.0000      -0.620333       -16.8801
  19   2.0000      -0.589076       -16.0296
  20   0.0000      -0.090314        -2.4576
  21   0.0000      -0.075946        -2.0666
  22   0.0000      -0.040840        -1.1113
  23   0.0000      -0.035343        -0.9617
  24   0.0000      -0.008665        -0.2358

MULLIKEN ATOMIC CHARGES
-----------------------
   0 C :    0.776457
   1 N :   -0.550468
   2 C :    1.103493
   3 N :   -0.058846
   4 N :   -0.131858
   5 H :    0.021485
   6 H :    0.020587
   7 H :   -0.142817
   8 H :    0.034167
   9 H :   -0.014411
  10 H :   -0.156723
  11 H :    0.062423
  12 H :    0.036509
Sum of atomic charges:    1.0000000

LOEWDIN ATOMIC CHARGES
----------------------
   0 C :    0.222976
   1 N :    0.009682
   2 C :   -0.037731
   3 N :    0.269849
   4 N :    0.243741
   5 H :    0.042755
   6 H :    0.037376
   7 H :    0.060955
   8 H :    0.045516
   9 H :    0.054152
  10 H :    0.022752
  11 H :    0.020073
  12 H :    0.007905

  Mayer bond orders larger than 0.100000
B(  0-C ,  1-N ) :   0.9440 B(  0-C ,  7-H ) :  -0.1039 B(  0-C , 10-H ) :   0.9007
B(  0-C , 11-H ) :   0.8510 B(  0-C , 12-H ) :   0.8583 B(  1-N ,  2-C ) :   1.0917
B(  1-N ,  3-N ) :   0.2150 B(  1-N ,  4-N ) :   0.1884 B(  1-N ,  7-H ) :   1.2415
B(  1-N , 10-H ) :   0.1429 B(  1-N , 11-H ) :   0.1238 B(  1-N , 12-H ) :   0.1005
B(  2-C ,  3-N ) :   1.0808 B(  2-C ,  4-N ) :   0.8942 B(  2-C ,  7-H ) :  -0.1683
B(  2-C ,  8-H ) :  -0.1004 B(  3-N ,  4-N ) :   0.1310 B(  3-N ,  8-H ) :   1.1021
B(  3-N ,  9-H ) :   1.1499 B(  4-N ,  5-H ) :   1.0752 B(  4-N ,  6-H ) :   1.1324
B(  5-H ,  6-H ) :  -0.1181 B(  8-H ,  9-H ) :  -0.1623

FINAL SINGLE POINT ENERGY      -244.159853006846

DIPOLE MOMENT
-------------
                                X             Y             Z
Electronic contribution:      0.15280       0.10803       2.68176
Nuclear contribution   :     -0.59263      -0.40751      -2.24260
                        -----------------------------------------
Total Dipole Moment    :     -0.43983      -0.29948       0.43916
                        -----------------------------------------
Magnitude (a.u.)       :      0.68992
Magnitude (Debye)      :      1.75365

Rotational constants in cm-1:     0.316984     0.131419     0.095004
Rotational constants in MHz :  9502.926758  3939.829875  2848.138998

                             ****ORCA TERMINATED NORMALLY****
TOTAL RUN TIME: 0 days 0 hours 0 minutes 17 seconds 584 msec
