                         Program Version 5.0.0 -  RELEASE  -
|  1> !LC-PBE RIJCOSX def2-SVPD def2/J TightSCF
|  2> *xyz 0 1
|  3> C          2.49670       -1.84416       -5.73570
|  4> F          2.45973       -0.50920       -5.50576
|  5> H          2.07863       -2.36209       -4.89793
|  6> H          3.51118       -2.15388       -5.87645
|  7> H          1.92949       -2.07059       -6.61428
|  8> *
|  9>
| 10> %MaxCore 64000
| 11>
| 12> %pal nprocs 4
| 13> end
| 14>
| 15> %scf
| 16>   MaxIter 150
| 17> end
| 18>
| 19>
| 20>                          ****END OF INPUT****

CARTESIAN COORDINATES (ANGSTROEM)
---------------------------------
  C      2.496700   -1.844160   -5.735700
  F      2.459730   -0.509200   -5.505760
  H      2.078630   -2.362090   -4.897930
  H      3.511180   -2.153880   -5.876450
  H      1.929490   -2.070590   -6.614280

 Total Charge           Charge          ....    0
 Multiplicity           Mult            ....    1
 Number of Electrons    NEL             ....   18
 Basis Dimension        Dim             ....   67

ORBITAL ENERGIES
----------------

  NO   OCC          E(Eh)            E(eV)
   0   2.0000     -24.492037      -666.4622
   1   2.0000     -10.196046      -277.4485
   2   2.0000      -1.345388       -36.6099
   3   2.0000      -0.868379       -23.6298
   4   2.0000      -0.648450       -17.6452
   5   2.0000      -0.646659       -17.5965
   6   2.0000      -0.646651       -17.5963
   7   2.0000      -0.488058       -13.2807
   8   2.0000      -0.488052       -13.2806
   9   0.0000       0.092215         2.5093
  10   0.0000       0.149760         4.0752
  11   0.0000       0.175581         4.7778
  12   0.0000       0.175582         4.7778
  13   0.0000       0.214033         5.8241

MULLIKEN ATOMIC CHARGES
-----------------------
   0 C :    0.599311
   1 F :   -0.454937
   2 H :   -0.048115
   3 H :   -0.048110
   4 H :   -0.048149
Sum of atomic charges:   -0.0000000

LOEWDIN ATOMIC CHARGES
----------------------
   0 C :    0.222392
   1 F :   -0.242984
   2 H :    0.006859
   3 H :    0.006863
   4 H :    0.006869

  Mayer bond orders larger than 0.100000
B(  0-C ,  1-F ) :   0.8976 B(  0-C ,  2-H ) :   0.9631 B(  0-C ,  3-H ) :   0.9632
B(  0-C ,  4-H ) :   0.9633

FINAL SINGLE POINT ENERGY      -139.286215122907

DIPOLE MOMENT
-------------
                                X             Y             Z
Electronic contribution:     -0.07872       2.84334       0.48970
Nuclear contribution   :      0.09898      -3.57380      -0.61557
                        -----------------------------------------
Total Dipole Moment    :      0.02026      -0.73046      -0.12587
                        -----------------------------------------
Magnitude (a.u.)       :      0.74150
Magnitude (Debye)      :      1.88475

Rotational constants in cm-1:     5.477724     0.890368     0.890367
Rotational constants in MHz : 164218.041992 26692.553985 26692.534390

                             ****ORCA TERMINATED NORMALLY****
TOTAL RUN TIME: 0 days 0 hours 0 minutes 3 seconds 340 msec
