                         Program Version 5.0.0 -  RELEASE  -
|  1> !LC-PBE RIJCOSX def2-SVPD def2/J TightSCF
|  2> *xyz 0 1
|  3> C          4.99986       -1.59613       -5.92488
|  4> C          5.28156       -1.97413       -4.53576
|  5> C          4.79250       -1.36132       -3.45730
|  6> N          3.93990       -0.37492       -3.55736
|  7> N          5.25986       -1.75422       -2.23913
|  8> H          5.92282       -2.52145       -2.18672
|  9> H          4.65468       -1.64040       -1.44202
| 10> H          5.70914       -2.87560       -4.38702
| 11> H          3.33010       -0.31764       -4.36125
| 12> H          3.69849        0.11447       -2.70833
| 13> H          5.52133       -2.25562       -6.58673
| 14> H          5.32493       -0.59081       -6.09388
| 15> H          3.94785       -1.66624       -6.10727
| 16> *
| 17>
| 18> %MaxCore 64000
| 19>
| 20> %pal nprocs 4
| 21> end
| 22>
| 23> %scf
| 24>   MaxIter 150
| 25> end
| 26>
| 27>
| 28>                          ****END OF INPUT****

CARTESIAN COORDINATES (ANGSTROEM)
---------------------------------
  C      4.999860   -1.596130   -5.924880
  C      5.281560   -1.974130   -4.535760
  C      4.792500   -1.361320   -3.457300
  N      3.939900   -0.374920   -3.557360
  N      5.259860   -1.754220   -2.239130
  H      5.922820   -2.521450   -2.186720
  H      4.654680   -1.640400   -1.442020
  H      5.709140   -2.875600   -4.387020
  H      3.330100   -0.317640   -4.361250
  H      3.698490    0.114470   -2.708330
  H      5.521330   -2.255620   -6.586730
  H      5.324930   -0.590810   -6.093880
  H      3.947850   -1.666240   -6.107270

 Total Charge           Charge          ....    0
 Multiplicity           Mult            ....    1
 Number of Electrons    NEL             ....   40
 Basis Dimension        Dim             ....  164

ORBITAL ENERGIES
----------------

  NO   OCC          E(Eh)            E(eV)
   0   2.0000     -14.232810      -387.2945
   1   2.0000     -14.223632      -387.0447
   2   2.0000     -10.172924      -276.8193
   3   2.0000     -10.090515      -274.5769
   4   2.0000     -10.052763      -273.5496
   5   2.0000      -1.131053       -30.7775
   6   2.0000      -1.029816       -28.0227
   7   2.0000      -0.919421       -25.0187
   8   2.0000      -0.813617       -22.1396
   9   2.0000      -0.735896       -20.0247
  10   2.0000      -0.693478       -18.8705
  11   2.0000      -0.648483       -17.6461
  12   2.0000      -0.618082       -16.8189
  13   2.0000      -0.572341       -15.5742
  14   2.0000      -0.550514       -14.9802
  15   2.0000      -0.514265       -13.9939
  16   2.0000      -0.493996       -13.4423
  17   2.0000      -0.469359       -12.7719
  18   2.0000      -0.400430       -10.8963
  19   2.0000      -0.277009        -7.5378
  20   0.0000       0.091843         2.4992
  21   0.0000       0.115824         3.1517
  22   0.0000       0.126600         3.4450
  23   0.0000       0.154518         4.2046
  24   0.0000       0.159652         4.3444

MULLIKEN ATOMIC CHARGES
-----------------------
   0 C :    0.512404
   1 C :   -0.731714
   2 C :    0.767856
   3 N :    0.013830
   4 N :   -0.084620
   5 H :    0.004481
   6 H :   -0.066624
   7 H :   -0.350633
   8 H :   -0.012129
   9 H :   -0.156396
  10 H :    0.016409
  11 H :    0.077915
  12 H :    0.009220
Sum of atomic charges:   -0.0000000

LOEWDIN ATOMIC CHARGES
----------------------
   0 C :    0.055866
   1 C :   -0.082191
   2 C :   -0.243125
   3 N :    0.181973
   4 N :    0.159135
   5 H :    0.008616
   6 H :   -0.012463
   7 H :   -0.049563
   8 H :    0.011922
   9 H :    0.006376
  10 H :   -0.008911
  11 H :   -0.007953
  12 H :   -0.019681

  Mayer bond orders larger than 0.100000
B(  0-C ,  1-C ) :   1.2623 B(  0-C ,  7-H ) :   0.1277 B(  0-C , 10-H ) :   0.7938
B(  0-C , 11-H ) :   0.7384 B(  0-C , 12-H ) :   0.7992 B(  1-C ,  2-C ) :   1.5626
B(  1-C ,  3-N ) :   0.2910 B(  1-C ,  4-N ) :   0.3004 B(  1-C ,  7-H ) :   1.0435
B(  1-C , 10-H ) :   0.2367 B(  1-C , 11-H ) :   0.2385 B(  1-C , 12-H ) :   0.1411
B(  2-C ,  3-N ) :   1.0458 B(  2-C ,  4-N ) :   0.8614 B(  3-N ,  8-H ) :   1.0978
B(  3-N ,  9-H ) :   1.2244 B(  4-N ,  5-H ) :   1.0662 B(  4-N ,  6-H ) :   1.1219
B(  5-H ,  6-H ) :  -0.1044 B(  8-H ,  9-H ) :  -0.1528

FINAL SINGLE POINT ENERGY      -227.715615240888

DIPOLE MOMENT
-------------
                                X             Y             Z
Electronic contribution:     -0.15588       0.58808       3.07440
Nuclear contribution   :     -0.50372      -0.52081      -2.36443
                        -----------------------------------------
Total Dipole Moment    :     -0.65960       0.06727       0.70997
                        -----------------------------------------
Magnitude (a.u.)       :      0.97142
Magnitude (Debye)      :      2.46916

Rotational constants in cm-1:     0.322219     0.132365     0.095965
Rotational constants in MHz :  9659.878542  3968.206057  2876.950547

                             ****ORCA TERMINATED NORMALLY****
TOTAL RUN TIME: 0 days 0 hours 0 minutes 18 seconds 663 msec
