                         Program Version 5.0.0 -  RELEASE  -
|  1> !LC-PBE RIJCOSX def2-SVPD def2/J TightSCF
|  2> *xyz 0 1
|  3> C          4.99986       -1.59613       -5.92488
|  4> N          5.28156       -1.97413       -4.53576
|  5> C          4.79250       -1.36132       -3.45730
|  6> C          3.93990       -0.37492       -3.55736
|  7> N          5.25986       -1.75422       -2.23913
|  8> H          5.92282       -2.52145       -2.18672
|  9> H          4.65468       -1.64040       -1.44202
| 10> H          5.70914       -2.87560       -4.38702
| 11> H          3.33010       -0.31764       -4.36125
| 12> H          3.69849        0.11447       -2.70833
| 13> H          5.52133       -2.25562       -6.58673
| 14> H          5.32493       -0.59081       -6.09388
| 15> H          3.94785       -1.66624       -6.10727
| 16> *
| 17>
| 18> %MaxCore 64000
| 19>
| 20> %pal nprocs 4
| 21> end
| 22>
| 23> %scf
| 24>   MaxIter 150
| 25> end
| 26>
| 27>
| 28>                          ****END OF INPUT****

CARTESIAN COORDINATES (ANGSTROEM)
---------------------------------
  C      4.999860   -1.596130   -5.924880
  N      5.281560   -1.974130   -4.535760
  C      4.792500   -1.361320   -3.457300
  C      3.939900   -0.374920   -3.557360
  N      5.259860   -1.754220   -2.239130
  H      5.922820   -2.521450   -2.186720
  H      4.654680   -1.640400   -1.442020
  H      5.709140   -2.875600   -4.387020
  H      3.330100   -0.317640   -4.361250
  H      3.698490    0.114470   -2.708330
  H      5.521330   -2.255620   -6.586730
  H      5.324930   -0.590810   -6.093880
  H      3.947850   -1.666240   -6.107270

 Total Charge           Charge          ....    0
 Multiplicity           Mult            ....    1
 Number of Electrons    NEL             ....   40
 Basis Dimension        Dim             ....  164

ORBITAL ENERGIES
----------------

  NO   OCC          E(Eh)            E(eV)
   0   2.0000     -14.234327      -387.3357
   1   2.0000     -14.226426      -387.1207
   2   2.0000     -10.177883      -276.9543
   3   2.0000     -10.151002      -276.2228
   4   2.0000     -10.040917      -273.2272
   5   2.0000      -1.132765       -30.8241
   6   2.0000      -1.040322       -28.3086
   7   2.0000      -0.889123       -24.1943
   8   2.0000      -0.859794       -23.3962
   9   2.0000      -0.717607       -19.5271
  10   2.0000      -0.693412       -18.8687
  11   2.0000      -0.658334       -17.9142
  12   2.0000      -0.605028       -16.4636
  13   2.0000      -0.576946       -15.6995
  14   2.0000      -0.556114       -15.1326
  15   2.0000      -0.520990       -14.1769
  16   2.0000      -0.518256       -14.1025
  17   2.0000      -0.496015       -13.4973
  18   2.0000      -0.381932       -10.3929
  19   2.0000      -0.293850        -7.9961
  20   0.0000       0.089554         2.4369
  21   0.0000       0.109462         2.9786
  22   0.0000       0.124427         3.3858
  23   0.0000       0.154080         4.1927
  24   0.0000       0.158538         4.3140

MULLIKEN ATOMIC CHARGES
-----------------------
   0 C :    0.772658
   1 N :   -0.527933
   2 C :    0.560784
   3 C :    0.154063
   4 N :   -0.061661
   5 H :   -0.101809
   6 H :    0.001386
   7 H :   -0.266702
   8 H :   -0.133006
   9 H :   -0.282713
  10 H :   -0.237082
  11 H :    0.043322
  12 H :    0.078692
Sum of atomic charges:    0.0000000

LOEWDIN ATOMIC CHARGES
----------------------
   0 C :    0.176787
   1 N :   -0.062833
   2 C :   -0.246769
   3 C :    0.125048
   4 N :    0.165698
   5 H :   -0.004812
   6 H :    0.004005
   7 H :    0.020250
   8 H :   -0.085925
   9 H :   -0.081351
  10 H :   -0.004441
  11 H :    0.002551
  12 H :   -0.008207

  Mayer bond orders larger than 0.100000
B(  0-C ,  1-N ) :   0.9491 B(  0-C ,  7-H ) :  -0.1134 B(  0-C , 10-H ) :   0.9180
B(  0-C , 11-H ) :   0.8549 B(  0-C , 12-H ) :   0.8537 B(  1-N ,  2-C ) :   1.0208
B(  1-N ,  3-C ) :   0.3290 B(  1-N ,  4-N ) :   0.1361 B(  1-N ,  7-H ) :   1.3121
B(  1-N , 10-H ) :   0.1381 B(  1-N , 11-H ) :   0.1217 B(  2-C ,  3-C ) :   1.8109
B(  2-C ,  4-N ) :   0.9159 B(  2-C ,  7-H ) :  -0.1784 B(  2-C ,  8-H ) :   0.1714
B(  2-C ,  9-H ) :   0.2278 B(  3-C ,  4-N ) :   0.2204 B(  3-C ,  8-H ) :   0.7961
B(  3-C ,  9-H ) :   0.8131 B(  4-N ,  5-H ) :   1.0993 B(  4-N ,  6-H ) :   1.1028
B(  5-H ,  6-H ) :  -0.1095 B(  8-H ,  9-H ) :   0.1085

FINAL SINGLE POINT ENERGY      -227.704265201513

DIPOLE MOMENT
-------------
                                X             Y             Z
Electronic contribution:      1.09684      -0.88175       2.11040
Nuclear contribution   :     -0.77547      -0.19690      -2.16626
                        -----------------------------------------
Total Dipole Moment    :      0.32137      -1.07865      -0.05586
                        -----------------------------------------
Magnitude (a.u.)       :      1.12690
Magnitude (Debye)      :      2.86434

Rotational constants in cm-1:     0.340409     0.131955     0.097296
Rotational constants in MHz : 10205.195281  3955.909122  2916.861706

                             ****ORCA TERMINATED NORMALLY****
TOTAL RUN TIME: 0 days 0 hours 0 minutes 18 seconds 437 msec
