                         Program Version 5.0.0 -  RELEASE  -
|  1> !LC-PBE RIJCOSX def2-SVPD def2/J TightSCF
|  2> *xyz 0 1
|  3> C          4.99986       -1.59613       -5.92488
|  4> N          5.28156       -1.97413       -4.53576
|  5> C          4.79250       -1.36132       -3.45730
|  6> N          3.93990       -0.37492       -3.55736
|  7> C          5.25986       -1.75422       -2.23913
|  8> H          5.92282       -2.52145       -2.18672
|  9> H          4.65468       -1.64040       -1.44202
| 10> H          5.70914       -2.87560       -4.38702
| 11> H          3.33010       -0.31764       -4.36125
| 12> H          3.69849        0.11447       -2.70833
| 13> H          5.52133       -2.25562       -6.58673
| 14> H          5.32493       -0.59081       -6.09388
| 15> H          3.94785       -1.66624       -6.10727
| 16> *
| 17>
| 18> %MaxCore 64000
| 19>
| 20> %pal nprocs 4
| 21> end
| 22>
| 23> %scf
| 24>   MaxIter 150
| 25> end
| 26>
| 27>
| 28>                          ****END OF INPUT****

CARTESIAN COORDINATES (ANGSTROEM)
---------------------------------
  C      4.999860   -1.596130   -5.924880
  N      5.281560   -1.974130   -4.535760
  C      4.792500   -1.361320   -3.457300
  N      3.939900   -0.374920   -3.557360
  C      5.259860   -1.754220   -2.239130
  H      5.922820   -2.521450   -2.186720
  H      4.654680   -1.640400   -1.442020
  H      5.709140   -2.875600   -4.387020
  H      3.330100   -0.317640   -4.361250
  H      3.698490    0.114470   -2.708330
  H      5.521330   -2.255620   -6.586730
  H      5.324930   -0.590810   -6.093880
  H      3.947850   -1.666240   -6.107270

 Total Charge           Charge          ....    0
 Multiplicity           Mult            ....    1
 Number of Electrons    NEL             ....   40
 Basis Dimension        Dim             ....  164

ORBITAL ENERGIES
----------------

  NO   OCC          E(Eh)            E(eV)
   0   2.0000     -14.234782      -387.3481
   1   2.0000     -14.234116      -387.3300
   2   2.0000     -10.183433      -277.1053
   3   2.0000     -10.160130      -276.4712
   4   2.0000     -10.034307      -273.0474
   5   2.0000      -1.143267       -31.1099
   6   2.0000      -1.051202       -28.6047
   7   2.0000      -0.906571       -24.6691
   8   2.0000      -0.823591       -22.4111
   9   2.0000      -0.757839       -20.6219
  10   2.0000      -0.694378       -18.8950
  11   2.0000      -0.641353       -17.4521
  12   2.0000      -0.625230       -17.0134
  13   2.0000      -0.598828       -16.2949
  14   2.0000      -0.542128       -14.7520
  15   2.0000      -0.530336       -14.4312
  16   2.0000      -0.519587       -14.1387
  17   2.0000      -0.488867       -13.3028
  18   2.0000      -0.389960       -10.6113
  19   2.0000      -0.277194        -7.5428
  20   0.0000       0.082612         2.2480
  21   0.0000       0.118435         3.2228
  22   0.0000       0.123335         3.3561
  23   0.0000       0.146567         3.9883
  24   0.0000       0.158764         4.3202

MULLIKEN ATOMIC CHARGES
-----------------------
   0 C :    0.819488
   1 N :   -0.492483
   2 C :    0.426092
   3 N :   -0.001236
   4 C :    0.291617
   5 H :   -0.192161
   6 H :   -0.350893
   7 H :   -0.194256
   8 H :   -0.040661
   9 H :   -0.028730
  10 H :   -0.217957
  11 H :    0.007476
  12 H :   -0.026294
Sum of atomic charges:    0.0000000

LOEWDIN ATOMIC CHARGES
----------------------
   0 C :    0.171026
   1 N :   -0.049310
   2 C :   -0.245053
   3 N :    0.182684
   4 C :    0.105233
   5 H :   -0.098006
   6 H :   -0.103902
   7 H :    0.034513
   8 H :    0.002496
   9 H :    0.022325
  10 H :   -0.002415
  11 H :   -0.003559
  12 H :   -0.016031

  Mayer bond orders larger than 0.100000
B(  0-C ,  1-N ) :   0.9447 B(  0-C ,  7-H ) :  -0.1234 B(  0-C , 10-H ) :   0.8957
B(  0-C , 11-H ) :   0.8661 B(  0-C , 12-H ) :   0.8630 B(  1-N ,  2-C ) :   1.1030
B(  1-N ,  3-N ) :   0.1687 B(  1-N ,  4-C ) :   0.2244 B(  1-N ,  7-H ) :   1.2238
B(  1-N , 10-H ) :   0.1466 B(  1-N , 11-H ) :   0.1133 B(  1-N , 12-H ) :   0.1231
B(  2-C ,  3-N ) :   1.0832 B(  2-C ,  4-C ) :   1.7152 B(  2-C ,  5-H ) :   0.1511
B(  2-C ,  6-H ) :   0.1576 B(  2-C ,  7-H ) :  -0.1362 B(  3-N ,  4-C ) :   0.1873
B(  3-N ,  8-H ) :   1.1041 B(  3-N ,  9-H ) :   1.1412 B(  4-C ,  5-H ) :   0.8157
B(  4-C ,  6-H ) :   0.8333 B(  5-H ,  6-H ) :   0.1231 B(  8-H ,  9-H ) :  -0.1570

FINAL SINGLE POINT ENERGY      -227.697487488208

DIPOLE MOMENT
-------------
                                X             Y             Z
Electronic contribution:     -0.17778       0.48339       0.76085
Nuclear contribution   :     -0.50812      -0.47627      -1.89926
                        -----------------------------------------
Total Dipole Moment    :     -0.68589       0.00712      -1.13841
                        -----------------------------------------
Magnitude (a.u.)       :      1.32909
Magnitude (Debye)      :      3.37827

Rotational constants in cm-1:     0.323645     0.137193     0.098606
Rotational constants in MHz :  9702.637007  4112.943433  2956.125886

                             ****ORCA TERMINATED NORMALLY****
TOTAL RUN TIME: 0 days 0 hours 0 minutes 18 seconds 397 msec
