                         Program Version 5.0.0 -  RELEASE  -
|  1> !TPSS D3BJ RIJCOSX def2-SVPD def2/J TightSCF
|  2> *xyz -1 1
|  3> C          0.61188        1.65763       -4.50029
|  4> C          1.69499        1.54179       -5.57045
|  5> H          2.69733        1.73466       -5.18400
|  6> H          1.50666        2.27224       -6.35808
|  7> S          1.78029       -0.03313       -6.42874
|  8> O          2.56929        0.21366       -7.60736
|  9> O          0.41688       -0.46297       -6.61859
| 10> O          2.50513       -0.93326       -5.48257
| 11> H         -0.34424        1.45871       -4.93752
| 12> H          0.61845        2.64655       -4.09174
| 13> H          0.80247        0.94882       -3.72173
| 14> *
| 15> %MaxCore 64000
| 16>
| 17> %pal nprocs 4
| 18> end
| 19>
| 20> %scf
| 21>   MaxIter 150
| 22> end
| 23>
| 24>
| 25>                          ****END OF INPUT****

CARTESIAN COORDINATES (ANGSTROEM)
---------------------------------
  C      0.611880    1.657630   -4.500290
  C      1.694990    1.541790   -5.570450
  H      2.697330    1.734660   -5.184000
  H      1.506660    2.272240   -6.358080
  S      1.780290   -0.033130   -6.428740
  O      2.569290    0.213660   -7.607360
  O      0.416880   -0.462970   -6.618590
  O      2.505130   -0.933260   -5.482570
  H     -0.344240    1.458710   -4.937520
  H      0.618450    2.646550   -4.091740
  H      0.802470    0.948820   -3.721730

 Total Charge           Charge          ....   -1
 Multiplicity           Mult            ....    1
 Number of Electrons    NEL             ....   58
 Basis Dimension        Dim             ....  176

ORBITAL ENERGIES
----------------

  NO   OCC          E(Eh)            E(eV)
   0   2.0000     -88.364714     -2404.5261
   1   2.0000     -18.681183      -508.3408
   2   2.0000     -18.680562      -508.3239
   3   2.0000     -18.662673      -507.8371
   4   2.0000      -9.861441      -268.3435
   5   2.0000      -9.859954      -268.3030
   6   2.0000      -7.724871      -210.2044
   7   2.0000      -5.710976      -155.4036
   8   2.0000      -5.710681      -155.3955
   9   2.0000      -5.709869      -155.3734
  10   2.0000      -0.853817       -23.2335
  11   2.0000      -0.725649       -19.7459
  12   2.0000      -0.692298       -18.8384
  13   2.0000      -0.570744       -15.5307
  14   2.0000      -0.453387       -12.3373
  15   2.0000      -0.330794        -9.0014
  16   2.0000      -0.277169        -7.5422
  17   2.0000      -0.269179        -7.3247
  18   2.0000      -0.233598        -6.3565
  19   2.0000      -0.216797        -5.8993
  20   2.0000      -0.213393        -5.8067
  21   2.0000      -0.190723        -5.1898
  22   2.0000      -0.178265        -4.8508
  23   2.0000      -0.105541        -2.8719
  24   2.0000      -0.105322        -2.8660
  25   2.0000      -0.075005        -2.0410
  26   2.0000      -0.069806        -1.8995
  27   2.0000      -0.052468        -1.4277
  28   2.0000      -0.019702        -0.5361
  29   0.0000       0.132753         3.6124
  30   0.0000       0.160536         4.3684
  31   0.0000       0.168391         4.5822
  32   0.0000       0.173849         4.7307
  33   0.0000       0.195542         5.3210

MULLIKEN ATOMIC CHARGES
-----------------------
   0 C :    0.683089
   1 C :   -0.392020
   2 H :   -0.031643
   3 H :    0.005873
   4 S :    1.247923
   5 O :   -0.762988
   6 O :   -0.777471
   7 O :   -0.823764
   8 H :   -0.025641
   9 H :   -0.087327
  10 H :   -0.036030
Sum of atomic charges:   -1.0000000

LOEWDIN ATOMIC CHARGES
----------------------
   0 C :    0.110271
   1 C :   -0.132358
   2 H :   -0.000342
   3 H :   -0.008112
   4 S :    0.838996
   5 O :   -0.565154
   6 O :   -0.560478
   7 O :   -0.595720
   8 H :   -0.028279
   9 H :   -0.038944
  10 H :   -0.019879

  Mayer bond orders larger than 0.100000
B(  0-C ,  1-C ) :   1.2871 B(  0-C ,  8-H ) :   0.8314 B(  0-C ,  9-H ) :   0.7679
B(  0-C , 10-H ) :   0.8283 B(  1-C ,  2-H ) :   0.9944 B(  1-C ,  3-H ) :   0.9898
B(  1-C ,  4-S ) :   0.8954 B(  1-C ,  8-H ) :   0.2019 B(  1-C ,  9-H ) :   0.2126
B(  1-C , 10-H ) :   0.1877 B(  4-S ,  5-O ) :   1.3582 B(  4-S ,  6-O ) :   1.3273
B(  4-S ,  7-O ) :   1.2928

Dispersion correction           -0.012084866
FINAL SINGLE POINT ENERGY      -702.849097689635

DIPOLE MOMENT
-------------
                                X             Y             Z
Electronic contribution:      2.23383      -5.64117      -5.00162
Nuclear contribution   :     -2.69163       7.29476       5.86550
                        -----------------------------------------
Total Dipole Moment    :     -0.45780       1.65359       0.86388
                        -----------------------------------------
Magnitude (a.u.)       :      1.92100
Magnitude (Debye)      :      4.88278

Rotational constants in cm-1:     0.163060     0.082831     0.081111
Rotational constants in MHz :  4888.419330  2483.225008  2431.646841

                             ****ORCA TERMINATED NORMALLY****
TOTAL RUN TIME: 0 days 0 hours 0 minutes 9 seconds 936 msec
