                         Program Version 5.0.0 -  RELEASE  -
|  1> !TPSS D3BJ RIJCOSX def2-SVPD def2/J TightSCF
|  2> *xyz 1 1
|  3> C          1.96337       -1.74915       -1.89689
|  4> N          2.73849       -2.01517       -3.09711
|  5> C          4.04974       -2.15472       -3.15204
|  6> N          4.65821       -1.98629       -4.31866
|  7> N          4.76423       -2.45444       -2.05049
|  8> H          4.28736       -2.77626       -1.21750
|  9> H          5.75082       -2.65835       -2.12599
| 10> H          2.34518       -1.69027       -3.97145
| 11> H          4.10900       -1.59268       -5.07176
| 12> H          5.64910       -2.15646       -4.42724
| 13> C          2.08852       -0.30091       -1.41520
| 14> H          2.23127       -2.45162       -1.10264
| 15> H          0.93025       -1.97780       -2.15544
| 16> H          1.82118        0.36368       -2.21003
| 17> H          3.09792       -0.11068       -1.11551
| 18> H          1.43391       -0.14382       -0.58352
| 19> *
| 20> %MaxCore 64000
| 21>
| 22> %pal nprocs 4
| 23> end
| 24>
| 25> %scf
| 26>   MaxIter 150
| 27> end
| 28>
| 29>
| 30>                          ****END OF INPUT****

CARTESIAN COORDINATES (ANGSTROEM)
---------------------------------
  C      1.963370   -1.749150   -1.896890
  N      2.738490   -2.015170   -3.097110
  C      4.049740   -2.154720   -3.152040
  N      4.658210   -1.986290   -4.318660
  N      4.764230   -2.454440   -2.050490
  H      4.287360   -2.776260   -1.217500
  H      5.750820   -2.658350   -2.125990
  H      2.345180   -1.690270   -3.971450
  H      4.109000   -1.592680   -5.071760
  H      5.649100   -2.156460   -4.427240
  C      2.088520   -0.300910   -1.415200
  H      2.231270   -2.451620   -1.102640
  H      0.930250   -1.977800   -2.155440
  H      1.821180    0.363680   -2.210030
  H      3.097920   -0.110680   -1.115510
  H      1.433910   -0.143820   -0.583520

 Total Charge           Charge          ....    1
 Multiplicity           Mult            ....    1
 Number of Electrons    NEL             ....   48
 Basis Dimension        Dim             ....  200

ORBITAL ENERGIES
----------------

  NO   OCC          E(Eh)            E(eV)
   0   2.0000     -14.342735      -390.2857
   1   2.0000     -14.340535      -390.2258
   2   2.0000     -14.339888      -390.2082
   3   2.0000     -10.323967      -280.9294
   4   2.0000     -10.209380      -277.8114
   5   2.0000     -10.140098      -275.9261
   6   2.0000      -1.141371       -31.0583
   7   2.0000      -1.036247       -28.1977
   8   2.0000      -1.024608       -27.8810
   9   2.0000      -0.869814       -23.6688
  10   2.0000      -0.788020       -21.4431
  11   2.0000      -0.753980       -20.5168
  12   2.0000      -0.736690       -20.0464
  13   2.0000      -0.699061       -19.0224
  14   2.0000      -0.651609       -17.7312
  15   2.0000      -0.645405       -17.5624
  16   2.0000      -0.613966       -16.7069
  17   2.0000      -0.584426       -15.9030
  18   2.0000      -0.561857       -15.2889
  19   2.0000      -0.524351       -14.2683
  20   2.0000      -0.496125       -13.5002
  21   2.0000      -0.478603       -13.0235
  22   2.0000      -0.439186       -11.9509
  23   2.0000      -0.415091       -11.2952
  24   0.0000      -0.196736        -5.3535
  25   0.0000      -0.170233        -4.6323
  26   0.0000      -0.137472        -3.7408
  27   0.0000      -0.127685        -3.4745
  28   0.0000      -0.104515        -2.8440

MULLIKEN ATOMIC CHARGES
-----------------------
   0 C :    0.290848
   1 N :   -0.411674
   2 C :    1.455079
   3 N :   -0.133922
   4 N :   -0.039511
   5 H :   -0.024043
   6 H :   -0.139844
   7 H :   -0.175725
   8 H :    0.002098
   9 H :   -0.056272
  10 C :    0.605669
  11 H :   -0.069704
  12 H :   -0.266065
  13 H :   -0.020678
  14 H :   -0.041396
  15 H :    0.025141
Sum of atomic charges:    1.0000000

LOEWDIN ATOMIC CHARGES
----------------------
   0 C :    0.052037
   1 N :    0.040787
   2 C :   -0.039725
   3 N :    0.266755
   4 N :    0.283809
   5 H :    0.021534
   6 H :    0.035476
   7 H :    0.054744
   8 H :    0.037469
   9 H :    0.042729
  10 C :    0.173998
  11 H :    0.023356
  12 H :    0.036922
  13 H :   -0.010025
  14 H :   -0.019502
  15 H :   -0.000364

  Mayer bond orders larger than 0.100000
B(  0-C ,  1-N ) :   0.9331 B(  0-C ,  7-H ) :  -0.1278 B(  0-C , 10-C ) :   1.2455
B(  0-C , 11-H ) :   0.9096 B(  0-C , 12-H ) :   0.8838 B(  0-C , 13-H ) :   0.2098
B(  0-C , 14-H ) :   0.1756 B(  0-C , 15-H ) :   0.1559 B(  1-N ,  2-C ) :   0.9945
B(  1-N ,  3-N ) :   0.3213 B(  1-N ,  4-N ) :   0.2188 B(  1-N ,  7-H ) :   1.2568
B(  1-N , 11-H ) :   0.1224 B(  1-N , 12-H ) :   0.2080 B(  2-C ,  3-N ) :   0.7686
B(  2-C ,  4-N ) :   0.8986 B(  2-C ,  5-H ) :  -0.1253 B(  2-C ,  6-H ) :  -0.1706
B(  2-C ,  7-H ) :  -0.2242 B(  2-C ,  8-H ) :  -0.1477 B(  2-C ,  9-H ) :  -0.1446
B(  3-N ,  4-N ) :   0.1781 B(  3-N ,  8-H ) :   1.1538 B(  3-N ,  9-H ) :   1.2519
B(  4-N ,  5-H ) :   1.0871 B(  4-N ,  6-H ) :   1.2874 B(  5-H ,  6-H ) :  -0.2029
B(  8-H ,  9-H ) :  -0.1730 B( 10-C , 13-H ) :   0.8241 B( 10-C , 14-H ) :   0.8573
B( 10-C , 15-H ) :   0.8112

Dispersion correction           -0.015271191
FINAL SINGLE POINT ENERGY      -284.267199120312

DIPOLE MOMENT
-------------
                                X             Y             Z
Electronic contribution:      3.00731      -2.70635      -3.08224
Nuclear contribution   :     -2.17768       2.37118       2.44574
                        -----------------------------------------
Total Dipole Moment    :      0.82963      -0.33518      -0.63650
                        -----------------------------------------
Magnitude (a.u.)       :      1.09807
Magnitude (Debye)      :      2.79108

Rotational constants in cm-1:     0.215650     0.075183     0.066454
Rotational constants in MHz :  6465.033740  2253.919004  1992.232519

                             ****ORCA TERMINATED NORMALLY****
TOTAL RUN TIME: 0 days 0 hours 0 minutes 11 seconds 766 msec
