                         Program Version 5.0.0 -  RELEASE  -
|  1> !TPSS D3BJ RIJCOSX def2-SVPD def2/J TightSCF
|  2> *xyz 0 1
|  3> C          0.61188        1.65763       -4.50029
|  4> C          1.69499        1.54179       -5.57045
|  5> H          2.69733        1.73466       -5.18400
|  6> H          1.50666        2.27224       -6.35808
|  7> S          1.78029       -0.03313       -6.42874
|  8> F          2.56929        0.21366       -7.60736
|  9> O          0.41688       -0.46297       -6.61859
| 10> O          2.50513       -0.93326       -5.48257
| 11> H         -0.34424        1.45871       -4.93752
| 12> H          0.61845        2.64655       -4.09174
| 13> H          0.80247        0.94882       -3.72173
| 14> *
| 15> %MaxCore 64000
| 16>
| 17> %pal nprocs 4
| 18> end
| 19>
| 20> %scf
| 21>   MaxIter 150
| 22> end
| 23>
| 24>
| 25>                          ****END OF INPUT****

CARTESIAN COORDINATES (ANGSTROEM)
---------------------------------
  C      0.611880    1.657630   -4.500290
  C      1.694990    1.541790   -5.570450
  H      2.697330    1.734660   -5.184000
  H      1.506660    2.272240   -6.358080
  S      1.780290   -0.033130   -6.428740
  F      2.569290    0.213660   -7.607360
  O      0.416880   -0.462970   -6.618590
  O      2.505130   -0.933260   -5.482570
  H     -0.344240    1.458710   -4.937520
  H      0.618450    2.646550   -4.091740
  H      0.802470    0.948820   -3.721730

 Total Charge           Charge          ....    0
 Multiplicity           Mult            ....    1
 Number of Electrons    NEL             ....   58
 Basis Dimension        Dim             ....  176

ORBITAL ENERGIES
----------------

  NO   OCC          E(Eh)            E(eV)
   0   2.0000     -88.621233     -2411.5063
   1   2.0000     -24.543040      -667.8501
   2   2.0000     -18.914125      -514.6795
   3   2.0000     -18.895462      -514.1717
   4   2.0000     -10.063846      -273.8512
   5   2.0000     -10.024159      -272.7712
   6   2.0000      -7.982559      -217.2165
   7   2.0000      -5.972892      -162.5306
   8   2.0000      -5.966250      -162.3499
   9   2.0000      -5.964415      -162.3000
  10   2.0000      -1.295330       -35.2477
  11   2.0000      -1.032214       -28.0880
  12   2.0000      -0.928232       -25.2585
  13   2.0000      -0.762219       -20.7410
  14   2.0000      -0.679959       -18.5026
  15   2.0000      -0.623538       -16.9673
  16   2.0000      -0.535121       -14.5614
  17   2.0000      -0.530587       -14.4380
  18   2.0000      -0.506231       -13.7752
  19   2.0000      -0.454479       -12.3670
  20   2.0000      -0.438032       -11.9195
  21   2.0000      -0.398640       -10.8475
  22   2.0000      -0.392937       -10.6924
  23   2.0000      -0.373244       -10.1565
  24   2.0000      -0.355548        -9.6750
  25   2.0000      -0.340826        -9.2744
  26   2.0000      -0.295356        -8.0370
  27   2.0000      -0.277045        -7.5388
  28   2.0000      -0.259939        -7.0733
  29   0.0000      -0.021528        -0.5858
  30   0.0000       0.000529         0.0144
  31   0.0000       0.021881         0.5954
  32   0.0000       0.027663         0.7528
  33   0.0000       0.029986         0.8160

MULLIKEN ATOMIC CHARGES
-----------------------
   0 C :    0.680154
   1 C :   -0.418572
   2 H :    0.018249
   3 H :    0.057672
   4 S :    1.442607
   5 F :   -0.380848
   6 O :   -0.644403
   7 O :   -0.687413
   8 H :   -0.002075
   9 H :   -0.049459
  10 H :   -0.015912
Sum of atomic charges:   -0.0000000

LOEWDIN ATOMIC CHARGES
----------------------
   0 C :    0.156414
   1 C :   -0.095918
   2 H :    0.019784
   3 H :    0.010207
   4 S :    1.104855
   5 F :   -0.250438
   6 O :   -0.448862
   7 O :   -0.477793
   8 H :   -0.010063
   9 H :   -0.006473
  10 H :   -0.001713

  Mayer bond orders larger than 0.100000
B(  0-C ,  1-C ) :   1.3609 B(  0-C ,  8-H ) :   0.8262 B(  0-C ,  9-H ) :   0.7686
B(  0-C , 10-H ) :   0.8282 B(  1-C ,  2-H ) :   0.9795 B(  1-C ,  3-H ) :   0.9548
B(  1-C ,  4-S ) :   0.9413 B(  1-C ,  8-H ) :   0.1944 B(  1-C ,  9-H ) :   0.1986
B(  1-C , 10-H ) :   0.1804 B(  4-S ,  5-F ) :   0.6937 B(  4-S ,  6-O ) :   1.5293
B(  4-S ,  7-O ) :   1.4854

Dispersion correction           -0.011558247
FINAL SINGLE POINT ENERGY      -727.338042277535

DIPOLE MOMENT
-------------
                                X             Y             Z
Electronic contribution:      3.84157      -5.66509      -7.50431
Nuclear contribution   :     -3.66946       7.33549       7.42434
                        -----------------------------------------
Total Dipole Moment    :      0.17211       1.67040      -0.07996
                        -----------------------------------------
Magnitude (a.u.)       :      1.68115
Magnitude (Debye)      :      4.27314

Rotational constants in cm-1:     0.158379     0.080294     0.077843
Rotational constants in MHz :  4748.076444  2407.152850  2333.668303

                             ****ORCA TERMINATED NORMALLY****
TOTAL RUN TIME: 0 days 0 hours 0 minutes 9 seconds 854 msec
