                         Program Version 5.0.0 -  RELEASE  -
|  1> !TPSS D3BJ RIJCOSX def2-SVPD def2/J TightSCF
|  2> *xyz 0 1
|  3> C          1.96337       -1.74915       -1.89689
|  4> C          2.73849       -2.01517       -3.09711
|  5> C          4.04974       -2.15472       -3.15204
|  6> N          4.65821       -1.98629       -4.31866
|  7> N          4.76423       -2.45444       -2.05049
|  8> H          4.28736       -2.77626       -1.21750
|  9> H          5.75082       -2.65835       -2.12599
| 10> H          2.34518       -1.69027       -3.97145
| 11> H          4.10900       -1.59268       -5.07176
| 12> H          5.64910       -2.15646       -4.42724
| 13> C          2.08852       -0.30091       -1.41520
| 14> H          2.23127       -2.45162       -1.10264
| 15> H          0.93025       -1.97780       -2.15544
| 16> H          1.82118        0.36368       -2.21003
| 17> H          3.09792       -0.11068       -1.11551
| 18> H          1.43391       -0.14382       -0.58352
| 19> *
| 20> %MaxCore 64000
| 21>
| 22> %pal nprocs 4
| 23> end
| 24>
| 25> %scf
| 26>   MaxIter 150
| 27> end
| 28>
| 29>
| 30>                          ****END OF INPUT****

CARTESIAN COORDINATES (ANGSTROEM)
---------------------------------
  C      1.963370   -1.749150   -1.896890
  C      2.738490   -2.015170   -3.097110
  C      4.049740   -2.154720   -3.152040
  N      4.658210   -1.986290   -4.318660
  N      4.764230   -2.454440   -2.050490
  H      4.287360   -2.776260   -1.217500
  H      5.750820   -2.658350   -2.125990
  H      2.345180   -1.690270   -3.971450
  H      4.109000   -1.592680   -5.071760
  H      5.649100   -2.156460   -4.427240
  C      2.088520   -0.300910   -1.415200
  H      2.231270   -2.451620   -1.102640
  H      0.930250   -1.977800   -2.155440
  H      1.821180    0.363680   -2.210030
  H      3.097920   -0.110680   -1.115510
  H      1.433910   -0.143820   -0.583520

 Total Charge           Charge          ....    0
 Multiplicity           Mult            ....    1
 Number of Electrons    NEL             ....   48
 Basis Dimension        Dim             ....  200

ORBITAL ENERGIES
----------------

  NO   OCC          E(Eh)            E(eV)
   0   2.0000     -14.120580      -384.2405
   1   2.0000     -14.118257      -384.1773
   2   2.0000     -10.035678      -273.0847
   3   2.0000      -9.975588      -271.4496
   4   2.0000      -9.966512      -271.2026
   5   2.0000      -9.918863      -269.9060
   6   2.0000      -0.885976       -24.1086
   7   2.0000      -0.802873       -21.8473
   8   2.0000      -0.707823       -19.2609
   9   2.0000      -0.632934       -17.2230
  10   2.0000      -0.562476       -15.3057
  11   2.0000      -0.529967       -14.4211
  12   2.0000      -0.496615       -13.5136
  13   2.0000      -0.464082       -12.6283
  14   2.0000      -0.431658       -11.7460
  15   2.0000      -0.397079       -10.8051
  16   2.0000      -0.376675       -10.2498
  17   2.0000      -0.344023        -9.3613
  18   2.0000      -0.339579        -9.2404
  19   2.0000      -0.315659        -8.5895
  20   2.0000      -0.290516        -7.9053
  21   2.0000      -0.283200        -7.7063
  22   2.0000      -0.225349        -6.1321
  23   2.0000      -0.129460        -3.5228
  24   0.0000       0.000771         0.0210
  25   0.0000       0.028633         0.7791
  26   0.0000       0.034338         0.9344
  27   0.0000       0.045233         1.2309
  28   0.0000       0.063993         1.7413

MULLIKEN ATOMIC CHARGES
-----------------------
   0 C :   -0.151177
   1 C :   -0.406874
   2 C :    0.903097
   3 N :   -0.066964
   4 N :   -0.111770
   5 H :   -0.003351
   6 H :   -0.266634
   7 H :   -0.094984
   8 H :    0.000614
   9 H :   -0.166709
  10 C :    0.614872
  11 H :   -0.073114
  12 H :   -0.093190
  13 H :   -0.031967
  14 H :   -0.044039
  15 H :   -0.007811
Sum of atomic charges:   -0.0000000

LOEWDIN ATOMIC CHARGES
----------------------
   0 C :   -0.092074
   1 C :   -0.042776
   2 C :   -0.220579
   3 N :    0.180215
   4 N :    0.202993
   5 H :   -0.008244
   6 H :   -0.014665
   7 H :   -0.052758
   8 H :    0.005364
   9 H :   -0.008620
  10 C :    0.131463
  11 H :   -0.002518
  12 H :    0.006939
  13 H :   -0.022996
  14 H :   -0.029717
  15 H :   -0.032027

  Mayer bond orders larger than 0.100000
B(  0-C ,  1-C ) :   1.2419 B(  0-C ,  7-H ) :   0.2810 B(  0-C , 10-C ) :   1.2155
B(  0-C , 11-H ) :   0.8844 B(  0-C , 12-H ) :   0.8281 B(  0-C , 13-H ) :   0.2196
B(  0-C , 14-H ) :   0.1942 B(  0-C , 15-H ) :   0.1709 B(  1-C ,  2-C ) :   1.7256
B(  1-C ,  3-N ) :   0.3369 B(  1-C ,  4-N ) :   0.2262 B(  1-C ,  7-H ) :   0.7974
B(  1-C , 11-H ) :   0.2030 B(  1-C , 12-H ) :   0.2611 B(  2-C ,  3-N ) :   0.8367
B(  2-C ,  4-N ) :   0.8444 B(  2-C ,  6-H ) :  -0.2255 B(  2-C ,  7-H ) :   0.2565
B(  2-C ,  9-H ) :  -0.1057 B(  3-N ,  4-N ) :   0.1283 B(  3-N ,  8-H ) :   1.1390
B(  3-N ,  9-H ) :   1.2723 B(  4-N ,  5-H ) :   1.0387 B(  4-N ,  6-H ) :   1.4044
B(  5-H ,  6-H ) :  -0.2046 B(  8-H ,  9-H ) :  -0.1645 B( 10-C , 13-H ) :   0.8436
B( 10-C , 14-H ) :   0.8515 B( 10-C , 15-H ) :   0.8085

Dispersion correction           -0.015887275
FINAL SINGLE POINT ENERGY      -267.789453837636

DIPOLE MOMENT
-------------
                                X             Y             Z
Electronic contribution:      3.30052      -2.43871      -2.53979
Nuclear contribution   :     -2.31778       2.31977       2.35294
                        -----------------------------------------
Total Dipole Moment    :      0.98274      -0.11894      -0.18685
                        -----------------------------------------
Magnitude (a.u.)       :      1.00739
Magnitude (Debye)      :      2.56058

Rotational constants in cm-1:     0.219415     0.075373     0.066689
Rotational constants in MHz :  6577.897266  2259.621393  1999.290981

                             ****ORCA TERMINATED NORMALLY****
TOTAL RUN TIME: 0 days 0 hours 0 minutes 13 seconds 300 msec
