                         Program Version 5.0.0 -  RELEASE  -
|  1> !TPSS D3BJ RIJCOSX def2-SVPD def2/J TightSCF
|  2> *xyz 0 1
|  3> C          0.61188        1.65763       -4.50029
|  4> C          1.69499        1.54179       -5.57045
|  5> H          2.69733        1.73466       -5.18400
|  6> H          1.50666        2.27224       -6.35808
|  7> S          1.78029       -0.03313       -6.42874
|  8> O          2.56929        0.21366       -7.60736
|  9> F          0.41688       -0.46297       -6.61859
| 10> O          2.50513       -0.93326       -5.48257
| 11> H         -0.34424        1.45871       -4.93752
| 12> H          0.61845        2.64655       -4.09174
| 13> H          0.80247        0.94882       -3.72173
| 14> *
| 15> %MaxCore 64000
| 16>
| 17> %pal nprocs 4
| 18> end
| 19>
| 20> %scf
| 21>   MaxIter 150
| 22> end
| 23>
| 24>
| 25>                          ****END OF INPUT****

CARTESIAN COORDINATES (ANGSTROEM)
---------------------------------
  C      0.611880    1.657630   -4.500290
  C      1.694990    1.541790   -5.570450
  H      2.697330    1.734660   -5.184000
  H      1.506660    2.272240   -6.358080
  S      1.780290   -0.033130   -6.428740
  O      2.569290    0.213660   -7.607360
  F      0.416880   -0.462970   -6.618590
  O      2.505130   -0.933260   -5.482570
  H     -0.344240    1.458710   -4.937520
  H      0.618450    2.646550   -4.091740
  H      0.802470    0.948820   -3.721730

 Total Charge           Charge          ....    0
 Multiplicity           Mult            ....    1
 Number of Electrons    NEL             ....   58
 Basis Dimension        Dim             ....  176

ORBITAL ENERGIES
----------------

  NO   OCC          E(Eh)            E(eV)
   0   2.0000     -88.621103     -2411.5028
   1   2.0000     -24.542792      -667.8433
   2   2.0000     -18.913846      -514.6719
   3   2.0000     -18.895696      -514.1780
   4   2.0000     -10.063747      -273.8485
   5   2.0000     -10.028924      -272.9009
   6   2.0000      -7.982445      -217.2134
   7   2.0000      -5.972894      -162.5307
   8   2.0000      -5.966084      -162.3454
   9   2.0000      -5.964256      -162.2957
  10   2.0000      -1.293995       -35.2114
  11   2.0000      -1.033357       -28.1191
  12   2.0000      -0.928147       -25.2562
  13   2.0000      -0.765716       -20.8362
  14   2.0000      -0.676130       -18.3984
  15   2.0000      -0.628708       -17.1080
  16   2.0000      -0.545522       -14.8444
  17   2.0000      -0.529255       -14.4018
  18   2.0000      -0.497482       -13.5372
  19   2.0000      -0.455647       -12.3988
  20   2.0000      -0.433399       -11.7934
  21   2.0000      -0.409860       -11.1529
  22   2.0000      -0.396217       -10.7816
  23   2.0000      -0.376537       -10.2461
  24   2.0000      -0.360920        -9.8211
  25   2.0000      -0.340149        -9.2559
  26   2.0000      -0.294900        -8.0246
  27   2.0000      -0.276911        -7.5351
  28   2.0000      -0.260092        -7.0775
  29   0.0000      -0.027463        -0.7473
  30   0.0000       0.009928         0.2702
  31   0.0000       0.021974         0.5979
  32   0.0000       0.025083         0.6825
  33   0.0000       0.028929         0.7872

MULLIKEN ATOMIC CHARGES
-----------------------
   0 C :    0.690909
   1 C :   -0.386141
   2 H :    0.016409
   3 H :    0.052181
   4 S :    1.411285
   5 O :   -0.624506
   6 F :   -0.389516
   7 O :   -0.684891
   8 H :   -0.019104
   9 H :   -0.052144
  10 H :   -0.014483
Sum of atomic charges:   -0.0000000

LOEWDIN ATOMIC CHARGES
----------------------
   0 C :    0.140894
   1 C :   -0.083608
   2 H :    0.032617
   3 H :    0.014226
   4 S :    1.102192
   5 O :   -0.448846
   6 F :   -0.249899
   7 O :   -0.476853
   8 H :   -0.016345
   9 H :   -0.008529
  10 H :   -0.005849

  Mayer bond orders larger than 0.100000
B(  0-C ,  1-C ) :   1.3120 B(  0-C ,  8-H ) :   0.8294 B(  0-C ,  9-H ) :   0.7665
B(  0-C , 10-H ) :   0.8366 B(  1-C ,  2-H ) :   0.9845 B(  1-C ,  3-H ) :   0.9822
B(  1-C ,  4-S ) :   0.9664 B(  1-C ,  8-H ) :   0.1836 B(  1-C ,  9-H ) :   0.2038
B(  1-C , 10-H ) :   0.1784 B(  4-S ,  5-O ) :   1.5626 B(  4-S ,  6-F ) :   0.6835
B(  4-S ,  7-O ) :   1.4961

Dispersion correction           -0.011486416
FINAL SINGLE POINT ENERGY      -727.337859841692

DIPOLE MOMENT
-------------
                                X             Y             Z
Electronic contribution:      0.28470      -6.77543      -5.84887
Nuclear contribution   :     -1.42658       8.04056       6.39401
                        -----------------------------------------
Total Dipole Moment    :     -1.14189       1.26513       0.54514
                        -----------------------------------------
Magnitude (a.u.)       :      1.78931
Magnitude (Debye)      :      4.54808

Rotational constants in cm-1:     0.153659     0.082363     0.078978
Rotational constants in MHz :  4606.587369  2469.179541  2367.702074

                             ****ORCA TERMINATED NORMALLY****
TOTAL RUN TIME: 0 days 0 hours 0 minutes 10 seconds 97 msec
