                         Program Version 5.0.0 -  RELEASE  -
|  1> !TPSS D3BJ RIJCOSX def2-SVPD def2/J TightSCF
|  2> *xyz 0 1
|  3> C          1.96337       -1.74915       -1.89689
|  4> N          2.73849       -2.01517       -3.09711
|  5> C          4.04974       -2.15472       -3.15204
|  6> C          4.65821       -1.98629       -4.31866
|  7> N          4.76423       -2.45444       -2.05049
|  8> H          4.28736       -2.77626       -1.21750
|  9> H          5.75082       -2.65835       -2.12599
| 10> H          2.34518       -1.69027       -3.97145
| 11> H          4.10900       -1.59268       -5.07176
| 12> H          5.64910       -2.15646       -4.42724
| 13> C          2.08852       -0.30091       -1.41520
| 14> H          2.23127       -2.45162       -1.10264
| 15> H          0.93025       -1.97780       -2.15544
| 16> H          1.82118        0.36368       -2.21003
| 17> H          3.09792       -0.11068       -1.11551
| 18> H          1.43391       -0.14382       -0.58352
| 19> *
| 20> %MaxCore 64000
| 21>
| 22> %pal nprocs 4
| 23> end
| 24>
| 25> %scf
| 26>   MaxIter 150
| 27> end
| 28>
| 29>
| 30>                          ****END OF INPUT****

CARTESIAN COORDINATES (ANGSTROEM)
---------------------------------
  C      1.963370   -1.749150   -1.896890
  N      2.738490   -2.015170   -3.097110
  C      4.049740   -2.154720   -3.152040
  C      4.658210   -1.986290   -4.318660
  N      4.764230   -2.454440   -2.050490
  H      4.287360   -2.776260   -1.217500
  H      5.750820   -2.658350   -2.125990
  H      2.345180   -1.690270   -3.971450
  H      4.109000   -1.592680   -5.071760
  H      5.649100   -2.156460   -4.427240
  C      2.088520   -0.300910   -1.415200
  H      2.231270   -2.451620   -1.102640
  H      0.930250   -1.977800   -2.155440
  H      1.821180    0.363680   -2.210030
  H      3.097920   -0.110680   -1.115510
  H      1.433910   -0.143820   -0.583520

 Total Charge           Charge          ....    0
 Multiplicity           Mult            ....    1
 Number of Electrons    NEL             ....   48
 Basis Dimension        Dim             ....  200

ORBITAL ENERGIES
----------------

  NO   OCC          E(Eh)            E(eV)
   0   2.0000     -14.118403      -384.1813
   1   2.0000     -14.115506      -384.1024
   2   2.0000     -10.040761      -273.2230
   3   2.0000     -10.035888      -273.0904
   4   2.0000      -9.991463      -271.8815
   5   2.0000      -9.912818      -269.7415
   6   2.0000      -0.893454       -24.3121
   7   2.0000      -0.813738       -22.1429
   8   2.0000      -0.707505       -19.2522
   9   2.0000      -0.640331       -17.4243
  10   2.0000      -0.575243       -15.6532
  11   2.0000      -0.548514       -14.9258
  12   2.0000      -0.489201       -13.3118
  13   2.0000      -0.451726       -12.2921
  14   2.0000      -0.437536       -11.9060
  15   2.0000      -0.397182       -10.8079
  16   2.0000      -0.389440       -10.5972
  17   2.0000      -0.360534        -9.8106
  18   2.0000      -0.343880        -9.3574
  19   2.0000      -0.335873        -9.1396
  20   2.0000      -0.323297        -8.7974
  21   2.0000      -0.317803        -8.6478
  22   2.0000      -0.214889        -5.8474
  23   2.0000      -0.131892        -3.5890
  24   0.0000       0.000473         0.0129
  25   0.0000       0.027928         0.7599
  26   0.0000       0.033439         0.9099
  27   0.0000       0.039120         1.0645
  28   0.0000       0.059150         1.6095

MULLIKEN ATOMIC CHARGES
-----------------------
   0 C :    0.286657
   1 N :   -0.347615
   2 C :    0.727311
   3 C :    0.240040
   4 N :    0.081342
   5 H :   -0.123368
   6 H :   -0.175283
   7 H :   -0.208858
   8 H :   -0.185936
   9 H :   -0.355638
  10 C :    0.580598
  11 H :   -0.104995
  12 H :   -0.306608
  13 H :   -0.048029
  14 H :   -0.044138
  15 H :   -0.015482
Sum of atomic charges:   -0.0000000

LOEWDIN ATOMIC CHARGES
----------------------
   0 C :    0.019512
   1 N :   -0.020054
   2 C :   -0.242438
   3 C :    0.147991
   4 N :    0.201328
   5 H :   -0.024951
   6 H :    0.003184
   7 H :    0.029859
   8 H :   -0.101940
   9 H :   -0.100867
  10 C :    0.144750
  11 H :    0.004818
  12 H :    0.013024
  13 H :   -0.021689
  14 H :   -0.026730
  15 H :   -0.025797

  Mayer bond orders larger than 0.100000
B(  0-C ,  1-N ) :   0.9089 B(  0-C ,  7-H ) :  -0.1288 B(  0-C , 10-C ) :   1.2124
B(  0-C , 11-H ) :   0.9109 B(  0-C , 12-H ) :   0.8932 B(  0-C , 13-H ) :   0.2219
B(  0-C , 14-H ) :   0.1824 B(  0-C , 15-H ) :   0.1641 B(  1-N ,  2-C ) :   1.0564
B(  1-N ,  3-C ) :   0.2752 B(  1-N ,  4-N ) :   0.1554 B(  1-N ,  7-H ) :   1.1971
B(  1-N , 11-H ) :   0.1371 B(  1-N , 12-H ) :   0.2058 B(  2-C ,  3-C ) :   1.3205
B(  2-C ,  4-N ) :   0.9318 B(  2-C ,  6-H ) :  -0.1131 B(  2-C ,  7-H ) :  -0.1650
B(  2-C ,  9-H ) :   0.1321 B(  3-C ,  4-N ) :   0.2123 B(  3-C ,  8-H ) :   0.8961
B(  3-C ,  9-H ) :   0.8557 B(  4-N ,  5-H ) :   1.0721 B(  4-N ,  6-H ) :   1.2526
B(  5-H ,  6-H ) :  -0.1955 B(  8-H ,  9-H ) :   0.1012 B( 10-C , 13-H ) :   0.8241
B( 10-C , 14-H ) :   0.8533 B( 10-C , 15-H ) :   0.8369

Dispersion correction           -0.015752595
FINAL SINGLE POINT ENERGY      -267.786323558554

DIPOLE MOMENT
-------------
                                X             Y             Z
Electronic contribution:      1.42008      -2.34220      -1.23202
Nuclear contribution   :     -1.91052       2.32590       2.09379
                        -----------------------------------------
Total Dipole Moment    :     -0.49044      -0.01630       0.86178
                        -----------------------------------------
Magnitude (a.u.)       :      0.99170
Magnitude (Debye)      :      2.52069

Rotational constants in cm-1:     0.219448     0.077923     0.068804
Rotational constants in MHz :  6578.886179  2336.083179  2062.700476

                             ****ORCA TERMINATED NORMALLY****
TOTAL RUN TIME: 0 days 0 hours 0 minutes 12 seconds 584 msec
