                         Program Version 5.0.0 -  RELEASE  -
|  1> !TPSS D3BJ RIJCOSX def2-SVPD def2/J TightSCF
|  2> *xyz 0 1
|  3> C          0.61188        1.65763       -4.50029
|  4> C          1.69499        1.54179       -5.57045
|  5> H          2.69733        1.73466       -5.18400
|  6> H          1.50666        2.27224       -6.35808
|  7> S          1.78029       -0.03313       -6.42874
|  8> O          2.56929        0.21366       -7.60736
|  9> O          0.41688       -0.46297       -6.61859
| 10> F          2.50513       -0.93326       -5.48257
| 11> H         -0.34424        1.45871       -4.93752
| 12> H          0.61845        2.64655       -4.09174
| 13> H          0.80247        0.94882       -3.72173
| 14> *
| 15> %MaxCore 64000
| 16>
| 17> %pal nprocs 4
| 18> end
| 19>
| 20> %scf
| 21>   MaxIter 150
| 22> end
| 23>
| 24>
| 25>                          ****END OF INPUT****

CARTESIAN COORDINATES (ANGSTROEM)
---------------------------------
  C      0.611880    1.657630   -4.500290
  C      1.694990    1.541790   -5.570450
  H      2.697330    1.734660   -5.184000
  H      1.506660    2.272240   -6.358080
  S      1.780290   -0.033130   -6.428740
  O      2.569290    0.213660   -7.607360
  O      0.416880   -0.462970   -6.618590
  F      2.505130   -0.933260   -5.482570
  H     -0.344240    1.458710   -4.937520
  H      0.618450    2.646550   -4.091740
  H      0.802470    0.948820   -3.721730

 Total Charge           Charge          ....    0
 Multiplicity           Mult            ....    1
 Number of Electrons    NEL             ....   58
 Basis Dimension        Dim             ....  176

ORBITAL ENERGIES
----------------

  NO   OCC          E(Eh)            E(eV)
   0   2.0000     -88.618573     -2411.4340
   1   2.0000     -24.516302      -667.1225
   2   2.0000     -18.914020      -514.6767
   3   2.0000     -18.913284      -514.6566
   4   2.0000     -10.062428      -273.8126
   5   2.0000     -10.024171      -272.7715
   6   2.0000      -7.979883      -217.1437
   7   2.0000      -5.969881      -162.4487
   8   2.0000      -5.963917      -162.2864
   9   2.0000      -5.961984      -162.2338
  10   2.0000      -1.250878       -34.0381
  11   2.0000      -1.044193       -28.4139
  12   2.0000      -0.955726       -26.0066
  13   2.0000      -0.762295       -20.7431
  14   2.0000      -0.662811       -18.0360
  15   2.0000      -0.615880       -16.7590
  16   2.0000      -0.524531       -14.2732
  17   2.0000      -0.500365       -13.6156
  18   2.0000      -0.495901       -13.4942
  19   2.0000      -0.452674       -12.3179
  20   2.0000      -0.433522       -11.7967
  21   2.0000      -0.412416       -11.2224
  22   2.0000      -0.393571       -10.7096
  23   2.0000      -0.369356       -10.0507
  24   2.0000      -0.364878        -9.9288
  25   2.0000      -0.343714        -9.3529
  26   2.0000      -0.300549        -8.1783
  27   2.0000      -0.295208        -8.0330
  28   2.0000      -0.280667        -7.6373
  29   0.0000      -0.021559        -0.5866
  30   0.0000       0.008670         0.2359
  31   0.0000       0.019878         0.5409
  32   0.0000       0.027941         0.7603
  33   0.0000       0.031501         0.8572

MULLIKEN ATOMIC CHARGES
-----------------------
   0 C :    0.708761
   1 C :   -0.414900
   2 H :    0.012260
   3 H :    0.060340
   4 S :    1.433671
   5 O :   -0.642324
   6 O :   -0.660216
   7 F :   -0.411652
   8 H :    0.000366
   9 H :   -0.052155
  10 H :   -0.034149
Sum of atomic charges:   -0.0000000

LOEWDIN ATOMIC CHARGES
----------------------
   0 C :    0.143185
   1 C :   -0.086422
   2 H :    0.018130
   3 H :    0.025411
   4 S :    1.100933
   5 O :   -0.450307
   6 O :   -0.447193
   7 F :   -0.273901
   8 H :   -0.011317
   9 H :   -0.009202
  10 H :   -0.009318

  Mayer bond orders larger than 0.100000
B(  0-C ,  1-C ) :   1.3280 B(  0-C ,  8-H ) :   0.8325 B(  0-C ,  9-H ) :   0.7631
B(  0-C , 10-H ) :   0.8240 B(  1-C ,  2-H ) :   0.9771 B(  1-C ,  3-H ) :   0.9788
B(  1-C ,  4-S ) :   0.9670 B(  1-C ,  8-H ) :   0.1960 B(  1-C ,  9-H ) :   0.1996
B(  1-C , 10-H ) :   0.1810 B(  4-S ,  5-O ) :   1.5574 B(  4-S ,  6-O ) :   1.5329
B(  4-S ,  7-F ) :   0.6203 B(  5-O ,  6-O ) :   0.1003

Dispersion correction           -0.011516480
FINAL SINGLE POINT ENERGY      -727.361466223016

DIPOLE MOMENT
-------------
                                X             Y             Z
Electronic contribution:      3.75786      -7.59360      -3.95168
Nuclear contribution   :     -3.60260       8.53062       5.21025
                        -----------------------------------------
Total Dipole Moment    :      0.15525       0.93701       1.25856
                        -----------------------------------------
Magnitude (a.u.)       :      1.57673
Magnitude (Debye)      :      4.00773

Rotational constants in cm-1:     0.154011     0.080858     0.079602
Rotational constants in MHz :  4617.134198  2424.070332  2386.404775

                             ****ORCA TERMINATED NORMALLY****
TOTAL RUN TIME: 0 days 0 hours 0 minutes 9 seconds 307 msec
