                         Program Version 5.0.0 -  RELEASE  -
|  1> !TPSS D3BJ RIJCOSX def2-SVPD def2/J TightSCF
|  2> *xyz 0 1
|  3> C          1.96337       -1.74915       -1.89689
|  4> N          2.73849       -2.01517       -3.09711
|  5> C          4.04974       -2.15472       -3.15204
|  6> N          4.65821       -1.98629       -4.31866
|  7> C          4.76423       -2.45444       -2.05049
|  8> H          4.28736       -2.77626       -1.21750
|  9> H          5.75082       -2.65835       -2.12599
| 10> H          2.34518       -1.69027       -3.97145
| 11> H          4.10900       -1.59268       -5.07176
| 12> H          5.64910       -2.15646       -4.42724
| 13> C          2.08852       -0.30091       -1.41520
| 14> H          2.23127       -2.45162       -1.10264
| 15> H          0.93025       -1.97780       -2.15544
| 16> H          1.82118        0.36368       -2.21003
| 17> H          3.09792       -0.11068       -1.11551
| 18> H          1.43391       -0.14382       -0.58352
| 19> *
| 20> %MaxCore 64000
| 21>
| 22> %pal nprocs 4
| 23> end
| 24>
| 25> %scf
| 26>   MaxIter 150
| 27> end
| 28>
| 29>
| 30>                          ****END OF INPUT****

CARTESIAN COORDINATES (ANGSTROEM)
---------------------------------
  C      1.963370   -1.749150   -1.896890
  N      2.738490   -2.015170   -3.097110
  C      4.049740   -2.154720   -3.152040
  N      4.658210   -1.986290   -4.318660
  C      4.764230   -2.454440   -2.050490
  H      4.287360   -2.776260   -1.217500
  H      5.750820   -2.658350   -2.125990
  H      2.345180   -1.690270   -3.971450
  H      4.109000   -1.592680   -5.071760
  H      5.649100   -2.156460   -4.427240
  C      2.088520   -0.300910   -1.415200
  H      2.231270   -2.451620   -1.102640
  H      0.930250   -1.977800   -2.155440
  H      1.821180    0.363680   -2.210030
  H      3.097920   -0.110680   -1.115510
  H      1.433910   -0.143820   -0.583520

 Total Charge           Charge          ....    0
 Multiplicity           Mult            ....    1
 Number of Electrons    NEL             ....   48
 Basis Dimension        Dim             ....  200

ORBITAL ENERGIES
----------------

  NO   OCC          E(Eh)            E(eV)
   0   2.0000     -14.120386      -384.2352
   1   2.0000     -14.119669      -384.2157
   2   2.0000     -10.037673      -273.1390
   3   2.0000     -10.034689      -273.0578
   4   2.0000      -9.985097      -271.7083
   5   2.0000      -9.913407      -269.7575
   6   2.0000      -0.899207       -24.4687
   7   2.0000      -0.817572       -22.2473
   8   2.0000      -0.692073       -18.8323
   9   2.0000      -0.644980       -17.5508
  10   2.0000      -0.588394       -16.0110
  11   2.0000      -0.513001       -13.9595
  12   2.0000      -0.500094       -13.6083
  13   2.0000      -0.479899       -13.0587
  14   2.0000      -0.425403       -11.5758
  15   2.0000      -0.399038       -10.8584
  16   2.0000      -0.374678       -10.1955
  17   2.0000      -0.357011        -9.7148
  18   2.0000      -0.342284        -9.3140
  19   2.0000      -0.330034        -8.9807
  20   2.0000      -0.322114        -8.7652
  21   2.0000      -0.312140        -8.4938
  22   2.0000      -0.212916        -5.7937
  23   2.0000      -0.133697        -3.6381
  24   0.0000      -0.000473        -0.0129
  25   0.0000       0.025553         0.6953
  26   0.0000       0.036783         1.0009
  27   0.0000       0.040255         1.0954
  28   0.0000       0.063190         1.7195

MULLIKEN ATOMIC CHARGES
-----------------------
   0 C :    0.256289
   1 N :   -0.357022
   2 C :    0.781277
   3 N :   -0.013114
   4 C :    0.229694
   5 H :   -0.047917
   6 H :   -0.510901
   7 H :   -0.293524
   8 H :   -0.131753
   9 H :   -0.087609
  10 C :    0.603006
  11 H :    0.022140
  12 H :   -0.316968
  13 H :   -0.057359
  14 H :   -0.056871
  15 H :   -0.019369
Sum of atomic charges:    0.0000000

LOEWDIN ATOMIC CHARGES
----------------------
   0 C :    0.028372
   1 N :   -0.023000
   2 C :   -0.242795
   3 N :    0.185892
   4 C :    0.162657
   5 H :   -0.113506
   6 H :   -0.107901
   7 H :    0.014960
   8 H :   -0.012106
   9 H :    0.010679
  10 C :    0.147720
  11 H :    0.013698
  12 H :    0.012959
  13 H :   -0.025999
  14 H :   -0.027219
  15 H :   -0.024412

  Mayer bond orders larger than 0.100000
B(  0-C ,  1-N ) :   0.8939 B(  0-C ,  4-C ) :   0.1131 B(  0-C ,  7-H ) :  -0.1188
B(  0-C , 10-C ) :   1.2002 B(  0-C , 11-H ) :   0.8897 B(  0-C , 12-H ) :   0.9362
B(  0-C , 13-H ) :   0.2115 B(  0-C , 14-H ) :   0.1851 B(  0-C , 15-H ) :   0.1714
B(  1-N ,  2-C ) :   0.9084 B(  1-N ,  3-N ) :   0.2142 B(  1-N ,  4-C ) :   0.3462
B(  1-N ,  7-H ) :   1.2843 B(  1-N , 12-H ) :   0.1767 B(  2-C ,  3-N ) :   0.8494
B(  2-C ,  4-C ) :   1.5826 B(  2-C ,  5-H ) :   0.2538 B(  2-C ,  6-H ) :   0.1262
B(  2-C ,  7-H ) :  -0.2205 B(  3-N ,  4-C ) :   0.2308 B(  3-N ,  8-H ) :   1.1900
B(  3-N ,  9-H ) :   1.2401 B(  4-C ,  5-H ) :   0.6412 B(  4-C ,  6-H ) :   0.9960
B(  8-H ,  9-H ) :  -0.1633 B( 10-C , 13-H ) :   0.8333 B( 10-C , 14-H ) :   0.8655
B( 10-C , 15-H ) :   0.8275

Dispersion correction           -0.015840476
FINAL SINGLE POINT ENERGY      -267.785810392497

DIPOLE MOMENT
-------------
                                X             Y             Z
Electronic contribution:      1.35409      -1.84462      -3.41259
Nuclear contribution   :     -1.88803       2.22658       2.57497
                        -----------------------------------------
Total Dipole Moment    :     -0.53394       0.38196      -0.83762
                        -----------------------------------------
Magnitude (a.u.)       :      1.06424
Magnitude (Debye)      :      2.70507

Rotational constants in cm-1:     0.226509     0.075782     0.067928
Rotational constants in MHz :  6790.555051  2271.890226  2036.439218

                             ****ORCA TERMINATED NORMALLY****
TOTAL RUN TIME: 0 days 0 hours 0 minutes 13 seconds 199 msec
