                         Program Version 5.0.0 -  RELEASE  -
|  1> !TPSS D3BJ RIJCOSX def2-SVPD def2/J TightSCF xyzfile
|  2>
|  3> *xyzfile 0 1 D1.xyz
|  4>
|  5> %MaxCore 64000
|  6>
|  7> %pal nprocs 4
|  8> end
|  9>
| 10> %scf
| 11>   MaxIter 150
| 12> end
| 13>
| 14>
| 15>                          ****END OF INPUT****

CARTESIAN COORDINATES (ANGSTROEM)
---------------------------------
  C      1.963365   -1.749150   -1.896887
  C      2.738490   -2.015170   -3.097113
  C      0.611877    1.657634   -4.500288
  C      1.694991    1.541794   -5.570447
  H      2.697326    1.734659   -5.183996
  H      1.506656    2.272239   -6.358076
  S      1.780287   -0.033128   -6.428739
  C      4.049736   -2.154717   -3.152044
  N      4.658206   -1.986293   -4.318655
  N      4.764231   -2.454435   -2.050491
  H      4.287363   -2.776259   -1.217496
  H      5.750825   -2.658351   -2.125988
  H      2.345176   -1.690274   -3.971447
  H      4.109004   -1.592677   -5.071760
  H      5.649095   -2.156462   -4.427237
  F      2.569287    0.213657   -7.607360
  O      0.416880   -0.462969   -6.618595
  C      2.088520   -0.300912   -1.415204
  H      2.231272   -2.451616   -1.102643
  H      0.930249   -1.977801   -2.155438
  C      0.680356    0.655418   -3.348038
  H     -0.356865    1.549231   -4.991128
  H      0.650228    2.675438   -4.096000
  C      1.968993    0.733582   -2.535654
  H      3.051356   -0.168602   -0.911868
  H      1.316501   -0.136231   -0.657252
  O      2.505129   -0.933263   -5.482570
  H      2.824195    0.624726   -3.208464
  H      2.058919    1.730331   -2.093112
  H      0.542252   -0.344731   -3.766662
  H     -0.174219    0.829692   -2.685182

 Total Charge           Charge          ....    0
 Multiplicity           Mult            ....    1
 Number of Electrons    NEL             ....  120
 Basis Dimension        Dim             ....  432

ORBITAL ENERGIES
----------------

  NO   OCC          E(Eh)            E(eV)
   0   2.0000     -88.631017     -2411.7726
   1   2.0000     -24.549939      -668.0378
   2   2.0000     -18.922258      -514.9008
   3   2.0000     -18.910240      -514.5738
   4   2.0000     -14.104008      -383.7896
   5   2.0000     -14.089138      -383.3849
   6   2.0000     -10.063775      -273.8492
   7   2.0000     -10.026385      -272.8318
   8   2.0000     -10.014780      -272.5160
   9   2.0000      -9.995415      -271.9891
  10   2.0000      -9.984273      -271.6859
  11   2.0000      -9.973512      -271.3931
  12   2.0000      -9.962921      -271.1049
  13   2.0000      -9.890377      -269.1308
  14   2.0000      -7.991249      -217.4529
  15   2.0000      -5.981665      -162.7694
  16   2.0000      -5.975189      -162.5932
  17   2.0000      -5.973007      -162.5338
  18   2.0000      -1.301801       -35.4238
  19   2.0000      -1.042442       -28.3663
  20   2.0000      -0.944346       -25.6970
  21   2.0000      -0.864868       -23.5343
  22   2.0000      -0.782180       -21.2842
  23   2.0000      -0.772641       -21.0246
  24   2.0000      -0.727632       -19.7999
  25   2.0000      -0.693349       -18.8670
  26   2.0000      -0.664820       -18.0907
  27   2.0000      -0.632817       -17.2198
  28   2.0000      -0.596638       -16.2353
  29   2.0000      -0.565764       -15.3952
  30   2.0000      -0.546492       -14.8708
  31   2.0000      -0.534609       -14.5475
  32   2.0000      -0.529719       -14.4144
  33   2.0000      -0.502844       -13.6831
  34   2.0000      -0.499124       -13.5819
  35   2.0000      -0.479539       -13.0489
  36   2.0000      -0.454633       -12.3712
  37   2.0000      -0.449904       -12.2425
  38   2.0000      -0.440377       -11.9833
  39   2.0000      -0.422900       -11.5077
  40   2.0000      -0.420547       -11.4437
  41   2.0000      -0.402281       -10.9466
  42   2.0000      -0.392954       -10.6928
  43   2.0000      -0.385547       -10.4913
  44   2.0000      -0.374092       -10.1796
  45   2.0000      -0.356637        -9.7046
  46   2.0000      -0.345849        -9.4110
  47   2.0000      -0.339071        -9.2266
  48   2.0000      -0.329350        -8.9621
  49   2.0000      -0.319541        -8.6952
  50   2.0000      -0.308025        -8.3818
  51   2.0000      -0.300373        -8.1736
  52   2.0000      -0.291581        -7.9343
  53   2.0000      -0.286190        -7.7876
  54   2.0000      -0.278863        -7.5882
  55   2.0000      -0.276105        -7.5132
  56   2.0000      -0.264619        -7.2007
  57   2.0000      -0.250571        -6.8184
  58   2.0000      -0.204908        -5.5758
  59   2.0000      -0.109588        -2.9821
  60   0.0000      -0.025164        -0.6848
  61   0.0000      -0.004466        -0.1215
  62   0.0000       0.010917         0.2971
  63   0.0000       0.016794         0.4570
  64   0.0000       0.023473         0.6387

MULLIKEN ATOMIC CHARGES
-----------------------
   0 C :    0.247591
   1 C :   -0.076112
   2 C :    0.361541
   3 C :    0.036096
   4 H :    0.164452
   5 H :   -0.044495
   6 S :    1.558744
   7 C :    0.800691
   8 N :    0.103701
   9 N :   -0.068332
  10 H :   -0.026259
  11 H :   -0.269711
  12 H :   -0.254785
  13 H :   -0.125351
  14 H :   -0.274690
  15 F :   -0.454369
  16 O :   -0.686806
  17 C :    0.510059
  18 H :   -0.341294
  19 H :    0.129837
  20 C :   -0.046067
  21 H :    0.027054
  22 H :   -0.016262
  23 C :   -0.157131
  24 H :    0.003796
  25 H :    0.049977
  26 O :   -0.804472
  27 H :    0.037555
  28 H :   -0.179495
  29 H :   -0.047216
  30 H :   -0.158246
Sum of atomic charges:   -0.0000000

LOEWDIN ATOMIC CHARGES
----------------------
   0 C :   -0.040375
   1 C :   -0.021205
   2 C :   -0.012961
   3 C :   -0.042277
   4 H :    0.017109
   5 H :    0.012741
   6 S :    1.169169
   7 C :   -0.196520
   8 N :    0.203148
   9 N :    0.199138
  10 H :   -0.012597
  11 H :   -0.019120
  12 H :   -0.128863
  13 H :   -0.079050
  14 H :   -0.012861
  15 F :   -0.242704
  16 O :   -0.427423
  17 C :   -0.014330
  18 H :   -0.005363
  19 H :    0.005897
  20 C :   -0.008626
  21 H :    0.024696
  22 H :    0.033555
  23 C :   -0.020928
  24 H :    0.012767
  25 H :    0.009219
  26 O :   -0.462943
  27 H :    0.005056
  28 H :    0.016598
  29 H :    0.009382
  30 H :    0.029672

  Mayer bond orders larger than 0.100000
B(  0-C ,  1-C ) :   1.0321 B(  0-C ,  7-C ) :   0.1430 B(  0-C , 12-H ) :   0.4411
B(  0-C , 17-C ) :   1.0944 B(  0-C , 18-H ) :   0.8696 B(  0-C , 19-H ) :   0.6749
B(  0-C , 23-C ) :   0.1530 B(  0-C , 24-H ) :   0.1316 B(  0-C , 25-H ) :   0.1882
B(  1-C ,  7-C ) :   1.7020 B(  1-C ,  8-N ) :   0.2685 B(  1-C ,  9-N ) :   0.2783
B(  1-C , 10-H ) :  -0.1127 B(  1-C , 12-H ) :   0.1882 B(  1-C , 18-H ) :   0.2419
B(  1-C , 19-H ) :   0.2613 B(  1-C , 26-O ) :  -0.1080 B(  1-C , 28-H ) :   0.1005
B(  2-C ,  3-C ) :   1.3115 B(  2-C ,  4-H ) :   0.1075 B(  2-C ,  5-H ) :   0.1954
B(  2-C , 20-C ) :   1.2508 B(  2-C , 21-H ) :   0.6837 B(  2-C , 22-H ) :   0.7889
B(  3-C ,  4-H ) :   0.8566 B(  3-C ,  5-H ) :   0.8128 B(  3-C ,  6-S ) :   1.0092
B(  3-C , 21-H ) :   0.1152 B(  3-C , 22-H ) :   0.1241 B(  6-S , 15-F ) :   0.5863
B(  6-S , 16-O ) :   1.4536 B(  6-S , 26-O ) :   1.3211 B(  7-C ,  8-N ) :   0.7432
B(  7-C ,  9-N ) :   0.8390 B(  7-C , 11-H ) :  -0.2102 B(  7-C , 12-H ) :   0.4819
B(  7-C , 13-H ) :  -0.1146 B(  7-C , 14-H ) :  -0.2811 B(  8-N ,  9-N ) :   0.1173
B(  8-N , 12-H ) :   0.1029 B(  8-N , 13-H ) :   1.1372 B(  8-N , 14-H ) :   1.4251
B(  9-N , 10-H ) :   1.0641 B(  9-N , 11-H ) :   1.4036 B( 10-H , 11-H ) :  -0.2098
B( 12-H , 23-C ) :   0.1103 B( 12-H , 26-O ) :   0.1033 B( 12-H , 27-H ) :   0.1030
B( 12-H , 28-H ) :  -0.1341 B( 13-H , 14-H ) :  -0.2087 B( 13-H , 26-O ) :   0.1367
B( 16-O , 26-O ) :   0.1646 B( 17-C , 23-C ) :   1.2340 B( 17-C , 24-H ) :   0.7505
B( 17-C , 25-H ) :   0.7018 B( 17-C , 27-H ) :   0.1091 B( 20-C , 21-H ) :   0.2546
B( 20-C , 22-H ) :   0.1016 B( 20-C , 23-C ) :   1.1940 B( 20-C , 27-H ) :   0.1058
B( 20-C , 28-H ) :   0.1611 B( 20-C , 29-H ) :   0.9415 B( 20-C , 30-H ) :   0.8601
B( 23-C , 24-H ) :   0.2289 B( 23-C , 25-H ) :   0.1460 B( 23-C , 27-H ) :   0.9053
B( 23-C , 28-H ) :   0.8975 B( 23-C , 29-H ) :   0.1053 B( 23-C , 30-H ) :   0.1518

Dispersion correction           -0.047426807
FINAL SINGLE POINT ENERGY     -1072.521081554656

DIPOLE MOMENT
-------------
                                X             Y             Z
Electronic contribution:      0.72561      -1.05345     -23.48747
Nuclear contribution   :      0.18720       2.58739      22.98820
                        -----------------------------------------
Total Dipole Moment    :      0.91281       1.53395      -0.49927
                        -----------------------------------------
Magnitude (a.u.)       :      1.85351
Magnitude (Debye)      :      4.71124

Rotational constants in cm-1:     0.028798     0.014448     0.010940
Rotational constants in MHz :   863.355869   433.126694   327.985023

                             ****ORCA TERMINATED NORMALLY****
TOTAL RUN TIME: 0 days 0 hours 1 minutes 9 seconds 674 msec
