                         Program Version 5.0.0 -  RELEASE  -
|  1> !TPSS D3BJ RIJCOSX def2-SVPD def2/J TightSCF xyzfile
|  2>
|  3> *xyzfile 0 1 D5.xyz
|  4>
|  5> %MaxCore 64000
|  6>
|  7> %pal nprocs 4
|  8> end
|  9>
| 10> %scf
| 11>   MaxIter 150
| 12> end
| 13>
| 14>
| 15>                          ****END OF INPUT****

CARTESIAN COORDINATES (ANGSTROEM)
---------------------------------
  C      1.963365   -1.749150   -1.896887
  N      2.738490   -2.015170   -3.097113
  C      0.611877    1.657634   -4.500288
  C      1.694991    1.541794   -5.570447
  H      2.697326    1.734659   -5.183996
  H      1.506656    2.272239   -6.358076
  S      1.780287   -0.033128   -6.428739
  C      4.049736   -2.154717   -3.152044
  C      4.658206   -1.986293   -4.318655
  N      4.764231   -2.454435   -2.050491
  H      4.287363   -2.776259   -1.217496
  H      5.750825   -2.658351   -2.125988
  H      2.345176   -1.690274   -3.971447
  H      4.109004   -1.592677   -5.071760
  H      5.649095   -2.156462   -4.427237
  O      2.569287    0.213657   -7.607360
  F      0.416880   -0.462969   -6.618595
  C      2.088520   -0.300912   -1.415204
  H      2.231272   -2.451616   -1.102643
  H      0.930249   -1.977801   -2.155438
  C      0.680356    0.655418   -3.348038
  H     -0.356865    1.549231   -4.991128
  H      0.650228    2.675438   -4.096000
  C      1.968993    0.733582   -2.535654
  H      3.051356   -0.168602   -0.911868
  H      1.316501   -0.136231   -0.657252
  O      2.505129   -0.933263   -5.482570
  H      2.824195    0.624726   -3.208464
  H      2.058919    1.730331   -2.093112
  H      0.542252   -0.344731   -3.766662
  H     -0.174219    0.829692   -2.685182

 Total Charge           Charge          ....    0
 Multiplicity           Mult            ....    1
 Number of Electrons    NEL             ....  120
 Basis Dimension        Dim             ....  432

ORBITAL ENERGIES
----------------

  NO   OCC          E(Eh)            E(eV)
   0   2.0000     -88.633215     -2411.8324
   1   2.0000     -24.551476      -668.0796
   2   2.0000     -18.923180      -514.9259
   3   2.0000     -18.910869      -514.5909
   4   2.0000     -14.100740      -383.7006
   5   2.0000     -14.084376      -383.2554
   6   2.0000     -10.066607      -273.9263
   7   2.0000     -10.037931      -273.1460
   8   2.0000     -10.026764      -272.8421
   9   2.0000     -10.016693      -272.5681
  10   2.0000     -10.013396      -272.4784
  11   2.0000     -10.003394      -272.2062
  12   2.0000      -9.996600      -272.0213
  13   2.0000      -9.884551      -268.9723
  14   2.0000      -7.993196      -217.5059
  15   2.0000      -5.983736      -162.8257
  16   2.0000      -5.977016      -162.6429
  17   2.0000      -5.975006      -162.5882
  18   2.0000      -1.302011       -35.4295
  19   2.0000      -1.044541       -28.4234
  20   2.0000      -0.945363       -25.7246
  21   2.0000      -0.872050       -23.7297
  22   2.0000      -0.796300       -21.6684
  23   2.0000      -0.783289       -21.3144
  24   2.0000      -0.732598       -19.9350
  25   2.0000      -0.697637       -18.9837
  26   2.0000      -0.665606       -18.1121
  27   2.0000      -0.641958       -17.4686
  28   2.0000      -0.604765       -16.4565
  29   2.0000      -0.576198       -15.6791
  30   2.0000      -0.550527       -14.9806
  31   2.0000      -0.547844       -14.9076
  32   2.0000      -0.534136       -14.5346
  33   2.0000      -0.520258       -14.1569
  34   2.0000      -0.500231       -13.6120
  35   2.0000      -0.471651       -12.8343
  36   2.0000      -0.459727       -12.5098
  37   2.0000      -0.453032       -12.3276
  38   2.0000      -0.435896       -11.8613
  39   2.0000      -0.431452       -11.7404
  40   2.0000      -0.424834       -11.5603
  41   2.0000      -0.417872       -11.3709
  42   2.0000      -0.402925       -10.9641
  43   2.0000      -0.392376       -10.6771
  44   2.0000      -0.383581       -10.4378
  45   2.0000      -0.357466        -9.7271
  46   2.0000      -0.356798        -9.7090
  47   2.0000      -0.349827        -9.5193
  48   2.0000      -0.341438        -9.2910
  49   2.0000      -0.323951        -8.8152
  50   2.0000      -0.322185        -8.7671
  51   2.0000      -0.312294        -8.4980
  52   2.0000      -0.302351        -8.2274
  53   2.0000      -0.296430        -8.0663
  54   2.0000      -0.293631        -7.9901
  55   2.0000      -0.290916        -7.9162
  56   2.0000      -0.282339        -7.6828
  57   2.0000      -0.269479        -7.3329
  58   2.0000      -0.194752        -5.2995
  59   2.0000      -0.110415        -3.0046
  60   0.0000      -0.030947        -0.8421
  61   0.0000      -0.000447        -0.0122
  62   0.0000       0.007269         0.1978
  63   0.0000       0.011499         0.3129
  64   0.0000       0.017733         0.4825

MULLIKEN ATOMIC CHARGES
-----------------------
   0 C :    0.904677
   1 N :   -0.031667
   2 C :    0.402648
   3 C :    0.054472
   4 H :    0.145191
   5 H :   -0.046867
   6 S :    1.471159
   7 C :    0.775121
   8 C :    0.468409
   9 N :    0.120583
  10 H :   -0.065939
  11 H :   -0.210895
  12 H :   -0.548810
  13 H :   -0.141267
  14 H :   -0.608385
  15 O :   -0.655847
  16 F :   -0.441717
  17 C :    0.330210
  18 H :   -0.390756
  19 H :   -0.154211
  20 C :   -0.014223
  21 H :    0.017390
  22 H :   -0.018527
  23 C :   -0.044153
  24 H :   -0.004153
  25 H :   -0.067576
  26 O :   -0.868260
  27 H :    0.120744
  28 H :   -0.299006
  29 H :   -0.040363
  30 H :   -0.157981
Sum of atomic charges:   -0.0000000

LOEWDIN ATOMIC CHARGES
----------------------
   0 C :    0.065113
   1 N :    0.009506
   2 C :   -0.027172
   3 C :   -0.028788
   4 H :    0.031365
   5 H :    0.017555
   6 S :    1.166447
   7 C :   -0.222025
   8 C :    0.174291
   9 N :    0.196856
  10 H :   -0.029731
  11 H :   -0.000953
  12 H :   -0.078113
  13 H :   -0.158077
  14 H :   -0.100074
  15 O :   -0.423904
  16 F :   -0.238190
  17 C :   -0.007504
  18 H :    0.001848
  19 H :    0.010153
  20 C :   -0.020092
  21 H :    0.019865
  22 H :    0.032443
  23 C :   -0.015441
  24 H :    0.014148
  25 H :    0.012135
  26 O :   -0.459724
  27 H :    0.008834
  28 H :    0.021209
  29 H :   -0.001146
  30 H :    0.029169

  Mayer bond orders larger than 0.100000
B(  0-C ,  1-N ) :   0.9008 B(  0-C , 12-H ) :  -0.3015 B(  0-C , 17-C ) :   1.0476
B(  0-C , 18-H ) :   0.9132 B(  0-C , 19-H ) :   0.6712 B(  0-C , 23-C ) :   0.1093
B(  0-C , 25-H ) :   0.1231 B(  1-N ,  7-C ) :   1.0273 B(  1-N ,  8-C ) :   0.2382
B(  1-N ,  9-N ) :   0.2389 B(  1-N , 12-H ) :   1.0804 B(  1-N , 18-H ) :   0.1054
B(  1-N , 19-H ) :   0.1397 B(  2-C ,  3-C ) :   1.2651 B(  2-C ,  5-H ) :   0.1684
B(  2-C , 20-C ) :   1.2590 B(  2-C , 21-H ) :   0.6742 B(  2-C , 22-H ) :   0.7906
B(  3-C ,  4-H ) :   0.8786 B(  3-C ,  5-H ) :   0.8777 B(  3-C ,  6-S ) :   1.0196
B(  3-C , 21-H ) :   0.1122 B(  3-C , 22-H ) :   0.1283 B(  6-S , 15-O ) :   1.5587
B(  6-S , 16-F ) :   0.5479 B(  6-S , 26-O ) :   1.3705 B(  7-C ,  8-C ) :   1.2899
B(  7-C ,  9-N ) :   0.9114 B(  7-C , 11-H ) :  -0.1365 B(  7-C , 12-H ) :  -0.3380
B(  7-C , 13-H ) :   0.1022 B(  7-C , 14-H ) :   0.2130 B(  8-C ,  9-N ) :   0.2900
B(  8-C , 13-H ) :   0.6181 B(  8-C , 14-H ) :   0.8018 B(  9-N , 10-H ) :   0.9727
B(  9-N , 11-H ) :   1.2937 B(  9-N , 18-H ) :   0.1042 B( 10-H , 11-H ) :  -0.2025
B( 12-H , 19-H ) :   0.1793 B( 12-H , 24-H ) :   0.1365 B( 12-H , 27-H ) :   0.1142
B( 12-H , 28-H ) :  -0.1090 B( 13-H , 14-H ) :  -0.2013 B( 13-H , 26-O ) :   0.2254
B( 16-F , 26-O ) :   0.1587 B( 17-C , 18-H ) :   0.1258 B( 17-C , 19-H ) :   0.1019
B( 17-C , 23-C ) :   1.2589 B( 17-C , 24-H ) :   0.7716 B( 17-C , 25-H ) :   0.8920
B( 18-H , 19-H ) :  -0.1270 B( 20-C , 21-H ) :   0.2509 B( 20-C , 23-C ) :   1.1852
B( 20-C , 27-H ) :   0.1000 B( 20-C , 28-H ) :   0.1320 B( 20-C , 29-H ) :   0.9337
B( 20-C , 30-H ) :   0.8690 B( 23-C , 24-H ) :   0.1897 B( 23-C , 25-H ) :   0.1253
B( 23-C , 27-H ) :   0.8595 B( 23-C , 28-H ) :   0.9498 B( 23-C , 29-H ) :   0.1008
B( 23-C , 30-H ) :   0.1293

Dispersion correction           -0.047036664
FINAL SINGLE POINT ENERGY     -1072.517687066683

DIPOLE MOMENT
-------------
                                X             Y             Z
Electronic contribution:     -4.54665      -2.02666     -20.73130
Nuclear contribution   :      2.89225       3.36404      21.70199
                        -----------------------------------------
Total Dipole Moment    :     -1.65440       1.33738       0.97069
                        -----------------------------------------
Magnitude (a.u.)       :      2.33834
Magnitude (Debye)      :      5.94360

Rotational constants in cm-1:     0.029431     0.014408     0.011084
Rotational constants in MHz :   882.306106   431.946714   332.288152

                             ****ORCA TERMINATED NORMALLY****
TOTAL RUN TIME: 0 days 0 hours 1 minutes 10 seconds 954 msec
