                         Program Version 5.0.0 -  RELEASE  -
|  1> !wB97X-D3 RIJCOSX def2-SVPD def2/J TightSCF
|  2> *xyz -1 1
|  3> C          2.49670       -1.84416       -5.73570
|  4> O          2.45973       -0.50920       -5.50576
|  5> H          2.07863       -2.36209       -4.89793
|  6> H          3.51118       -2.15388       -5.87645
|  7> H          1.92949       -2.07059       -6.61428
|  8> *
|  9>
| 10> %MaxCore 64000
| 11>
| 12> %pal nprocs 18
| 13> end
| 14>
| 15> %scf
| 16>   MaxIter 150
| 17> end
| 18>
| 19>
| 20>                          ****END OF INPUT****

CARTESIAN COORDINATES (ANGSTROEM)
---------------------------------
  C      2.496700   -1.844160   -5.735700
  O      2.459730   -0.509200   -5.505760
  H      2.078630   -2.362090   -4.897930
  H      3.511180   -2.153880   -5.876450
  H      1.929490   -2.070590   -6.614280

 Total Charge           Charge          ....   -1
 Multiplicity           Mult            ....    1
 Number of Electrons    NEL             ....   18
 Basis Dimension        Dim             ....   67

ORBITAL ENERGIES
----------------

  NO   OCC          E(Eh)            E(eV)
   0   2.0000     -18.886297      -513.9223
   1   2.0000     -10.072904      -274.0977
   2   2.0000      -0.767278       -20.8787
   3   2.0000      -0.497946       -13.5498
   4   2.0000      -0.295856        -8.0507
   5   2.0000      -0.295849        -8.0505
   6   2.0000      -0.195470        -5.3190
   7   2.0000      -0.040180        -1.0934
   8   2.0000      -0.040162        -1.0929
   9   0.0000       0.264738         7.2039
  10   0.0000       0.339778         9.2458
  11   0.0000       0.339785         9.2460
  12   0.0000       0.347774         9.4634
  13   0.0000       0.386074        10.5056

MULLIKEN ATOMIC CHARGES
-----------------------
   0 C :    0.778168
   1 O :   -1.032753
   2 H :   -0.248731
   3 H :   -0.248244
   4 H :   -0.248439
Sum of atomic charges:   -1.0000000

LOEWDIN ATOMIC CHARGES
----------------------
   0 C :   -0.123485
   1 O :   -0.653212
   2 H :   -0.074465
   3 H :   -0.074433
   4 H :   -0.074405

  Mayer bond orders larger than 0.100000
B(  0-C ,  1-O ) :   1.2118 B(  0-C ,  2-H ) :   0.9148 B(  0-C ,  3-H ) :   0.9152
B(  0-C ,  4-H ) :   0.9151

Dispersion correction           -0.000086560
FINAL SINGLE POINT ENERGY      -114.980048524714

DIPOLE MOMENT
-------------
                                X             Y             Z
Electronic contribution:     -0.04947       1.78518       0.30728
Nuclear contribution   :      0.07809      -2.81948      -0.48564
                        -----------------------------------------
Total Dipole Moment    :      0.02862      -1.03430      -0.17836
                        -----------------------------------------
Magnitude (a.u.)       :      1.04995
Magnitude (Debye)      :      2.66877

Rotational constants in cm-1:     5.477724     0.956378     0.956377
Rotational constants in MHz : 164218.041992 28671.483536 28671.460928

                             ****ORCA TERMINATED NORMALLY****
TOTAL RUN TIME: 0 days 0 hours 0 minutes 3 seconds 636 msec
