                         Program Version 5.0.0 -  RELEASE  -
|  1> !wB97X-D3 RIJCOSX def2-SVPD def2/J TightSCF
|  2> *xyz 1 1
|  3> C          4.99986       -1.59613       -5.92488
|  4> N          5.28156       -1.97413       -4.53576
|  5> C          4.79250       -1.36132       -3.45730
|  6> N          3.93990       -0.37492       -3.55736
|  7> N          5.25986       -1.75422       -2.23913
|  8> H          5.92282       -2.52145       -2.18672
|  9> H          4.65468       -1.64040       -1.44202
| 10> H          5.70914       -2.87560       -4.38702
| 11> H          3.33010       -0.31764       -4.36125
| 12> H          3.69849        0.11447       -2.70833
| 13> H          5.52133       -2.25562       -6.58673
| 14> H          5.32493       -0.59081       -6.09388
| 15> H          3.94785       -1.66624       -6.10727
| 16> *
| 17>
| 18> %MaxCore 64000
| 19>
| 20> %pal nprocs 18
| 21> end
| 22>
| 23> %scf
| 24>   MaxIter 150
| 25> end
| 26>
| 27>
| 28>                          ****END OF INPUT****

CARTESIAN COORDINATES (ANGSTROEM)
---------------------------------
  C      4.999860   -1.596130   -5.924880
  N      5.281560   -1.974130   -4.535760
  C      4.792500   -1.361320   -3.457300
  N      3.939900   -0.374920   -3.557360
  N      5.259860   -1.754220   -2.239130
  H      5.922820   -2.521450   -2.186720
  H      4.654680   -1.640400   -1.442020
  H      5.709140   -2.875600   -4.387020
  H      3.330100   -0.317640   -4.361250
  H      3.698490    0.114470   -2.708330
  H      5.521330   -2.255620   -6.586730
  H      5.324930   -0.590810   -6.093880
  H      3.947850   -1.666240   -6.107270

 Total Charge           Charge          ....    1
 Multiplicity           Mult            ....    1
 Number of Electrons    NEL             ....   40
 Basis Dimension        Dim             ....  164

ORBITAL ENERGIES
----------------

  NO   OCC          E(Eh)            E(eV)
   0   2.0000     -14.671521      -399.2324
   1   2.0000     -14.669476      -399.1767
   2   2.0000     -14.660915      -398.9438
   3   2.0000     -10.635034      -289.3940
   4   2.0000     -10.496175      -285.6155
   5   2.0000      -1.332235       -36.2520
   6   2.0000      -1.219735       -33.1907
   7   2.0000      -1.203342       -32.7446
   8   2.0000      -1.015446       -27.6317
   9   2.0000      -0.938146       -25.5283
  10   2.0000      -0.898766       -24.4567
  11   2.0000      -0.855233       -23.2721
  12   2.0000      -0.806547       -21.9473
  13   2.0000      -0.797776       -21.7086
  14   2.0000      -0.757138       -20.6028
  15   2.0000      -0.734943       -19.9988
  16   2.0000      -0.693359       -18.8673
  17   2.0000      -0.678837       -18.4721
  18   2.0000      -0.581894       -15.8341
  19   2.0000      -0.553691       -15.0667
  20   0.0000      -0.100178        -2.7260
  21   0.0000      -0.078747        -2.1428
  22   0.0000      -0.042399        -1.1537
  23   0.0000      -0.035362        -0.9623
  24   0.0000      -0.011788        -0.3208

MULLIKEN ATOMIC CHARGES
-----------------------
   0 C :    0.957299
   1 N :   -0.564835
   2 C :    1.179971
   3 N :   -0.046035
   4 N :   -0.114544
   5 H :    0.002496
   6 H :   -0.003760
   7 H :   -0.177074
   8 H :    0.012699
   9 H :   -0.032863
  10 H :   -0.218866
  11 H :    0.016256
  12 H :   -0.010746
Sum of atomic charges:    1.0000000

LOEWDIN ATOMIC CHARGES
----------------------
   0 C :    0.253671
   1 N :    0.013037
   2 C :   -0.028371
   3 N :    0.278146
   4 N :    0.253329
   5 H :    0.036339
   6 H :    0.030740
   7 H :    0.053332
   8 H :    0.039092
   9 H :    0.047802
  10 H :    0.013712
  11 H :    0.010613
  12 H :   -0.001442

  Mayer bond orders larger than 0.100000
B(  0-C ,  1-N ) :   0.8891 B(  0-C ,  7-H ) :  -0.1041 B(  0-C , 10-H ) :   0.8848
B(  0-C , 11-H ) :   0.8370 B(  0-C , 12-H ) :   0.8459 B(  1-N ,  2-C ) :   1.0822
B(  1-N ,  3-N ) :   0.2131 B(  1-N ,  4-N ) :   0.1870 B(  1-N ,  7-H ) :   1.2482
B(  1-N , 10-H ) :   0.1549 B(  1-N , 11-H ) :   0.1442 B(  1-N , 12-H ) :   0.1208
B(  2-C ,  3-N ) :   1.0711 B(  2-C ,  4-N ) :   0.8900 B(  2-C ,  7-H ) :  -0.1586
B(  3-N ,  4-N ) :   0.1343 B(  3-N ,  8-H ) :   1.1045 B(  3-N ,  9-H ) :   1.1486
B(  4-N ,  5-H ) :   1.0715 B(  4-N ,  6-H ) :   1.1371 B(  5-H ,  6-H ) :  -0.1180
B(  8-H ,  9-H ) :  -0.1637

Dispersion correction           -0.002409744
FINAL SINGLE POINT ENERGY      -244.854266892884

DIPOLE MOMENT
-------------
                                X             Y             Z
Electronic contribution:      0.16489       0.11828       2.67751
Nuclear contribution   :     -0.59263      -0.40751      -2.24260
                        -----------------------------------------
Total Dipole Moment    :     -0.42774      -0.28924       0.43492
                        -----------------------------------------
Magnitude (a.u.)       :      0.67511
Magnitude (Debye)      :      1.71599

Rotational constants in cm-1:     0.316984     0.131419     0.095004
Rotational constants in MHz :  9502.926758  3939.829875  2848.138998

                             ****ORCA TERMINATED NORMALLY****
TOTAL RUN TIME: 0 days 0 hours 0 minutes 9 seconds 25 msec
