                         Program Version 5.0.0 -  RELEASE  -
|  1> !wB97X-D3 RIJCOSX def2-SVPD def2/J TightSCF xyzfile
|  2>
|  3> *xyzfile 0 1 B.xyz
|  4>
|  5> %MaxCore 64000
|  6>
|  7> %pal nprocs 18
|  8> end
|  9>
| 10> %scf
| 11>   MaxIter 150
| 12> end
| 13>
| 14>
| 15>                          ****END OF INPUT****

CARTESIAN COORDINATES (ANGSTROEM)
---------------------------------
  C      4.999862   -1.596133   -5.924876
  N      5.281560   -1.974132   -4.535764
  C      3.766779   -2.266110   -6.511752
  C      2.496702   -1.844161   -5.735704
  H      1.626416   -2.217434   -6.308950
  H      2.481824   -2.456069   -4.793414
  O      2.459729   -0.509204   -5.505757
  C      4.792500   -1.361316   -3.457295
  N      3.939898   -0.374925   -3.557359
  N      5.259860   -1.754224   -2.239133
  H      5.922824   -2.521451   -2.186720
  H      4.654678   -1.640404   -1.442016
  H      5.709139   -2.875599   -4.387021
  H      3.330101   -0.317639   -4.361247
  H      3.698494    0.114468   -2.708333
  H      4.843333   -0.517930   -5.943019
  H      5.901695   -1.822503   -6.496467
  H      3.886191   -3.357076   -6.533604
  H      3.685602   -1.922168   -7.547128

 Total Charge           Charge          ....    0
 Multiplicity           Mult            ....    1
 Number of Electrons    NEL             ....   64
 Basis Dimension        Dim             ....  251

ORBITAL ENERGIES
----------------

  NO   OCC          E(Eh)            E(eV)
   0   2.0000     -19.095884      -519.6254
   1   2.0000     -14.504743      -394.6941
   2   2.0000     -14.496210      -394.4619
   3   2.0000     -14.452293      -393.2669
   4   2.0000     -10.455250      -284.5018
   5   2.0000     -10.323952      -280.9290
   6   2.0000     -10.273147      -279.5466
   7   2.0000     -10.258852      -279.1576
   8   2.0000      -1.155177       -31.4340
   9   2.0000      -1.046286       -28.4709
  10   2.0000      -1.028194       -27.9786
  11   2.0000      -0.985365       -26.8132
  12   2.0000      -0.867125       -23.5957
  13   2.0000      -0.784752       -21.3542
  14   2.0000      -0.739858       -20.1326
  15   2.0000      -0.720031       -19.5930
  16   2.0000      -0.691704       -18.8222
  17   2.0000      -0.646352       -17.5881
  18   2.0000      -0.624605       -16.9964
  19   2.0000      -0.607885       -16.5414
  20   2.0000      -0.571686       -15.5564
  21   2.0000      -0.563804       -15.3419
  22   2.0000      -0.536834       -14.6080
  23   2.0000      -0.506005       -13.7691
  24   2.0000      -0.459292       -12.4980
  25   2.0000      -0.438986       -11.9454
  26   2.0000      -0.427112       -11.6223
  27   2.0000      -0.405467       -11.0333
  28   2.0000      -0.392727       -10.6866
  29   2.0000      -0.371062       -10.0971
  30   2.0000      -0.257366        -7.0033
  31   2.0000      -0.252889        -6.8815
  32   0.0000       0.055095         1.4992
  33   0.0000       0.075275         2.0483
  34   0.0000       0.093219         2.5366
  35   0.0000       0.109183         2.9710
  36   0.0000       0.129038         3.5113

MULLIKEN ATOMIC CHARGES
-----------------------
   0 C :    0.692479
   1 N :   -0.506526
   2 C :    0.013141
   3 C :    0.533278
   4 H :   -0.373412
   5 H :    0.106714
   6 O :   -0.702946
   7 C :    1.166284
   8 N :    0.283577
   9 N :   -0.137599
  10 H :   -0.049199
  11 H :   -0.018472
  12 H :   -0.226517
  13 H :   -0.405786
  14 H :   -0.108055
  15 H :    0.178775
  16 H :   -0.353007
  17 H :   -0.123136
  18 H :    0.030407
Sum of atomic charges:   -0.0000000

LOEWDIN ATOMIC CHARGES
----------------------
   0 C :    0.064484
   1 N :    0.034096
   2 C :   -0.026680
   3 C :   -0.101192
   4 H :    0.005277
   5 H :   -0.001238
   6 O :   -0.431492
   7 C :   -0.042138
   8 N :    0.296899
   9 N :    0.217972
  10 H :    0.010338
  11 H :    0.010648
  12 H :    0.038049
  13 H :   -0.188298
  14 H :    0.030761
  15 H :    0.026116
  16 H :    0.019918
  17 H :    0.011513
  18 H :    0.024965

  Mayer bond orders larger than 0.100000
B(  0-C ,  1-N ) :   0.9105 B(  0-C ,  2-C ) :   1.1374 B(  0-C , 12-H ) :  -0.1719
B(  0-C , 15-H ) :   0.7093 B(  0-C , 16-H ) :   0.9336 B(  0-C , 17-H ) :   0.1501
B(  0-C , 18-H ) :   0.1048 B(  1-N ,  7-C ) :   1.0277 B(  1-N ,  8-N ) :   0.1589
B(  1-N ,  9-N ) :   0.1829 B(  1-N , 12-H ) :   1.3075 B(  1-N , 15-H ) :   0.1786
B(  1-N , 16-H ) :   0.1317 B(  2-C ,  3-C ) :   1.0833 B(  2-C ,  4-H ) :   0.1377
B(  2-C ,  5-H ) :   0.1057 B(  2-C , 15-H ) :   0.1152 B(  2-C , 17-H ) :   0.9049
B(  2-C , 18-H ) :   0.8746 B(  3-C ,  4-H ) :   1.0307 B(  3-C ,  5-H ) :   0.8328
B(  3-C ,  6-O ) :   1.1060 B(  3-C , 17-H ) :   0.1094 B(  3-C , 18-H ) :   0.1051
B(  6-O , 13-H ) :   0.3951 B(  7-C ,  8-N ) :   1.1635 B(  7-C ,  9-N ) :   0.8093
B(  7-C , 12-H ) :  -0.1885 B(  7-C , 13-H ) :  -0.1336 B(  8-N ,  9-N ) :   0.1500
B(  8-N , 13-H ) :   1.1388 B(  8-N , 14-H ) :   1.1560 B(  9-N , 10-H ) :   1.1076
B(  9-N , 11-H ) :   1.1267 B( 10-H , 11-H ) :  -0.1297 B( 13-H , 14-H ) :  -0.2088
B( 15-H , 16-H ) :  -0.1252

Dispersion correction           -0.006193557
FINAL SINGLE POINT ENERGY      -398.130375482919

DIPOLE MOMENT
-------------
                                X             Y             Z
Electronic contribution:      1.95024       1.90295       3.72026
Nuclear contribution   :      0.51577      -3.31768      -1.36804
                        -----------------------------------------
Total Dipole Moment    :      2.46601      -1.41473       2.35223
                        -----------------------------------------
Magnitude (a.u.)       :      3.68993
Magnitude (Debye)      :      9.37907

Rotational constants in cm-1:     0.111492     0.050787     0.040163
Rotational constants in MHz :  3342.457536  1522.560798  1204.057148

                             ****ORCA TERMINATED NORMALLY****
TOTAL RUN TIME: 0 days 0 hours 0 minutes 26 seconds 803 msec
