                         Program Version 5.0.0 -  RELEASE  -
|  1> !wB97X-D3 RIJCOSX def2-SVPD def2/J TightSCF
|  2> *xyz 0 1
|  3> C          2.49670       -1.84416       -5.73570
|  4> F          2.45973       -0.50920       -5.50576
|  5> H          2.07863       -2.36209       -4.89793
|  6> H          3.51118       -2.15388       -5.87645
|  7> H          1.92949       -2.07059       -6.61428
|  8> *
|  9>
| 10> %MaxCore 64000
| 11>
| 12> %pal nprocs 18
| 13> end
| 14>
| 15> %scf
| 16>   MaxIter 150
| 17> end
| 18>
| 19>
| 20>                          ****END OF INPUT****

CARTESIAN COORDINATES (ANGSTROEM)
---------------------------------
  C      2.496700   -1.844160   -5.735700
  F      2.459730   -0.509200   -5.505760
  H      2.078630   -2.362090   -4.897930
  H      3.511180   -2.153880   -5.876450
  H      1.929490   -2.070590   -6.614280

 Total Charge           Charge          ....    0
 Multiplicity           Mult            ....    1
 Number of Electrons    NEL             ....   18
 Basis Dimension        Dim             ....   67

ORBITAL ENERGIES
----------------

  NO   OCC          E(Eh)            E(eV)
   0   2.0000     -24.787098      -674.4912
   1   2.0000     -10.359075      -281.8848
   2   2.0000      -1.304132       -35.4872
   3   2.0000      -0.814239       -22.1566
   4   2.0000      -0.603435       -16.4203
   5   2.0000      -0.598313       -16.2809
   6   2.0000      -0.598300       -16.2806
   7   2.0000      -0.449384       -12.2284
   8   2.0000      -0.449364       -12.2278
   9   0.0000       0.096128         2.6158
  10   0.0000       0.148670         4.0455
  11   0.0000       0.178495         4.8571
  12   0.0000       0.178498         4.8572
  13   0.0000       0.217258         5.9119

MULLIKEN ATOMIC CHARGES
-----------------------
   0 C :    0.773470
   1 F :   -0.490632
   2 H :   -0.094382
   3 H :   -0.094233
   4 H :   -0.094223
Sum of atomic charges:   -0.0000000

LOEWDIN ATOMIC CHARGES
----------------------
   0 C :    0.262126
   1 F :   -0.253428
   2 H :   -0.002917
   3 H :   -0.002901
   4 H :   -0.002880

  Mayer bond orders larger than 0.100000
B(  0-C ,  1-F ) :   0.8347 B(  0-C ,  2-H ) :   0.9540 B(  0-C ,  3-H ) :   0.9546
B(  0-C ,  4-H ) :   0.9545

Dispersion correction           -0.000124156
FINAL SINGLE POINT ENERGY      -139.606476594292

DIPOLE MOMENT
-------------
                                X             Y             Z
Electronic contribution:     -0.07950       2.87239       0.49466
Nuclear contribution   :      0.09898      -3.57380      -0.61557
                        -----------------------------------------
Total Dipole Moment    :      0.01948      -0.70141      -0.12091
                        -----------------------------------------
Magnitude (a.u.)       :      0.71202
Magnitude (Debye)      :      1.80981

Rotational constants in cm-1:     5.477724     0.890368     0.890367
Rotational constants in MHz : 164218.041992 26692.553985 26692.534390

                             ****ORCA TERMINATED NORMALLY****
TOTAL RUN TIME: 0 days 0 hours 0 minutes 5 seconds 39 msec
