                         Program Version 5.0.0 -  RELEASE  -
|  1> !wB97X-D3 RIJCOSX def2-SVPD def2/J TightSCF
|  2> *xyz 0 1
|  3> C          4.99986       -1.59613       -5.92488
|  4> C          5.28156       -1.97413       -4.53576
|  5> C          4.79250       -1.36132       -3.45730
|  6> N          3.93990       -0.37492       -3.55736
|  7> N          5.25986       -1.75422       -2.23913
|  8> H          5.92282       -2.52145       -2.18672
|  9> H          4.65468       -1.64040       -1.44202
| 10> H          5.70914       -2.87560       -4.38702
| 11> H          3.33010       -0.31764       -4.36125
| 12> H          3.69849        0.11447       -2.70833
| 13> H          5.52133       -2.25562       -6.58673
| 14> H          5.32493       -0.59081       -6.09388
| 15> H          3.94785       -1.66624       -6.10727
| 16> *
| 17>
| 18> %MaxCore 64000
| 19>
| 20> %pal nprocs 18
| 21> end
| 22>
| 23> %scf
| 24>   MaxIter 150
| 25> end
| 26>
| 27>
| 28>                          ****END OF INPUT****

CARTESIAN COORDINATES (ANGSTROEM)
---------------------------------
  C      4.999860   -1.596130   -5.924880
  C      5.281560   -1.974130   -4.535760
  C      4.792500   -1.361320   -3.457300
  N      3.939900   -0.374920   -3.557360
  N      5.259860   -1.754220   -2.239130
  H      5.922820   -2.521450   -2.186720
  H      4.654680   -1.640400   -1.442020
  H      5.709140   -2.875600   -4.387020
  H      3.330100   -0.317640   -4.361250
  H      3.698490    0.114470   -2.708330
  H      5.521330   -2.255620   -6.586730
  H      5.324930   -0.590810   -6.093880
  H      3.947850   -1.666240   -6.107270

 Total Charge           Charge          ....    0
 Multiplicity           Mult            ....    1
 Number of Electrons    NEL             ....   40
 Basis Dimension        Dim             ....  164

ORBITAL ENERGIES
----------------

  NO   OCC          E(Eh)            E(eV)
   0   2.0000     -14.441962      -392.9858
   1   2.0000     -14.432374      -392.7249
   2   2.0000     -10.331527      -281.1351
   3   2.0000     -10.253822      -279.0207
   4   2.0000     -10.213110      -277.9129
   5   2.0000      -1.071702       -29.1625
   6   2.0000      -0.976945       -26.5840
   7   2.0000      -0.859788       -23.3960
   8   2.0000      -0.761700       -20.7269
   9   2.0000      -0.688548       -18.7363
  10   2.0000      -0.647975       -17.6323
  11   2.0000      -0.604931       -16.4610
  12   2.0000      -0.577389       -15.7116
  13   2.0000      -0.529726       -14.4146
  14   2.0000      -0.506894       -13.7933
  15   2.0000      -0.472705       -12.8630
  16   2.0000      -0.455149       -12.3852
  17   2.0000      -0.433195       -11.7878
  18   2.0000      -0.361612        -9.8400
  19   2.0000      -0.247435        -6.7330
  20   0.0000       0.090220         2.4550
  21   0.0000       0.116254         3.1634
  22   0.0000       0.128043         3.4842
  23   0.0000       0.148392         4.0379
  24   0.0000       0.158704         4.3186

MULLIKEN ATOMIC CHARGES
-----------------------
   0 C :    0.704020
   1 C :   -0.672409
   2 C :    0.830363
   3 N :    0.042776
   4 N :   -0.055604
   5 H :   -0.019591
   6 H :   -0.096845
   7 H :   -0.428596
   8 H :   -0.041295
   9 H :   -0.188545
  10 H :   -0.049847
  11 H :    0.021785
  12 H :   -0.046211
Sum of atomic charges:   -0.0000000

LOEWDIN ATOMIC CHARGES
----------------------
   0 C :    0.082618
   1 C :   -0.065176
   2 C :   -0.233847
   3 N :    0.192476
   4 N :    0.170114
   5 H :    0.001304
   6 H :   -0.020971
   7 H :   -0.061298
   8 H :    0.004770
   9 H :   -0.001202
  10 H :   -0.018968
  11 H :   -0.019119
  12 H :   -0.030700

  Mayer bond orders larger than 0.100000
B(  0-C ,  1-C ) :   1.2401 B(  0-C ,  7-H ) :   0.1369 B(  0-C , 10-H ) :   0.7715
B(  0-C , 11-H ) :   0.7068 B(  0-C , 12-H ) :   0.7715 B(  1-C ,  2-C ) :   1.5170
B(  1-C ,  3-N ) :   0.2883 B(  1-C ,  4-N ) :   0.3067 B(  1-C ,  7-H ) :   1.0022
B(  1-C , 10-H ) :   0.2756 B(  1-C , 11-H ) :   0.2803 B(  1-C , 12-H ) :   0.1715
B(  2-C ,  3-N ) :   1.0443 B(  2-C ,  4-N ) :   0.8469 B(  3-N ,  8-H ) :   1.0961
B(  3-N ,  9-H ) :   1.2246 B(  4-N ,  5-H ) :   1.0619 B(  4-N ,  6-H ) :   1.1223
B(  5-H ,  6-H ) :  -0.1042 B(  7-H , 10-H ) :  -0.1057 B(  8-H ,  9-H ) :  -0.1540

Dispersion correction           -0.002410893
FINAL SINGLE POINT ENERGY      -228.390435879810

DIPOLE MOMENT
-------------
                                X             Y             Z
Electronic contribution:     -0.14692       0.59799       3.07631
Nuclear contribution   :     -0.50372      -0.52081      -2.36443
                        -----------------------------------------
Total Dipole Moment    :     -0.65064       0.07718       0.71188
                        -----------------------------------------
Magnitude (a.u.)       :      0.96751
Magnitude (Debye)      :      2.45921

Rotational constants in cm-1:     0.322219     0.132365     0.095965
Rotational constants in MHz :  9659.878542  3968.206057  2876.950547

                             ****ORCA TERMINATED NORMALLY****
TOTAL RUN TIME: 0 days 0 hours 0 minutes 8 seconds 523 msec
