                         Program Version 5.0.0 -  RELEASE  -
|  1> !wB97X-D3 RIJCOSX def2-SVPD def2/J TightSCF
|  2> *xyz 0 1
|  3> C          4.99986       -1.59613       -5.92488
|  4> N          5.28156       -1.97413       -4.53576
|  5> C          4.79250       -1.36132       -3.45730
|  6> C          3.93990       -0.37492       -3.55736
|  7> N          5.25986       -1.75422       -2.23913
|  8> H          5.92282       -2.52145       -2.18672
|  9> H          4.65468       -1.64040       -1.44202
| 10> H          5.70914       -2.87560       -4.38702
| 11> H          3.33010       -0.31764       -4.36125
| 12> H          3.69849        0.11447       -2.70833
| 13> H          5.52133       -2.25562       -6.58673
| 14> H          5.32493       -0.59081       -6.09388
| 15> H          3.94785       -1.66624       -6.10727
| 16> *
| 17>
| 18> %MaxCore 64000
| 19>
| 20> %pal nprocs 18
| 21> end
| 22>
| 23> %scf
| 24>   MaxIter 150
| 25> end
| 26>
| 27>
| 28>                          ****END OF INPUT****

CARTESIAN COORDINATES (ANGSTROEM)
---------------------------------
  C      4.999860   -1.596130   -5.924880
  N      5.281560   -1.974130   -4.535760
  C      4.792500   -1.361320   -3.457300
  C      3.939900   -0.374920   -3.557360
  N      5.259860   -1.754220   -2.239130
  H      5.922820   -2.521450   -2.186720
  H      4.654680   -1.640400   -1.442020
  H      5.709140   -2.875600   -4.387020
  H      3.330100   -0.317640   -4.361250
  H      3.698490    0.114470   -2.708330
  H      5.521330   -2.255620   -6.586730
  H      5.324930   -0.590810   -6.093880
  H      3.947850   -1.666240   -6.107270

 Total Charge           Charge          ....    0
 Multiplicity           Mult            ....    1
 Number of Electrons    NEL             ....   40
 Basis Dimension        Dim             ....  164

ORBITAL ENERGIES
----------------

  NO   OCC          E(Eh)            E(eV)
   0   2.0000     -14.440942      -392.9580
   1   2.0000     -14.434957      -392.7952
   2   2.0000     -10.336007      -281.2571
   3   2.0000     -10.315062      -280.6871
   4   2.0000     -10.202880      -277.6345
   5   2.0000      -1.072169       -29.1752
   6   2.0000      -0.985044       -26.8044
   7   2.0000      -0.834258       -22.7013
   8   2.0000      -0.805016       -21.9056
   9   2.0000      -0.671164       -18.2633
  10   2.0000      -0.646924       -17.6037
  11   2.0000      -0.614777       -16.7289
  12   2.0000      -0.559105       -15.2140
  13   2.0000      -0.535923       -14.5832
  14   2.0000      -0.516519       -14.0552
  15   2.0000      -0.481633       -13.1059
  16   2.0000      -0.481113       -13.0917
  17   2.0000      -0.454553       -12.3690
  18   2.0000      -0.344996        -9.3878
  19   2.0000      -0.262856        -7.1527
  20   0.0000       0.089479         2.4349
  21   0.0000       0.109853         2.9892
  22   0.0000       0.125528         3.4158
  23   0.0000       0.148041         4.0284
  24   0.0000       0.158317         4.3080

MULLIKEN ATOMIC CHARGES
-----------------------
   0 C :    0.973067
   1 N :   -0.534856
   2 C :    0.598800
   3 C :    0.301099
   4 N :   -0.027528
   5 H :   -0.134733
   6 H :   -0.027695
   7 H :   -0.311286
   8 H :   -0.192928
   9 H :   -0.356574
  10 H :   -0.309642
  11 H :   -0.007808
  12 H :    0.030084
Sum of atomic charges:    0.0000000

LOEWDIN ATOMIC CHARGES
----------------------
   0 C :    0.207125
   1 N :   -0.057794
   2 C :   -0.238800
   3 C :    0.148079
   4 N :    0.176494
   5 H :   -0.012959
   6 H :   -0.003563
   7 H :    0.011467
   8 H :   -0.097566
   9 H :   -0.092402
  10 H :   -0.014098
  11 H :   -0.007880
  12 H :   -0.018103

  Mayer bond orders larger than 0.100000
B(  0-C ,  1-N ) :   0.8950 B(  0-C ,  7-H ) :  -0.1144 B(  0-C , 10-H ) :   0.8916
B(  0-C , 11-H ) :   0.8367 B(  0-C , 12-H ) :   0.8409 B(  1-N ,  2-C ) :   1.0037
B(  1-N ,  3-C ) :   0.3374 B(  1-N ,  4-N ) :   0.1357 B(  1-N ,  7-H ) :   1.3143
B(  1-N , 10-H ) :   0.1518 B(  1-N , 11-H ) :   0.1437 B(  1-N , 12-H ) :   0.1039
B(  2-C ,  3-C ) :   1.7771 B(  2-C ,  4-N ) :   0.9013 B(  2-C ,  7-H ) :  -0.1699
B(  2-C ,  8-H ) :   0.1982 B(  2-C ,  9-H ) :   0.2463 B(  3-C ,  4-N ) :   0.2363
B(  3-C ,  8-H ) :   0.7615 B(  3-C ,  9-H ) :   0.7817 B(  4-N ,  5-H ) :   1.0955
B(  4-N ,  6-H ) :   1.1040 B(  5-H ,  6-H ) :  -0.1090 B(  8-H ,  9-H ) :   0.1082

Dispersion correction           -0.002406540
FINAL SINGLE POINT ENERGY      -228.380903600467

DIPOLE MOMENT
-------------
                                X             Y             Z
Electronic contribution:      1.10449      -0.87057       2.10934
Nuclear contribution   :     -0.77547      -0.19690      -2.16626
                        -----------------------------------------
Total Dipole Moment    :      0.32903      -1.06747      -0.05692
                        -----------------------------------------
Magnitude (a.u.)       :      1.11848
Magnitude (Debye)      :      2.84294

Rotational constants in cm-1:     0.340409     0.131955     0.097296
Rotational constants in MHz : 10205.195281  3955.909122  2916.861706

                             ****ORCA TERMINATED NORMALLY****
TOTAL RUN TIME: 0 days 0 hours 0 minutes 8 seconds 134 msec
