                         Program Version 5.0.0 -  RELEASE  -
|  1> !wB97X-D3 RIJCOSX def2-SVPD def2/J TightSCF
|  2> *xyz 0 1
|  3> C          4.99986       -1.59613       -5.92488
|  4> N          5.28156       -1.97413       -4.53576
|  5> C          4.79250       -1.36132       -3.45730
|  6> N          3.93990       -0.37492       -3.55736
|  7> C          5.25986       -1.75422       -2.23913
|  8> H          5.92282       -2.52145       -2.18672
|  9> H          4.65468       -1.64040       -1.44202
| 10> H          5.70914       -2.87560       -4.38702
| 11> H          3.33010       -0.31764       -4.36125
| 12> H          3.69849        0.11447       -2.70833
| 13> H          5.52133       -2.25562       -6.58673
| 14> H          5.32493       -0.59081       -6.09388
| 15> H          3.94785       -1.66624       -6.10727
| 16> *
| 17>
| 18> %MaxCore 64000
| 19>
| 20> %pal nprocs 18
| 21> end
| 22>
| 23> %scf
| 24>   MaxIter 150
| 25> end
| 26>
| 27>
| 28>                          ****END OF INPUT****

CARTESIAN COORDINATES (ANGSTROEM)
---------------------------------
  C      4.999860   -1.596130   -5.924880
  N      5.281560   -1.974130   -4.535760
  C      4.792500   -1.361320   -3.457300
  N      3.939900   -0.374920   -3.557360
  C      5.259860   -1.754220   -2.239130
  H      5.922820   -2.521450   -2.186720
  H      4.654680   -1.640400   -1.442020
  H      5.709140   -2.875600   -4.387020
  H      3.330100   -0.317640   -4.361250
  H      3.698490    0.114470   -2.708330
  H      5.521330   -2.255620   -6.586730
  H      5.324930   -0.590810   -6.093880
  H      3.947850   -1.666240   -6.107270

 Total Charge           Charge          ....    0
 Multiplicity           Mult            ....    1
 Number of Electrons    NEL             ....   40
 Basis Dimension        Dim             ....  164

ORBITAL ENERGIES
----------------

  NO   OCC          E(Eh)            E(eV)
   0   2.0000     -14.443171      -393.0187
   1   2.0000     -14.440385      -392.9428
   2   2.0000     -10.340865      -281.3893
   3   2.0000     -10.323737      -280.9232
   4   2.0000     -10.196924      -277.4724
   5   2.0000      -1.082712       -29.4621
   6   2.0000      -0.996494       -27.1160
   7   2.0000      -0.848983       -23.1020
   8   2.0000      -0.770861       -20.9762
   9   2.0000      -0.709604       -19.3093
  10   2.0000      -0.648736       -17.6530
  11   2.0000      -0.597896       -16.2696
  12   2.0000      -0.581957       -15.8359
  13   2.0000      -0.554365       -15.0850
  14   2.0000      -0.504400       -13.7254
  15   2.0000      -0.489040       -13.3075
  16   2.0000      -0.479755       -13.0548
  17   2.0000      -0.449675       -12.2363
  18   2.0000      -0.352910        -9.6032
  19   2.0000      -0.246860        -6.7174
  20   0.0000       0.083020         2.2591
  21   0.0000       0.118817         3.2332
  22   0.0000       0.123062         3.3487
  23   0.0000       0.140421         3.8211
  24   0.0000       0.158046         4.3007

MULLIKEN ATOMIC CHARGES
-----------------------
   0 C :    1.019351
   1 N :   -0.503191
   2 C :    0.444637
   3 N :    0.026483
   4 C :    0.455403
   5 H :   -0.251396
   6 H :   -0.426790
   7 H :   -0.232139
   8 H :   -0.069927
   9 H :   -0.051312
  10 H :   -0.288530
  11 H :   -0.043673
  12 H :   -0.078915
Sum of atomic charges:   -0.0000000

LOEWDIN ATOMIC CHARGES
----------------------
   0 C :    0.201225
   1 N :   -0.044931
   2 C :   -0.237707
   3 N :    0.192039
   4 C :    0.130631
   5 H :   -0.109389
   6 H :   -0.115887
   7 H :    0.026394
   8 H :   -0.005391
   9 H :    0.015124
  10 H :   -0.012144
  11 H :   -0.013783
  12 H :   -0.026182

  Mayer bond orders larger than 0.100000
B(  0-C ,  1-N ) :   0.8947 B(  0-C ,  7-H ) :  -0.1220 B(  0-C , 10-H ) :   0.8681
B(  0-C , 11-H ) :   0.8465 B(  0-C , 12-H ) :   0.8438 B(  1-N ,  2-C ) :   1.0836
B(  1-N ,  3-N ) :   0.1704 B(  1-N ,  4-C ) :   0.2214 B(  1-N ,  7-H ) :   1.2185
B(  1-N , 10-H ) :   0.1586 B(  1-N , 11-H ) :   0.1348 B(  1-N , 12-H ) :   0.1482
B(  2-C ,  3-N ) :   1.0757 B(  2-C ,  4-C ) :   1.7102 B(  2-C ,  5-H ) :   0.1783
B(  2-C ,  6-H ) :   0.1817 B(  2-C ,  7-H ) :  -0.1201 B(  3-N ,  4-C ) :   0.1977
B(  3-N ,  8-H ) :   1.1039 B(  3-N ,  9-H ) :   1.1381 B(  4-C ,  5-H ) :   0.7811
B(  4-C ,  6-H ) :   0.7819 B(  5-H ,  6-H ) :   0.1369 B(  8-H ,  9-H ) :  -0.1588

Dispersion correction           -0.002424049
FINAL SINGLE POINT ENERGY      -228.374296080790

DIPOLE MOMENT
-------------
                                X             Y             Z
Electronic contribution:     -0.16622       0.48562       0.76559
Nuclear contribution   :     -0.50812      -0.47627      -1.89926
                        -----------------------------------------
Total Dipole Moment    :     -0.67434       0.00935      -1.13367
                        -----------------------------------------
Magnitude (a.u.)       :      1.31910
Magnitude (Debye)      :      3.35289

Rotational constants in cm-1:     0.323645     0.137193     0.098606
Rotational constants in MHz :  9702.637007  4112.943433  2956.125886

                             ****ORCA TERMINATED NORMALLY****
TOTAL RUN TIME: 0 days 0 hours 0 minutes 8 seconds 446 msec
