                         Program Version 5.0.0 -  RELEASE  -
|  1> !wB97X-D3 RIJCOSX def2-SVPD def2/J TightSCF xyzfile
|  2>
|  3> *xyzfile 0 1 D1.xyz
|  4>
|  5> %MaxCore 64000
|  6>
|  7> %pal nprocs 18
|  8> end
|  9>
| 10> %scf
| 11>   MaxIter 150
| 12> end
| 13>
| 14>
| 15>                          ****END OF INPUT****

CARTESIAN COORDINATES (ANGSTROEM)
---------------------------------
  C      4.999862   -1.596133   -5.924876
  C      5.281560   -1.974132   -4.535764
  C      3.766779   -2.266110   -6.511752
  C      2.496702   -1.844161   -5.735704
  H      1.626416   -2.217434   -6.308950
  H      2.481824   -2.456069   -4.793414
  F      2.459729   -0.509204   -5.505757
  C      4.792500   -1.361316   -3.457295
  N      3.939898   -0.374925   -3.557359
  N      5.259860   -1.754224   -2.239133
  H      5.922824   -2.521451   -2.186720
  H      4.654678   -1.640404   -1.442016
  H      5.709139   -2.875599   -4.387021
  H      3.330101   -0.317639   -4.361247
  H      3.698494    0.114468   -2.708333
  H      4.843333   -0.517930   -5.943019
  H      5.901695   -1.822503   -6.496467
  H      3.886191   -3.357076   -6.533604
  H      3.685602   -1.922168   -7.547128

 Total Charge           Charge          ....    0
 Multiplicity           Mult            ....    1
 Number of Electrons    NEL             ....   64
 Basis Dimension        Dim             ....  251

ORBITAL ENERGIES
----------------

  NO   OCC          E(Eh)            E(eV)
   0   2.0000     -24.825524      -675.5369
   1   2.0000     -14.429031      -392.6339
   2   2.0000     -14.413329      -392.2066
   3   2.0000     -10.375469      -282.3309
   4   2.0000     -10.328321      -281.0479
   5   2.0000     -10.286224      -279.9024
   6   2.0000     -10.264958      -279.3237
   7   2.0000     -10.208018      -277.7743
   8   2.0000      -1.347882       -36.6777
   9   2.0000      -1.061681       -28.8898
  10   2.0000      -0.968311       -26.3491
  11   2.0000      -0.906593       -24.6697
  12   2.0000      -0.833233       -22.6734
  13   2.0000      -0.780025       -21.2256
  14   2.0000      -0.706968       -19.2376
  15   2.0000      -0.695398       -18.9227
  16   2.0000      -0.649528       -17.6746
  17   2.0000      -0.633825       -17.2472
  18   2.0000      -0.620918       -16.8960
  19   2.0000      -0.599535       -16.3142
  20   2.0000      -0.594420       -16.1750
  21   2.0000      -0.555362       -15.1122
  22   2.0000      -0.524976       -14.2853
  23   2.0000      -0.507951       -13.8221
  24   2.0000      -0.494250       -13.4492
  25   2.0000      -0.470982       -12.8161
  26   2.0000      -0.449868       -12.2415
  27   2.0000      -0.432940       -11.7809
  28   2.0000      -0.419413       -11.4128
  29   2.0000      -0.409917       -11.1544
  30   2.0000      -0.350211        -9.5297
  31   2.0000      -0.245281        -6.6744
  32   0.0000       0.091382         2.4866
  33   0.0000       0.108912         2.9636
  34   0.0000       0.121480         3.3056
  35   0.0000       0.123335         3.3561
  36   0.0000       0.138633         3.7724

MULLIKEN ATOMIC CHARGES
-----------------------
   0 C :    0.118326
   1 C :   -0.198946
   2 C :   -0.041802
   3 C :    0.714507
   4 H :   -0.239543
   5 H :    0.195759
   6 F :   -0.434263
   7 C :    0.834516
   8 N :    0.365138
   9 N :   -0.155950
  10 H :   -0.032119
  11 H :   -0.066094
  12 H :   -0.324542
  13 H :   -0.344488
  14 H :   -0.213472
  15 H :    0.146847
  16 H :   -0.205777
  17 H :   -0.117433
  18 H :   -0.000663
Sum of atomic charges:    0.0000000

LOEWDIN ATOMIC CHARGES
----------------------
   0 C :   -0.058275
   1 C :   -0.028321
   2 C :   -0.014248
   3 C :    0.139048
   4 H :    0.032456
   5 H :    0.046146
   6 F :   -0.186369
   7 C :   -0.214197
   8 N :    0.224975
   9 N :    0.173530
  10 H :    0.000007
  11 H :   -0.019679
  12 H :   -0.056365
  13 H :   -0.124549
  14 H :    0.003524
  15 H :    0.014689
  16 H :    0.016685
  17 H :    0.032464
  18 H :    0.018479

  Mayer bond orders larger than 0.100000
B(  0-C ,  1-C ) :   1.1747 B(  0-C ,  2-C ) :   1.1252 B(  0-C , 12-H ) :   0.2160
B(  0-C , 15-H ) :   0.7543 B(  0-C , 16-H ) :   0.9246 B(  0-C , 17-H ) :   0.1579
B(  0-C , 18-H ) :   0.1086 B(  1-C ,  7-C ) :   1.5907 B(  1-C ,  8-N ) :   0.2234
B(  1-C ,  9-N ) :   0.3094 B(  1-C , 12-H ) :   0.8780 B(  1-C , 15-H ) :   0.2421
B(  1-C , 16-H ) :   0.1490 B(  2-C ,  3-C ) :   1.1970 B(  2-C ,  4-H ) :   0.1460
B(  2-C ,  5-H ) :   0.1076 B(  2-C , 17-H ) :   0.9464 B(  2-C , 18-H ) :   0.8866
B(  3-C ,  4-H ) :   0.9840 B(  3-C ,  5-H ) :   0.8278 B(  3-C ,  6-F ) :   0.6128
B(  6-F , 13-H ) :   0.1213 B(  7-C ,  8-N ) :   1.0189 B(  7-C ,  9-N ) :   0.7242
B(  7-C , 12-H ) :   0.1095 B(  7-C , 14-H ) :  -0.1200 B(  7-C , 15-H ) :  -0.1086
B(  8-N , 13-H ) :   1.1553 B(  8-N , 14-H ) :   1.2027 B(  9-N , 10-H ) :   1.1188
B(  9-N , 11-H ) :   1.1015 B(  9-N , 12-H ) :   0.1031 B( 10-H , 11-H ) :  -0.1219
B( 13-H , 14-H ) :  -0.1846

Dispersion correction           -0.006125443
FINAL SINGLE POINT ENERGY      -406.076455370343

DIPOLE MOMENT
-------------
                                X             Y             Z
Electronic contribution:     -3.35054       3.96806       0.77560
Nuclear contribution   :      2.63975      -4.51113      -0.34926
                        -----------------------------------------
Total Dipole Moment    :     -0.71079      -0.54307       0.42634
                        -----------------------------------------
Magnitude (a.u.)       :      0.99091
Magnitude (Debye)      :      2.51870

Rotational constants in cm-1:     0.109429     0.049838     0.039337
Rotational constants in MHz :  3280.611039  1494.113088  1179.280063

                             ****ORCA TERMINATED NORMALLY****
TOTAL RUN TIME: 0 days 0 hours 0 minutes 29 seconds 993 msec
