                         Program Version 5.0.0 -  RELEASE  -
|  1> !wB97X-D3 RIJCOSX def2-SVPD def2/J TightSCF xyzfile
|  2>
|  3> *xyzfile 0 1 D2.xyz
|  4>
|  5> %MaxCore 64000
|  6>
|  7> %pal nprocs 18
|  8> end
|  9>
| 10> %scf
| 11>   MaxIter 150
| 12> end
| 13>
| 14>
| 15>                          ****END OF INPUT****

CARTESIAN COORDINATES (ANGSTROEM)
---------------------------------
  C      4.999862   -1.596133   -5.924876
  N      5.281560   -1.974132   -4.535764
  C      3.766779   -2.266110   -6.511752
  C      2.496702   -1.844161   -5.735704
  H      1.626416   -2.217434   -6.308950
  H      2.481824   -2.456069   -4.793414
  F      2.459729   -0.509204   -5.505757
  C      4.792500   -1.361316   -3.457295
  C      3.939898   -0.374925   -3.557359
  N      5.259860   -1.754224   -2.239133
  H      5.922824   -2.521451   -2.186720
  H      4.654678   -1.640404   -1.442016
  H      5.709139   -2.875599   -4.387021
  H      3.330101   -0.317639   -4.361247
  H      3.698494    0.114468   -2.708333
  H      4.843333   -0.517930   -5.943019
  H      5.901695   -1.822503   -6.496467
  H      3.886191   -3.357076   -6.533604
  H      3.685602   -1.922168   -7.547128

 Total Charge           Charge          ....    0
 Multiplicity           Mult            ....    1
 Number of Electrons    NEL             ....   64
 Basis Dimension        Dim             ....  251

ORBITAL ENERGIES
----------------

  NO   OCC          E(Eh)            E(eV)
   0   2.0000     -24.802957      -674.9228
   1   2.0000     -14.435971      -392.8227
   2   2.0000     -14.427228      -392.5848
   3   2.0000     -10.374779      -282.3121
   4   2.0000     -10.324404      -280.9413
   5   2.0000     -10.323703      -280.9223
   6   2.0000     -10.301393      -280.3152
   7   2.0000     -10.175567      -276.8912
   8   2.0000      -1.327902       -36.1341
   9   2.0000      -1.067838       -29.0574
  10   2.0000      -0.983645       -26.7663
  11   2.0000      -0.895091       -24.3567
  12   2.0000      -0.819862       -22.3096
  13   2.0000      -0.801738       -21.8164
  14   2.0000      -0.720157       -19.5965
  15   2.0000      -0.673828       -18.3358
  16   2.0000      -0.654661       -17.8142
  17   2.0000      -0.623382       -16.9631
  18   2.0000      -0.620091       -16.8735
  19   2.0000      -0.599918       -16.3246
  20   2.0000      -0.587938       -15.9986
  21   2.0000      -0.558073       -15.1859
  22   2.0000      -0.528462       -14.3802
  23   2.0000      -0.508827       -13.8459
  24   2.0000      -0.485590       -13.2136
  25   2.0000      -0.477006       -12.9800
  26   2.0000      -0.455752       -12.4016
  27   2.0000      -0.441499       -12.0138
  28   2.0000      -0.431817       -11.7503
  29   2.0000      -0.401924       -10.9369
  30   2.0000      -0.341145        -9.2830
  31   2.0000      -0.250226        -6.8090
  32   0.0000       0.084382         2.2962
  33   0.0000       0.107643         2.9291
  34   0.0000       0.112277         3.0552
  35   0.0000       0.123112         3.3500
  36   0.0000       0.139955         3.8084

MULLIKEN ATOMIC CHARGES
-----------------------
   0 C :    0.677152
   1 N :   -0.455611
   2 C :   -0.103121
   3 C :    0.710070
   4 H :   -0.280781
   5 H :    0.241570
   6 F :   -0.503687
   7 C :    0.702121
   8 C :    0.938019
   9 N :   -0.078134
  10 H :   -0.108878
  11 H :    0.004941
  12 H :   -0.319173
  13 H :   -0.847703
  14 H :   -0.344760
  15 H :    0.201629
  16 H :   -0.366105
  17 H :   -0.092936
  18 H :    0.025390
Sum of atomic charges:   -0.0000000

LOEWDIN ATOMIC CHARGES
----------------------
   0 C :    0.061619
   1 N :   -0.020964
   2 C :   -0.005626
   3 C :    0.140430
   4 H :    0.031573
   5 H :    0.045691
   6 F :   -0.207253
   7 C :   -0.224870
   8 C :    0.182942
   9 N :    0.174079
  10 H :   -0.016572
  11 H :   -0.004994
  12 H :    0.015739
  13 H :   -0.189273
  14 H :   -0.082151
  15 H :    0.026757
  16 H :    0.020809
  17 H :    0.028376
  18 H :    0.023687

  Mayer bond orders larger than 0.100000
B(  0-C ,  1-N ) :   0.9333 B(  0-C ,  2-C ) :   1.1111 B(  0-C , 12-H ) :  -0.1699
B(  0-C , 13-H ) :   0.1115 B(  0-C , 15-H ) :   0.7039 B(  0-C , 16-H ) :   0.9794
B(  0-C , 17-H ) :   0.1165 B(  0-C , 18-H ) :   0.1105 B(  1-N ,  7-C ) :   0.9401
B(  1-N ,  8-C ) :   0.2998 B(  1-N ,  9-N ) :   0.1382 B(  1-N , 12-H ) :   1.3575
B(  1-N , 15-H ) :   0.1416 B(  1-N , 16-H ) :   0.1281 B(  2-C ,  3-C ) :   1.2057
B(  2-C ,  4-H ) :   0.1405 B(  2-C , 15-H ) :   0.1036 B(  2-C , 17-H ) :   0.9513
B(  2-C , 18-H ) :   0.8911 B(  3-C ,  4-H ) :   1.0122 B(  3-C ,  5-H ) :   0.8045
B(  3-C ,  6-F ) :   0.6559 B(  3-C , 13-H ) :   0.1546 B(  6-F , 13-H ) :   0.2918
B(  7-C ,  8-C ) :   1.8725 B(  7-C ,  9-N ) :   0.7736 B(  7-C , 12-H ) :  -0.2246
B(  7-C , 13-H ) :   0.1045 B(  7-C , 14-H ) :   0.3752 B(  8-C ,  9-N ) :   0.3346
B(  8-C , 13-H ) :   0.1336 B(  8-C , 14-H ) :   0.6370 B(  9-N , 10-H ) :   1.0661
B(  9-N , 11-H ) :   1.0724 B(  9-N , 14-H ) :   0.1578 B( 10-H , 11-H ) :  -0.1298
B( 13-H , 15-H ) :   0.1237 B( 15-H , 16-H ) :  -0.1450

Dispersion correction           -0.006084770
FINAL SINGLE POINT ENERGY      -406.043863787361

DIPOLE MOMENT
-------------
                                X             Y             Z
Electronic contribution:     -2.28526       2.67959      -0.16391
Nuclear contribution   :      2.43398      -4.26587      -0.19921
                        -----------------------------------------
Total Dipole Moment    :      0.14872      -1.58628      -0.36312
                        -----------------------------------------
Magnitude (a.u.)       :      1.63409
Magnitude (Debye)      :      4.15354

Rotational constants in cm-1:     0.110089     0.049944     0.039407
Rotational constants in MHz :  3300.378855  1497.273856  1181.385913

                             ****ORCA TERMINATED NORMALLY****
TOTAL RUN TIME: 0 days 0 hours 0 minutes 29 seconds 511 msec
