                         Program Version 5.0.0 -  RELEASE  -
|  1> !wB97X-D3 RIJCOSX def2-SVPD def2/J TightSCF xyzfile
|  2>
|  3> *xyzfile 0 1 D3.xyz
|  4>
|  5> %MaxCore 64000
|  6>
|  7> %pal nprocs 18
|  8> end
|  9>
| 10> %scf
| 11>   MaxIter 150
| 12> end
| 13>
| 14>
| 15>                          ****END OF INPUT****

CARTESIAN COORDINATES (ANGSTROEM)
---------------------------------
  C      4.999862   -1.596133   -5.924876
  N      5.281560   -1.974132   -4.535764
  C      3.766779   -2.266110   -6.511752
  C      2.496702   -1.844161   -5.735704
  H      1.626416   -2.217434   -6.308950
  H      2.481824   -2.456069   -4.793414
  F      2.459729   -0.509204   -5.505757
  C      4.792500   -1.361316   -3.457295
  N      3.939898   -0.374925   -3.557359
  C      5.259860   -1.754224   -2.239133
  H      5.922824   -2.521451   -2.186720
  H      4.654678   -1.640404   -1.442016
  H      5.709139   -2.875599   -4.387021
  H      3.330101   -0.317639   -4.361247
  H      3.698494    0.114468   -2.708333
  H      4.843333   -0.517930   -5.943019
  H      5.901695   -1.822503   -6.496467
  H      3.886191   -3.357076   -6.533604
  H      3.685602   -1.922168   -7.547128

 Total Charge           Charge          ....    0
 Multiplicity           Mult            ....    1
 Number of Electrons    NEL             ....   64
 Basis Dimension        Dim             ....  251

ORBITAL ENERGIES
----------------

  NO   OCC          E(Eh)            E(eV)
   0   2.0000     -24.840095      -675.9334
   1   2.0000     -14.437241      -392.8573
   2   2.0000     -14.411846      -392.1663
   3   2.0000     -10.394781      -282.8564
   4   2.0000     -10.332752      -281.1685
   5   2.0000     -10.331529      -281.1352
   6   2.0000     -10.313544      -280.6458
   7   2.0000     -10.187917      -277.2273
   8   2.0000      -1.362853       -37.0851
   9   2.0000      -1.074899       -29.2495
  10   2.0000      -0.989947       -26.9378
  11   2.0000      -0.911073       -24.7916
  12   2.0000      -0.838887       -22.8273
  13   2.0000      -0.779553       -21.2127
  14   2.0000      -0.728169       -19.8145
  15   2.0000      -0.703302       -19.1378
  16   2.0000      -0.682838       -18.5810
  17   2.0000      -0.651458       -17.7271
  18   2.0000      -0.621910       -16.9230
  19   2.0000      -0.608967       -16.5708
  20   2.0000      -0.575331       -15.6556
  21   2.0000      -0.571947       -15.5635
  22   2.0000      -0.539201       -14.6724
  23   2.0000      -0.526339       -14.3224
  24   2.0000      -0.487885       -13.2760
  25   2.0000      -0.477774       -13.0009
  26   2.0000      -0.468361       -12.7447
  27   2.0000      -0.453741       -12.3469
  28   2.0000      -0.441389       -12.0108
  29   2.0000      -0.437829       -11.9139
  30   2.0000      -0.342202        -9.3118
  31   2.0000      -0.238800        -6.4981
  32   0.0000       0.080421         2.1884
  33   0.0000       0.105128         2.8607
  34   0.0000       0.111657         3.0383
  35   0.0000       0.116564         3.1719
  36   0.0000       0.140880         3.8335

MULLIKEN ATOMIC CHARGES
-----------------------
   0 C :    0.704403
   1 N :   -0.295493
   2 C :   -0.067768
   3 C :    0.706685
   4 H :   -0.279008
   5 H :    0.239017
   6 F :   -0.409638
   7 C :    0.270033
   8 N :    0.465678
   9 C :    0.409621
  10 H :   -0.281354
  11 H :   -0.305033
  12 H :   -0.279303
  13 H :   -0.463895
  14 H :   -0.095362
  15 H :    0.124635
  16 H :   -0.389581
  17 H :   -0.095181
  18 H :    0.041544
Sum of atomic charges:    0.0000000

LOEWDIN ATOMIC CHARGES
----------------------
   0 C :    0.056363
   1 N :   -0.007253
   2 C :   -0.005690
   3 C :    0.143298
   4 H :    0.035994
   5 H :    0.052098
   6 F :   -0.185936
   7 C :   -0.233683
   8 N :    0.226415
   9 C :    0.128533
  10 H :   -0.113947
  11 H :   -0.116999
  12 H :    0.031064
  13 H :   -0.130660
  14 H :    0.019292
  15 H :    0.021450
  16 H :    0.021992
  17 H :    0.032722
  18 H :    0.024948

  Mayer bond orders larger than 0.100000
B(  0-C ,  1-N ) :   0.9442 B(  0-C ,  2-C ) :   1.1110 B(  0-C , 12-H ) :  -0.1945
B(  0-C , 15-H ) :   0.7396 B(  0-C , 16-H ) :   0.9661 B(  0-C , 17-H ) :   0.1330
B(  0-C , 18-H ) :   0.1004 B(  1-N ,  7-C ) :   1.0967 B(  1-N ,  8-N ) :   0.1098
B(  1-N ,  9-C ) :   0.1976 B(  1-N , 12-H ) :   1.2070 B(  1-N , 15-H ) :   0.1697
B(  1-N , 16-H ) :   0.1337 B(  2-C ,  3-C ) :   1.1977 B(  2-C ,  4-H ) :   0.1416
B(  2-C , 17-H ) :   0.9406 B(  2-C , 18-H ) :   0.8892 B(  3-C ,  4-H ) :   1.0187
B(  3-C ,  5-H ) :   0.7985 B(  3-C ,  6-F ) :   0.6104 B(  6-F , 13-H ) :   0.1200
B(  7-C ,  8-N ) :   1.0996 B(  7-C ,  9-C ) :   1.8074 B(  7-C , 10-H ) :   0.1830
B(  7-C , 11-H ) :   0.1787 B(  7-C , 12-H ) :  -0.1300 B(  8-N ,  9-C ) :   0.1161
B(  8-N , 13-H ) :   1.0864 B(  8-N , 14-H ) :   1.1301 B(  9-C , 10-H ) :   0.7499
B(  9-C , 11-H ) :   0.8209 B( 10-H , 11-H ) :   0.1905 B( 13-H , 14-H ) :  -0.1922
B( 15-H , 16-H ) :  -0.1390

Dispersion correction           -0.006195385
FINAL SINGLE POINT ENERGY      -406.059128086781

DIPOLE MOMENT
-------------
                                X             Y             Z
Electronic contribution:     -3.49998       3.84819      -1.53517
Nuclear contribution   :      2.63642      -4.47741       0.00296
                        -----------------------------------------
Total Dipole Moment    :     -0.86356      -0.62922      -1.53221
                        -----------------------------------------
Magnitude (a.u.)       :      1.86798
Magnitude (Debye)      :      4.74802

Rotational constants in cm-1:     0.108041     0.051979     0.040387
Rotational constants in MHz :  3238.993235  1558.297571  1210.782552

                             ****ORCA TERMINATED NORMALLY****
TOTAL RUN TIME: 0 days 0 hours 0 minutes 28 seconds 416 msec
