                         Program Version 5.0.0 -  RELEASE  -
|  1> !BLYP D3BJ RIJCOSX def2-SVPD def2/J TightSCF
|  2> *xyz -1 1
|  3> C         -0.60249       -0.63071        0.49224
|  4> O         -1.71206       -1.37684        0.20253
|  5> H          0.27695       -1.19720        0.26733
|  6> H         -0.60598       -0.37494        1.53122
|  7> H         -0.61066        0.26355       -0.09525
|  8> *
|  9> %MaxCore 64000
| 10>
| 11> %pal nprocs 4
| 12> end
| 13> %scf
| 14>   MaxIter 150
| 15> end
| 16>
| 17>                          ****END OF INPUT****

CARTESIAN COORDINATES (ANGSTROEM)
---------------------------------
  C     -0.602490   -0.630710    0.492240
  O     -1.712060   -1.376840    0.202530
  H      0.276950   -1.197200    0.267330
  H     -0.605980   -0.374940    1.531220
  H     -0.610660    0.263550   -0.095250

 Total Charge           Charge          ....   -1
 Multiplicity           Mult            ....    1
 Number of Electrons    NEL             ....   18
 Basis Dimension        Dim             ....   67

ORBITAL ENERGIES
----------------

  NO   OCC          E(Eh)            E(eV)
   0   2.0000     -18.444132      -501.8903
   1   2.0000      -9.711084      -264.2520
   2   2.0000      -0.563935       -15.3455
   3   2.0000      -0.323142        -8.7931
   4   2.0000      -0.146328        -3.9818
   5   2.0000      -0.146327        -3.9818
   6   2.0000      -0.052176        -1.4198
   7   2.0000       0.093630         2.5478
   8   2.0000       0.093632         2.5478
   9   0.0000       0.181334         4.9343
  10   0.0000       0.249947         6.8014
  11   0.0000       0.249948         6.8014
  12   0.0000       0.257707         7.0126
  13   0.0000       0.295527         8.0417

MULLIKEN ATOMIC CHARGES
-----------------------
   0 C :    1.158837
   1 O :   -0.985479
   2 H :   -0.391126
   3 H :   -0.391096
   4 H :   -0.391136
Sum of atomic charges:   -1.0000000

LOEWDIN ATOMIC CHARGES
----------------------
   0 C :   -0.115281
   1 O :   -0.616584
   2 H :   -0.089378
   3 H :   -0.089378
   4 H :   -0.089379

  Mayer bond orders larger than 0.100000
B(  0-C ,  1-O ) :   1.1699 B(  0-C ,  2-H ) :   0.8318 B(  0-C ,  3-H ) :   0.8318
B(  0-C ,  4-H ) :   0.8318

Dispersion correction           -0.003031875
FINAL SINGLE POINT ENERGY      -114.985429802346

DIPOLE MOMENT
-------------
                                X             Y             Z
Electronic contribution:     -1.54915      -1.04172      -0.40449
Nuclear contribution   :      2.33640       1.57111       0.61004
                        -----------------------------------------
Total Dipole Moment    :      0.78725       0.52939       0.20555
                        -----------------------------------------
Magnitude (a.u.)       :      0.97070
Magnitude (Debye)      :      2.46733

Rotational constants in cm-1:     5.477665     0.940945     0.940944
Rotational constants in MHz : 164216.266994 28208.811441 28208.799857

                             ****ORCA TERMINATED NORMALLY****
TOTAL RUN TIME: 0 days 0 hours 0 minutes 2 seconds 471 msec
