                         Program Version 5.0.0 -  RELEASE  -
|  1> !BLYP D3BJ RIJCOSX def2-SVPD def2/J TightSCF
|  2> *xyz 1 1
|  3> C         -2.12050        0.88520        1.78951
|  4> N         -3.17690       -0.15948        1.61070
|  5> H         -4.06474        0.23127        1.28675
|  6> H         -3.34407       -0.67151        2.48493
|  7> H         -2.71686       -0.78189        0.93588
|  8> H         -1.96853        1.40078        0.86432
|  9> H         -1.20609        0.41954        2.09270
| 10> H         -2.43151        1.58226        2.53937
| 11> *
| 12> %MaxCore 64000
| 13>
| 14> %pal nprocs 4
| 15> end
| 16>
| 17> %scf
| 18>   MaxIter 150
| 19> end
| 20>
| 21>
| 22>                          ****END OF INPUT****

CARTESIAN COORDINATES (ANGSTROEM)
---------------------------------
  C     -2.120500    0.885200    1.789510
  N     -3.176900   -0.159480    1.610700
  H     -4.064740    0.231270    1.286750
  H     -3.344070   -0.671510    2.484930
  H     -2.716860   -0.781890    0.935880
  H     -1.968530    1.400780    0.864320
  H     -1.206090    0.419540    2.092700
  H     -2.431510    1.582260    2.539370

 Total Charge           Charge          ....    1
 Multiplicity           Mult            ....    1
 Number of Electrons    NEL             ....   18
 Basis Dimension        Dim             ....   88

ORBITAL ENERGIES
----------------

  NO   OCC          E(Eh)            E(eV)
   0   2.0000     -14.372019      -391.0825
   1   2.0000     -10.183063      -277.0952
   2   2.0000      -1.133064       -30.8322
   3   2.0000      -0.861649       -23.4467
   4   2.0000      -0.765512       -20.8306
   5   2.0000      -0.753660       -20.5081
   6   2.0000      -0.660864       -17.9830
   7   2.0000      -0.582121       -15.8403
   8   2.0000      -0.578681       -15.7467
   9   0.0000      -0.232431        -6.3248
  10   0.0000      -0.169227        -4.6049
  11   0.0000      -0.163914        -4.4603
  12   0.0000      -0.152673        -4.1544
  13   0.0000      -0.113890        -3.0991

MULLIKEN ATOMIC CHARGES
-----------------------
   0 C :    1.287559
   1 N :   -0.579746
   2 H :    0.279579
   3 H :    0.296394
   4 H :    0.339700
   5 H :   -0.195538
   6 H :   -0.186121
   7 H :   -0.241828
Sum of atomic charges:    1.0000000

LOEWDIN ATOMIC CHARGES
----------------------
   0 C :    0.289861
   1 N :    0.336951
   2 H :    0.104825
   3 H :    0.105517
   4 H :    0.100169
   5 H :    0.022099
   6 H :    0.022384
   7 H :    0.018194

  Mayer bond orders larger than 0.100000
B(  0-C ,  1-N ) :   0.9049 B(  0-C ,  5-H ) :   0.8134 B(  0-C ,  6-H ) :   0.8072
B(  0-C ,  7-H ) :   0.8436 B(  1-N ,  2-H ) :   0.8484 B(  1-N ,  3-H ) :   0.8326
B(  1-N ,  4-H ) :   0.7767 B(  1-N ,  5-H ) :   0.1170 B(  1-N ,  6-H ) :   0.1183

Dispersion correction           -0.006820473
FINAL SINGLE POINT ENERGY       -96.095757942982

DIPOLE MOMENT
-------------
                                X             Y             Z
Electronic contribution:     -0.83630      -0.76427      -0.13008
Nuclear contribution   :      0.30442       0.18283       0.03339
                        -----------------------------------------
Total Dipole Moment    :     -0.53188      -0.58144      -0.09669
                        -----------------------------------------
Magnitude (a.u.)       :      0.79393
Magnitude (Debye)      :      2.01800

Rotational constants in cm-1:     2.844840     0.686092     0.683099
Rotational constants in MHz : 85286.171795 20568.516729 20478.789944

                             ****ORCA TERMINATED NORMALLY****
TOTAL RUN TIME: 0 days 0 hours 0 minutes 2 seconds 747 msec
