                         Program Version 5.0.0 -  RELEASE  -
|  1> !BLYP D3BJ RIJCOSX def2-SVPD def2/J TightSCF xyzfile
|  2>
|  3> *xyzfile 0 1 B.xyz
|  4>
|  5> %MaxCore 64000
|  6>
|  7> %pal nprocs 4
|  8> end
|  9>
| 10> %scf
| 11>   MaxIter 150
| 12> end
| 13>
| 14>
| 15>                          ****END OF INPUT****

CARTESIAN COORDINATES (ANGSTROEM)
---------------------------------
  C     -2.120502    0.885196    1.789506
  C     -0.778939    0.171966    1.804965
  H     -2.324193    1.472649    2.686078
  H     -2.187698    1.541272    0.919482
  N     -3.176900   -0.159484    1.610700
  H      0.015695    0.910767    1.939153
  H     -0.743553   -0.506827    2.665420
  C     -0.602493   -0.630712    0.492240
  H      0.313894   -1.240346    0.603498
  H     -0.363829    0.113322   -0.301169
  O     -1.712061   -1.376836    0.202535
  H     -4.064736    0.231272    1.286754
  H     -3.344073   -0.671511    2.484928
  H     -2.716861   -0.781886    0.935880

 Total Charge           Charge          ....    0
 Multiplicity           Mult            ....    1
 Number of Electrons    NEL             ....   42
 Basis Dimension        Dim             ....  175

ORBITAL ENERGIES
----------------

  NO   OCC          E(Eh)            E(eV)
   0   2.0000     -18.669847      -508.0324
   1   2.0000     -14.103228      -383.7683
   2   2.0000      -9.985880      -271.7296
   3   2.0000      -9.922322      -270.0001
   4   2.0000      -9.917779      -269.8765
   5   2.0000      -0.897708       -24.4279
   6   2.0000      -0.799146       -21.7459
   7   2.0000      -0.690058       -18.7774
   8   2.0000      -0.583281       -15.8719
   9   2.0000      -0.532858       -14.4998
  10   2.0000      -0.516184       -14.0461
  11   2.0000      -0.483998       -13.1702
  12   2.0000      -0.436088       -11.8666
  13   2.0000      -0.388510       -10.5719
  14   2.0000      -0.357155        -9.7187
  15   2.0000      -0.355857        -9.6833
  16   2.0000      -0.314604        -8.5608
  17   2.0000      -0.296919        -8.0796
  18   2.0000      -0.272272        -7.4089
  19   2.0000      -0.143691        -3.9100
  20   2.0000      -0.134008        -3.6465
  21   0.0000      -0.035604        -0.9688
  22   0.0000       0.005697         0.1550
  23   0.0000       0.008827         0.2402
  24   0.0000       0.035281         0.9600
  25   0.0000       0.054585         1.4853

MULLIKEN ATOMIC CHARGES
-----------------------
   0 C :    0.863039
   1 C :    0.336178
   2 H :   -0.431045
   3 H :   -0.152246
   4 N :   -0.203889
   5 H :   -0.281680
   6 H :   -0.116960
   7 C :    0.801441
   8 H :   -0.321119
   9 H :   -0.145537
  10 O :   -0.687127
  11 H :    0.176919
  12 H :    0.314540
  13 H :   -0.152513
Sum of atomic charges:    0.0000000

LOEWDIN ATOMIC CHARGES
----------------------
   0 C :    0.077229
   1 C :   -0.010757
   2 H :    0.017467
   3 H :    0.036488
   4 N :    0.316088
   5 H :    0.016233
   6 H :    0.018161
   7 C :   -0.073365
   8 H :    0.002197
   9 H :    0.002117
  10 O :   -0.360042
  11 H :    0.070462
  12 H :    0.078141
  13 H :   -0.190419

  Mayer bond orders larger than 0.100000
B(  0-C ,  1-C ) :   1.1602 B(  0-C ,  2-H ) :   0.7704 B(  0-C ,  3-H ) :   0.7551
B(  0-C ,  4-N ) :   0.8897 B(  0-C ,  5-H ) :   0.1381 B(  1-C ,  5-H ) :   0.8285
B(  1-C ,  6-H ) :   0.8037 B(  1-C ,  7-C ) :   1.1258 B(  1-C ,  8-H ) :   0.1777
B(  1-C ,  9-H ) :   0.1515 B(  2-H ,  3-H ) :  -0.1190 B(  2-H ,  4-N ) :   0.1718
B(  3-H ,  4-N ) :   0.1029 B(  4-N , 11-H ) :   0.8996 B(  4-N , 12-H ) :   0.8172
B(  4-N , 13-H ) :   1.0389 B(  5-H ,  7-C ) :   0.1405 B(  7-C ,  8-H ) :   0.8107
B(  7-C ,  9-H ) :   0.8363 B(  7-C , 10-O ) :   1.0898 B( 10-O , 13-H ) :   0.5596

Dispersion correction           -0.021167853
FINAL SINGLE POINT ENERGY      -249.401055203845

DIPOLE MOMENT
-------------
                                X             Y             Z
Electronic contribution:     -1.48002      -1.49330      -0.83716
Nuclear contribution   :      0.08650       3.01678       2.47433
                        -----------------------------------------
Total Dipole Moment    :     -1.39351       1.52348       1.63717
                        -----------------------------------------
Magnitude (a.u.)       :      2.63500
Magnitude (Debye)      :      6.69763

Rotational constants in cm-1:     0.238796     0.156489     0.106146
Rotational constants in MHz :  7158.916762  4691.413084  3182.185740

                             ****ORCA TERMINATED NORMALLY****
TOTAL RUN TIME: 0 days 0 hours 0 minutes 10 seconds 965 msec
