                         Program Version 5.0.0 -  RELEASE  -
|  1> !BLYP D3BJ RIJCOSX def2-SVPD def2/J TightSCF
|  2> *xyz 0 1
|  3> C         -0.60249       -0.63071        0.49224
|  4> F         -1.71206       -1.37684        0.20253
|  5> H          0.27695       -1.19720        0.26733
|  6> H         -0.60598       -0.37494        1.53122
|  7> H         -0.61066        0.26355       -0.09525
|  8> *
|  9> %MaxCore 64000
| 10>
| 11> %pal nprocs 4
| 12> end
| 13> %scf
| 14>   MaxIter 150
| 15> end
| 16>
| 17>                          ****END OF INPUT****

CARTESIAN COORDINATES (ANGSTROEM)
---------------------------------
  C     -0.602490   -0.630710    0.492240
  F     -1.712060   -1.376840    0.202530
  H      0.276950   -1.197200    0.267330
  H     -0.605980   -0.374940    1.531220
  H     -0.610660    0.263550   -0.095250

 Total Charge           Charge          ....    0
 Multiplicity           Mult            ....    1
 Number of Electrons    NEL             ....   18
 Basis Dimension        Dim             ....   67

ORBITAL ENERGIES
----------------

  NO   OCC          E(Eh)            E(eV)
   0   2.0000     -24.290723      -660.9842
   1   2.0000      -9.993840      -271.9462
   2   2.0000      -1.077350       -29.3162
   3   2.0000      -0.628663       -17.1068
   4   2.0000      -0.443826       -12.0771
   5   2.0000      -0.431922       -11.7532
   6   2.0000      -0.431921       -11.7532
   7   2.0000      -0.296444        -8.0667
   8   2.0000      -0.296441        -8.0666
   9   0.0000       0.006558         0.1785
  10   0.0000       0.033505         0.9117
  11   0.0000       0.078591         2.1386
  12   0.0000       0.078592         2.1386
  13   0.0000       0.125335         3.4105

MULLIKEN ATOMIC CHARGES
-----------------------
   0 C :    1.213596
   1 F :   -0.441164
   2 H :   -0.257485
   3 H :   -0.257462
   4 H :   -0.257484
Sum of atomic charges:    0.0000000

LOEWDIN ATOMIC CHARGES
----------------------
   0 C :    0.263551
   1 F :   -0.228025
   2 H :   -0.011843
   3 H :   -0.011842
   4 H :   -0.011842

  Mayer bond orders larger than 0.100000
B(  0-C ,  1-F ) :   0.9065 B(  0-C ,  2-H ) :   0.8697 B(  0-C ,  3-H ) :   0.8697
B(  0-C ,  4-H ) :   0.8697

Dispersion correction           -0.002647393
FINAL SINGLE POINT ENERGY      -139.610901969330

DIPOLE MOMENT
-------------
                                X             Y             Z
Electronic contribution:     -2.39910      -1.61328      -0.62641
Nuclear contribution   :      2.96306       1.99251       0.77366
                        -----------------------------------------
Total Dipole Moment    :      0.56395       0.37923       0.14725
                        -----------------------------------------
Magnitude (a.u.)       :      0.69537
Magnitude (Debye)      :      1.76749

Rotational constants in cm-1:     5.477665     0.875886     0.875886
Rotational constants in MHz : 164216.266994 26258.396768 26258.386731

                             ****ORCA TERMINATED NORMALLY****
TOTAL RUN TIME: 0 days 0 hours 0 minutes 2 seconds 126 msec
