                         Program Version 5.0.0 -  RELEASE  -
|  1> !BLYP D3BJ RIJCOSX def2-SVPD def2/J TightSCF
|  2> *xyz 0 1
|  3> C         -2.12050        0.88520        1.78951
|  4> C         -3.17690       -0.15948        1.61070
|  5> H         -4.06474        0.23127        1.28675
|  6> H         -3.34407       -0.67151        2.48493
|  7> H         -2.71686       -0.78189        0.93588
|  8> H         -1.96853        1.40078        0.86432
|  9> H         -1.20609        0.41954        2.09270
| 10> H         -2.43151        1.58226        2.53937
| 11> *
| 12> %MaxCore 64000
| 13>
| 14> %pal nprocs 4
| 15> end
| 16>
| 17> %scf
| 18>   MaxIter 150
| 19> end
| 20>
| 21>
| 22>                          ****END OF INPUT****

CARTESIAN COORDINATES (ANGSTROEM)
---------------------------------
  C     -2.120500    0.885200    1.789510
  C     -3.176900   -0.159480    1.610700
  H     -4.064740    0.231270    1.286750
  H     -3.344070   -0.671510    2.484930
  H     -2.716860   -0.781890    0.935880
  H     -1.968530    1.400780    0.864320
  H     -1.206090    0.419540    2.092700
  H     -2.431510    1.582260    2.539370

 Total Charge           Charge          ....    0
 Multiplicity           Mult            ....    1
 Number of Electrons    NEL             ....   18
 Basis Dimension        Dim             ....   88

ORBITAL ENERGIES
----------------

  NO   OCC          E(Eh)            E(eV)
   0   2.0000      -9.901352      -269.4295
   1   2.0000      -9.889221      -269.0994
   2   2.0000      -0.685899       -18.6643
   3   2.0000      -0.546024       -14.8581
   4   2.0000      -0.403339       -10.9754
   5   2.0000      -0.394979       -10.7479
   6   2.0000      -0.321060        -8.7365
   7   2.0000      -0.303058        -8.2466
   8   2.0000      -0.294482        -8.0133
   9   0.0000       0.009577         0.2606
  10   0.0000       0.042941         1.1685
  11   0.0000       0.079708         2.1690
  12   0.0000       0.081255         2.2111
  13   0.0000       0.099524         2.7082

MULLIKEN ATOMIC CHARGES
-----------------------
   0 C :    0.584521
   1 C :    1.014546
   2 H :   -0.364507
   3 H :   -0.316628
   4 H :   -0.276274
   5 H :   -0.206683
   6 H :   -0.199135
   7 H :   -0.235840
Sum of atomic charges:    0.0000000

LOEWDIN ATOMIC CHARGES
----------------------
   0 C :    0.088063
   1 C :    0.102777
   2 H :   -0.039660
   3 H :   -0.039259
   4 H :   -0.041243
   5 H :   -0.022011
   6 H :   -0.021259
   7 H :   -0.027408

  Mayer bond orders larger than 0.100000
B(  0-C ,  1-C ) :   1.4154 B(  0-C ,  2-H ) :   0.2071 B(  0-C ,  3-H ) :   0.2110
B(  0-C ,  4-H ) :   0.2983 B(  0-C ,  5-H ) :   0.7667 B(  0-C ,  6-H ) :   0.7610
B(  0-C ,  7-H ) :   0.8196 B(  1-C ,  2-H ) :   0.6534 B(  1-C ,  3-H ) :   0.6470
B(  1-C ,  4-H ) :   0.6500 B(  1-C ,  5-H ) :   0.1998 B(  1-C ,  6-H ) :   0.2070
B(  1-C ,  7-H ) :   0.1833

Dispersion correction           -0.006865827
FINAL SINGLE POINT ENERGY       -79.696040539091

DIPOLE MOMENT
-------------
                                X             Y             Z
Electronic contribution:     -0.12618      -0.01974      -0.00325
Nuclear contribution   :      0.12022       0.00247       0.00249
                        -----------------------------------------
Total Dipole Moment    :     -0.00596      -0.01727      -0.00076
                        -----------------------------------------
Magnitude (a.u.)       :      0.01829
Magnitude (Debye)      :      0.04648

Rotational constants in cm-1:     2.844858     0.716988     0.713720
Rotational constants in MHz : 85286.697487 21494.771942 21396.773512

                             ****ORCA TERMINATED NORMALLY****
TOTAL RUN TIME: 0 days 0 hours 0 minutes 2 seconds 658 msec
