                         Program Version 5.0.0 -  RELEASE  -
|  1> !wB97X-D3 RIJCOSX def2-SVPD def2/J TightSCF
|  2> *xyz -1 1
|  3> C          3.38093        2.08304       -3.35013
|  4> C          2.49556        1.81615       -2.13636
|  5> C          1.87218        0.42790       -2.07750
|  6> H          2.61427       -0.36583       -2.19889
|  7> H          1.38995        0.27309       -1.11236
|  8> S          0.57902        0.14047       -3.29794
|  9> O          0.22886       -1.24687       -3.12787
| 10> O         -0.43927        1.11897       -3.01455
| 11> O          1.24788        0.40347       -4.59565
| 12> H          1.69700        2.56197       -2.14111
| 13> H          3.08079        1.98744       -1.22584
| 14> H          2.81820        1.91840       -4.24519
| 15> H          4.22171        1.42153       -3.33067
| 16> H          3.72372        3.09635       -3.32565
| 17> *
| 18>
| 19> %MaxCore 64000
| 20>
| 21> %pal nprocs 8
| 22> end
| 23>
| 24> %scf
| 25>   MaxIter 150
| 26> end
| 27>
| 28>
| 29>                          ****END OF INPUT****

CARTESIAN COORDINATES (ANGSTROEM)
---------------------------------
  C      3.380930    2.083040   -3.350130
  C      2.495560    1.816150   -2.136360
  C      1.872180    0.427900   -2.077500
  H      2.614270   -0.365830   -2.198890
  H      1.389950    0.273090   -1.112360
  S      0.579020    0.140470   -3.297940
  O      0.228860   -1.246870   -3.127870
  O     -0.439270    1.118970   -3.014550
  O      1.247880    0.403470   -4.595650
  H      1.697000    2.561970   -2.141110
  H      3.080790    1.987440   -1.225840
  H      2.818200    1.918400   -4.245190
  H      4.221710    1.421530   -3.330670
  H      3.723720    3.096350   -3.325650

 Total Charge           Charge          ....   -1
 Multiplicity           Mult            ....    1
 Number of Electrons    NEL             ....   66
 Basis Dimension        Dim             ....  212

ORBITAL ENERGIES
----------------

  NO   OCC          E(Eh)            E(eV)
   0   2.0000     -88.979761     -2421.2624
   1   2.0000     -19.030972      -517.8591
   2   2.0000     -19.030756      -517.8532
   3   2.0000     -19.016741      -517.4718
   4   2.0000     -10.157810      -276.4081
   5   2.0000     -10.151955      -276.2487
   6   2.0000     -10.136282      -275.8223
   7   2.0000      -8.053230      -219.1395
   8   2.0000      -6.012761      -163.6155
   9   2.0000      -6.012728      -163.6147
  10   2.0000      -6.012271      -163.6022
  11   2.0000      -1.054137       -28.6845
  12   2.0000      -0.913766       -24.8648
  13   2.0000      -0.888197       -24.1691
  14   2.0000      -0.767735       -20.8911
  15   2.0000      -0.674914       -18.3654
  16   2.0000      -0.574096       -15.6219
  17   2.0000      -0.490636       -13.3509
  18   2.0000      -0.439052       -11.9472
  19   2.0000      -0.420559       -11.4440
  20   2.0000      -0.396228       -10.7819
  21   2.0000      -0.381531       -10.3820
  22   2.0000      -0.371962       -10.1216
  23   2.0000      -0.357111        -9.7175
  24   2.0000      -0.315338        -8.5808
  25   2.0000      -0.308360        -8.3909
  26   2.0000      -0.296150        -8.0587
  27   2.0000      -0.256435        -6.9779
  28   2.0000      -0.254982        -6.9384
  29   2.0000      -0.218835        -5.9548
  30   2.0000      -0.207595        -5.6490
  31   2.0000      -0.193904        -5.2764
  32   2.0000      -0.165307        -4.4982
  33   0.0000       0.204808         5.5731
  34   0.0000       0.225095         6.1251
  35   0.0000       0.227592         6.1931
  36   0.0000       0.233543         6.3550
  37   0.0000       0.252870         6.8809

MULLIKEN ATOMIC CHARGES
-----------------------
   0 C :    0.776007
   1 C :   -0.274005
   2 C :    0.014004
   3 H :   -0.018285
   4 H :   -0.007213
   5 S :    1.396691
   6 O :   -0.815663
   7 O :   -0.801786
   8 O :   -0.861400
   9 H :   -0.012438
  10 H :   -0.129389
  11 H :   -0.217591
  12 H :   -0.019896
  13 H :   -0.029035
Sum of atomic charges:   -1.0000000

LOEWDIN ATOMIC CHARGES
----------------------
   0 C :    0.110852
   1 C :   -0.093169
   2 C :   -0.096374
   3 H :    0.010564
   4 H :    0.004053
   5 S :    0.872720
   6 O :   -0.575204
   7 O :   -0.572201
   8 O :   -0.583876
   9 H :    0.018208
  10 H :    0.007656
  11 H :   -0.051726
  12 H :   -0.021430
  13 H :   -0.030071

  Mayer bond orders larger than 0.100000
B(  0-C ,  1-C ) :   1.2325 B(  0-C , 11-H ) :   0.8367 B(  0-C , 12-H ) :   0.7453
B(  0-C , 13-H ) :   0.7407 B(  1-C ,  2-C ) :   1.1716 B(  1-C ,  3-H ) :   0.1198
B(  1-C ,  4-H ) :   0.1239 B(  1-C ,  9-H ) :   0.9100 B(  1-C , 10-H ) :   0.9161
B(  1-C , 11-H ) :   0.2573 B(  1-C , 12-H ) :   0.1956 B(  1-C , 13-H ) :   0.1936
B(  2-C ,  3-H ) :   0.9612 B(  2-C ,  4-H ) :   0.9232 B(  2-C ,  5-S ) :   0.9328
B(  2-C ,  9-H ) :   0.1277 B(  2-C , 10-H ) :   0.1003 B(  5-S ,  6-O ) :   1.3599
B(  5-S ,  7-O ) :   1.2986 B(  5-S ,  8-O ) :   1.2605 B(  8-O , 11-H ) :   0.1153
B( 11-H , 12-H ) :   0.1221

Dispersion correction           -0.004485001
FINAL SINGLE POINT ENERGY      -741.971716271477

DIPOLE MOMENT
-------------
                                X             Y             Z
Electronic contribution:     -8.79080      -5.54116      -2.86471
Nuclear contribution   :     10.42821       6.37804       4.08250
                        -----------------------------------------
Total Dipole Moment    :      1.63741       0.83688       1.21780
                        -----------------------------------------
Magnitude (a.u.)       :      2.20556
Magnitude (Debye)      :      5.60610

Rotational constants in cm-1:     0.136992     0.054831     0.052480
Rotational constants in MHz :  4106.928256  1643.799656  1573.299166

                             ****ORCA TERMINATED NORMALLY****
TOTAL RUN TIME: 0 days 0 hours 0 minutes 20 seconds 365 msec
