                         Program Version 5.0.0 -  RELEASE  -
|  1> !wB97X-D3 RIJCOSX def2-SVPD def2/J TightSCF
|  2> *xyz 1 1
|  3> C          3.38093        2.08304       -3.35013
|  4> N          4.53592        1.18245       -3.42852
|  5> C          2.49556        1.81615       -2.13636
|  6> C          1.87218        0.42790       -2.07750
|  7> C          4.67196        0.12227       -4.22060
|  8> N          5.86602       -0.50785       -4.22428
|  9> N          3.69888       -0.31284       -4.98699
| 10> H          2.73141       -0.05009       -4.84900
| 11> H          3.89005       -1.05517       -5.64373
| 12> H          5.25193        1.30346       -2.72101
| 13> H          6.69516       -0.06232       -3.85160
| 14> H          5.97538       -1.39688       -4.69141
| 15> H          1.69700        2.56197       -2.14111
| 16> H          3.08079        1.98744       -1.22584
| 17> H          2.80646        1.98651       -4.26848
| 18> H          3.77871        3.09828       -3.30738
| 19> H          1.29954        0.25615       -2.96490
| 20> H          1.23321        0.35984       -1.22194
| 21> H          2.64581       -0.30765       -2.00430
| 22> *
| 23>
| 24> %MaxCore 64000
| 25>
| 26> %pal nprocs 8
| 27> end
| 28>
| 29> %scf
| 30>   MaxIter 150
| 31> end
| 32>
| 33>
| 34>                          ****END OF INPUT****

CARTESIAN COORDINATES (ANGSTROEM)
---------------------------------
  C      3.380930    2.083040   -3.350130
  N      4.535920    1.182450   -3.428520
  C      2.495560    1.816150   -2.136360
  C      1.872180    0.427900   -2.077500
  C      4.671960    0.122270   -4.220600
  N      5.866020   -0.507850   -4.224280
  N      3.698880   -0.312840   -4.986990
  H      2.731410   -0.050090   -4.849000
  H      3.890050   -1.055170   -5.643730
  H      5.251930    1.303460   -2.721010
  H      6.695160   -0.062320   -3.851600
  H      5.975380   -1.396880   -4.691410
  H      1.697000    2.561970   -2.141110
  H      3.080790    1.987440   -1.225840
  H      2.806460    1.986510   -4.268480
  H      3.778710    3.098280   -3.307380
  H      1.299540    0.256150   -2.964900
  H      1.233210    0.359840   -1.221940
  H      2.645810   -0.307650   -2.004300

 Total Charge           Charge          ....    1
 Multiplicity           Mult            ....    1
 Number of Electrons    NEL             ....   56
 Basis Dimension        Dim             ....  236

ORBITAL ENERGIES
----------------

  NO   OCC          E(Eh)            E(eV)
   0   2.0000     -14.661679      -398.9646
   1   2.0000     -14.657606      -398.8537
   2   2.0000     -14.655073      -398.7848
   3   2.0000     -10.627788      -289.1968
   4   2.0000     -10.491359      -285.4844
   5   2.0000     -10.430996      -283.8418
   6   2.0000     -10.410139      -283.2743
   7   2.0000      -1.323090       -36.0031
   8   2.0000      -1.210693       -32.9446
   9   2.0000      -1.195535       -32.5322
  10   2.0000      -1.050996       -28.5991
  11   2.0000      -0.973925       -26.5018
  12   2.0000      -0.930850       -25.3297
  13   2.0000      -0.891555       -24.2604
  14   2.0000      -0.867931       -23.6176
  15   2.0000      -0.833507       -22.6809
  16   2.0000      -0.796292       -21.6682
  17   2.0000      -0.790587       -21.5130
  18   2.0000      -0.742835       -20.2136
  19   2.0000      -0.733510       -19.9598
  20   2.0000      -0.700598       -19.0643
  21   2.0000      -0.678431       -18.4611
  22   2.0000      -0.652290       -17.7497
  23   2.0000      -0.607145       -16.5213
  24   2.0000      -0.584894       -15.9158
  25   2.0000      -0.577181       -15.7059
  26   2.0000      -0.570010       -15.5108
  27   2.0000      -0.534764       -14.5517
  28   0.0000      -0.085628        -2.3301
  29   0.0000      -0.071197        -1.9374
  30   0.0000      -0.038982        -1.0608
  31   0.0000      -0.030240        -0.8229
  32   0.0000      -0.010750        -0.2925

MULLIKEN ATOMIC CHARGES
-----------------------
   0 C :    0.756810
   1 N :   -0.583266
   2 C :   -0.370013
   3 C :    0.702990
   4 C :    1.529271
   5 N :   -0.166934
   6 N :   -0.055396
   7 H :   -0.083677
   8 H :   -0.070818
   9 H :   -0.193913
  10 H :   -0.037296
  11 H :    0.011212
  12 H :    0.003654
  13 H :   -0.028777
  14 H :   -0.051569
  15 H :   -0.187331
  16 H :   -0.053871
  17 H :   -0.105901
  18 H :   -0.015177
Sum of atomic charges:    1.0000000

LOEWDIN ATOMIC CHARGES
----------------------
   0 C :    0.081962
   1 N :    0.041059
   2 C :   -0.055539
   3 C :    0.127823
   4 C :   -0.024782
   5 N :    0.250547
   6 N :    0.277356
   7 H :    0.021283
   8 H :    0.045106
   9 H :    0.063295
  10 H :    0.038220
  11 H :    0.035266
  12 H :    0.038078
  13 H :    0.032029
  14 H :    0.025965
  15 H :    0.041315
  16 H :   -0.018970
  17 H :    0.000165
  18 H :   -0.020180

  Mayer bond orders larger than 0.100000
B(  0-C ,  1-N ) :   0.8831 B(  0-C ,  2-C ) :   1.0919 B(  0-C ,  9-H ) :  -0.1825
B(  0-C , 12-H ) :   0.1054 B(  0-C , 13-H ) :   0.1105 B(  0-C , 14-H ) :   0.7684
B(  0-C , 15-H ) :   0.9524 B(  1-N ,  4-C ) :   0.9252 B(  1-N ,  5-N ) :   0.2658
B(  1-N ,  6-N ) :   0.2667 B(  1-N ,  9-H ) :   1.3439 B(  1-N , 14-H ) :   0.1568
B(  1-N , 15-H ) :   0.1381 B(  2-C ,  3-C ) :   1.2874 B(  2-C , 12-H ) :   0.9315
B(  2-C , 13-H ) :   0.9355 B(  2-C , 14-H ) :   0.1165 B(  2-C , 16-H ) :   0.2126
B(  2-C , 17-H ) :   0.1951 B(  2-C , 18-H ) :   0.2133 B(  3-C , 16-H ) :   0.7876
B(  3-C , 17-H ) :   0.8534 B(  3-C , 18-H ) :   0.7813 B(  4-C ,  5-N ) :   0.7925
B(  4-C ,  6-N ) :   0.9105 B(  4-C ,  7-H ) :  -0.1656 B(  4-C ,  8-H ) :  -0.1793
B(  4-C ,  9-H ) :  -0.2393 B(  4-C , 10-H ) :  -0.1511 B(  5-N ,  6-N ) :   0.1775
B(  5-N , 10-H ) :   1.1898 B(  5-N , 11-H ) :   1.1607 B(  6-N ,  7-H ) :   1.1596
B(  6-N ,  8-H ) :   1.2938 B(  7-H ,  8-H ) :  -0.2174 B( 10-H , 11-H ) :  -0.1637
B( 14-H , 15-H ) :  -0.1110 B( 16-H , 18-H ) :   0.1020

Dispersion correction           -0.005588697
FINAL SINGLE POINT ENERGY      -323.420636720971

DIPOLE MOMENT
-------------
                                X             Y             Z
Electronic contribution:      5.31032      -1.47069      -3.78800
Nuclear contribution   :     -4.20917       0.72396       2.93051
                        -----------------------------------------
Total Dipole Moment    :      1.10115      -0.74673      -0.85749
                        -----------------------------------------
Magnitude (a.u.)       :      1.58285
Magnitude (Debye)      :      4.02329

Rotational constants in cm-1:     0.153116     0.051500     0.046494
Rotational constants in MHz :  4590.307026  1543.937577  1393.864628

                             ****ORCA TERMINATED NORMALLY****
TOTAL RUN TIME: 0 days 0 hours 0 minutes 29 seconds 425 msec
