                         Program Version 5.0.0 -  RELEASE  -
|  1> !wB97X-D3 RIJCOSX def2-SVPD def2/J TightSCF
|  2> *xyz 0 1
|  3> C          3.38093        2.08304       -3.35013
|  4> C          2.49556        1.81615       -2.13636
|  5> C          1.87218        0.42790       -2.07750
|  6> H          2.61427       -0.36583       -2.19889
|  7> H          1.38995        0.27309       -1.11236
|  8> S          0.57902        0.14047       -3.29794
|  9> F          0.22886       -1.24687       -3.12787
| 10> O         -0.43927        1.11897       -3.01455
| 11> O          1.24788        0.40347       -4.59565
| 12> H          1.69700        2.56197       -2.14111
| 13> H          3.08079        1.98744       -1.22584
| 14> H          2.81820        1.91840       -4.24519
| 15> H          4.22171        1.42153       -3.33067
| 16> H          3.72372        3.09635       -3.32565
| 17> *
| 18>
| 19> %MaxCore 64000
| 20>
| 21> %pal nprocs 8
| 22> end
| 23>
| 24> %scf
| 25>   MaxIter 150
| 26> end
| 27>
| 28>
| 29>                          ****END OF INPUT****

CARTESIAN COORDINATES (ANGSTROEM)
---------------------------------
  C      3.380930    2.083040   -3.350130
  C      2.495560    1.816150   -2.136360
  C      1.872180    0.427900   -2.077500
  H      2.614270   -0.365830   -2.198890
  H      1.389950    0.273090   -1.112360
  S      0.579020    0.140470   -3.297940
  F      0.228860   -1.246870   -3.127870
  O     -0.439270    1.118970   -3.014550
  O      1.247880    0.403470   -4.595650
  H      1.697000    2.561970   -2.141110
  H      3.080790    1.987440   -1.225840
  H      2.818200    1.918400   -4.245190
  H      4.221710    1.421530   -3.330670
  H      3.723720    3.096350   -3.325650

 Total Charge           Charge          ....    0
 Multiplicity           Mult            ....    1
 Number of Electrons    NEL             ....   66
 Basis Dimension        Dim             ....  212

ORBITAL ENERGIES
----------------

  NO   OCC          E(Eh)            E(eV)
   0   2.0000     -89.237702     -2428.2813
   1   2.0000     -24.925987      -678.2706
   2   2.0000     -19.263092      -524.1754
   3   2.0000     -19.248213      -523.7705
   4   2.0000     -10.351870      -281.6887
   5   2.0000     -10.316459      -280.7251
   6   2.0000     -10.276005      -279.6243
   7   2.0000      -8.312053      -226.1825
   8   2.0000      -6.275786      -170.7728
   9   2.0000      -6.269321      -170.5969
  10   2.0000      -6.267909      -170.5585
  11   2.0000      -1.499095       -40.7924
  12   2.0000      -1.229231       -33.4491
  13   2.0000      -1.121006       -30.5041
  14   2.0000      -0.943633       -25.6776
  15   2.0000      -0.869507       -23.6605
  16   2.0000      -0.819225       -22.2922
  17   2.0000      -0.742844       -20.2138
  18   2.0000      -0.701071       -19.0771
  19   2.0000      -0.688397       -18.7322
  20   2.0000      -0.665203       -18.1011
  21   2.0000      -0.599233       -16.3060
  22   2.0000      -0.589970       -16.0539
  23   2.0000      -0.554800       -15.0969
  24   2.0000      -0.545215       -14.8361
  25   2.0000      -0.532463       -14.4891
  26   2.0000      -0.491307       -13.3692
  27   2.0000      -0.468242       -12.7415
  28   2.0000      -0.467400       -12.7186
  29   2.0000      -0.452080       -12.3017
  30   2.0000      -0.434343       -11.8191
  31   2.0000      -0.409666       -11.1476
  32   2.0000      -0.405074       -11.0226
  33   0.0000       0.064649         1.7592
  34   0.0000       0.087661         2.3854
  35   0.0000       0.095280         2.5927
  36   0.0000       0.099552         2.7089
  37   0.0000       0.119069         3.2400

MULLIKEN ATOMIC CHARGES
-----------------------
   0 C :    0.763528
   1 C :   -0.308065
   2 C :   -0.043719
   3 H :    0.050464
   4 H :    0.070709
   5 S :    1.595137
   6 F :   -0.432314
   7 O :   -0.665497
   8 O :   -0.741867
   9 H :    0.008517
  10 H :   -0.084271
  11 H :   -0.221191
  12 H :    0.002179
  13 H :    0.006392
Sum of atomic charges:   -0.0000000

LOEWDIN ATOMIC CHARGES
----------------------
   0 C :    0.133473
   1 C :   -0.064375
   2 C :   -0.060597
   3 H :    0.027286
   4 H :    0.021051
   5 S :    1.139263
   6 F :   -0.254354
   7 O :   -0.463078
   8 O :   -0.481888
   9 H :    0.031165
  10 H :    0.034024
  11 H :   -0.044116
  12 H :   -0.008597
  13 H :   -0.009258

  Mayer bond orders larger than 0.100000
B(  0-C ,  1-C ) :   1.2551 B(  0-C , 11-H ) :   0.8507 B(  0-C , 12-H ) :   0.7477
B(  0-C , 13-H ) :   0.7501 B(  1-C ,  2-C ) :   1.2197 B(  1-C ,  3-H ) :   0.1187
B(  1-C ,  4-H ) :   0.1315 B(  1-C ,  9-H ) :   0.9096 B(  1-C , 10-H ) :   0.9305
B(  1-C , 11-H ) :   0.2396 B(  1-C , 12-H ) :   0.1897 B(  1-C , 13-H ) :   0.1831
B(  2-C ,  3-H ) :   0.9458 B(  2-C ,  4-H ) :   0.8871 B(  2-C ,  5-S ) :   0.9668
B(  2-C ,  9-H ) :   0.1197 B(  5-S ,  6-F ) :   0.6707 B(  5-S ,  7-O ) :   1.5107
B(  5-S ,  8-O ) :   1.4534 B(  8-O , 11-H ) :   0.1023 B( 11-H , 12-H ) :   0.1222

Dispersion correction           -0.004465404
FINAL SINGLE POINT ENERGY      -766.451622667668

DIPOLE MOMENT
-------------
                                X             Y             Z
Electronic contribution:    -10.67514      -8.91208      -2.81646
Nuclear contribution   :     11.47400       8.34657       4.07449
                        -----------------------------------------
Total Dipole Moment    :      0.79886      -0.56550       1.25803
                        -----------------------------------------
Magnitude (a.u.)       :      1.59393
Magnitude (Debye)      :      4.05144

Rotational constants in cm-1:     0.134491     0.052696     0.050832
Rotational constants in MHz :  4031.952949  1579.780527  1523.918863

                             ****ORCA TERMINATED NORMALLY****
TOTAL RUN TIME: 0 days 0 hours 0 minutes 22 seconds 736 msec
