                         Program Version 5.0.0 -  RELEASE  -
|  1> !wB97X-D3 RIJCOSX def2-SVPD def2/J TightSCF
|  2> *xyz 0 1
|  3> C          3.38093        2.08304       -3.35013
|  4> C          4.53592        1.18245       -3.42852
|  5> C          2.49556        1.81615       -2.13636
|  6> C          1.87218        0.42790       -2.07750
|  7> C          4.67196        0.12227       -4.22060
|  8> N          5.86602       -0.50785       -4.22428
|  9> N          3.69888       -0.31284       -4.98699
| 10> H          2.73141       -0.05009       -4.84900
| 11> H          3.89005       -1.05517       -5.64373
| 12> H          5.25193        1.30346       -2.72101
| 13> H          6.69516       -0.06232       -3.85160
| 14> H          5.97538       -1.39688       -4.69141
| 15> H          1.69700        2.56197       -2.14111
| 16> H          3.08079        1.98744       -1.22584
| 17> H          2.80646        1.98651       -4.26848
| 18> H          3.77871        3.09828       -3.30738
| 19> H          1.29954        0.25615       -2.96490
| 20> H          1.23321        0.35984       -1.22194
| 21> H          2.64581       -0.30765       -2.00430
| 22> *
| 23>
| 24> %MaxCore 64000
| 25>
| 26> %pal nprocs 8
| 27> end
| 28>
| 29> %scf
| 30>   MaxIter 150
| 31> end
| 32>
| 33>
| 34>                          ****END OF INPUT****

CARTESIAN COORDINATES (ANGSTROEM)
---------------------------------
  C      3.380930    2.083040   -3.350130
  C      4.535920    1.182450   -3.428520
  C      2.495560    1.816150   -2.136360
  C      1.872180    0.427900   -2.077500
  C      4.671960    0.122270   -4.220600
  N      5.866020   -0.507850   -4.224280
  N      3.698880   -0.312840   -4.986990
  H      2.731410   -0.050090   -4.849000
  H      3.890050   -1.055170   -5.643730
  H      5.251930    1.303460   -2.721010
  H      6.695160   -0.062320   -3.851600
  H      5.975380   -1.396880   -4.691410
  H      1.697000    2.561970   -2.141110
  H      3.080790    1.987440   -1.225840
  H      2.806460    1.986510   -4.268480
  H      3.778710    3.098280   -3.307380
  H      1.299540    0.256150   -2.964900
  H      1.233210    0.359840   -1.221940
  H      2.645810   -0.307650   -2.004300

 Total Charge           Charge          ....    0
 Multiplicity           Mult            ....    1
 Number of Electrons    NEL             ....   56
 Basis Dimension        Dim             ....  236

ORBITAL ENERGIES
----------------

  NO   OCC          E(Eh)            E(eV)
   0   2.0000     -14.440594      -392.9485
   1   2.0000     -14.433920      -392.7669
   2   2.0000     -10.334851      -281.2256
   3   2.0000     -10.265882      -279.3489
   4   2.0000     -10.261525      -279.2303
   5   2.0000     -10.259814      -279.1837
   6   2.0000     -10.209950      -277.8269
   7   2.0000      -1.071252       -29.1503
   8   2.0000      -0.976076       -26.5604
   9   2.0000      -0.895579       -24.3699
  10   2.0000      -0.829770       -22.5792
  11   2.0000      -0.767322       -20.8799
  12   2.0000      -0.704396       -19.1676
  13   2.0000      -0.668619       -18.1940
  14   2.0000      -0.646622       -17.5955
  15   2.0000      -0.609758       -16.5923
  16   2.0000      -0.580690       -15.8014
  17   2.0000      -0.545039       -14.8313
  18   2.0000      -0.534410       -14.5420
  19   2.0000      -0.514883       -14.0107
  20   2.0000      -0.484986       -13.1971
  21   2.0000      -0.473436       -12.8828
  22   2.0000      -0.446456       -12.1487
  23   2.0000      -0.426827       -11.6146
  24   2.0000      -0.409031       -11.1303
  25   2.0000      -0.403107       -10.9691
  26   2.0000      -0.360134        -9.7997
  27   2.0000      -0.244682        -6.6581
  28   0.0000       0.088283         2.4023
  29   0.0000       0.109185         2.9711
  30   0.0000       0.121243         3.2992
  31   0.0000       0.131107         3.5676
  32   0.0000       0.139526         3.7967

MULLIKEN ATOMIC CHARGES
-----------------------
   0 C :    0.248136
   1 C :   -0.253957
   2 C :   -0.347463
   3 C :    0.712037
   4 C :    1.012543
   5 N :   -0.103766
   6 N :    0.056457
   7 H :   -0.123546
   8 H :   -0.231898
   9 H :   -0.312941
  10 H :   -0.067524
  11 H :   -0.110445
  12 H :   -0.061641
  13 H :   -0.052408
  14 H :   -0.101313
  15 H :   -0.065723
  16 H :   -0.075942
  17 H :   -0.108913
  18 H :   -0.011693
Sum of atomic charges:    0.0000000

LOEWDIN ATOMIC CHARGES
----------------------
   0 C :   -0.060026
   1 C :   -0.035204
   2 C :   -0.084100
   3 C :    0.112403
   4 C :   -0.219580
   5 N :    0.171467
   6 N :    0.195478
   7 H :   -0.008925
   8 H :   -0.002460
   9 H :   -0.045765
  10 H :    0.004907
  11 H :   -0.013569
  12 H :    0.013019
  13 H :    0.021707
  14 H :    0.004900
  15 H :    0.014921
  16 H :   -0.027261
  17 H :   -0.021036
  18 H :   -0.020876

  Mayer bond orders larger than 0.100000
B(  0-C ,  1-C ) :   1.1366 B(  0-C ,  2-C ) :   1.1154 B(  0-C ,  9-H ) :   0.2198
B(  0-C , 12-H ) :   0.1337 B(  0-C , 13-H ) :   0.1383 B(  0-C , 14-H ) :   0.8082
B(  0-C , 15-H ) :   0.8773 B(  1-C ,  4-C ) :   1.6700 B(  1-C ,  5-N ) :   0.4180
B(  1-C ,  6-N ) :   0.2511 B(  1-C ,  9-H ) :   0.8692 B(  1-C , 14-H ) :   0.2262
B(  1-C , 15-H ) :   0.1395 B(  2-C ,  3-C ) :   1.2926 B(  2-C , 12-H ) :   0.9149
B(  2-C , 13-H ) :   0.9240 B(  2-C , 14-H ) :   0.1251 B(  2-C , 16-H ) :   0.2196
B(  2-C , 17-H ) :   0.2087 B(  2-C , 18-H ) :   0.2328 B(  3-C , 12-H ) :   0.1034
B(  3-C , 16-H ) :   0.7915 B(  3-C , 17-H ) :   0.8014 B(  3-C , 18-H ) :   0.7797
B(  4-C ,  5-N ) :   0.7162 B(  4-C ,  6-N ) :   0.9601 B(  4-C ,  8-H ) :  -0.2058
B(  4-C ,  9-H ) :   0.1099 B(  4-C , 10-H ) :  -0.1412 B(  4-C , 14-H ) :  -0.1074
B(  5-N ,  6-N ) :   0.1002 B(  5-N , 10-H ) :   1.2128 B(  5-N , 11-H ) :   1.1703
B(  6-N ,  7-H ) :   1.1292 B(  6-N ,  8-H ) :   1.3712 B(  7-H ,  8-H ) :  -0.2136
B( 10-H , 11-H ) :  -0.1561 B( 16-H , 18-H ) :   0.1158

Dispersion correction           -0.005564286
FINAL SINGLE POINT ENERGY      -306.949127234077

DIPOLE MOMENT
-------------
                                X             Y             Z
Electronic contribution:      4.22103      -1.64394      -3.46735
Nuclear contribution   :     -4.04774       0.83876       2.94666
                        -----------------------------------------
Total Dipole Moment    :      0.17328      -0.80518      -0.52068
                        -----------------------------------------
Magnitude (a.u.)       :      0.97440
Magnitude (Debye)      :      2.47672

Rotational constants in cm-1:     0.155283     0.051523     0.046710
Rotational constants in MHz :  4655.262593  1544.606434  1400.328421

                             ****ORCA TERMINATED NORMALLY****
TOTAL RUN TIME: 0 days 0 hours 0 minutes 28 seconds 101 msec
