                         Program Version 5.0.0 -  RELEASE  -
|  1> !wB97X-D3 RIJCOSX def2-SVPD def2/J TightSCF
|  2> *xyz 0 1
|  3> C          3.38093        2.08304       -3.35013
|  4> C          2.49556        1.81615       -2.13636
|  5> C          1.87218        0.42790       -2.07750
|  6> H          2.61427       -0.36583       -2.19889
|  7> H          1.38995        0.27309       -1.11236
|  8> S          0.57902        0.14047       -3.29794
|  9> O          0.22886       -1.24687       -3.12787
| 10> F         -0.43927        1.11897       -3.01455
| 11> O          1.24788        0.40347       -4.59565
| 12> H          1.69700        2.56197       -2.14111
| 13> H          3.08079        1.98744       -1.22584
| 14> H          2.81820        1.91840       -4.24519
| 15> H          4.22171        1.42153       -3.33067
| 16> H          3.72372        3.09635       -3.32565
| 17> *
| 18>
| 19> %MaxCore 64000
| 20>
| 21> %pal nprocs 8
| 22> end
| 23>
| 24> %scf
| 25>   MaxIter 150
| 26> end
| 27>
| 28>
| 29>                          ****END OF INPUT****

CARTESIAN COORDINATES (ANGSTROEM)
---------------------------------
  C      3.380930    2.083040   -3.350130
  C      2.495560    1.816150   -2.136360
  C      1.872180    0.427900   -2.077500
  H      2.614270   -0.365830   -2.198890
  H      1.389950    0.273090   -1.112360
  S      0.579020    0.140470   -3.297940
  O      0.228860   -1.246870   -3.127870
  F     -0.439270    1.118970   -3.014550
  O      1.247880    0.403470   -4.595650
  H      1.697000    2.561970   -2.141110
  H      3.080790    1.987440   -1.225840
  H      2.818200    1.918400   -4.245190
  H      4.221710    1.421530   -3.330670
  H      3.723720    3.096350   -3.325650

 Total Charge           Charge          ....    0
 Multiplicity           Mult            ....    1
 Number of Electrons    NEL             ....   66
 Basis Dimension        Dim             ....  212

ORBITAL ENERGIES
----------------

  NO   OCC          E(Eh)            E(eV)
   0   2.0000     -89.238023     -2428.2901
   1   2.0000     -24.926313      -678.2795
   2   2.0000     -19.263212      -524.1787
   3   2.0000     -19.248646      -523.7823
   4   2.0000     -10.351783      -281.6863
   5   2.0000     -10.319955      -280.8203
   6   2.0000     -10.279254      -279.7127
   7   2.0000      -8.312280      -226.1886
   8   2.0000      -6.276114      -170.7818
   9   2.0000      -6.269500      -170.6018
  10   2.0000      -6.268110      -170.5640
  11   2.0000      -1.499718       -40.8094
  12   2.0000      -1.228510       -33.4294
  13   2.0000      -1.122115       -30.5343
  14   2.0000      -0.947179       -25.7740
  15   2.0000      -0.866586       -23.5810
  16   2.0000      -0.822592       -22.3839
  17   2.0000      -0.742783       -20.2121
  18   2.0000      -0.707081       -19.2406
  19   2.0000      -0.698290       -19.0014
  20   2.0000      -0.655396       -17.8342
  21   2.0000      -0.596360       -16.2278
  22   2.0000      -0.590838       -16.0775
  23   2.0000      -0.560035       -15.2393
  24   2.0000      -0.548812       -14.9339
  25   2.0000      -0.533268       -14.5110
  26   2.0000      -0.492303       -13.3963
  27   2.0000      -0.474745       -12.9185
  28   2.0000      -0.470244       -12.7960
  29   2.0000      -0.455095       -12.3838
  30   2.0000      -0.433388       -11.7931
  31   2.0000      -0.413138       -11.2420
  32   2.0000      -0.402598       -10.9553
  33   0.0000       0.062885         1.7112
  34   0.0000       0.089348         2.4313
  35   0.0000       0.095680         2.6036
  36   0.0000       0.097863         2.6630
  37   0.0000       0.116708         3.1758

MULLIKEN ATOMIC CHARGES
-----------------------
   0 C :    0.766481
   1 C :   -0.252136
   2 C :   -0.034704
   3 H :    0.045238
   4 H :    0.053946
   5 S :    1.551213
   6 O :   -0.671964
   7 F :   -0.401681
   8 O :   -0.728240
   9 H :   -0.026686
  10 H :   -0.089615
  11 H :   -0.224077
  12 H :    0.006323
  13 H :    0.005902
Sum of atomic charges:    0.0000000

LOEWDIN ATOMIC CHARGES
----------------------
   0 C :    0.131531
   1 C :   -0.079602
   2 C :   -0.050074
   3 H :    0.041278
   4 H :    0.021486
   5 S :    1.136692
   6 O :   -0.463520
   7 F :   -0.251608
   8 O :   -0.477617
   9 H :    0.024075
  10 H :    0.031186
  11 H :   -0.047314
  12 H :   -0.006415
  13 H :   -0.010100

  Mayer bond orders larger than 0.100000
B(  0-C ,  1-C ) :   1.2650 B(  0-C , 11-H ) :   0.8470 B(  0-C , 12-H ) :   0.7517
B(  0-C , 13-H ) :   0.7540 B(  1-C ,  2-C ) :   1.1709 B(  1-C ,  3-H ) :   0.1104
B(  1-C ,  4-H ) :   0.1157 B(  1-C ,  9-H ) :   0.9015 B(  1-C , 10-H ) :   0.9288
B(  1-C , 11-H ) :   0.2445 B(  1-C , 12-H ) :   0.1904 B(  1-C , 13-H ) :   0.1815
B(  2-C ,  3-H ) :   0.9618 B(  2-C ,  4-H ) :   0.9177 B(  2-C ,  5-S ) :   1.0007
B(  2-C ,  9-H ) :   0.1131 B(  5-S ,  6-O ) :   1.5747 B(  5-S ,  7-F ) :   0.6495
B(  5-S ,  8-O ) :   1.4862 B( 11-H , 12-H ) :   0.1201

Dispersion correction           -0.004429326
FINAL SINGLE POINT ENERGY      -766.451288250874

DIPOLE MOMENT
-------------
                                X             Y             Z
Electronic contribution:    -11.80644      -4.82421      -2.61976
Nuclear contribution   :     12.19253       5.80225       3.95262
                        -----------------------------------------
Total Dipole Moment    :      0.38610       0.97804       1.33287
                        -----------------------------------------
Magnitude (a.u.)       :      1.69769
Magnitude (Debye)      :      4.31520

Rotational constants in cm-1:     0.130581     0.053444     0.051914
Rotational constants in MHz :  3914.711139  1602.211061  1556.338643

                             ****ORCA TERMINATED NORMALLY****
TOTAL RUN TIME: 0 days 0 hours 0 minutes 22 seconds 385 msec
