                         Program Version 5.0.0 -  RELEASE  -
|  1> !wB97X-D3 RIJCOSX def2-SVPD def2/J TightSCF
|  2> *xyz 0 1
|  3> C          3.38093        2.08304       -3.35013
|  4> N          4.53592        1.18245       -3.42852
|  5> C          2.49556        1.81615       -2.13636
|  6> C          1.87218        0.42790       -2.07750
|  7> C          4.67196        0.12227       -4.22060
|  8> C          5.86602       -0.50785       -4.22428
|  9> N          3.69888       -0.31284       -4.98699
| 10> H          2.73141       -0.05009       -4.84900
| 11> H          3.89005       -1.05517       -5.64373
| 12> H          5.25193        1.30346       -2.72101
| 13> H          6.69516       -0.06232       -3.85160
| 14> H          5.97538       -1.39688       -4.69141
| 15> H          1.69700        2.56197       -2.14111
| 16> H          3.08079        1.98744       -1.22584
| 17> H          2.80646        1.98651       -4.26848
| 18> H          3.77871        3.09828       -3.30738
| 19> H          1.29954        0.25615       -2.96490
| 20> H          1.23321        0.35984       -1.22194
| 21> H          2.64581       -0.30765       -2.00430
| 22> *
| 23>
| 24> %MaxCore 64000
| 25>
| 26> %pal nprocs 8
| 27> end
| 28>
| 29> %scf
| 30>   MaxIter 150
| 31> end
| 32>
| 33>
| 34>                          ****END OF INPUT****

CARTESIAN COORDINATES (ANGSTROEM)
---------------------------------
  C      3.380930    2.083040   -3.350130
  N      4.535920    1.182450   -3.428520
  C      2.495560    1.816150   -2.136360
  C      1.872180    0.427900   -2.077500
  C      4.671960    0.122270   -4.220600
  C      5.866020   -0.507850   -4.224280
  N      3.698880   -0.312840   -4.986990
  H      2.731410   -0.050090   -4.849000
  H      3.890050   -1.055170   -5.643730
  H      5.251930    1.303460   -2.721010
  H      6.695160   -0.062320   -3.851600
  H      5.975380   -1.396880   -4.691410
  H      1.697000    2.561970   -2.141110
  H      3.080790    1.987440   -1.225840
  H      2.806460    1.986510   -4.268480
  H      3.778710    3.098280   -3.307380
  H      1.299540    0.256150   -2.964900
  H      1.233210    0.359840   -1.221940
  H      2.645810   -0.307650   -2.004300

 Total Charge           Charge          ....    0
 Multiplicity           Mult            ....    1
 Number of Electrons    NEL             ....   56
 Basis Dimension        Dim             ....  236

ORBITAL ENERGIES
----------------

  NO   OCC          E(Eh)            E(eV)
   0   2.0000     -14.439799      -392.9269
   1   2.0000     -14.436520      -392.8377
   2   2.0000     -10.338995      -281.3384
   3   2.0000     -10.328195      -281.0445
   4   2.0000     -10.292891      -280.0838
   5   2.0000     -10.279370      -279.7159
   6   2.0000     -10.195524      -277.4343
   7   2.0000      -1.078631       -29.3510
   8   2.0000      -0.995531       -27.0898
   9   2.0000      -0.902142       -24.5485
  10   2.0000      -0.830205       -22.5910
  11   2.0000      -0.777582       -21.1591
  12   2.0000      -0.708405       -19.2767
  13   2.0000      -0.702109       -19.1054
  14   2.0000      -0.648381       -17.6434
  15   2.0000      -0.600777       -16.3480
  16   2.0000      -0.576278       -15.6813
  17   2.0000      -0.564355       -15.3569
  18   2.0000      -0.551444       -15.0055
  19   2.0000      -0.502623       -13.6771
  20   2.0000      -0.496793       -13.5184
  21   2.0000      -0.486493       -13.2382
  22   2.0000      -0.467800       -12.7295
  23   2.0000      -0.448473       -12.2036
  24   2.0000      -0.441602       -12.0166
  25   2.0000      -0.437640       -11.9088
  26   2.0000      -0.347039        -9.4434
  27   2.0000      -0.243941        -6.6380
  28   0.0000       0.083854         2.2818
  29   0.0000       0.108097         2.9415
  30   0.0000       0.114407         3.1132
  31   0.0000       0.117977         3.2103
  32   0.0000       0.142479         3.8771

MULLIKEN ATOMIC CHARGES
-----------------------
   0 C :    0.766425
   1 N :   -0.465974
   2 C :   -0.352472
   3 C :    0.684085
   4 C :    0.721263
   5 C :    0.437019
   6 N :    0.119658
   7 H :   -0.213452
   8 H :   -0.101939
   9 H :   -0.245659
  10 H :   -0.402147
  11 H :   -0.333085
  12 H :   -0.024704
  13 H :   -0.053224
  14 H :   -0.091009
  15 H :   -0.259047
  16 H :   -0.055179
  17 H :   -0.150305
  18 H :    0.019745
Sum of atomic charges:   -0.0000000

LOEWDIN ATOMIC CHARGES
----------------------
   0 C :    0.052381
   1 N :   -0.014357
   2 C :   -0.076706
   3 C :    0.117220
   4 C :   -0.237488
   5 C :    0.133825
   6 N :    0.193904
   7 H :   -0.020754
   8 H :    0.014681
   9 H :    0.039129
  10 H :   -0.105927
  11 H :   -0.109025
  12 H :    0.018904
  13 H :    0.021278
  14 H :    0.012480
  15 H :    0.018145
  16 H :   -0.024763
  17 H :   -0.017195
  18 H :   -0.015733

  Mayer bond orders larger than 0.100000
B(  0-C ,  1-N ) :   0.9283 B(  0-C ,  2-C ) :   1.0846 B(  0-C ,  9-H ) :  -0.1951
B(  0-C , 12-H ) :   0.1182 B(  0-C , 13-H ) :   0.1246 B(  0-C , 14-H ) :   0.7696
B(  0-C , 15-H ) :   0.9455 B(  1-N ,  4-C ) :   0.9842 B(  1-N ,  5-C ) :   0.2191
B(  1-N ,  6-N ) :   0.1945 B(  1-N ,  9-H ) :   1.2739 B(  1-N , 14-H ) :   0.1867
B(  1-N , 15-H ) :   0.1405 B(  2-C ,  3-C ) :   1.2835 B(  2-C , 12-H ) :   0.9167
B(  2-C , 13-H ) :   0.9254 B(  2-C , 14-H ) :   0.1188 B(  2-C , 16-H ) :   0.2167
B(  2-C , 17-H ) :   0.2017 B(  2-C , 18-H ) :   0.2137 B(  3-C , 16-H ) :   0.7926
B(  3-C , 17-H ) :   0.8335 B(  3-C , 18-H ) :   0.7902 B(  4-C ,  5-C ) :   1.5026
B(  4-C ,  6-N ) :   1.0241 B(  4-C ,  8-H ) :  -0.1021 B(  4-C ,  9-H ) :  -0.2040
B(  4-C , 11-H ) :   0.1885 B(  5-C ,  6-N ) :   0.1865 B(  5-C , 10-H ) :   0.8850
B(  5-C , 11-H ) :   0.7635 B(  6-N ,  7-H ) :   1.1624 B(  6-N ,  8-H ) :   1.2428
B(  6-N , 14-H ) :   0.1049 B(  7-H ,  8-H ) :  -0.2053 B( 14-H , 15-H ) :  -0.1192

Dispersion correction           -0.005635410
FINAL SINGLE POINT ENERGY      -306.937592335745

DIPOLE MOMENT
-------------
                                X             Y             Z
Electronic contribution:      2.67922       0.01824      -2.60483
Nuclear contribution   :     -3.75638       0.46849       2.77235
                        -----------------------------------------
Total Dipole Moment    :     -1.07716       0.48673       0.16751
                        -----------------------------------------
Magnitude (a.u.)       :      1.19384
Magnitude (Debye)      :      3.03449

Rotational constants in cm-1:     0.154609     0.053528     0.048030
Rotational constants in MHz :  4635.053294  1604.739826  1439.897073

                             ****ORCA TERMINATED NORMALLY****
TOTAL RUN TIME: 0 days 0 hours 0 minutes 30 seconds 399 msec
