                         Program Version 5.0.0 -  RELEASE  -
|  1> !wB97X-D3 RIJCOSX def2-SVPD def2/J TightSCF
|  2> *xyz 0 1
|  3> C          3.38093        2.08304       -3.35013
|  4> N          4.53592        1.18245       -3.42852
|  5> C          2.49556        1.81615       -2.13636
|  6> C          1.87218        0.42790       -2.07750
|  7> C          4.67196        0.12227       -4.22060
|  8> N          5.86602       -0.50785       -4.22428
|  9> C          3.69888       -0.31284       -4.98699
| 10> H          2.73141       -0.05009       -4.84900
| 11> H          3.89005       -1.05517       -5.64373
| 12> H          5.25193        1.30346       -2.72101
| 13> H          6.69516       -0.06232       -3.85160
| 14> H          5.97538       -1.39688       -4.69141
| 15> H          1.69700        2.56197       -2.14111
| 16> H          3.08079        1.98744       -1.22584
| 17> H          2.80646        1.98651       -4.26848
| 18> H          3.77871        3.09828       -3.30738
| 19> H          1.29954        0.25615       -2.96490
| 20> H          1.23321        0.35984       -1.22194
| 21> H          2.64581       -0.30765       -2.00430
| 22> *
| 23>
| 24> %MaxCore 64000
| 25>
| 26> %pal nprocs 8
| 27> end
| 28>
| 29> %scf
| 30>   MaxIter 150
| 31> end
| 32>
| 33>
| 34>                          ****END OF INPUT****

CARTESIAN COORDINATES (ANGSTROEM)
---------------------------------
  C      3.380930    2.083040   -3.350130
  N      4.535920    1.182450   -3.428520
  C      2.495560    1.816150   -2.136360
  C      1.872180    0.427900   -2.077500
  C      4.671960    0.122270   -4.220600
  N      5.866020   -0.507850   -4.224280
  C      3.698880   -0.312840   -4.986990
  H      2.731410   -0.050090   -4.849000
  H      3.890050   -1.055170   -5.643730
  H      5.251930    1.303460   -2.721010
  H      6.695160   -0.062320   -3.851600
  H      5.975380   -1.396880   -4.691410
  H      1.697000    2.561970   -2.141110
  H      3.080790    1.987440   -1.225840
  H      2.806460    1.986510   -4.268480
  H      3.778710    3.098280   -3.307380
  H      1.299540    0.256150   -2.964900
  H      1.233210    0.359840   -1.221940
  H      2.645810   -0.307650   -2.004300

 Total Charge           Charge          ....    0
 Multiplicity           Mult            ....    1
 Number of Electrons    NEL             ....   56
 Basis Dimension        Dim             ....  236

ORBITAL ENERGIES
----------------

  NO   OCC          E(Eh)            E(eV)
   0   2.0000     -14.437482      -392.8639
   1   2.0000     -14.434535      -392.7837
   2   2.0000     -10.336602      -281.2732
   3   2.0000     -10.319828      -280.8168
   4   2.0000     -10.285155      -279.8733
   5   2.0000     -10.266342      -279.3614
   6   2.0000     -10.200551      -277.5711
   7   2.0000      -1.072685       -29.1892
   8   2.0000      -0.987389       -26.8682
   9   2.0000      -0.888079       -24.1659
  10   2.0000      -0.826224       -22.4827
  11   2.0000      -0.793685       -21.5973
  12   2.0000      -0.708057       -19.2672
  13   2.0000      -0.667174       -18.1547
  14   2.0000      -0.644735       -17.5441
  15   2.0000      -0.615875       -16.7588
  16   2.0000      -0.566994       -15.4287
  17   2.0000      -0.559474       -15.2241
  18   2.0000      -0.529212       -14.4006
  19   2.0000      -0.510159       -13.8821
  20   2.0000      -0.487759       -13.2726
  21   2.0000      -0.483098       -13.1458
  22   2.0000      -0.468307       -12.7433
  23   2.0000      -0.441237       -12.0067
  24   2.0000      -0.436422       -11.8756
  25   2.0000      -0.424322       -11.5464
  26   2.0000      -0.340403        -9.2628
  27   2.0000      -0.257148        -6.9974
  28   0.0000       0.089067         2.4236
  29   0.0000       0.108806         2.9608
  30   0.0000       0.115602         3.1457
  31   0.0000       0.124617         3.3910
  32   0.0000       0.142509         3.8779

MULLIKEN ATOMIC CHARGES
-----------------------
   0 C :    0.776926
   1 N :   -0.552416
   2 C :   -0.398212
   3 C :    0.698288
   4 C :    0.966341
   5 N :   -0.008623
   6 C :    0.280775
   7 H :   -0.336200
   8 H :   -0.465817
   9 H :   -0.308971
  10 H :   -0.153194
  11 H :   -0.008022
  12 H :   -0.041077
  13 H :   -0.059392
  14 H :    0.013905
  15 H :   -0.231325
  16 H :   -0.012628
  17 H :   -0.150473
  18 H :   -0.009885
Sum of atomic charges:   -0.0000000

LOEWDIN ATOMIC CHARGES
----------------------
   0 C :    0.060136
   1 N :   -0.023169
   2 C :   -0.074640
   3 C :    0.119348
   4 C :   -0.233552
   5 N :    0.174563
   6 C :    0.148744
   7 H :   -0.109011
   8 H :   -0.095013
   9 H :    0.025038
  10 H :   -0.009990
  11 H :    0.003526
  12 H :    0.018639
  13 H :    0.017415
  14 H :    0.018276
  15 H :    0.018193
  16 H :   -0.019909
  17 H :   -0.020132
  18 H :   -0.018463

  Mayer bond orders larger than 0.100000
B(  0-C ,  1-N ) :   0.8780 B(  0-C ,  2-C ) :   1.0716 B(  0-C ,  9-H ) :  -0.1792
B(  0-C , 12-H ) :   0.1162 B(  0-C , 13-H ) :   0.1050 B(  0-C , 14-H ) :   0.7593
B(  0-C , 15-H ) :   0.9347 B(  1-N ,  4-C ) :   0.8325 B(  1-N ,  5-N ) :   0.1805
B(  1-N ,  6-C ) :   0.3771 B(  1-N ,  9-H ) :   1.4082 B(  1-N , 14-H ) :   0.1426
B(  1-N , 15-H ) :   0.1389 B(  2-C ,  3-C ) :   1.2758 B(  2-C , 12-H ) :   0.9326
B(  2-C , 13-H ) :   0.9438 B(  2-C , 14-H ) :   0.1239 B(  2-C , 16-H ) :   0.2137
B(  2-C , 17-H ) :   0.2020 B(  2-C , 18-H ) :   0.2117 B(  3-C , 16-H ) :   0.7904
B(  3-C , 17-H ) :   0.8274 B(  3-C , 18-H ) :   0.8019 B(  4-C ,  5-N ) :   0.9136
B(  4-C ,  6-C ) :   1.5385 B(  4-C ,  8-H ) :   0.2297 B(  4-C ,  9-H ) :  -0.2777
B(  5-N ,  6-C ) :   0.3003 B(  5-N , 10-H ) :   1.1912 B(  5-N , 11-H ) :   1.1186
B(  6-C ,  7-H ) :   0.7187 B(  6-C ,  8-H ) :   0.8430 B(  7-H ,  8-H ) :  -0.1514
B( 10-H , 11-H ) :  -0.1650 B( 14-H , 15-H ) :  -0.1182 B( 16-H , 18-H ) :   0.1072

Dispersion correction           -0.005583955
FINAL SINGLE POINT ENERGY      -306.941828036679

DIPOLE MOMENT
-------------
                                X             Y             Z
Electronic contribution:      4.87072      -0.22240      -1.96461
Nuclear contribution   :     -4.23110       0.51121       2.60527
                        -----------------------------------------
Total Dipole Moment    :      0.63962       0.28881       0.64067
                        -----------------------------------------
Magnitude (a.u.)       :      0.95025
Magnitude (Debye)      :      2.41535

Rotational constants in cm-1:     0.158478     0.052124     0.047173
Rotational constants in MHz :  4751.056263  1562.646208  1414.197352

                             ****ORCA TERMINATED NORMALLY****
TOTAL RUN TIME: 0 days 0 hours 0 minutes 28 seconds 65 msec
