                         Program Version 5.0.0 -  RELEASE  -
|  1> !wB97X-D3 RIJCOSX def2-SVPD def2/J TightSCF xyzfile
|  2>
|  3> *xyzfile 0 1 D4.xyz
|  4>
|  5> %MaxCore 64000
|  6>
|  7> %pal nprocs 18
|  8> end
|  9>
| 10> %scf
| 11>   MaxIter 150
| 12> end
| 13>
| 14>
| 15>                          ****END OF INPUT****

CARTESIAN COORDINATES (ANGSTROEM)
---------------------------------
  C      3.380928    2.083045   -3.350127
  C      4.535924    1.182447   -3.428518
  C      2.495557    1.816150   -2.136364
  C      1.872181    0.427903   -2.077497
  H      2.614270   -0.365825   -2.198894
  H      1.389953    0.273087   -1.112360
  S      0.579024    0.140472   -3.297943
  C      4.671956    0.122273   -4.220598
  N      5.866023   -0.507849   -4.224284
  N      3.698881   -0.312844   -4.986988
  H      2.731405   -0.050091   -4.849000
  H      3.890046   -1.055172   -5.643730
  H      5.251933    1.303459   -2.721014
  H      6.695165   -0.062322   -3.851596
  H      5.975383   -1.396884   -4.691414
  O      0.228860   -1.246868   -3.127871
  F     -0.439269    1.118966   -3.014550
  O      1.247881    0.403474   -4.595647
  H      1.697003    2.561969   -2.141109
  H      3.080787    1.987436   -1.225838
  H      2.806463    1.986511   -4.268484
  H      3.778714    3.098282   -3.307383

 Total Charge           Charge          ....    0
 Multiplicity           Mult            ....    1
 Number of Electrons    NEL             ....   96
 Basis Dimension        Dim             ....  324

ORBITAL ENERGIES
----------------

  NO   OCC          E(Eh)            E(eV)
   0   2.0000     -89.247886     -2428.5584
   1   2.0000     -24.932981      -678.4609
   2   2.0000     -19.270870      -524.3870
   3   2.0000     -19.263906      -524.1975
   4   2.0000     -14.430882      -392.6843
   5   2.0000     -14.412978      -392.1971
   6   2.0000     -10.346197      -281.5343
   7   2.0000     -10.332621      -281.1649
   8   2.0000     -10.304241      -280.3926
   9   2.0000     -10.268994      -279.4335
  10   2.0000     -10.209259      -277.8081
  11   2.0000      -8.321717      -226.4454
  12   2.0000      -6.285517      -171.0376
  13   2.0000      -6.279332      -170.8693
  14   2.0000      -6.277242      -170.8124
  15   2.0000      -1.505882       -40.9771
  16   2.0000      -1.240058       -33.7437
  17   2.0000      -1.138888       -30.9907
  18   2.0000      -1.061609       -28.8879
  19   2.0000      -0.966231       -26.2925
  20   2.0000      -0.943360       -25.6701
  21   2.0000      -0.876120       -23.8404
  22   2.0000      -0.839070       -22.8322
  23   2.0000      -0.794384       -21.6163
  24   2.0000      -0.737093       -20.0573
  25   2.0000      -0.714440       -19.4409
  26   2.0000      -0.702507       -19.1162
  27   2.0000      -0.688414       -18.7327
  28   2.0000      -0.655583       -17.8393
  29   2.0000      -0.637811       -17.3557
  30   2.0000      -0.619482       -16.8570
  31   2.0000      -0.591746       -16.1022
  32   2.0000      -0.585985       -15.9455
  33   2.0000      -0.579660       -15.7733
  34   2.0000      -0.557722       -15.1764
  35   2.0000      -0.542704       -14.7677
  36   2.0000      -0.511006       -13.9052
  37   2.0000      -0.502197       -13.6655
  38   2.0000      -0.500733       -13.6256
  39   2.0000      -0.479636       -13.0516
  40   2.0000      -0.457744       -12.4559
  41   2.0000      -0.445767       -12.1299
  42   2.0000      -0.438991       -11.9456
  43   2.0000      -0.431079       -11.7302
  44   2.0000      -0.422332       -11.4922
  45   2.0000      -0.402650       -10.9567
  46   2.0000      -0.349267        -9.5040
  47   2.0000      -0.244916        -6.6645
  48   0.0000       0.062702         1.7062
  49   0.0000       0.088674         2.4129
  50   0.0000       0.091609         2.4928
  51   0.0000       0.099064         2.6957
  52   0.0000       0.112557         3.0628

MULLIKEN ATOMIC CHARGES
-----------------------
   0 C :    0.336726
   1 C :   -0.143915
   2 C :    0.195778
   3 C :    0.004049
   4 H :    0.115105
   5 H :   -0.044105
   6 S :    1.658064
   7 C :    0.943742
   8 N :   -0.083821
   9 N :    0.448185
  10 H :   -0.374818
  11 H :   -0.233107
  12 H :   -0.393296
  13 H :   -0.088854
  14 H :   -0.108076
  15 O :   -0.667769
  16 F :   -0.478674
  17 O :   -0.857551
  18 H :   -0.006663
  19 H :   -0.019499
  20 H :   -0.076764
  21 H :   -0.124738
Sum of atomic charges:    0.0000000

LOEWDIN ATOMIC CHARGES
----------------------
   0 C :   -0.041982
   1 C :   -0.034442
   2 C :   -0.034596
   3 C :   -0.032151
   4 H :    0.034090
   5 H :    0.021232
   6 S :    1.177137
   7 C :   -0.207989
   8 N :    0.172987
   9 N :    0.226716
  10 H :   -0.137010
  11 H :    0.004827
  12 H :   -0.051686
  13 H :    0.003108
  14 H :   -0.011870
  15 O :   -0.451871
  16 F :   -0.241970
  17 O :   -0.464680
  18 H :    0.020308
  19 H :    0.035579
  20 H :   -0.005742
  21 H :    0.020007

  Mayer bond orders larger than 0.100000
B(  0-C ,  1-C ) :   1.1144 B(  0-C ,  2-C ) :   1.1450 B(  0-C , 12-H ) :   0.2153
B(  0-C , 18-H ) :   0.1682 B(  0-C , 19-H ) :   0.1596 B(  0-C , 20-H ) :   0.8204
B(  0-C , 21-H ) :   0.7957 B(  1-C ,  7-C ) :   1.6254 B(  1-C ,  8-N ) :   0.3963
B(  1-C ,  9-N ) :   0.1903 B(  1-C , 10-H ) :  -0.1066 B(  1-C , 12-H ) :   0.8128
B(  1-C , 20-H ) :   0.2612 B(  1-C , 21-H ) :   0.1276 B(  2-C ,  3-C ) :   1.2323
B(  2-C ,  4-H ) :   0.1313 B(  2-C ,  5-H ) :   0.1522 B(  2-C , 18-H ) :   0.7922
B(  2-C , 19-H ) :   0.7960 B(  2-C , 20-H ) :   0.1463 B(  3-C ,  4-H ) :   0.9627
B(  3-C ,  5-H ) :   0.8162 B(  3-C ,  6-S ) :   0.9834 B(  3-C , 17-O ) :   0.1171
B(  3-C , 18-H ) :   0.1371 B(  3-C , 19-H ) :   0.1143 B(  6-S , 15-O ) :   1.5387
B(  6-S , 16-F ) :   0.5970 B(  6-S , 17-O ) :   1.3630 B(  7-C ,  8-N ) :   0.7326
B(  7-C ,  9-N ) :   1.0230 B(  7-C , 11-H ) :  -0.1915 B(  7-C , 12-H ) :   0.1086
B(  7-C , 13-H ) :  -0.1632 B(  7-C , 20-H ) :  -0.1166 B(  8-N , 12-H ) :   0.1089
B(  8-N , 13-H ) :   1.2324 B(  8-N , 14-H ) :   1.1580 B(  9-N , 10-H ) :   1.1092
B(  9-N , 11-H ) :   1.2295 B(  9-N , 17-O ) :  -0.1007 B( 10-H , 11-H ) :  -0.1959
B( 10-H , 17-O ) :   0.1574 B( 13-H , 14-H ) :  -0.1559

Dispersion correction           -0.009839859
FINAL SINGLE POINT ENERGY      -954.380025651870

DIPOLE MOMENT
-------------
                                X             Y             Z
Electronic contribution:    -16.38916      -2.63408      -0.92881
Nuclear contribution   :     16.65743       2.74852       1.69529
                        -----------------------------------------
Total Dipole Moment    :      0.26827       0.11444       0.76647
                        -----------------------------------------
Magnitude (a.u.)       :      0.82009
Magnitude (Debye)      :      2.08450

Rotational constants in cm-1:     0.059907     0.020458     0.017675
Rotational constants in MHz :  1795.978106   613.328205   529.885290

                             ****ORCA TERMINATED NORMALLY****
TOTAL RUN TIME: 0 days 0 hours 0 minutes 44 seconds 563 msec
