                         Program Version 5.0.0 -  RELEASE  -
|  1> !wB97X-D3 RIJCOSX def2-SVPD def2/J TightSCF xyzfile
|  2>
|  3> *xyzfile 0 1 D5.xyz
|  4>
|  5> %MaxCore 64000
|  6>
|  7> %pal nprocs 18
|  8> end
|  9>
| 10> %scf
| 11>   MaxIter 150
| 12> end
| 13>
| 14>
| 15>                          ****END OF INPUT****

CARTESIAN COORDINATES (ANGSTROEM)
---------------------------------
  C      3.380928    2.083045   -3.350127
  N      4.535924    1.182447   -3.428518
  C      2.495557    1.816150   -2.136364
  C      1.872181    0.427903   -2.077497
  H      2.614270   -0.365825   -2.198894
  H      1.389953    0.273087   -1.112360
  S      0.579024    0.140472   -3.297943
  C      4.671956    0.122273   -4.220598
  C      5.866023   -0.507849   -4.224284
  N      3.698881   -0.312844   -4.986988
  H      2.731405   -0.050091   -4.849000
  H      3.890046   -1.055172   -5.643730
  H      5.251933    1.303459   -2.721014
  H      6.695165   -0.062322   -3.851596
  H      5.975383   -1.396884   -4.691414
  O      0.228860   -1.246868   -3.127871
  F     -0.439269    1.118966   -3.014550
  O      1.247881    0.403474   -4.595647
  H      1.697003    2.561969   -2.141109
  H      3.080787    1.987436   -1.225838
  H      2.806463    1.986511   -4.268484
  H      3.778714    3.098282   -3.307383

 Total Charge           Charge          ....    0
 Multiplicity           Mult            ....    1
 Number of Electrons    NEL             ....   96
 Basis Dimension        Dim             ....  324

ORBITAL ENERGIES
----------------

  NO   OCC          E(Eh)            E(eV)
   0   2.0000     -89.261075     -2428.9173
   1   2.0000     -24.945502      -678.8016
   2   2.0000     -19.282381      -524.7003
   3   2.0000     -19.276280      -524.5343
   4   2.0000     -14.439803      -392.9270
   5   2.0000     -14.409540      -392.1035
   6   2.0000     -10.365328      -282.0549
   7   2.0000     -10.336776      -281.2780
   8   2.0000     -10.332203      -281.1535
   9   2.0000     -10.331082      -281.1230
  10   2.0000     -10.188356      -277.2393
  11   2.0000      -8.334799      -226.8014
  12   2.0000      -6.298565      -171.3927
  13   2.0000      -6.292337      -171.2232
  14   2.0000      -6.290495      -171.1731
  15   2.0000      -1.518551       -41.3219
  16   2.0000      -1.251963       -34.0676
  17   2.0000      -1.150861       -31.3165
  18   2.0000      -1.072940       -29.1962
  19   2.0000      -0.990114       -26.9424
  20   2.0000      -0.953212       -25.9382
  21   2.0000      -0.883065       -24.0294
  22   2.0000      -0.841467       -22.8975
  23   2.0000      -0.799614       -21.7586
  24   2.0000      -0.747388       -20.3375
  25   2.0000      -0.723479       -19.6869
  26   2.0000      -0.719910       -19.5897
  27   2.0000      -0.701898       -19.0996
  28   2.0000      -0.681629       -18.5481
  29   2.0000      -0.646925       -17.6037
  30   2.0000      -0.614557       -16.7229
  31   2.0000      -0.603082       -16.4107
  32   2.0000      -0.592718       -16.1287
  33   2.0000      -0.583417       -15.8756
  34   2.0000      -0.564684       -15.3658
  35   2.0000      -0.553729       -15.0677
  36   2.0000      -0.521508       -14.1909
  37   2.0000      -0.513858       -13.9828
  38   2.0000      -0.507089       -13.7986
  39   2.0000      -0.489822       -13.3287
  40   2.0000      -0.481375       -13.0989
  41   2.0000      -0.463956       -12.6249
  42   2.0000      -0.451586       -12.2883
  43   2.0000      -0.439883       -11.9698
  44   2.0000      -0.435372       -11.8471
  45   2.0000      -0.428995       -11.6735
  46   2.0000      -0.341525        -9.2934
  47   2.0000      -0.237864        -6.4726
  48   0.0000       0.052067         1.4168
  49   0.0000       0.077732         2.1152
  50   0.0000       0.086304         2.3484
  51   0.0000       0.091262         2.4834
  52   0.0000       0.100305         2.7294

MULLIKEN ATOMIC CHARGES
-----------------------
   0 C :    0.908217
   1 N :   -0.434703
   2 C :    0.144248
   3 C :    0.017074
   4 H :    0.170001
   5 H :   -0.084885
   6 S :    1.647363
   7 C :    0.539535
   8 C :    0.399969
   9 N :    0.578417
  10 H :   -0.474336
  11 H :   -0.155842
  12 H :   -0.226454
  13 H :   -0.387754
  14 H :   -0.282813
  15 O :   -0.658233
  16 F :   -0.470795
  17 O :   -0.863015
  18 H :    0.004925
  19 H :   -0.027671
  20 H :   -0.046477
  21 H :   -0.296770
Sum of atomic charges:   -0.0000000

LOEWDIN ATOMIC CHARGES
----------------------
   0 C :    0.073541
   1 N :   -0.011486
   2 C :   -0.025302
   3 C :   -0.030188
   4 H :    0.039143
   5 H :    0.023824
   6 S :    1.178668
   7 C :   -0.234279
   8 C :    0.129124
   9 N :    0.225783
  10 H :   -0.145396
  11 H :    0.020925
  12 H :    0.036731
  13 H :   -0.110606
  14 H :   -0.109217
  15 O :   -0.443433
  16 F :   -0.240808
  17 O :   -0.464871
  18 H :    0.026145
  19 H :    0.035023
  20 H :    0.001601
  21 H :    0.025078

  Mayer bond orders larger than 0.100000
B(  0-C ,  1-N ) :   0.9023 B(  0-C ,  2-C ) :   1.1055 B(  0-C , 12-H ) :  -0.1807
B(  0-C , 18-H ) :   0.1445 B(  0-C , 19-H ) :   0.1324 B(  0-C , 20-H ) :   0.7582
B(  0-C , 21-H ) :   0.8835 B(  1-N ,  7-C ) :   0.9992 B(  1-N ,  8-C ) :   0.2183
B(  1-N ,  9-N ) :   0.1175 B(  1-N , 12-H ) :   1.2531 B(  1-N , 20-H ) :   0.2327
B(  1-N , 21-H ) :   0.1445 B(  2-C ,  3-C ) :   1.2136 B(  2-C ,  4-H ) :   0.1280
B(  2-C ,  5-H ) :   0.1487 B(  2-C , 18-H ) :   0.8353 B(  2-C , 19-H ) :   0.8207
B(  2-C , 20-H ) :   0.1377 B(  3-C ,  4-H ) :   0.9203 B(  3-C ,  5-H ) :   0.8437
B(  3-C ,  6-S ) :   0.9884 B(  3-C , 17-O ) :   0.1186 B(  3-C , 18-H ) :   0.1162
B(  3-C , 19-H ) :   0.1032 B(  6-S , 15-O ) :   1.5479 B(  6-S , 16-F ) :   0.6098
B(  6-S , 17-O ) :   1.3672 B(  7-C ,  8-C ) :   1.5544 B(  7-C ,  9-N ) :   1.0901
B(  7-C , 12-H ) :  -0.1852 B(  7-C , 13-H ) :   0.1111 B(  7-C , 14-H ) :   0.1951
B(  8-C ,  9-N ) :   0.1436 B(  8-C , 13-H ) :   0.7800 B(  8-C , 14-H ) :   0.7940
B(  9-N , 10-H ) :   0.9514 B(  9-N , 11-H ) :   1.1517 B(  9-N , 17-O ) :  -0.1043
B(  9-N , 20-H ) :   0.1086 B( 10-H , 11-H ) :  -0.2171 B( 10-H , 17-O ) :   0.1728
B( 13-H , 14-H ) :   0.1300 B( 20-H , 21-H ) :  -0.1252

Dispersion correction           -0.009879548
FINAL SINGLE POINT ENERGY      -954.362248104759

DIPOLE MOMENT
-------------
                                X             Y             Z
Electronic contribution:    -17.86468      -1.16191      -0.14133
Nuclear contribution   :     16.78714       2.58368       1.61768
                        -----------------------------------------
Total Dipole Moment    :     -1.07754       1.42177       1.47636
                        -----------------------------------------
Magnitude (a.u.)       :      2.31564
Magnitude (Debye)      :      5.88588

Rotational constants in cm-1:     0.059928     0.020911     0.017993
Rotational constants in MHz :  1796.610847   626.896941   539.414615

                             ****ORCA TERMINATED NORMALLY****
TOTAL RUN TIME: 0 days 0 hours 0 minutes 53 seconds 868 msec
