                         Program Version 5.0.0 -  RELEASE  -
|  1> !wB97X-D3 RIJCOSX def2-SVPD def2/J TightSCF xyzfile
|  2>
|  3> *xyzfile 0 1 D7.xyz
|  4>
|  5> %MaxCore 64000
|  6>
|  7> %pal nprocs 18
|  8> end
|  9>
| 10> %scf
| 11>   MaxIter 150
| 12> end
| 13>
| 14>
| 15>                          ****END OF INPUT****

CARTESIAN COORDINATES (ANGSTROEM)
---------------------------------
  C      3.380928    2.083045   -3.350127
  C      4.535924    1.182447   -3.428518
  C      2.495557    1.816150   -2.136364
  C      1.872181    0.427903   -2.077497
  H      2.614270   -0.365825   -2.198894
  H      1.389953    0.273087   -1.112360
  S      0.579024    0.140472   -3.297943
  C      4.671956    0.122273   -4.220598
  N      5.866023   -0.507849   -4.224284
  N      3.698881   -0.312844   -4.986988
  H      2.731405   -0.050091   -4.849000
  H      3.890046   -1.055172   -5.643730
  H      5.251933    1.303459   -2.721014
  H      6.695165   -0.062322   -3.851596
  H      5.975383   -1.396884   -4.691414
  O      0.228860   -1.246868   -3.127871
  O     -0.439269    1.118966   -3.014550
  F      1.247881    0.403474   -4.595647
  H      1.697003    2.561969   -2.141109
  H      3.080787    1.987436   -1.225838
  H      2.806463    1.986511   -4.268484
  H      3.778714    3.098282   -3.307383

 Total Charge           Charge          ....    0
 Multiplicity           Mult            ....    1
 Number of Electrons    NEL             ....   96
 Basis Dimension        Dim             ....  324

ORBITAL ENERGIES
----------------

  NO   OCC          E(Eh)            E(eV)
   0   2.0000     -89.237685     -2428.2809
   1   2.0000     -24.920847      -678.1307
   2   2.0000     -19.265458      -524.2398
   3   2.0000     -19.264815      -524.2223
   4   2.0000     -14.444635      -393.0585
   5   2.0000     -14.443696      -393.0329
   6   2.0000     -10.349037      -281.6116
   7   2.0000     -10.342530      -281.4346
   8   2.0000     -10.303737      -280.3789
   9   2.0000     -10.284010      -279.8421
  10   2.0000     -10.224820      -278.2315
  11   2.0000      -8.311893      -226.1781
  12   2.0000      -6.275929      -170.7767
  13   2.0000      -6.269162      -170.5926
  14   2.0000      -6.267522      -170.5480
  15   2.0000      -1.482740       -40.3474
  16   2.0000      -1.242406       -33.8076
  17   2.0000      -1.144522       -31.1440
  18   2.0000      -1.082223       -29.4488
  19   2.0000      -0.987279       -26.8652
  20   2.0000      -0.943873       -25.6841
  21   2.0000      -0.879973       -23.9453
  22   2.0000      -0.844053       -22.9679
  23   2.0000      -0.799624       -21.7589
  24   2.0000      -0.754979       -20.5440
  25   2.0000      -0.708067       -19.2675
  26   2.0000      -0.696847       -18.9622
  27   2.0000      -0.681992       -18.5579
  28   2.0000      -0.660283       -17.9672
  29   2.0000      -0.653793       -17.7906
  30   2.0000      -0.618587       -16.8326
  31   2.0000      -0.600092       -16.3293
  32   2.0000      -0.582860       -15.8604
  33   2.0000      -0.576967       -15.7001
  34   2.0000      -0.564330       -15.3562
  35   2.0000      -0.557889       -15.1809
  36   2.0000      -0.514321       -13.9954
  37   2.0000      -0.510473       -13.8907
  38   2.0000      -0.508980       -13.8500
  39   2.0000      -0.488959       -13.3052
  40   2.0000      -0.462803       -12.5935
  41   2.0000      -0.450046       -12.2464
  42   2.0000      -0.441531       -12.0147
  43   2.0000      -0.435079       -11.8391
  44   2.0000      -0.425257       -11.5718
  45   2.0000      -0.417513       -11.3611
  46   2.0000      -0.369796       -10.0627
  47   2.0000      -0.260397        -7.0858
  48   0.0000       0.069895         1.9020
  49   0.0000       0.087852         2.3906
  50   0.0000       0.089297         2.4299
  51   0.0000       0.101822         2.7707
  52   0.0000       0.115918         3.1543

MULLIKEN ATOMIC CHARGES
-----------------------
   0 C :    0.335548
   1 C :   -0.117008
   2 C :    0.179503
   3 C :    0.055601
   4 H :    0.097336
   5 H :   -0.041901
   6 S :    1.503057
   7 C :    0.964124
   8 N :   -0.088162
   9 N :    0.427062
  10 H :   -0.330003
  11 H :   -0.223135
  12 H :   -0.373207
  13 H :   -0.086723
  14 H :   -0.103482
  15 O :   -0.687566
  16 O :   -0.718073
  17 F :   -0.537987
  18 H :    0.022693
  19 H :   -0.001097
  20 H :   -0.156688
  21 H :   -0.119891
Sum of atomic charges:   -0.0000000

LOEWDIN ATOMIC CHARGES
----------------------
   0 C :   -0.041668
   1 C :   -0.029914
   2 C :   -0.032138
   3 C :   -0.033542
   4 H :    0.021888
   5 H :    0.034174
   6 S :    1.134785
   7 C :   -0.207701
   8 N :    0.175954
   9 N :    0.222153
  10 H :   -0.097444
  11 H :    0.008542
  12 H :   -0.045690
  13 H :    0.006634
  14 H :   -0.009779
  15 O :   -0.457571
  16 O :   -0.452086
  17 F :   -0.279528
  18 H :    0.025141
  19 H :    0.036765
  20 H :   -0.002708
  21 H :    0.023731

  Mayer bond orders larger than 0.100000
B(  0-C ,  1-C ) :   1.1061 B(  0-C ,  2-C ) :   1.1481 B(  0-C , 12-H ) :   0.2084
B(  0-C , 18-H ) :   0.1596 B(  0-C , 19-H ) :   0.1675 B(  0-C , 20-H ) :   0.8128
B(  0-C , 21-H ) :   0.8144 B(  1-C ,  7-C ) :   1.6470 B(  1-C ,  8-N ) :   0.3978
B(  1-C ,  9-N ) :   0.1960 B(  1-C , 10-H ) :  -0.1092 B(  1-C , 12-H ) :   0.8102
B(  1-C , 20-H ) :   0.2533 B(  1-C , 21-H ) :   0.1246 B(  2-C ,  3-C ) :   1.2572
B(  2-C ,  4-H ) :   0.1420 B(  2-C ,  5-H ) :   0.1596 B(  2-C , 18-H ) :   0.8165
B(  2-C , 19-H ) :   0.7771 B(  2-C , 20-H ) :   0.1424 B(  3-C ,  4-H ) :   0.9538
B(  3-C ,  5-H ) :   0.8003 B(  3-C ,  6-S ) :   1.0190 B(  3-C , 18-H ) :   0.1546
B(  3-C , 19-H ) :   0.1241 B(  5-H ,  6-S ) :   0.1026 B(  6-S , 15-O ) :   1.5321
B(  6-S , 16-O ) :   1.5241 B(  6-S , 17-F ) :   0.6306 B(  7-C ,  8-N ) :   0.7260
B(  7-C ,  9-N ) :   0.9951 B(  7-C , 11-H ) :  -0.2034 B(  7-C , 12-H ) :   0.1143
B(  7-C , 13-H ) :  -0.1663 B(  7-C , 20-H ) :  -0.1270 B(  8-N , 12-H ) :   0.1009
B(  8-N , 13-H ) :   1.2307 B(  8-N , 14-H ) :   1.1580 B(  9-N , 10-H ) :   1.1228
B(  9-N , 11-H ) :   1.2473 B( 10-H , 11-H ) :  -0.1753 B( 13-H , 14-H ) :  -0.1561

Dispersion correction           -0.009842883
FINAL SINGLE POINT ENERGY      -954.386534024930

DIPOLE MOMENT
-------------
                                X             Y             Z
Electronic contribution:    -13.17192      -3.82819      -3.63426
Nuclear contribution   :     14.80811       3.53278       3.42836
                        -----------------------------------------
Total Dipole Moment    :      1.63620      -0.29541      -0.20590
                        -----------------------------------------
Magnitude (a.u.)       :      1.67535
Magnitude (Debye)      :      4.25840

Rotational constants in cm-1:     0.059173     0.020923     0.018056
Rotational constants in MHz :  1773.956621   627.264018   541.303397

                             ****ORCA TERMINATED NORMALLY****
TOTAL RUN TIME: 0 days 0 hours 0 minutes 39 seconds 132 msec
