                         Program Version 5.0.0 -  RELEASE  -
|  1> !wB97X-D3 RIJCOSX def2-TZVPD def2/J TightSCF
|  2> *xyz -1 1
|  3> C          0.84888        2.66797       -4.30235
|  4> C          2.09343        1.86104       -4.65684
|  5> H          2.44481        2.04157       -5.67499
|  6> H          2.90175        2.13786       -3.98034
|  7> S          1.87964        0.07859       -4.46297
|  8> O          3.20757       -0.46611       -4.42026
|  9> O          1.07506       -0.05616       -3.26876
| 10> O          1.13166       -0.31996       -5.67903
| 11> H          0.05064        2.40112       -4.96303
| 12> H          1.06043        3.71210       -4.40203
| 13> H          0.56237        2.45684       -3.29327
| 14> *
| 15>
| 16> %MaxCore 64000
| 17>
| 18> %pal nprocs 4
| 19> end
| 20>
| 21> %scf
| 22>   MaxIter 150
| 23> end
| 24>
| 25>
| 26>                          ****END OF INPUT****

CARTESIAN COORDINATES (ANGSTROEM)
---------------------------------
  C      0.848880    2.667970   -4.302350
  C      2.093430    1.861040   -4.656840
  H      2.444810    2.041570   -5.674990
  H      2.901750    2.137860   -3.980340
  S      1.879640    0.078590   -4.462970
  O      3.207570   -0.466110   -4.420260
  O      1.075060   -0.056160   -3.268760
  O      1.131660   -0.319960   -5.679030
  H      0.050640    2.401120   -4.963030
  H      1.060430    3.712100   -4.402030
  H      0.562370    2.456840   -3.293270

 Total Charge           Charge          ....   -1
 Multiplicity           Mult            ....    1
 Number of Electrons    NEL             ....   58
 Basis Dimension        Dim             ....  285

ORBITAL ENERGIES
----------------

  NO   OCC          E(Eh)            E(eV)
   0   2.0000     -88.933454     -2420.0023
   1   2.0000     -19.013468      -517.3828
   2   2.0000     -19.010055      -517.2899
   3   2.0000     -18.997650      -516.9523
   4   2.0000     -10.132986      -275.7326
   5   2.0000     -10.125187      -275.5203
   6   2.0000      -7.996544      -217.5970
   7   2.0000      -5.950894      -161.9321
   8   2.0000      -5.949524      -161.8948
   9   2.0000      -5.949187      -161.8856
  10   2.0000      -1.042329       -28.3632
  11   2.0000      -0.912194       -24.8221
  12   2.0000      -0.886470       -24.1221
  13   2.0000      -0.745733       -20.2924
  14   2.0000      -0.613965       -16.7068
  15   2.0000      -0.486494       -13.2382
  16   2.0000      -0.419141       -11.4054
  17   2.0000      -0.416418       -11.3313
  18   2.0000      -0.374912       -10.2019
  19   2.0000      -0.362310        -9.8589
  20   2.0000      -0.352148        -9.5824
  21   2.0000      -0.323141        -8.7931
  22   2.0000      -0.306802        -8.3485
  23   2.0000      -0.250930        -6.8281
  24   2.0000      -0.250593        -6.8190
  25   2.0000      -0.214046        -5.8245
  26   2.0000      -0.202804        -5.5186
  27   2.0000      -0.192493        -5.2380
  28   2.0000      -0.160070        -4.3557
  29   0.0000       0.176228         4.7954
  30   0.0000       0.185951         5.0600
  31   0.0000       0.187039         5.0896
  32   0.0000       0.193462         5.2644
  33   0.0000       0.222243         6.0475

MULLIKEN ATOMIC CHARGES
-----------------------
   0 C :   -1.172686
   1 C :   -0.363674
   2 H :    0.289586
   3 H :    0.275764
   4 S :    1.180214
   5 O :   -0.687176
   6 O :   -0.706085
   7 O :   -0.738220
   8 H :    0.301443
   9 H :    0.319968
  10 H :    0.300866
Sum of atomic charges:   -1.0000000

LOEWDIN ATOMIC CHARGES
----------------------
   0 C :   -0.153338
   1 C :   -0.326648
   2 H :    0.084563
   3 H :    0.078825
   4 S :    0.346288
   5 O :   -0.387114
   6 O :   -0.388634
   7 O :   -0.422565
   8 H :    0.063432
   9 H :    0.049330
  10 H :    0.055861

  Mayer bond orders larger than 0.100000
B(  0-C ,  1-C ) :   0.7147 B(  0-C ,  4-S ) :   0.1032 B(  0-C ,  8-H ) :   0.9703
B(  0-C ,  9-H ) :   0.9180 B(  0-C , 10-H ) :   0.9855 B(  1-C ,  2-H ) :   0.9436
B(  1-C ,  3-H ) :   0.9539 B(  1-C ,  4-S ) :   0.8424 B(  1-C ,  5-O ) :   0.1332
B(  1-C ,  7-O ) :   0.1236 B(  4-S ,  5-O ) :   1.5304 B(  4-S ,  6-O ) :   1.5280
B(  4-S ,  7-O ) :   1.4900

Dispersion correction           -0.002879580
FINAL SINGLE POINT ENERGY      -703.223713502978

DIPOLE MOMENT
-------------
                                X             Y             Z
Electronic contribution:      1.61540      -7.67008       0.05961
Nuclear contribution   :     -1.55288       9.51857       0.00420
                        -----------------------------------------
Total Dipole Moment    :      0.06252       1.84849       0.06381
                        -----------------------------------------
Magnitude (a.u.)       :      1.85065
Magnitude (Debye)      :      4.70398

Rotational constants in cm-1:     0.163401     0.083833     0.082462
Rotational constants in MHz :  4898.624208  2513.264548  2472.149188

                             ****ORCA TERMINATED NORMALLY****
TOTAL RUN TIME: 0 days 0 hours 1 minutes 7 seconds 627 msec
