                         Program Version 5.0.0 -  RELEASE  -
|  1> !wB97X-D3 RIJCOSX def2-TZVPD def2/J TightSCF
|  2> *xyz 1 1
|  3> C         -0.46129        2.23469       -4.98962
|  4> C          0.84888        2.66797       -4.30235
|  5> C         -0.42384        2.39877       -6.47432
|  6> N         -0.95947        3.49265       -7.00740
|  7> N          0.14558        1.48689       -7.20399
|  8> H          0.56537        0.69681       -6.72386
|  9> H          0.22068        1.58177       -8.20752
| 10> H         -1.40624        4.18151       -6.40326
| 11> H         -0.93421        3.68160       -7.99947
| 12> H         -1.28888        2.82674       -4.59500
| 13> H         -0.65170        1.18634       -4.75655
| 14> H          1.66208        2.08894       -4.68750
| 15> H          0.76716        2.51042       -3.24717
| 16> H          1.02677        3.70527       -4.49537
| 17> *
| 18>
| 19> %MaxCore 64000
| 20>
| 21> %pal nprocs 4
| 22> end
| 23>
| 24> %scf
| 25>   MaxIter 150
| 26> end
| 27>
| 28>
| 29>                          ****END OF INPUT****

CARTESIAN COORDINATES (ANGSTROEM)
---------------------------------
  C     -0.461290    2.234690   -4.989620
  C      0.848880    2.667970   -4.302350
  C     -0.423840    2.398770   -6.474320
  N     -0.959470    3.492650   -7.007400
  N      0.145580    1.486890   -7.203990
  H      0.565370    0.696810   -6.723860
  H      0.220680    1.581770   -8.207520
  H     -1.406240    4.181510   -6.403260
  H     -0.934210    3.681600   -7.999470
  H     -1.288880    2.826740   -4.595000
  H     -0.651700    1.186340   -4.756550
  H      1.662080    2.088940   -4.687500
  H      0.767160    2.510420   -3.247170
  H      1.026770    3.705270   -4.495370

 Total Charge           Charge          ....    1
 Multiplicity           Mult            ....    1
 Number of Electrons    NEL             ....   40
 Basis Dimension        Dim             ....  266

ORBITAL ENERGIES
----------------

  NO   OCC          E(Eh)            E(eV)
   0   2.0000     -14.668834      -399.1593
   1   2.0000     -14.664829      -399.0503
   2   2.0000     -10.600560      -288.4559
   3   2.0000     -10.473851      -285.0080
   4   2.0000     -10.428791      -283.7818
   5   2.0000      -1.322605       -35.9899
   6   2.0000      -1.224849       -33.3298
   7   2.0000      -1.085410       -29.5355
   8   2.0000      -0.972016       -26.4499
   9   2.0000      -0.923623       -25.1331
  10   2.0000      -0.880149       -23.9501
  11   2.0000      -0.855357       -23.2754
  12   2.0000      -0.799063       -21.7436
  13   2.0000      -0.751390       -20.4464
  14   2.0000      -0.723626       -19.6909
  15   2.0000      -0.713500       -19.4153
  16   2.0000      -0.639919       -17.4131
  17   2.0000      -0.630347       -17.1526
  18   2.0000      -0.624145       -16.9838
  19   2.0000      -0.585265       -15.9259
  20   0.0000      -0.127270        -3.4632
  21   0.0000      -0.093819        -2.5529
  22   0.0000      -0.053978        -1.4688
  23   0.0000      -0.050036        -1.3615
  24   0.0000      -0.032506        -0.8845

MULLIKEN ATOMIC CHARGES
-----------------------
   0 C :   -0.528442
   1 C :   -1.087178
   2 C :    0.871328
   3 N :   -0.411621
   4 N :   -0.401067
   5 H :    0.263899
   6 H :    0.214214
   7 H :    0.253768
   8 H :    0.198168
   9 H :    0.298620
  10 H :    0.316489
  11 H :    0.333601
  12 H :    0.340429
  13 H :    0.337792
Sum of atomic charges:    1.0000000

LOEWDIN ATOMIC CHARGES
----------------------
   0 C :   -0.149316
   1 C :   -0.053870
   2 C :   -0.357282
   3 N :    0.219278
   4 N :    0.230443
   5 H :    0.157045
   6 H :    0.153375
   7 H :    0.152183
   8 H :    0.144429
   9 H :    0.127131
  10 H :    0.131726
  11 H :    0.076814
  12 H :    0.086236
  13 H :    0.081810

  Mayer bond orders larger than 0.100000
B(  0-C ,  1-C ) :   0.6887 B(  0-C ,  2-C ) :   0.7596 B(  0-C ,  4-N ) :   0.1082
B(  0-C ,  9-H ) :   0.9683 B(  0-C , 10-H ) :   0.9429 B(  1-C ,  2-C ) :   0.1375
B(  1-C , 11-H ) :   0.9125 B(  1-C , 12-H ) :   0.9560 B(  1-C , 13-H ) :   0.9521
B(  2-C ,  3-N ) :   1.0913 B(  2-C ,  4-N ) :   1.1832 B(  3-N ,  4-N ) :   0.1044
B(  3-N ,  7-H ) :   0.9427 B(  3-N ,  8-H ) :   1.0630 B(  4-N ,  5-H ) :   0.9295
B(  4-N ,  6-H ) :   1.0378

Dispersion correction           -0.003018431
FINAL SINGLE POINT ENERGY      -229.059209739014

DIPOLE MOMENT
-------------
                                X             Y             Z
Electronic contribution:     -1.55535      -0.27079      -3.87272
Nuclear contribution   :      1.33202       0.27544       2.83701
                        -----------------------------------------
Total Dipole Moment    :     -0.22333       0.00465      -1.03571
                        -----------------------------------------
Magnitude (a.u.)       :      1.05953
Magnitude (Debye)      :      2.69310

Rotational constants in cm-1:     0.258570     0.126296     0.098869
Rotational constants in MHz :  7751.748523  3786.267300  2964.011691

                             ****ORCA TERMINATED NORMALLY****
TOTAL RUN TIME: 0 days 0 hours 1 minutes 1 seconds 850 msec
