                         Program Version 5.0.0 -  RELEASE  -
|  1> !wB97X-D3 RIJCOSX def2-TZVPD def2/J TightSCF
|  2> *xyz 0 1
|  3> C          0.84888        2.66797       -4.30235
|  4> C          2.09343        1.86104       -4.65684
|  5> H          2.44481        2.04157       -5.67499
|  6> H          2.90175        2.13786       -3.98034
|  7> S          1.87964        0.07859       -4.46297
|  8> F          3.20757       -0.46611       -4.42026
|  9> O          1.07506       -0.05616       -3.26876
| 10> O          1.13166       -0.31996       -5.67903
| 11> H          0.05064        2.40112       -4.96303
| 12> H          1.06043        3.71210       -4.40203
| 13> H          0.56237        2.45684       -3.29327
| 14> *
| 15>
| 16> %MaxCore 64000
| 17>
| 18> %pal nprocs 4
| 19> end
| 20>
| 21> %scf
| 22>   MaxIter 150
| 23> end
| 24>
| 25>
| 26>                          ****END OF INPUT****

CARTESIAN COORDINATES (ANGSTROEM)
---------------------------------
  C      0.848880    2.667970   -4.302350
  C      2.093430    1.861040   -4.656840
  H      2.444810    2.041570   -5.674990
  H      2.901750    2.137860   -3.980340
  S      1.879640    0.078590   -4.462970
  F      3.207570   -0.466110   -4.420260
  O      1.075060   -0.056160   -3.268760
  O      1.131660   -0.319960   -5.679030
  H      0.050640    2.401120   -4.963030
  H      1.060430    3.712100   -4.402030
  H      0.562370    2.456840   -3.293270

 Total Charge           Charge          ....    0
 Multiplicity           Mult            ....    1
 Number of Electrons    NEL             ....   58
 Basis Dimension        Dim             ....  285

ORBITAL ENERGIES
----------------

  NO   OCC          E(Eh)            E(eV)
   0   2.0000     -89.196683     -2427.1651
   1   2.0000     -24.913129      -677.9207
   2   2.0000     -19.244770      -523.6768
   3   2.0000     -19.232412      -523.3405
   4   2.0000     -10.335178      -281.2345
   5   2.0000     -10.288806      -279.9726
   6   2.0000      -8.260289      -224.7739
   7   2.0000      -6.217531      -169.1876
   8   2.0000      -6.211374      -169.0201
   9   2.0000      -6.210900      -169.0072
  10   2.0000      -1.508490       -41.0481
  11   2.0000      -1.221210       -33.2308
  12   2.0000      -1.119991       -30.4765
  13   2.0000      -0.935977       -25.4692
  14   2.0000      -0.850463       -23.1423
  15   2.0000      -0.784977       -21.3603
  16   2.0000      -0.698494       -19.0070
  17   2.0000      -0.697552       -18.9814
  18   2.0000      -0.661415       -17.9980
  19   2.0000      -0.594728       -16.1834
  20   2.0000      -0.585499       -15.9322
  21   2.0000      -0.542854       -14.7718
  22   2.0000      -0.526775       -14.3343
  23   2.0000      -0.503367       -13.6973
  24   2.0000      -0.484543       -13.1851
  25   2.0000      -0.480436       -13.0733
  26   2.0000      -0.430833       -11.7236
  27   2.0000      -0.415030       -11.2935
  28   2.0000      -0.402524       -10.9532
  29   0.0000       0.048540         1.3208
  30   0.0000       0.063288         1.7222
  31   0.0000       0.068377         1.8606
  32   0.0000       0.072949         1.9850
  33   0.0000       0.099545         2.7087

MULLIKEN ATOMIC CHARGES
-----------------------
   0 C :   -1.222047
   1 C :   -0.384150
   2 H :    0.351467
   3 H :    0.347455
   4 S :    1.185683
   5 F :   -0.109191
   6 O :   -0.584303
   7 O :   -0.605284
   8 H :    0.342837
   9 H :    0.333327
  10 H :    0.344205
Sum of atomic charges:    0.0000000

LOEWDIN ATOMIC CHARGES
----------------------
   0 C :   -0.109385
   1 C :   -0.283028
   2 H :    0.102951
   3 H :    0.095488
   4 S :    0.597372
   5 F :   -0.045368
   6 O :   -0.278234
   7 O :   -0.305793
   8 H :    0.079191
   9 H :    0.075529
  10 H :    0.071277

  Mayer bond orders larger than 0.100000
B(  0-C ,  1-C ) :   0.7830 B(  0-C ,  8-H ) :   0.9346 B(  0-C ,  9-H ) :   0.9197
B(  0-C , 10-H ) :   0.9454 B(  1-C ,  2-H ) :   0.8899 B(  1-C ,  3-H ) :   0.8699
B(  1-C ,  4-S ) :   0.8366 B(  1-C ,  7-O ) :   0.1022 B(  4-S ,  5-F ) :   1.0079
B(  4-S ,  6-O ) :   1.6866 B(  4-S ,  7-O ) :   1.6438

Dispersion correction           -0.002877013
FINAL SINGLE POINT ENERGY      -727.737346894776

DIPOLE MOMENT
-------------
                                X             Y             Z
Electronic contribution:      4.17970      -9.32771       0.10631
Nuclear contribution   :     -3.08754      10.54185      -0.04092
                        -----------------------------------------
Total Dipole Moment    :      1.09216       1.21414       0.06539
                        -----------------------------------------
Magnitude (a.u.)       :      1.63439
Magnitude (Debye)      :      4.15430

Rotational constants in cm-1:     0.158925     0.081210     0.079022
Rotational constants in MHz :  4764.450166  2434.603461  2369.014434

                             ****ORCA TERMINATED NORMALLY****
TOTAL RUN TIME: 0 days 0 hours 1 minutes 10 seconds 755 msec
