                         Program Version 5.0.0 -  RELEASE  -
|  1> !wB97X-D3 RIJCOSX def2-TZVPD def2/J TightSCF
|  2> *xyz 0 1
|  3> C         -0.46129        2.23469       -4.98962
|  4> C          0.84888        2.66797       -4.30235
|  5> C         -0.42384        2.39877       -6.47432
|  6> C         -0.95947        3.49265       -7.00740
|  7> N          0.14558        1.48689       -7.20399
|  8> H          0.56537        0.69681       -6.72386
|  9> H          0.22068        1.58177       -8.20752
| 10> H         -1.40624        4.18151       -6.40326
| 11> H         -0.93421        3.68160       -7.99947
| 12> H         -1.28888        2.82674       -4.59500
| 13> H         -0.65170        1.18634       -4.75655
| 14> H          1.66208        2.08894       -4.68750
| 15> H          0.76716        2.51042       -3.24717
| 16> H          1.02677        3.70527       -4.49537
| 17> *
| 18>
| 19> %MaxCore 64000
| 20>
| 21> %pal nprocs 4
| 22> end
| 23>
| 24> %scf
| 25>   MaxIter 150
| 26> end
| 27>
| 28>
| 29>                          ****END OF INPUT****

CARTESIAN COORDINATES (ANGSTROEM)
---------------------------------
  C     -0.461290    2.234690   -4.989620
  C      0.848880    2.667970   -4.302350
  C     -0.423840    2.398770   -6.474320
  C     -0.959470    3.492650   -7.007400
  N      0.145580    1.486890   -7.203990
  H      0.565370    0.696810   -6.723860
  H      0.220680    1.581770   -8.207520
  H     -1.406240    4.181510   -6.403260
  H     -0.934210    3.681600   -7.999470
  H     -1.288880    2.826740   -4.595000
  H     -0.651700    1.186340   -4.756550
  H      1.662080    2.088940   -4.687500
  H      0.767160    2.510420   -3.247170
  H      1.026770    3.705270   -4.495370

 Total Charge           Charge          ....    0
 Multiplicity           Mult            ....    1
 Number of Electrons    NEL             ....   40
 Basis Dimension        Dim             ....  266

ORBITAL ENERGIES
----------------

  NO   OCC          E(Eh)            E(eV)
   0   2.0000     -14.423753      -392.4903
   1   2.0000     -10.295640      -280.1586
   2   2.0000     -10.274424      -279.5813
   3   2.0000     -10.258824      -279.1568
   4   2.0000     -10.202711      -277.6299
   5   2.0000      -1.053504       -28.6673
   6   2.0000      -0.895161       -24.3586
   7   2.0000      -0.827945       -22.5295
   8   2.0000      -0.747597       -20.3431
   9   2.0000      -0.675708       -18.3870
  10   2.0000      -0.632676       -17.2160
  11   2.0000      -0.582840       -15.8599
  12   2.0000      -0.537764       -14.6333
  13   2.0000      -0.519716       -14.1422
  14   2.0000      -0.489576       -13.3220
  15   2.0000      -0.479224       -13.0403
  16   2.0000      -0.447307       -12.1719
  17   2.0000      -0.428777       -11.6676
  18   2.0000      -0.427113       -11.6223
  19   2.0000      -0.274482        -7.4690
  20   0.0000       0.067008         1.8234
  21   0.0000       0.092428         2.5151
  22   0.0000       0.097233         2.6458
  23   0.0000       0.099212         2.6997
  24   0.0000       0.124347         3.3836

MULLIKEN ATOMIC CHARGES
-----------------------
   0 C :   -0.528428
   1 C :   -1.054571
   2 C :    1.054630
   3 C :   -1.530840
   4 N :   -0.483443
   5 H :    0.201488
   6 H :    0.176585
   7 H :    0.314938
   8 H :    0.349847
   9 H :    0.257016
  10 H :    0.307047
  11 H :    0.303242
  12 H :    0.311839
  13 H :    0.320651
Sum of atomic charges:   -0.0000000

LOEWDIN ATOMIC CHARGES
----------------------
   0 C :   -0.202089
   1 C :   -0.091001
   2 C :   -0.510141
   3 C :    0.015416
   4 N :    0.101044
   5 H :    0.114433
   6 H :    0.119220
   7 H :    0.023136
   8 H :    0.016359
   9 H :    0.110091
  10 H :    0.108098
  11 H :    0.062477
  12 H :    0.062380
  13 H :    0.070576

  Mayer bond orders larger than 0.100000
B(  0-C ,  1-C ) :   0.6674 B(  0-C ,  2-C ) :   0.7356 B(  0-C ,  4-N ) :   0.1233
B(  0-C ,  9-H ) :   0.9833 B(  0-C , 10-H ) :   0.9727 B(  1-C ,  2-C ) :   0.1138
B(  1-C , 11-H ) :   0.9377 B(  1-C , 12-H ) :   0.9508 B(  1-C , 13-H ) :   0.9802
B(  2-C ,  3-C ) :   0.9228 B(  2-C ,  4-N ) :   1.0011 B(  2-C ,  8-H ) :  -0.1141
B(  3-C ,  4-N ) :   0.1364 B(  3-C ,  7-H ) :   0.9717 B(  3-C ,  8-H ) :   0.9735
B(  4-N ,  5-H ) :   0.9966 B(  4-N ,  6-H ) :   1.0296

Dispersion correction           -0.003017054
FINAL SINGLE POINT ENERGY      -212.586005717041

DIPOLE MOMENT
-------------
                                X             Y             Z
Electronic contribution:     -0.71786      -1.17362      -2.57315
Nuclear contribution   :      1.14741       0.51394       2.60761
                        -----------------------------------------
Total Dipole Moment    :      0.42955      -0.65968       0.03446
                        -----------------------------------------
Magnitude (a.u.)       :      0.78796
Magnitude (Debye)      :      2.00284

Rotational constants in cm-1:     0.269157     0.129188     0.102123
Rotational constants in MHz :  8069.118715  3872.945231  3061.580645

                             ****ORCA TERMINATED NORMALLY****
TOTAL RUN TIME: 0 days 0 hours 1 minutes 5 seconds 364 msec
