                         Program Version 5.0.0 -  RELEASE  -
|  1> !wB97X-D3 RIJCOSX def2-TZVPD def2/J TightSCF
|  2> *xyz 0 1
|  3> C          0.84888        2.66797       -4.30235
|  4> C          2.09343        1.86104       -4.65684
|  5> H          2.44481        2.04157       -5.67499
|  6> H          2.90175        2.13786       -3.98034
|  7> S          1.87964        0.07859       -4.46297
|  8> O          3.20757       -0.46611       -4.42026
|  9> F          1.07506       -0.05616       -3.26876
| 10> O          1.13166       -0.31996       -5.67903
| 11> H          0.05064        2.40112       -4.96303
| 12> H          1.06043        3.71210       -4.40203
| 13> H          0.56237        2.45684       -3.29327
| 14> *
| 15>
| 16> %MaxCore 64000
| 17>
| 18> %pal nprocs 4
| 19> end
| 20>
| 21> %scf
| 22>   MaxIter 150
| 23> end
| 24>
| 25>
| 26>                          ****END OF INPUT****

CARTESIAN COORDINATES (ANGSTROEM)
---------------------------------
  C      0.848880    2.667970   -4.302350
  C      2.093430    1.861040   -4.656840
  H      2.444810    2.041570   -5.674990
  H      2.901750    2.137860   -3.980340
  S      1.879640    0.078590   -4.462970
  O      3.207570   -0.466110   -4.420260
  F      1.075060   -0.056160   -3.268760
  O      1.131660   -0.319960   -5.679030
  H      0.050640    2.401120   -4.963030
  H      1.060430    3.712100   -4.402030
  H      0.562370    2.456840   -3.293270

 Total Charge           Charge          ....    0
 Multiplicity           Mult            ....    1
 Number of Electrons    NEL             ....   58
 Basis Dimension        Dim             ....  285

ORBITAL ENERGIES
----------------

  NO   OCC          E(Eh)            E(eV)
   0   2.0000     -89.195996     -2427.1465
   1   2.0000     -24.907329      -677.7629
   2   2.0000     -19.248403      -523.7757
   3   2.0000     -19.232378      -523.3396
   4   2.0000     -10.335088      -281.2321
   5   2.0000     -10.295679      -280.1597
   6   2.0000      -8.259593      -224.7550
   7   2.0000      -6.217060      -169.1748
   8   2.0000      -6.210584      -168.9986
   9   2.0000      -6.210128      -168.9862
  10   2.0000      -1.499650       -40.8075
  11   2.0000      -1.225326       -33.3428
  12   2.0000      -1.123048       -30.5597
  13   2.0000      -0.941367       -25.6159
  14   2.0000      -0.843541       -22.9539
  15   2.0000      -0.788451       -21.4548
  16   2.0000      -0.705134       -19.1877
  17   2.0000      -0.691514       -18.8170
  18   2.0000      -0.652059       -17.7434
  19   2.0000      -0.596823       -16.2404
  20   2.0000      -0.577846       -15.7240
  21   2.0000      -0.552015       -15.0211
  22   2.0000      -0.537743       -14.6327
  23   2.0000      -0.509715       -13.8701
  24   2.0000      -0.493367       -13.4252
  25   2.0000      -0.481327       -13.0976
  26   2.0000      -0.431522       -11.7423
  27   2.0000      -0.415796       -11.3144
  28   2.0000      -0.405627       -11.0377
  29   0.0000       0.051102         1.3906
  30   0.0000       0.062080         1.6893
  31   0.0000       0.069771         1.8986
  32   0.0000       0.072090         1.9617
  33   0.0000       0.100501         2.7348

MULLIKEN ATOMIC CHARGES
-----------------------
   0 C :   -1.240216
   1 C :   -0.339466
   2 H :    0.340220
   3 H :    0.335076
   4 S :    1.185366
   5 O :   -0.564172
   6 F :   -0.140546
   7 O :   -0.608217
   8 H :    0.347107
   9 H :    0.330324
  10 H :    0.354525
Sum of atomic charges:    0.0000000

LOEWDIN ATOMIC CHARGES
----------------------
   0 C :   -0.119517
   1 C :   -0.274004
   2 H :    0.112706
   3 H :    0.098760
   4 S :    0.593877
   5 O :   -0.271565
   6 F :   -0.052850
   7 O :   -0.305278
   8 H :    0.076074
   9 H :    0.074708
  10 H :    0.067088

  Mayer bond orders larger than 0.100000
B(  0-C ,  1-C ) :   0.7066 B(  0-C ,  8-H ) :   0.9502 B(  0-C ,  9-H ) :   0.9370
B(  0-C , 10-H ) :   0.9172 B(  1-C ,  2-H ) :   0.8964 B(  1-C ,  3-H ) :   0.9147
B(  1-C ,  4-S ) :   0.8281 B(  1-C ,  5-O ) :   0.1081 B(  4-S ,  5-O ) :   1.6902
B(  4-S ,  6-F ) :   1.0078 B(  4-S ,  7-O ) :   1.6481

Dispersion correction           -0.002881376
FINAL SINGLE POINT ENERGY      -727.741891462623

DIPOLE MOMENT
-------------
                                X             Y             Z
Electronic contribution:      0.55959      -8.60412       2.04605
Nuclear contribution   :     -0.86540      10.11467      -1.24082
                        -----------------------------------------
Total Dipole Moment    :     -0.30581       1.51055       0.80523
                        -----------------------------------------
Magnitude (a.u.)       :      1.73888
Magnitude (Debye)      :      4.41987

Rotational constants in cm-1:     0.154065     0.083345     0.080357
Rotational constants in MHz :  4618.752213  2498.631937  2409.037217

                             ****ORCA TERMINATED NORMALLY****
TOTAL RUN TIME: 0 days 0 hours 1 minutes 7 seconds 526 msec
