                         Program Version 5.0.0 -  RELEASE  -
|  1> !wB97X-D3 RIJCOSX def2-TZVPD def2/J TightSCF
|  2> *xyz 0 1
|  3> C         -0.46129        2.23469       -4.98962
|  4> C          0.84888        2.66797       -4.30235
|  5> C         -0.42384        2.39877       -6.47432
|  6> N         -0.95947        3.49265       -7.00740
|  7> C          0.14558        1.48689       -7.20399
|  8> H          0.56537        0.69681       -6.72386
|  9> H          0.22068        1.58177       -8.20752
| 10> H         -1.40624        4.18151       -6.40326
| 11> H         -0.93421        3.68160       -7.99947
| 12> H         -1.28888        2.82674       -4.59500
| 13> H         -0.65170        1.18634       -4.75655
| 14> H          1.66208        2.08894       -4.68750
| 15> H          0.76716        2.51042       -3.24717
| 16> H          1.02677        3.70527       -4.49537
| 17> *
| 18>
| 19> %MaxCore 64000
| 20>
| 21> %pal nprocs 4
| 22> end
| 23>
| 24> %scf
| 25>   MaxIter 150
| 26> end
| 27>
| 28>
| 29>                          ****END OF INPUT****

CARTESIAN COORDINATES (ANGSTROEM)
---------------------------------
  C     -0.461290    2.234690   -4.989620
  C      0.848880    2.667970   -4.302350
  C     -0.423840    2.398770   -6.474320
  N     -0.959470    3.492650   -7.007400
  C      0.145580    1.486890   -7.203990
  H      0.565370    0.696810   -6.723860
  H      0.220680    1.581770   -8.207520
  H     -1.406240    4.181510   -6.403260
  H     -0.934210    3.681600   -7.999470
  H     -1.288880    2.826740   -4.595000
  H     -0.651700    1.186340   -4.756550
  H      1.662080    2.088940   -4.687500
  H      0.767160    2.510420   -3.247170
  H      1.026770    3.705270   -4.495370

 Total Charge           Charge          ....    0
 Multiplicity           Mult            ....    1
 Number of Electrons    NEL             ....   40
 Basis Dimension        Dim             ....  266

ORBITAL ENERGIES
----------------

  NO   OCC          E(Eh)            E(eV)
   0   2.0000     -14.420589      -392.4042
   1   2.0000     -10.293204      -280.0923
   2   2.0000     -10.274049      -279.5711
   3   2.0000     -10.257340      -279.1164
   4   2.0000     -10.201304      -277.5916
   5   2.0000      -1.040966       -28.3261
   6   2.0000      -0.896666       -24.3995
   7   2.0000      -0.831839       -22.6355
   8   2.0000      -0.748594       -20.3703
   9   2.0000      -0.669949       -18.2302
  10   2.0000      -0.622428       -16.9371
  11   2.0000      -0.585281       -15.9263
  12   2.0000      -0.539562       -14.6822
  13   2.0000      -0.514277       -13.9942
  14   2.0000      -0.490229       -13.3398
  15   2.0000      -0.479968       -13.0606
  16   2.0000      -0.444670       -12.1001
  17   2.0000      -0.431259       -11.7352
  18   2.0000      -0.423737       -11.5305
  19   2.0000      -0.279115        -7.5951
  20   0.0000       0.067950         1.8490
  21   0.0000       0.092585         2.5194
  22   0.0000       0.095591         2.6012
  23   0.0000       0.100605         2.7376
  24   0.0000       0.125316         3.4100

MULLIKEN ATOMIC CHARGES
-----------------------
   0 C :   -0.490868
   1 C :   -1.074227
   2 C :    1.048356
   3 N :   -0.472083
   4 C :   -1.552049
   5 H :    0.340655
   6 H :    0.354576
   7 H :    0.195964
   8 H :    0.156276
   9 H :    0.277871
  10 H :    0.280549
  11 H :    0.326112
  12 H :    0.308227
  13 H :    0.300641
Sum of atomic charges:   -0.0000000

LOEWDIN ATOMIC CHARGES
----------------------
   0 C :   -0.200866
   1 C :   -0.090199
   2 C :   -0.500679
   3 N :    0.092688
   4 C :    0.009824
   5 H :    0.032092
   6 H :    0.026120
   7 H :    0.107725
   8 H :    0.109443
   9 H :    0.104453
  10 H :    0.112487
  11 H :    0.067156
  12 H :    0.062022
  13 H :    0.067734

  Mayer bond orders larger than 0.100000
B(  0-C ,  1-C ) :   0.6471 B(  0-C ,  2-C ) :   0.6671 B(  0-C ,  4-C ) :   0.1164
B(  0-C ,  9-H ) :   1.0298 B(  0-C , 10-H ) :   0.9554 B(  1-C ,  2-C ) :   0.1351
B(  1-C , 11-H ) :   0.9494 B(  1-C , 12-H ) :   0.9463 B(  1-C , 13-H ) :   0.9648
B(  2-C ,  3-N ) :   0.9168 B(  2-C ,  4-C ) :   1.0050 B(  3-N ,  4-C ) :   0.1279
B(  3-N ,  7-H ) :   1.0084 B(  3-N ,  8-H ) :   1.0601 B(  4-C ,  5-H ) :   0.9368
B(  4-C ,  6-H ) :   0.9638

Dispersion correction           -0.003006437
FINAL SINGLE POINT ENERGY      -212.586360910757

DIPOLE MOMENT
-------------
                                X             Y             Z
Electronic contribution:     -1.69559       0.57464      -2.40181
Nuclear contribution   :      1.40335       0.04939       2.56207
                        -----------------------------------------
Total Dipole Moment    :     -0.29224       0.62403       0.16026
                        -----------------------------------------
Magnitude (a.u.)       :      0.70746
Magnitude (Debye)      :      1.79822

Rotational constants in cm-1:     0.271383     0.128194     0.101873
Rotational constants in MHz :  8135.853259  3843.152748  3054.074278

                             ****ORCA TERMINATED NORMALLY****
TOTAL RUN TIME: 0 days 0 hours 1 minutes 5 seconds 965 msec
