                         Program Version 5.0.0 -  RELEASE  -
|  1> !wB97X-D3 RIJCOSX def2-TZVPD def2/J TightSCF
|  2> *xyz 0 1
|  3> C          0.84888        2.66797       -4.30235
|  4> C          2.09343        1.86104       -4.65684
|  5> H          2.44481        2.04157       -5.67499
|  6> H          2.90175        2.13786       -3.98034
|  7> S          1.87964        0.07859       -4.46297
|  8> O          3.20757       -0.46611       -4.42026
|  9> O          1.07506       -0.05616       -3.26876
| 10> F          1.13166       -0.31996       -5.67903
| 11> H          0.05064        2.40112       -4.96303
| 12> H          1.06043        3.71210       -4.40203
| 13> H          0.56237        2.45684       -3.29327
| 14> *
| 15>
| 16> %MaxCore 64000
| 17>
| 18> %pal nprocs 4
| 19> end
| 20>
| 21> %scf
| 22>   MaxIter 150
| 23> end
| 24>
| 25>
| 26>                          ****END OF INPUT****

CARTESIAN COORDINATES (ANGSTROEM)
---------------------------------
  C      0.848880    2.667970   -4.302350
  C      2.093430    1.861040   -4.656840
  H      2.444810    2.041570   -5.674990
  H      2.901750    2.137860   -3.980340
  S      1.879640    0.078590   -4.462970
  O      3.207570   -0.466110   -4.420260
  O      1.075060   -0.056160   -3.268760
  F      1.131660   -0.319960   -5.679030
  H      0.050640    2.401120   -4.963030
  H      1.060430    3.712100   -4.402030
  H      0.562370    2.456840   -3.293270

 Total Charge           Charge          ....    0
 Multiplicity           Mult            ....    1
 Number of Electrons    NEL             ....   58
 Basis Dimension        Dim             ....  285

ORBITAL ENERGIES
----------------

  NO   OCC          E(Eh)            E(eV)
   0   2.0000     -89.194116     -2427.0953
   1   2.0000     -24.888569      -677.2524
   2   2.0000     -19.248021      -523.7653
   3   2.0000     -19.244479      -523.6689
   4   2.0000     -10.334234      -281.2088
   5   2.0000     -10.290008      -280.0053
   6   2.0000      -8.257733      -224.7044
   7   2.0000      -6.215199      -169.1242
   8   2.0000      -6.208955      -168.9543
   9   2.0000      -6.208150      -168.9323
  10   2.0000      -1.469352       -39.9831
  11   2.0000      -1.233845       -33.5746
  12   2.0000      -1.141998       -31.0754
  13   2.0000      -0.937298       -25.5052
  14   2.0000      -0.832930       -22.6652
  15   2.0000      -0.779549       -21.2126
  16   2.0000      -0.684902       -18.6371
  17   2.0000      -0.669952       -18.2303
  18   2.0000      -0.653892       -17.7933
  19   2.0000      -0.596363       -16.2279
  20   2.0000      -0.580240       -15.7891
  21   2.0000      -0.558233       -15.1903
  22   2.0000      -0.530628       -14.4391
  23   2.0000      -0.503168       -13.6919
  24   2.0000      -0.498929       -13.5765
  25   2.0000      -0.478362       -13.0169
  26   2.0000      -0.438860       -11.9420
  27   2.0000      -0.426018       -11.5925
  28   2.0000      -0.419221       -11.4076
  29   0.0000       0.052916         1.4399
  30   0.0000       0.063784         1.7357
  31   0.0000       0.069798         1.8993
  32   0.0000       0.071012         1.9323
  33   0.0000       0.101163         2.7528

MULLIKEN ATOMIC CHARGES
-----------------------
   0 C :   -1.202418
   1 C :   -0.387470
   2 H :    0.366865
   3 H :    0.332240
   4 S :    1.195455
   5 O :   -0.572771
   6 O :   -0.585563
   7 F :   -0.165858
   8 H :    0.342704
   9 H :    0.333658
  10 H :    0.343159
Sum of atomic charges:    0.0000000

LOEWDIN ATOMIC CHARGES
----------------------
   0 C :   -0.119157
   1 C :   -0.274877
   2 H :    0.101930
   3 H :    0.106915
   4 S :    0.597200
   5 O :   -0.272536
   6 O :   -0.276337
   7 F :   -0.080956
   8 H :    0.073425
   9 H :    0.073842
  10 H :    0.070552

  Mayer bond orders larger than 0.100000
B(  0-C ,  1-C ) :   0.7353 B(  0-C ,  8-H ) :   0.9156 B(  0-C ,  9-H ) :   0.9316
B(  0-C , 10-H ) :   0.9685 B(  1-C ,  2-H ) :   0.8712 B(  1-C ,  3-H ) :   0.9059
B(  1-C ,  4-S ) :   0.8349 B(  1-C ,  5-O ) :   0.1154 B(  4-S ,  5-O ) :   1.6829
B(  4-S ,  6-O ) :   1.6833 B(  4-S ,  7-F ) :   0.9568

Dispersion correction           -0.002844617
FINAL SINGLE POINT ENERGY      -727.757429740166

DIPOLE MOMENT
-------------
                                X             Y             Z
Electronic contribution:      0.63960      -9.08221      -2.05913
Nuclear contribution   :     -0.92438      10.38956       1.27076
                        -----------------------------------------
Total Dipole Moment    :     -0.28478       1.30735      -0.78837
                        -----------------------------------------
Magnitude (a.u.)       :      1.55299
Magnitude (Debye)      :      3.94740

Rotational constants in cm-1:     0.154243     0.082247     0.080562
Rotational constants in MHz :  4624.087322  2465.703680  2415.175852

                             ****ORCA TERMINATED NORMALLY****
TOTAL RUN TIME: 0 days 0 hours 1 minutes 8 seconds 324 msec
