                         Program Version 5.0.0 -  RELEASE  -
|  1> !wB97X-D3 RIJCOSX def2-TZVPD def2/J TightSCF xyzfile
|  2>
|  3> *xyzfile 0 1 D1.xyz
|  4>
|  5> %MaxCore 64000
|  6>
|  7> %pal nprocs 18
|  8> end
|  9>
| 10> %scf
| 11>   MaxIter 150
| 12> end
| 13>
| 14>
| 15>                          ****END OF INPUT****

CARTESIAN COORDINATES (ANGSTROEM)
---------------------------------
  C     -0.461293    2.234686   -4.989619
  C      0.848883    2.667967   -4.302351
  C      2.093434    1.861037   -4.656845
  H      2.444814    2.041567   -5.674990
  H      2.901748    2.137864   -3.980338
  S      1.879644    0.078594   -4.462965
  C     -0.423841    2.398772   -6.474317
  C     -0.959467    3.492647   -7.007401
  N      0.145585    1.486891   -7.203987
  H      0.565371    0.696807   -6.723858
  H      0.220682    1.581768   -8.207520
  H     -1.406243    4.181507   -6.403261
  H     -0.934215    3.681601   -7.999468
  F      3.207574   -0.466111   -4.420259
  O      1.075064   -0.056160   -3.268758
  O      1.131661   -0.319960   -5.679031
  H      0.668432    2.559427   -3.232850
  H      1.034074    3.729426   -4.497081
  H     -1.288884    2.826737   -4.594997
  H     -0.651696    1.186343   -4.756552

 Total Charge           Charge          ....    0
 Multiplicity           Mult            ....    1
 Number of Electrons    NEL             ....   88
 Basis Dimension        Dim             ....  478

ORBITAL ENERGIES
----------------

  NO   OCC          E(Eh)            E(eV)
   0   2.0000     -89.216680     -2427.7093
   1   2.0000     -24.928968      -678.3517
   2   2.0000     -19.262005      -524.1458
   3   2.0000     -19.257899      -524.0341
   4   2.0000     -14.394742      -391.7009
   5   2.0000     -10.342142      -281.4240
   6   2.0000     -10.303835      -280.3816
   7   2.0000     -10.288898      -279.9752
   8   2.0000     -10.276456      -279.6366
   9   2.0000     -10.195708      -277.4393
  10   2.0000      -8.280448      -225.3224
  11   2.0000      -6.237543      -169.7322
  12   2.0000      -6.231547      -169.5690
  13   2.0000      -6.231172      -169.5588
  14   2.0000      -1.524409       -41.4813
  15   2.0000      -1.243710       -33.8431
  16   2.0000      -1.147851       -31.2346
  17   2.0000      -1.037696       -28.2371
  18   2.0000      -0.952250       -25.9120
  19   2.0000      -0.885052       -24.0835
  20   2.0000      -0.851406       -23.1679
  21   2.0000      -0.806973       -21.9588
  22   2.0000      -0.756771       -20.5928
  23   2.0000      -0.717187       -19.5156
  24   2.0000      -0.706665       -19.2293
  25   2.0000      -0.685773       -18.6608
  26   2.0000      -0.663418       -18.0525
  27   2.0000      -0.629521       -17.1301
  28   2.0000      -0.605873       -16.4867
  29   2.0000      -0.593260       -16.1434
  30   2.0000      -0.575588       -15.6625
  31   2.0000      -0.556504       -15.1433
  32   2.0000      -0.546475       -14.8704
  33   2.0000      -0.513777       -13.9806
  34   2.0000      -0.496081       -13.4990
  35   2.0000      -0.490801       -13.3554
  36   2.0000      -0.478017       -13.0075
  37   2.0000      -0.459673       -12.5083
  38   2.0000      -0.447592       -12.1796
  39   2.0000      -0.440654       -11.9908
  40   2.0000      -0.427362       -11.6291
  41   2.0000      -0.421767       -11.4769
  42   2.0000      -0.413502       -11.2520
  43   2.0000      -0.264339        -7.1930
  44   0.0000       0.039434         1.0730
  45   0.0000       0.057838         1.5739
  46   0.0000       0.060066         1.6345
  47   0.0000       0.072620         1.9761
  48   0.0000       0.088515         2.4086

MULLIKEN ATOMIC CHARGES
-----------------------
   0 C :   -0.595040
   1 C :   -0.449634
   2 C :   -0.738604
   3 H :    0.406925
   4 H :    0.366121
   5 S :    1.216027
   6 C :    0.788051
   7 C :   -1.637914
   8 N :   -0.376727
   9 H :    0.272154
  10 H :    0.133637
  11 H :    0.334716
  12 H :    0.362044
  13 F :   -0.096574
  14 O :   -0.600492
  15 O :   -0.684398
  16 H :    0.301980
  17 H :    0.319841
  18 H :    0.295951
  19 H :    0.381937
Sum of atomic charges:   -0.0000000

LOEWDIN ATOMIC CHARGES
----------------------
   0 C :   -0.144277
   1 C :   -0.195503
   2 C :   -0.217453
   3 H :    0.110257
   4 H :    0.102985
   5 S :    0.649066
   6 C :   -0.488598
   7 C :    0.012678
   8 N :    0.111731
   9 H :    0.023095
  10 H :    0.124140
  11 H :    0.019260
  12 H :    0.015272
  13 F :   -0.032399
  14 O :   -0.254801
  15 O :   -0.303666
  16 H :    0.110748
  17 H :    0.127663
  18 H :    0.122436
  19 H :    0.107366

  Mayer bond orders larger than 0.100000
B(  0-C ,  1-C ) :   0.8194 B(  0-C ,  6-C ) :   0.8144 B(  0-C , 18-H ) :   0.9785
B(  0-C , 19-H ) :   0.8841 B(  1-C ,  2-C ) :   1.0351 B(  1-C ,  6-C ) :   0.2413
B(  1-C , 16-H ) :   0.8806 B(  1-C , 17-H ) :   0.8980 B(  2-C ,  3-H ) :   0.8111
B(  2-C ,  4-H ) :   0.8654 B(  2-C ,  5-S ) :   0.8160 B(  2-C ,  8-N ) :   0.1489
B(  2-C , 15-O ) :   0.1187 B(  5-S , 13-F ) :   0.9656 B(  5-S , 14-O ) :   1.7034
B(  5-S , 15-O ) :   1.5821 B(  6-C ,  7-C ) :   0.9293 B(  6-C ,  8-N ) :   1.0778
B(  7-C ,  8-N ) :   0.1193 B(  7-C , 11-H ) :   0.9726 B(  7-C , 12-H ) :   0.9252
B(  8-N ,  9-H ) :   0.8658 B(  8-N , 10-H ) :   1.0458

Dispersion correction           -0.008655788
FINAL SINGLE POINT ENERGY      -899.803763900720

DIPOLE MOMENT
-------------
                                X             Y             Z
Electronic contribution:     10.18497     -13.94633       5.47941
Nuclear contribution   :     -8.53047      14.15581      -5.17613
                        -----------------------------------------
Total Dipole Moment    :      1.65450       0.20948       0.30328
                        -----------------------------------------
Magnitude (a.u.)       :      1.69506
Magnitude (Debye)      :      4.30850

Rotational constants in cm-1:     0.081196     0.024861     0.022477
Rotational constants in MHz :  2434.181666   745.320670   673.846846

                             ****ORCA TERMINATED NORMALLY****
TOTAL RUN TIME: 0 days 0 hours 1 minutes 22 seconds 514 msec
