                         Program Version 5.0.0 -  RELEASE  -
|  1> !wB97X-D3 RIJCOSX def2-TZVPD def2/J TightSCF xyzfile
|  2>
|  3> *xyzfile 0 1 D6.xyz
|  4>
|  5> %MaxCore 64000
|  6>
|  7> %pal nprocs 18
|  8> end
|  9>
| 10> %scf
| 11>   MaxIter 150
| 12> end
| 13>
| 14>
| 15>                          ****END OF INPUT****

CARTESIAN COORDINATES (ANGSTROEM)
---------------------------------
  C     -0.461293    2.234686   -4.989619
  C      0.848883    2.667967   -4.302351
  C      2.093434    1.861037   -4.656845
  H      2.444814    2.041567   -5.674990
  H      2.901748    2.137864   -3.980338
  S      1.879644    0.078594   -4.462965
  C     -0.423841    2.398772   -6.474317
  N     -0.959467    3.492647   -7.007401
  C      0.145585    1.486891   -7.203987
  H      0.565371    0.696807   -6.723858
  H      0.220682    1.581768   -8.207520
  H     -1.406243    4.181507   -6.403261
  H     -0.934215    3.681601   -7.999468
  O      3.207574   -0.466111   -4.420259
  O      1.075064   -0.056160   -3.268758
  F      1.131661   -0.319960   -5.679031
  H      0.668432    2.559427   -3.232850
  H      1.034074    3.729426   -4.497081
  H     -1.288884    2.826737   -4.594997
  H     -0.651696    1.186343   -4.756552

 Total Charge           Charge          ....    0
 Multiplicity           Mult            ....    1
 Number of Electrons    NEL             ....   88
 Basis Dimension        Dim             ....  478

ORBITAL ENERGIES
----------------

  NO   OCC          E(Eh)            E(eV)
   0   2.0000     -89.193451     -2427.0772
   1   2.0000     -24.888770      -677.2579
   2   2.0000     -19.246939      -523.7358
   3   2.0000     -19.244057      -523.6574
   4   2.0000     -14.431102      -392.6903
   5   2.0000     -10.328476      -281.0521
   6   2.0000     -10.305246      -280.4200
   7   2.0000     -10.302954      -280.3576
   8   2.0000     -10.290859      -280.0285
   9   2.0000     -10.205282      -277.6998
  10   2.0000      -8.257278      -224.6920
  11   2.0000      -6.214830      -169.1141
  12   2.0000      -6.208409      -168.9394
  13   2.0000      -6.207621      -168.9179
  14   2.0000      -1.475414       -40.1480
  15   2.0000      -1.234042       -33.5800
  16   2.0000      -1.141634       -31.0654
  17   2.0000      -1.052695       -28.6453
  18   2.0000      -0.950067       -25.8526
  19   2.0000      -0.887239       -24.1430
  20   2.0000      -0.838858       -22.8265
  21   2.0000      -0.823253       -22.4018
  22   2.0000      -0.749344       -20.3907
  23   2.0000      -0.708985       -19.2925
  24   2.0000      -0.675897       -18.3921
  25   2.0000      -0.663525       -18.0554
  26   2.0000      -0.654935       -17.8217
  27   2.0000      -0.635498       -17.2928
  28   2.0000      -0.603145       -16.4124
  29   2.0000      -0.590228       -16.0609
  30   2.0000      -0.571263       -15.5449
  31   2.0000      -0.558306       -15.1923
  32   2.0000      -0.549106       -14.9419
  33   2.0000      -0.511287       -13.9128
  34   2.0000      -0.501889       -13.6571
  35   2.0000      -0.492690       -13.4068
  36   2.0000      -0.477952       -13.0057
  37   2.0000      -0.470247       -12.7961
  38   2.0000      -0.443813       -12.0768
  39   2.0000      -0.436059       -11.8658
  40   2.0000      -0.432766       -11.7761
  41   2.0000      -0.420614       -11.4455
  42   2.0000      -0.418216       -11.3802
  43   2.0000      -0.290976        -7.9179
  44   0.0000       0.056393         1.5345
  45   0.0000       0.064449         1.7537
  46   0.0000       0.067304         1.8314
  47   0.0000       0.069670         1.8958
  48   0.0000       0.092338         2.5127

MULLIKEN ATOMIC CHARGES
-----------------------
   0 C :   -0.562605
   1 C :   -0.407301
   2 C :   -0.730441
   3 H :    0.447632
   4 H :    0.319977
   5 S :    1.151756
   6 C :    0.964354
   7 N :   -0.463611
   8 C :   -1.942041
   9 H :    0.706381
  10 H :    0.310130
  11 H :    0.206185
  12 H :    0.154919
  13 O :   -0.606086
  14 O :   -0.598061
  15 F :   -0.158407
  16 H :    0.314930
  17 H :    0.292717
  18 H :    0.314858
  19 H :    0.284713
Sum of atomic charges:    0.0000000

LOEWDIN ATOMIC CHARGES
----------------------
   0 C :   -0.143164
   1 C :   -0.203639
   2 C :   -0.214213
   3 H :    0.107818
   4 H :    0.112214
   5 S :    0.617524
   6 C :   -0.469460
   7 N :    0.098536
   8 C :    0.024711
   9 H :   -0.010964
  10 H :    0.040300
  11 H :    0.109190
  12 H :    0.111640
  13 O :   -0.263636
  14 O :   -0.264996
  15 F :   -0.112011
  16 H :    0.111089
  17 H :    0.122579
  18 H :    0.118688
  19 H :    0.107793

  Mayer bond orders larger than 0.100000
B(  0-C ,  1-C ) :   0.7865 B(  0-C ,  6-C ) :   0.6822 B(  0-C ,  7-N ) :   0.1185
B(  0-C , 18-H ) :   0.9830 B(  0-C , 19-H ) :   0.9535 B(  1-C ,  2-C ) :   0.9781
B(  1-C ,  6-C ) :   0.2341 B(  1-C , 16-H ) :   0.8904 B(  1-C , 17-H ) :   0.9221
B(  2-C ,  3-H ) :   0.8085 B(  2-C ,  4-H ) :   0.9161 B(  2-C ,  5-S ) :   0.8009
B(  2-C ,  8-C ) :   0.1640 B(  2-C , 13-O ) :   0.1275 B(  5-S , 13-O ) :   1.5826
B(  5-S , 14-O ) :   1.6903 B(  5-S , 15-F ) :   1.0259 B(  6-C ,  7-N ) :   0.8738
B(  6-C ,  8-C ) :   0.7531 B(  6-C , 10-H ) :  -0.1521 B(  7-N ,  8-C ) :   0.1142
B(  7-N , 11-H ) :   1.0051 B(  7-N , 12-H ) :   1.0649 B(  8-C ,  9-H ) :   0.5000
B(  8-C , 10-H ) :   1.0871 B(  8-C , 15-F ) :   0.1259 B(  9-H , 15-F ) :  -0.2361

Dispersion correction           -0.008588891
FINAL SINGLE POINT ENERGY      -899.803963538928

DIPOLE MOMENT
-------------
                                X             Y             Z
Electronic contribution:      5.54659     -11.98906       3.17694
Nuclear contribution   :     -6.15577      13.80449      -3.81895
                        -----------------------------------------
Total Dipole Moment    :     -0.60917       1.81543      -0.64201
                        -----------------------------------------
Magnitude (a.u.)       :      2.01967
Magnitude (Debye)      :      5.13358

Rotational constants in cm-1:     0.081431     0.024887     0.022470
Rotational constants in MHz :  2441.231544   746.086417   673.646914

                             ****ORCA TERMINATED NORMALLY****
TOTAL RUN TIME: 0 days 0 hours 1 minutes 10 seconds 235 msec
