                         Program Version 5.0.0 -  RELEASE  -
|  1> !B3LYP D3BJ RIJCOSX def2-SVPD def2/J TightSCF
|  2> *xyz -1 1
|  3> C         -1.78916       -0.63923        4.55750
|  4> C         -2.79070       -0.78527        5.70281
|  5> H         -2.86731       -1.83565        6.00167
|  6> H         -3.77455       -0.48658        5.33481
|  7> C         -2.45380        0.05510        6.94145
|  8> C         -2.07842        1.48042        6.56410
|  9> H         -1.62558       -0.38216        7.49891
| 10> H         -3.32527        0.08775        7.59917
| 11> O         -0.90125        1.85816        6.82810
| 12> O         -2.93658        2.17731        5.96415
| 13> H         -2.09421       -1.25377        3.73641
| 14> H         -0.81933       -0.94475        4.89064
| 15> H         -1.75281        0.38306        4.24366
| 16> *
| 17> %MaxCore 64000
| 18>
| 19> %pal nprocs 4
| 20> end
| 21>
| 22> %scf
| 23>   MaxIter 150
| 24> end
| 25>
| 26>
| 27>                          ****END OF INPUT****

CARTESIAN COORDINATES (ANGSTROEM)
---------------------------------
  C     -1.789160   -0.639230    4.557500
  C     -2.790700   -0.785270    5.702810
  H     -2.867310   -1.835650    6.001670
  H     -3.774550   -0.486580    5.334810
  C     -2.453800    0.055100    6.941450
  C     -2.078420    1.480420    6.564100
  H     -1.625580   -0.382160    7.498910
  H     -3.325270    0.087750    7.599170
  O     -0.901250    1.858160    6.828100
  O     -2.936580    2.177310    5.964150
  H     -2.094210   -1.253770    3.736410
  H     -0.819330   -0.944750    4.890640
  H     -1.752810    0.383060    4.243660

 Total Charge           Charge          ....   -1
 Multiplicity           Mult            ....    1
 Number of Electrons    NEL             ....   48
 Basis Dimension        Dim             ....  182

ORBITAL ENERGIES
----------------

  NO   OCC          E(Eh)            E(eV)
   0   2.0000     -18.881326      -513.7870
   1   2.0000     -18.879991      -513.7507
   2   2.0000     -10.071458      -274.0583
   3   2.0000     -10.036026      -273.0942
   4   2.0000     -10.026009      -272.8216
   5   2.0000     -10.010484      -272.3991
   6   2.0000      -0.812574       -22.1113
   7   2.0000      -0.719194       -19.5703
   8   2.0000      -0.630624       -17.1602
   9   2.0000      -0.535973       -14.5846
  10   2.0000      -0.441075       -12.0022
  11   2.0000      -0.326521        -8.8851
  12   2.0000      -0.304798        -8.2940
  13   2.0000      -0.288762        -7.8576
  14   2.0000      -0.254371        -6.9218
  15   2.0000      -0.234256        -6.3744
  16   2.0000      -0.212773        -5.7898
  17   2.0000      -0.207862        -5.6562
  18   2.0000      -0.197501        -5.3743
  19   2.0000      -0.175688        -4.7807
  20   2.0000      -0.164915        -4.4876
  21   2.0000      -0.053954        -1.4682
  22   2.0000      -0.047176        -1.2837
  23   2.0000      -0.031514        -0.8575
  24   0.0000       0.145641         3.9631
  25   0.0000       0.169702         4.6178
  26   0.0000       0.186673         5.0796
  27   0.0000       0.198867         5.4115
  28   0.0000       0.218286         5.9399

MULLIKEN ATOMIC CHARGES
-----------------------
   0 C :    0.872651
   1 C :   -0.255449
   2 H :   -0.277844
   3 H :   -0.076370
   4 C :    0.384532
   5 C :    0.365385
   6 H :   -0.115115
   7 H :   -0.114337
   8 O :   -0.676670
   9 O :   -0.724633
  10 H :   -0.188361
  11 H :   -0.107184
  12 H :   -0.086605
Sum of atomic charges:   -1.0000000

LOEWDIN ATOMIC CHARGES
----------------------
   0 C :    0.122743
   1 C :   -0.079924
   2 H :   -0.006074
   3 H :    0.007958
   4 C :    0.003221
   5 C :   -0.314157
   6 H :   -0.001346
   7 H :    0.004798
   8 O :   -0.329479
   9 O :   -0.321209
  10 H :   -0.040967
  11 H :   -0.023886
  12 H :   -0.021677

  Mayer bond orders larger than 0.100000
B(  0-C ,  1-C ) :   1.3221 B(  0-C , 10-H ) :   0.6945 B(  0-C , 11-H ) :   0.7446
B(  0-C , 12-H ) :   0.7853 B(  1-C ,  2-H ) :   0.9321 B(  1-C ,  3-H ) :   0.8650
B(  1-C ,  4-C ) :   1.1879 B(  1-C ,  6-H ) :   0.1615 B(  1-C ,  7-H ) :   0.1490
B(  1-C , 10-H ) :   0.2537 B(  1-C , 11-H ) :   0.2194 B(  1-C , 12-H ) :   0.2360
B(  3-H ,  4-C ) :   0.1245 B(  4-C ,  5-C ) :   1.0032 B(  4-C ,  6-H ) :   0.8274
B(  4-C ,  7-H ) :   0.7796 B(  5-C ,  6-H ) :   0.2496 B(  5-C ,  7-H ) :   0.1371
B(  5-C ,  8-O ) :   1.4493 B(  5-C ,  9-O ) :   1.4889

Dispersion correction           -0.016638021
FINAL SINGLE POINT ENERGY      -306.789242508877

DIPOLE MOMENT
-------------
                                X             Y             Z
Electronic contribution:      0.62586       6.38870       2.68273
Nuclear contribution   :     -1.12936      -8.75108      -3.05770
                        -----------------------------------------
Total Dipole Moment    :     -0.50350      -2.36238      -0.37498
                        -----------------------------------------
Magnitude (a.u.)       :      2.44437
Magnitude (Debye)      :      6.21310

Rotational constants in cm-1:     0.189092     0.083831     0.082013
Rotational constants in MHz :  5668.846461  2513.177001  2458.689996

                             ****ORCA TERMINATED NORMALLY****
TOTAL RUN TIME: 0 days 0 hours 0 minutes 17 seconds 810 msec
