                         Program Version 5.0.0 -  RELEASE  -
|  1> !B3LYP D3BJ RIJCOSX def2-SVPD def2/J TightSCF
|  2> *xyz 1 1
|  3> C         -0.69912        3.48945        3.75516
|  4> H         -0.96672        4.34901        3.14049
|  5> N         -1.08067        3.79296        5.15686
|  6> C          0.77696        3.13839        3.61741
|  7> H         -1.33146        2.65651        3.44632
|  8> H          1.37140        3.88834        4.14974
|  9> H          1.04693        3.23206        2.56133
| 10> C          1.11892        1.73117        4.11516
| 11> H         -0.87449        4.76274        5.42734
| 12> H         -0.68079        3.13476        5.83900
| 13> H         -2.05755        3.53169        5.34620
| 14> H          0.52974        1.01235        3.58499
| 15> H          0.90870        1.66226        5.16204
| 16> H          2.15725        1.53562        3.94624
| 17> *
| 18> %MaxCore 64000
| 19>
| 20> %pal nprocs 4
| 21> end
| 22>
| 23> %scf
| 24>   MaxIter 150
| 25> end
| 26>
| 27>
| 28>                          ****END OF INPUT****

CARTESIAN COORDINATES (ANGSTROEM)
---------------------------------
  C     -0.699120    3.489450    3.755160
  H     -0.966720    4.349010    3.140490
  N     -1.080670    3.792960    5.156860
  C      0.776960    3.138390    3.617410
  H     -1.331460    2.656510    3.446320
  H      1.371400    3.888340    4.149740
  H      1.046930    3.232060    2.561330
  C      1.118920    1.731170    4.115160
  H     -0.874490    4.762740    5.427340
  H     -0.680790    3.134760    5.839000
  H     -2.057550    3.531690    5.346200
  H      0.529740    1.012350    3.584990
  H      0.908700    1.662260    5.162040
  H      2.157250    1.535620    3.946240

 Total Charge           Charge          ....    1
 Multiplicity           Mult            ....    1
 Number of Electrons    NEL             ....   34
 Basis Dimension        Dim             ....  160

ORBITAL ENERGIES
----------------

  NO   OCC          E(Eh)            E(eV)
   0   2.0000     -14.661145      -398.9500
   1   2.0000     -10.430525      -283.8290
   2   2.0000     -10.361073      -281.9391
   3   2.0000     -10.327888      -281.0361
   4   2.0000      -1.204914       -32.7874
   5   2.0000      -0.967454       -26.3258
   6   2.0000      -0.878942       -23.9172
   7   2.0000      -0.813183       -22.1278
   8   2.0000      -0.784269       -21.3411
   9   2.0000      -0.759791       -20.6750
  10   2.0000      -0.693443       -18.8696
  11   2.0000      -0.630612       -17.1598
  12   2.0000      -0.606775       -16.5112
  13   2.0000      -0.584908       -15.9161
  14   2.0000      -0.526070       -14.3151
  15   2.0000      -0.520243       -14.1565
  16   2.0000      -0.514595       -14.0028
  17   0.0000      -0.194845        -5.3020
  18   0.0000      -0.138168        -3.7597
  19   0.0000      -0.136456        -3.7132
  20   0.0000      -0.116985        -3.1833
  21   0.0000      -0.094247        -2.5646

MULLIKEN ATOMIC CHARGES
-----------------------
   0 C :    0.800008
   1 H :   -0.186516
   2 N :   -0.802862
   3 C :   -0.105008
   4 H :   -0.088016
   5 H :   -0.125131
   6 H :   -0.098854
   7 C :    0.969198
   8 H :    0.402758
   9 H :    0.317754
  10 H :    0.346558
  11 H :   -0.053580
  12 H :   -0.262661
  13 H :   -0.113648
Sum of atomic charges:    1.0000000

LOEWDIN ATOMIC CHARGES
----------------------
   0 C :    0.092819
   1 H :    0.050707
   2 N :    0.332756
   3 C :   -0.037576
   4 H :    0.049659
   5 H :    0.031254
   6 H :    0.042647
   7 C :    0.158691
   8 H :    0.113413
   9 H :    0.089876
  10 H :    0.105818
  11 H :   -0.004832
  12 H :   -0.028076
  13 H :    0.002844

  Mayer bond orders larger than 0.100000
B(  0-C ,  1-H ) :   0.8454 B(  0-C ,  2-N ) :   0.6930 B(  0-C ,  3-C ) :   1.1920
B(  0-C ,  4-H ) :   0.8418 B(  0-C ,  6-H ) :   0.1154 B(  1-H ,  2-N ) :   0.1399
B(  2-N ,  8-H ) :   0.7047 B(  2-N ,  9-H ) :   0.7970 B(  2-N , 10-H ) :   0.7435
B(  3-C ,  5-H ) :   0.9037 B(  3-C ,  6-H ) :   0.8814 B(  3-C ,  7-C ) :   1.2724
B(  3-C , 11-H ) :   0.1934 B(  3-C , 12-H ) :   0.2045 B(  3-C , 13-H ) :   0.2316
B(  7-C , 11-H ) :   0.7490 B(  7-C , 12-H ) :   0.7607 B(  7-C , 13-H ) :   0.7532
B( 11-H , 12-H ) :   0.1051

Dispersion correction           -0.015152706
FINAL SINGLE POINT ENERGY      -174.620883340204

DIPOLE MOMENT
-------------
                                X             Y             Z
Electronic contribution:     -1.66774       1.67448       0.72477
Nuclear contribution   :      0.19356      -0.71099       0.46987
                        -----------------------------------------
Total Dipole Moment    :     -1.47418       0.96349       1.19464
                        -----------------------------------------
Magnitude (a.u.)       :      2.12807
Magnitude (Debye)      :      5.40912

Rotational constants in cm-1:     0.465349     0.150671     0.132807
Rotational constants in MHz : 13950.800968  4516.999758  3981.442177

                             ****ORCA TERMINATED NORMALLY****
TOTAL RUN TIME: 0 days 0 hours 0 minutes 13 seconds 50 msec
