                         Program Version 5.0.0 -  RELEASE  -
|  1> !B3LYP D3BJ RIJCOSX def2-SVPD def2/J TightSCF xyzfile
|  2>
|  3> *xyzfile 0 1 B.xyz
|  4>
|  5> %MaxCore 64000
|  6>
|  7> %pal nprocs 4
|  8> end
|  9>
| 10> %scf
| 11>   MaxIter 150
| 12> end
| 13>
| 14>
| 15>                          ****END OF INPUT****

CARTESIAN COORDINATES (ANGSTROEM)
---------------------------------
  C     -0.699123    3.489451    3.755163
  H     -0.966716    4.349013    3.140491
  N     -1.080669    3.792957    5.156857
  C      0.776956    3.138391    3.617408
  H     -1.331455    2.656510    3.446323
  H      1.371398    3.888342    4.149744
  H      1.046926    3.232057    2.561331
  C      1.118917    1.731170    4.115155
  H      2.200573    1.654226    4.254882
  C      0.659466    0.635182    3.153306
  H      0.677024    1.576674    5.103150
  H      1.312288    0.638870    2.274207
  H     -0.339563    0.868049    2.772876
  C      0.639957   -0.771175    3.755619
  C     -0.341821   -0.965537    4.915046
  H      1.648266   -1.028665    4.097015
  H      0.398568   -1.482386    2.958453
  H     -0.279892   -2.005646    5.252547
  C     -1.789164   -0.639231    4.557496
  H     -0.032380   -0.352918    5.765118
  H     -2.107151   -1.270102    3.719619
  H     -1.856352    0.391636    4.197604
  C     -2.790700   -0.785275    5.702812
  H     -2.867308   -1.835651    6.001675
  H     -3.774554   -0.486577    5.334807
  C     -2.453797    0.055101    6.941445
  C     -2.078419    1.480421    6.564098
  H     -1.625584   -0.382163    7.498914
  H     -3.325274    0.087746    7.599175
  H     -0.874488    4.762737    5.427344
  H     -0.680793    3.134762    5.839000
  H     -2.057550    3.531691    5.346197
  O     -0.901252    1.858156    6.828104
  O     -2.936582    2.177309    5.964151

 Total Charge           Charge          ....    0
 Multiplicity           Mult            ....    1
 Number of Electrons    NEL             ....  104
 Basis Dimension        Dim             ....  434

ORBITAL ENERGIES
----------------

  NO   OCC          E(Eh)            E(eV)
   0   2.0000     -19.077824      -519.1340
   1   2.0000     -19.076552      -519.0994
   2   2.0000     -14.410137      -392.1198
   3   2.0000     -10.260121      -279.1921
   4   2.0000     -10.252819      -278.9934
   5   2.0000     -10.205675      -277.7105
   6   2.0000     -10.181086      -277.0414
   7   2.0000     -10.178004      -276.9576
   8   2.0000     -10.171378      -276.7773
   9   2.0000     -10.162591      -276.5382
  10   2.0000     -10.162316      -276.5307
  11   2.0000     -10.161019      -276.4954
  12   2.0000     -10.154859      -276.3278
  13   2.0000      -1.020592       -27.7717
  14   2.0000      -0.973660       -26.4946
  15   2.0000      -0.920838       -25.0573
  16   2.0000      -0.815326       -22.1862
  17   2.0000      -0.787211       -21.4211
  18   2.0000      -0.759345       -20.6628
  19   2.0000      -0.713562       -19.4170
  20   2.0000      -0.682026       -18.5589
  21   2.0000      -0.643705       -17.5161
  22   2.0000      -0.606525       -16.5044
  23   2.0000      -0.594406       -16.1746
  24   2.0000      -0.573157       -15.5964
  25   2.0000      -0.550477       -14.9792
  26   2.0000      -0.541338       -14.7306
  27   2.0000      -0.502515       -13.6741
  28   2.0000      -0.479753       -13.0547
  29   2.0000      -0.473985       -12.8978
  30   2.0000      -0.470930       -12.8147
  31   2.0000      -0.446159       -12.1406
  32   2.0000      -0.442022       -12.0280
  33   2.0000      -0.432504       -11.7690
  34   2.0000      -0.422040       -11.4843
  35   2.0000      -0.410316       -11.1653
  36   2.0000      -0.400994       -10.9116
  37   2.0000      -0.400223       -10.8906
  38   2.0000      -0.387598       -10.5471
  39   2.0000      -0.379621       -10.3300
  40   2.0000      -0.363387        -9.8883
  41   2.0000      -0.358830        -9.7643
  42   2.0000      -0.352288        -9.5862
  43   2.0000      -0.336986        -9.1699
  44   2.0000      -0.327702        -8.9172
  45   2.0000      -0.322955        -8.7880
  46   2.0000      -0.309425        -8.4199
  47   2.0000      -0.303984        -8.2718
  48   2.0000      -0.298233        -8.1153
  49   2.0000      -0.252143        -6.8612
  50   2.0000      -0.238440        -6.4883
  51   2.0000      -0.235849        -6.4178
  52   0.0000      -0.007583        -0.2063
  53   0.0000       0.021959         0.5975
  54   0.0000       0.027864         0.7582
  55   0.0000       0.032678         0.8892
  56   0.0000       0.041521         1.1298

MULLIKEN ATOMIC CHARGES
-----------------------
   0 C :    1.289691
   1 H :   -0.312548
   2 N :   -0.604888
   3 C :    0.503639
   4 H :   -0.402949
   5 H :   -0.173165
   6 H :   -0.157846
   7 C :    0.953687
   8 H :   -0.080109
   9 C :    0.190283
  10 H :   -0.856365
  11 H :   -0.357723
  12 H :   -0.214244
  13 C :    0.912896
  14 C :    0.162135
  15 H :   -0.231662
  16 H :   -0.057439
  17 H :   -0.389248
  18 C :    0.534267
  19 H :   -0.071221
  20 H :   -0.166487
  21 H :   -0.698325
  22 C :    0.631069
  23 H :   -0.296331
  24 H :   -0.010084
  25 C :    0.529623
  26 C :    0.342552
  27 H :    0.040339
  28 H :   -0.270297
  29 H :    0.308147
  30 H :    0.215522
  31 H :    0.216118
  32 O :   -0.758432
  33 O :   -0.720603
Sum of atomic charges:    0.0000000

LOEWDIN ATOMIC CHARGES
----------------------
   0 C :    0.103671
   1 H :    0.029612
   2 N :    0.329312
   3 C :   -0.003786
   4 H :    0.022361
   5 H :    0.021032
   6 H :    0.024945
   7 C :   -0.001448
   8 H :    0.027397
   9 C :   -0.025783
  10 H :   -0.015544
  11 H :    0.020023
  12 H :   -0.003853
  13 C :   -0.020387
  14 C :   -0.015952
  15 H :    0.019563
  16 H :    0.018259
  17 H :    0.023341
  18 C :   -0.021315
  19 H :   -0.002692
  20 H :    0.024148
  21 H :   -0.008368
  22 C :   -0.010885
  23 H :    0.016328
  24 H :    0.020942
  25 C :    0.043268
  26 C :   -0.190256
  27 H :    0.015559
  28 H :    0.026253
  29 H :    0.091836
  30 H :   -0.055595
  31 H :   -0.020614
  32 O :   -0.245169
  33 O :   -0.236202

  Mayer bond orders larger than 0.100000
B(  0-C ,  1-H ) :   0.6185 B(  0-C ,  2-N ) :   0.6187 B(  0-C ,  3-C ) :   1.1324
B(  0-C ,  4-H ) :   0.5615 B(  0-C ,  6-H ) :   0.1356 B(  0-C ,  7-C ) :   0.2621
B(  0-C , 10-H ) :  -0.2128 B(  0-C , 18-C ) :   0.1228 B(  0-C , 21-H ) :  -0.1023
B(  1-H ,  3-C ) :   0.1557 B(  1-H ,  8-H ) :   0.1050 B(  2-N ,  4-H ) :   0.3216
B(  2-N , 26-C ) :   0.1162 B(  2-N , 29-H ) :   0.8507 B(  2-N , 30-H ) :   0.8050
B(  2-N , 31-H ) :   0.7882 B(  2-N , 32-O ) :   0.1019 B(  3-C ,  4-H ) :   0.1590
B(  3-C ,  5-H ) :   0.6693 B(  3-C ,  6-H ) :   0.7375 B(  3-C ,  7-C ) :   1.1146
B(  3-C , 10-H ) :   0.2327 B(  4-H ,  7-C ) :  -0.1103 B(  4-H , 10-H ) :   0.1091
B(  4-H , 12-H ) :   0.1236 B(  4-H , 21-H ) :   0.2240 B(  5-H ,  6-H ) :  -0.1014
B(  5-H ,  7-C ) :   0.1477 B(  7-C ,  8-H ) :   0.6124 B(  7-C ,  9-C ) :   1.0643
B(  7-C , 11-H ) :   0.2175 B(  7-C , 12-H ) :   0.1191 B(  8-H ,  9-C ) :   0.2066
B(  9-C , 10-H ) :   0.3300 B(  9-C , 11-H ) :   0.7975 B(  9-C , 12-H ) :   0.8254
B(  9-C , 13-C ) :   1.1616 B(  9-C , 14-C ) :   0.1412 B(  9-C , 15-H ) :   0.1468
B(  9-C , 16-H ) :   0.2790 B( 10-H , 13-C ) :  -0.1240 B( 10-H , 19-H ) :   0.1340
B( 13-C , 14-C ) :   1.1168 B( 13-C , 15-H ) :   0.5720 B( 13-C , 16-H ) :   0.6073
B( 14-C , 15-H ) :   0.3285 B( 14-C , 16-H ) :   0.1047 B( 14-C , 17-H ) :   0.8179
B( 14-C , 18-C ) :   1.1196 B( 14-C , 19-H ) :   0.8449 B( 14-C , 20-H ) :   0.1929
B( 14-C , 21-H ) :   0.2834 B( 15-H , 16-H ) :  -0.1620 B( 17-H , 18-C ) :   0.1540
B( 18-C , 19-H ) :   0.1254 B( 18-C , 20-H ) :   0.6014 B( 18-C , 21-H ) :   0.4891
B( 18-C , 22-C ) :   1.1874 B( 18-C , 23-H ) :   0.1906 B( 18-C , 24-H ) :   0.2905
B( 18-C , 25-C ) :   0.1417 B( 20-H , 21-H ) :   0.1487 B( 21-H , 22-C ) :   0.1804
B( 22-C , 23-H ) :   0.7165 B( 22-C , 24-H ) :   0.6029 B( 22-C , 25-C ) :   1.1245
B( 22-C , 27-H ) :   0.1053 B( 22-C , 28-H ) :   0.1840 B( 23-H , 24-H ) :  -0.1761
B( 23-H , 25-C ) :   0.1551 B( 24-H , 25-C ) :   0.1184 B( 25-C , 26-C ) :   1.1374
B( 25-C , 27-H ) :   0.7523 B( 25-C , 28-H ) :   0.5646 B( 25-C , 33-O ) :   0.1050
B( 26-C , 27-H ) :   0.2299 B( 26-C , 28-H ) :   0.3017 B( 26-C , 32-O ) :   1.3316
B( 26-C , 33-O ) :   1.2914 B( 30-H , 32-O ) :   0.2332 B( 31-H , 33-O ) :   0.2044
B( 32-O , 33-O ) :   0.1050

Dispersion correction           -0.062212718
FINAL SINGLE POINT ENERGY      -598.226183109697

DIPOLE MOMENT
-------------
                                X             Y             Z
Electronic contribution:     -4.66110       4.82822       6.70014
Nuclear contribution   :      5.60885      -3.40606      -8.06960
                        -----------------------------------------
Total Dipole Moment    :      0.94774       1.42216      -1.36946
                        -----------------------------------------
Magnitude (a.u.)       :      2.19002
Magnitude (Debye)      :      5.56658

Rotational constants in cm-1:     0.028465     0.023505     0.015110
Rotational constants in MHz :   853.363165   704.655786   452.976312

                             ****ORCA TERMINATED NORMALLY****
TOTAL RUN TIME: 0 days 0 hours 2 minutes 49 seconds 901 msec
