                         Program Version 5.0.0 -  RELEASE  -
|  1> !B3LYP D3BJ RIJCOSX def2-SVPD def2/J TightSCF
|  2> *xyz 0 1
|  3> C         -1.78916       -0.63923        4.55750
|  4> C         -2.79070       -0.78527        5.70281
|  5> H         -2.86731       -1.83565        6.00167
|  6> H         -3.77455       -0.48658        5.33481
|  7> C         -2.45380        0.05510        6.94145
|  8> C         -2.07842        1.48042        6.56410
|  9> H         -1.62558       -0.38216        7.49891
| 10> H         -3.32527        0.08775        7.59917
| 11> F         -0.90125        1.85816        6.82810
| 12> O         -2.93658        2.17731        5.96415
| 13> H         -2.09421       -1.25377        3.73641
| 14> H         -0.81933       -0.94475        4.89064
| 15> H         -1.75281        0.38306        4.24366
| 16> *
| 17> %MaxCore 64000
| 18>
| 19> %pal nprocs 4
| 20> end
| 21>
| 22> %scf
| 23>   MaxIter 150
| 24> end
| 25>
| 26>
| 27>                          ****END OF INPUT****

CARTESIAN COORDINATES (ANGSTROEM)
---------------------------------
  C     -1.789160   -0.639230    4.557500
  C     -2.790700   -0.785270    5.702810
  H     -2.867310   -1.835650    6.001670
  H     -3.774550   -0.486580    5.334810
  C     -2.453800    0.055100    6.941450
  C     -2.078420    1.480420    6.564100
  H     -1.625580   -0.382160    7.498910
  H     -3.325270    0.087750    7.599170
  F     -0.901250    1.858160    6.828100
  O     -2.936580    2.177310    5.964150
  H     -2.094210   -1.253770    3.736410
  H     -0.819330   -0.944750    4.890640
  H     -1.752810    0.383060    4.243660

 Total Charge           Charge          ....    0
 Multiplicity           Mult            ....    1
 Number of Electrons    NEL             ....   48
 Basis Dimension        Dim             ....  182

ORBITAL ENERGIES
----------------

  NO   OCC          E(Eh)            E(eV)
   0   2.0000     -24.767189      -673.9495
   1   2.0000     -19.150353      -521.1076
   2   2.0000     -10.366670      -282.0914
   3   2.0000     -10.215001      -277.9643
   4   2.0000     -10.200352      -277.5657
   5   2.0000     -10.178245      -276.9641
   6   2.0000      -1.301575       -35.4176
   7   2.0000      -1.026177       -27.9237
   8   2.0000      -0.810272       -22.0486
   9   2.0000      -0.725835       -19.7510
  10   2.0000      -0.661364       -17.9966
  11   2.0000      -0.609961       -16.5979
  12   2.0000      -0.549451       -14.9513
  13   2.0000      -0.531325       -14.4581
  14   2.0000      -0.510804       -13.8997
  15   2.0000      -0.468449       -12.7471
  16   2.0000      -0.457835       -12.4583
  17   2.0000      -0.421218       -11.4619
  18   2.0000      -0.408118       -11.1054
  19   2.0000      -0.376238       -10.2380
  20   2.0000      -0.362268        -9.8578
  21   2.0000      -0.351134        -9.5549
  22   2.0000      -0.348461        -9.4821
  23   2.0000      -0.297985        -8.1086
  24   0.0000      -0.039930        -1.0865
  25   0.0000       0.013587         0.3697
  26   0.0000       0.041390         1.1263
  27   0.0000       0.045227         1.2307
  28   0.0000       0.057171         1.5557

MULLIKEN ATOMIC CHARGES
-----------------------
   0 C :    0.880048
   1 C :   -0.184347
   2 H :   -0.237431
   3 H :   -0.068267
   4 C :    0.300348
   5 C :    0.723426
   6 H :   -0.084455
   7 H :   -0.063973
   8 F :   -0.374360
   9 O :   -0.514949
  10 H :   -0.154904
  11 H :   -0.105966
  12 H :   -0.115170
Sum of atomic charges:    0.0000000

LOEWDIN ATOMIC CHARGES
----------------------
   0 C :    0.139606
   1 C :   -0.051086
   2 H :    0.021404
   3 H :    0.025548
   4 C :    0.046972
   5 C :   -0.018794
   6 H :    0.021505
   7 H :    0.037206
   8 F :   -0.037088
   9 O :   -0.131159
  10 H :   -0.016568
  11 H :   -0.015522
  12 H :   -0.022023

  Mayer bond orders larger than 0.100000
B(  0-C ,  1-C ) :   1.3427 B(  0-C , 10-H ) :   0.7111 B(  0-C , 11-H ) :   0.7515
B(  0-C , 12-H ) :   0.7874 B(  1-C ,  2-H ) :   0.9199 B(  1-C ,  3-H ) :   0.8653
B(  1-C ,  4-C ) :   1.2095 B(  1-C ,  6-H ) :   0.1541 B(  1-C ,  7-H ) :   0.1424
B(  1-C , 10-H ) :   0.2358 B(  1-C , 11-H ) :   0.2059 B(  1-C , 12-H ) :   0.2203
B(  3-H ,  4-C ) :   0.1134 B(  4-C ,  5-C ) :   1.0724 B(  4-C ,  6-H ) :   0.8535
B(  4-C ,  7-H ) :   0.7866 B(  5-C ,  6-H ) :   0.1190 B(  5-C ,  7-H ) :   0.1129
B(  5-C ,  8-F ) :   0.7061 B(  5-C ,  9-O ) :   1.8036 B(  8-F ,  9-O ) :   0.1167

Dispersion correction           -0.015961896
FINAL SINGLE POINT ENERGY      -331.321110024137

DIPOLE MOMENT
-------------
                                X             Y             Z
Electronic contribution:      2.79888       8.95030       4.27907
Nuclear contribution   :     -2.53960     -10.05333      -3.90042
                        -----------------------------------------
Total Dipole Moment    :      0.25929      -1.10303       0.37865
                        -----------------------------------------
Magnitude (a.u.)       :      1.19469
Magnitude (Debye)      :      3.03665

Rotational constants in cm-1:     0.183043     0.080991     0.078218
Rotational constants in MHz :  5487.486217  2428.040459  2344.904824

                             ****ORCA TERMINATED NORMALLY****
TOTAL RUN TIME: 0 days 0 hours 0 minutes 17 seconds 174 msec
