                         Program Version 5.0.0 -  RELEASE  -
|  1> !B3LYP D3BJ RIJCOSX def2-SVPD def2/J TightSCF
|  2> *xyz 0 1
|  3> C         -0.69912        3.48945        3.75516
|  4> H         -0.96672        4.34901        3.14049
|  5> C         -1.08067        3.79296        5.15686
|  6> C          0.77696        3.13839        3.61741
|  7> H         -1.33146        2.65651        3.44632
|  8> H          1.37140        3.88834        4.14974
|  9> H          1.04693        3.23206        2.56133
| 10> C          1.11892        1.73117        4.11516
| 11> H         -0.87449        4.76274        5.42734
| 12> H         -0.68079        3.13476        5.83900
| 13> H         -2.05755        3.53169        5.34620
| 14> H          0.52974        1.01235        3.58499
| 15> H          0.90870        1.66226        5.16204
| 16> H          2.15725        1.53562        3.94624
| 17> *
| 18> %MaxCore 64000
| 19>
| 20> %pal nprocs 4
| 21> end
| 22>
| 23> %scf
| 24>   MaxIter 150
| 25> end
| 26>
| 27>
| 28>                          ****END OF INPUT****

CARTESIAN COORDINATES (ANGSTROEM)
---------------------------------
  C     -0.699120    3.489450    3.755160
  H     -0.966720    4.349010    3.140490
  C     -1.080670    3.792960    5.156860
  C      0.776960    3.138390    3.617410
  H     -1.331460    2.656510    3.446320
  H      1.371400    3.888340    4.149740
  H      1.046930    3.232060    2.561330
  C      1.118920    1.731170    4.115160
  H     -0.874490    4.762740    5.427340
  H     -0.680790    3.134760    5.839000
  H     -2.057550    3.531690    5.346200
  H      0.529740    1.012350    3.584990
  H      0.908700    1.662260    5.162040
  H      2.157250    1.535620    3.946240

 Total Charge           Charge          ....    0
 Multiplicity           Mult            ....    1
 Number of Electrons    NEL             ....   34
 Basis Dimension        Dim             ....  160

ORBITAL ENERGIES
----------------

  NO   OCC          E(Eh)            E(eV)
   0   2.0000     -10.171952      -276.7929
   1   2.0000     -10.168006      -276.6855
   2   2.0000     -10.163399      -276.5602
   3   2.0000     -10.144988      -276.0592
   4   2.0000      -0.794178       -21.6107
   5   2.0000      -0.722925       -19.6718
   6   2.0000      -0.638371       -17.3709
   7   2.0000      -0.564824       -15.3696
   8   2.0000      -0.467370       -12.7178
   9   2.0000      -0.457738       -12.4557
  10   2.0000      -0.427713       -11.6387
  11   2.0000      -0.387676       -10.5492
  12   2.0000      -0.379114       -10.3162
  13   2.0000      -0.364681        -9.9235
  14   2.0000      -0.325212        -8.8495
  15   2.0000      -0.322380        -8.7724
  16   2.0000      -0.317466        -8.6387
  17   0.0000       0.025039         0.6813
  18   0.0000       0.050497         1.3741
  19   0.0000       0.051491         1.4011
  20   0.0000       0.058529         1.5927
  21   0.0000       0.095087         2.5875

MULLIKEN ATOMIC CHARGES
-----------------------
   0 C :   -0.010170
   1 H :   -0.250183
   2 C :    1.325424
   3 C :   -0.086913
   4 H :   -0.079510
   5 H :   -0.173766
   6 H :   -0.181011
   7 C :    0.962644
   8 H :   -0.215330
   9 H :   -0.559482
  10 H :   -0.266327
  11 H :   -0.048645
  12 H :   -0.277520
  13 H :   -0.139211
Sum of atomic charges:   -0.0000000

LOEWDIN ATOMIC CHARGES
----------------------
   0 C :   -0.068983
   1 H :    0.018153
   2 C :    0.126996
   3 C :   -0.072601
   4 H :    0.019066
   5 H :    0.019588
   6 H :    0.011155
   7 C :    0.133113
   8 H :   -0.027000
   9 H :   -0.046897
  10 H :   -0.036776
  11 H :   -0.020636
  12 H :   -0.031725
  13 H :   -0.023453

  Mayer bond orders larger than 0.100000
B(  0-C ,  1-H ) :   0.8938 B(  0-C ,  2-C ) :   1.2106 B(  0-C ,  3-C ) :   1.1966
B(  0-C ,  4-H ) :   0.8250 B(  0-C ,  5-H ) :   0.1357 B(  0-C ,  6-H ) :   0.1089
B(  0-C ,  8-H ) :   0.2220 B(  0-C ,  9-H ) :   0.2779 B(  0-C , 10-H ) :   0.2329
B(  1-H ,  3-C ) :   0.1225 B(  2-C ,  4-H ) :   0.1452 B(  2-C ,  8-H ) :   0.6702
B(  2-C ,  9-H ) :   0.3999 B(  2-C , 10-H ) :   0.4814 B(  3-C ,  5-H ) :   0.8813
B(  3-C ,  6-H ) :   0.8971 B(  3-C ,  7-C ) :   1.2500 B(  3-C , 11-H ) :   0.2317
B(  3-C , 12-H ) :   0.2228 B(  3-C , 13-H ) :   0.2355 B(  7-C , 11-H ) :   0.7317
B(  7-C , 12-H ) :   0.7795 B(  7-C , 13-H ) :   0.7236 B(  9-H , 10-H ) :   0.3589

Dispersion correction           -0.015265167
FINAL SINGLE POINT ENERGY      -158.221656625683

DIPOLE MOMENT
-------------
                                X             Y             Z
Electronic contribution:      0.12445       0.47226      -0.75859
Nuclear contribution   :     -0.14518      -0.47660       0.76944
                        -----------------------------------------
Total Dipole Moment    :     -0.02073      -0.00434       0.01085
                        -----------------------------------------
Magnitude (a.u.)       :      0.02380
Magnitude (Debye)      :      0.06049

Rotational constants in cm-1:     0.472466     0.157481     0.138592
Rotational constants in MHz : 14164.171374  4721.163669  4154.874787

                             ****ORCA TERMINATED NORMALLY****
TOTAL RUN TIME: 0 days 0 hours 0 minutes 12 seconds 695 msec
