                         Program Version 5.0.0 -  RELEASE  -
|  1> !B3LYP D3BJ RIJCOSX def2-SVPD def2/J TightSCF
|  2> *xyz 0 1
|  3> C         -1.78916       -0.63923        4.55750
|  4> C         -2.79070       -0.78527        5.70281
|  5> H         -2.86731       -1.83565        6.00167
|  6> H         -3.77455       -0.48658        5.33481
|  7> C         -2.45380        0.05510        6.94145
|  8> C         -2.07842        1.48042        6.56410
|  9> H         -1.62558       -0.38216        7.49891
| 10> H         -3.32527        0.08775        7.59917
| 11> O         -0.90125        1.85816        6.82810
| 12> F         -2.93658        2.17731        5.96415
| 13> H         -2.09421       -1.25377        3.73641
| 14> H         -0.81933       -0.94475        4.89064
| 15> H         -1.75281        0.38306        4.24366
| 16> *
| 17> %MaxCore 64000
| 18>
| 19> %pal nprocs 4
| 20> end
| 21>
| 22> %scf
| 23>   MaxIter 150
| 24> end
| 25>
| 26>
| 27>                          ****END OF INPUT****

CARTESIAN COORDINATES (ANGSTROEM)
---------------------------------
  C     -1.789160   -0.639230    4.557500
  C     -2.790700   -0.785270    5.702810
  H     -2.867310   -1.835650    6.001670
  H     -3.774550   -0.486580    5.334810
  C     -2.453800    0.055100    6.941450
  C     -2.078420    1.480420    6.564100
  H     -1.625580   -0.382160    7.498910
  H     -3.325270    0.087750    7.599170
  O     -0.901250    1.858160    6.828100
  F     -2.936580    2.177310    5.964150
  H     -2.094210   -1.253770    3.736410
  H     -0.819330   -0.944750    4.890640
  H     -1.752810    0.383060    4.243660

 Total Charge           Charge          ....    0
 Multiplicity           Mult            ....    1
 Number of Electrons    NEL             ....   48
 Basis Dimension        Dim             ....  182

ORBITAL ENERGIES
----------------

  NO   OCC          E(Eh)            E(eV)
   0   2.0000     -24.770535      -674.0405
   1   2.0000     -19.148420      -521.0550
   2   2.0000     -10.366150      -282.0773
   3   2.0000     -10.214383      -277.9475
   4   2.0000     -10.203709      -277.6570
   5   2.0000     -10.180484      -277.0251
   6   2.0000      -1.307091       -35.5678
   7   2.0000      -1.020923       -27.7807
   8   2.0000      -0.813357       -22.1326
   9   2.0000      -0.725690       -19.7470
  10   2.0000      -0.662615       -18.0307
  11   2.0000      -0.613984       -16.7073
  12   2.0000      -0.554279       -15.0827
  13   2.0000      -0.541449       -14.7336
  14   2.0000      -0.496181       -13.5018
  15   2.0000      -0.475794       -12.9470
  16   2.0000      -0.459002       -12.4901
  17   2.0000      -0.421249       -11.4628
  18   2.0000      -0.405146       -11.0246
  19   2.0000      -0.377142       -10.2626
  20   2.0000      -0.368898       -10.0382
  21   2.0000      -0.353605        -9.6221
  22   2.0000      -0.350291        -9.5319
  23   2.0000      -0.291434        -7.9303
  24   0.0000      -0.036860        -1.0030
  25   0.0000       0.010451         0.2844
  26   0.0000       0.041948         1.1415
  27   0.0000       0.046882         1.2757
  28   0.0000       0.053776         1.4633

MULLIKEN ATOMIC CHARGES
-----------------------
   0 C :    0.898001
   1 C :   -0.212113
   2 H :   -0.241680
   3 H :   -0.091540
   4 C :    0.329753
   5 C :    0.736019
   6 H :   -0.099873
   7 H :   -0.072321
   8 O :   -0.474785
   9 F :   -0.409714
  10 H :   -0.163808
  11 H :   -0.087260
  12 H :   -0.110679
Sum of atomic charges:    0.0000000

LOEWDIN ATOMIC CHARGES
----------------------
   0 C :    0.140777
   1 C :   -0.057991
   2 H :    0.021767
   3 H :    0.019594
   4 C :    0.050039
   5 C :   -0.023891
   6 H :    0.033165
   7 H :    0.031400
   8 O :   -0.135869
   9 F :   -0.030171
  10 H :   -0.017233
  11 H :   -0.009647
  12 H :   -0.021939

  Mayer bond orders larger than 0.100000
B(  0-C ,  1-C ) :   1.3431 B(  0-C , 10-H ) :   0.6995 B(  0-C , 11-H ) :   0.7515
B(  0-C , 12-H ) :   0.7854 B(  1-C ,  2-H ) :   0.9221 B(  1-C ,  3-H ) :   0.8655
B(  1-C ,  4-C ) :   1.1876 B(  1-C ,  6-H ) :   0.1473 B(  1-C ,  7-H ) :   0.1418
B(  1-C , 10-H ) :   0.2439 B(  1-C , 11-H ) :   0.2138 B(  1-C , 12-H ) :   0.2204
B(  3-H ,  4-C ) :   0.1098 B(  4-C ,  5-C ) :   1.0352 B(  4-C ,  6-H ) :   0.8662
B(  4-C ,  7-H ) :   0.7941 B(  5-C ,  6-H ) :   0.1702 B(  5-C ,  8-O ) :   1.7930
B(  5-C ,  9-F ) :   0.6810 B(  8-O ,  9-F ) :   0.1295

Dispersion correction           -0.015896685
FINAL SINGLE POINT ENERGY      -331.318701580466

DIPOLE MOMENT
-------------
                                X             Y             Z
Electronic contribution:     -0.63402       9.46290       2.81494
Nuclear contribution   :     -0.24054     -10.41383      -2.92452
                        -----------------------------------------
Total Dipole Moment    :     -0.87456      -0.95093      -0.10959
                        -----------------------------------------
Magnitude (a.u.)       :      1.29659
Magnitude (Debye)      :      3.29566

Rotational constants in cm-1:     0.180403     0.081943     0.079197
Rotational constants in MHz :  5408.335479  2456.587956  2374.272438

                             ****ORCA TERMINATED NORMALLY****
TOTAL RUN TIME: 0 days 0 hours 0 minutes 16 seconds 654 msec
