                         Program Version 5.0.0 -  RELEASE  -
|  1> !B3LYP D3BJ RIJCOSX def2-SVPD def2/J TightSCF xyzfile
|  2>
|  3> *xyzfile 0 1 D1.xyz
|  4>
|  5> %MaxCore 64000
|  6>
|  7> %pal nprocs 4
|  8> end
|  9>
| 10> %scf
| 11>   MaxIter 150
| 12> end
| 13>
| 14>
| 15>                          ****END OF INPUT****

CARTESIAN COORDINATES (ANGSTROEM)
---------------------------------
  C     -0.699123    3.489451    3.755163
  H     -0.966716    4.349013    3.140491
  C     -1.080669    3.792957    5.156857
  C      0.776956    3.138391    3.617408
  H     -1.331455    2.656510    3.446323
  H      1.371398    3.888342    4.149744
  H      1.046926    3.232057    2.561331
  C      1.118917    1.731170    4.115155
  H      2.200573    1.654226    4.254882
  C      0.659466    0.635182    3.153306
  H      0.677024    1.576674    5.103150
  H      1.312288    0.638870    2.274207
  H     -0.339563    0.868049    2.772876
  C      0.639957   -0.771175    3.755619
  C     -0.341821   -0.965537    4.915046
  H      1.648266   -1.028665    4.097015
  H      0.398568   -1.482386    2.958453
  H     -0.279892   -2.005646    5.252547
  C     -1.789164   -0.639231    4.557496
  H     -0.032380   -0.352918    5.765118
  H     -2.107151   -1.270102    3.719619
  H     -1.856352    0.391636    4.197604
  C     -2.790700   -0.785275    5.702812
  H     -2.867308   -1.835651    6.001675
  H     -3.774554   -0.486577    5.334807
  C     -2.453797    0.055101    6.941445
  C     -2.078419    1.480421    6.564098
  H     -1.625584   -0.382163    7.498914
  H     -3.325274    0.087746    7.599175
  H     -0.874488    4.762737    5.427344
  H     -0.680793    3.134762    5.839000
  H     -2.057550    3.531691    5.346197
  F     -0.901252    1.858156    6.828104
  O     -2.936582    2.177309    5.964151

 Total Charge           Charge          ....    0
 Multiplicity           Mult            ....    1
 Number of Electrons    NEL             ....  104
 Basis Dimension        Dim             ....  434

ORBITAL ENERGIES
----------------

  NO   OCC          E(Eh)            E(eV)
   0   2.0000     -24.777673      -674.2348
   1   2.0000     -19.156355      -521.2709
   2   2.0000     -10.376446      -282.3574
   3   2.0000     -10.218358      -278.0557
   4   2.0000     -10.200538      -277.5708
   5   2.0000     -10.185674      -277.1663
   6   2.0000     -10.182693      -277.0852
   7   2.0000     -10.177079      -276.9324
   8   2.0000     -10.170013      -276.7401
   9   2.0000     -10.167224      -276.6642
  10   2.0000     -10.159829      -276.4630
  11   2.0000     -10.150421      -276.2070
  12   2.0000     -10.098542      -274.7953
  13   2.0000      -1.318217       -35.8705
  14   2.0000      -1.039595       -28.2888
  15   2.0000      -0.825333       -22.4585
  16   2.0000      -0.800814       -21.7913
  17   2.0000      -0.770804       -20.9747
  18   2.0000      -0.743471       -20.2309
  19   2.0000      -0.702352       -19.1120
  20   2.0000      -0.681426       -18.5425
  21   2.0000      -0.655503       -17.8371
  22   2.0000      -0.620274       -16.8785
  23   2.0000      -0.605098       -16.4656
  24   2.0000      -0.564951       -15.3731
  25   2.0000      -0.562591       -15.3089
  26   2.0000      -0.553523       -15.0621
  27   2.0000      -0.535072       -14.5600
  28   2.0000      -0.518144       -14.0994
  29   2.0000      -0.480078       -13.0636
  30   2.0000      -0.476609       -12.9692
  31   2.0000      -0.459795       -12.5117
  32   2.0000      -0.457011       -12.4359
  33   2.0000      -0.437137       -11.8951
  34   2.0000      -0.428654       -11.6643
  35   2.0000      -0.415446       -11.3049
  36   2.0000      -0.408659       -11.1202
  37   2.0000      -0.400537       -10.8992
  38   2.0000      -0.390410       -10.6236
  39   2.0000      -0.380745       -10.3606
  40   2.0000      -0.368657       -10.0317
  41   2.0000      -0.362697        -9.8695
  42   2.0000      -0.353673        -9.6239
  43   2.0000      -0.346482        -9.4283
  44   2.0000      -0.339445        -9.2368
  45   2.0000      -0.330322        -8.9885
  46   2.0000      -0.324452        -8.8288
  47   2.0000      -0.314217        -8.5503
  48   2.0000      -0.310497        -8.4490
  49   2.0000      -0.300097        -8.1661
  50   2.0000      -0.296603        -8.0710
  51   2.0000      -0.268232        -7.2990
  52   0.0000      -0.050270        -1.3679
  53   0.0000       0.013180         0.3586
  54   0.0000       0.028531         0.7764
  55   0.0000       0.031651         0.8613
  56   0.0000       0.038317         1.0427

MULLIKEN ATOMIC CHARGES
-----------------------
   0 C :    0.232654
   1 H :   -0.407731
   2 C :    2.268067
   3 C :    0.729468
   4 H :   -0.354239
   5 H :   -0.184543
   6 H :   -0.213767
   7 C :    0.864186
   8 H :   -0.074766
   9 C :    0.197348
  10 H :   -0.875942
  11 H :   -0.339822
  12 H :   -0.196587
  13 C :    0.897692
  14 C :    0.158862
  15 H :   -0.232743
  16 H :   -0.055554
  17 H :   -0.389033
  18 C :    0.576251
  19 H :   -0.101974
  20 H :   -0.137889
  21 H :   -0.721504
  22 C :    0.649236
  23 H :   -0.275593
  24 H :    0.000139
  25 C :    0.483279
  26 C :    0.553779
  27 H :    0.063717
  28 H :   -0.269607
  29 H :   -0.370532
  30 H :   -0.904046
  31 H :   -0.439410
  32 F :   -0.569345
  33 O :   -0.560050
Sum of atomic charges:    0.0000000

LOEWDIN ATOMIC CHARGES
----------------------
   0 C :   -0.031941
   1 H :    0.018922
   2 C :    0.140272
   3 C :   -0.020185
   4 H :    0.000487
   5 H :    0.021034
   6 H :    0.013763
   7 C :   -0.008980
   8 H :    0.022034
   9 C :   -0.025132
  10 H :   -0.017748
  11 H :    0.022070
  12 H :   -0.002192
  13 C :   -0.021067
  14 C :   -0.021866
  15 H :    0.020084
  16 H :    0.019169
  17 H :    0.023664
  18 C :   -0.016914
  19 H :   -0.007298
  20 H :    0.031541
  21 H :   -0.002463
  22 C :   -0.001249
  23 H :    0.024824
  24 H :    0.028205
  25 C :    0.063461
  26 C :    0.043616
  27 H :    0.021235
  28 H :    0.039260
  29 H :   -0.020647
  30 H :   -0.098398
  31 H :   -0.099950
  32 F :   -0.048959
  33 O :   -0.108651

  Mayer bond orders larger than 0.100000
B(  0-C ,  1-H ) :   0.7737 B(  0-C ,  2-C ) :   0.7523 B(  0-C ,  3-C ) :   1.1583
B(  0-C ,  4-H ) :   0.6509 B(  0-C ,  5-H ) :   0.1570 B(  0-C ,  6-H ) :   0.1961
B(  0-C ,  7-C ) :   0.2200 B(  0-C , 10-H ) :  -0.1718 B(  0-C , 29-H ) :   0.1534
B(  0-C , 30-H ) :   0.6516 B(  0-C , 31-H ) :   0.4074 B(  1-H ,  5-H ) :   0.1144
B(  1-H ,  8-H ) :   0.1122 B(  1-H , 30-H ) :   0.1387 B(  2-C ,  3-C ) :   0.1115
B(  2-C ,  4-H ) :   0.2427 B(  2-C , 29-H ) :   0.3592 B(  2-C , 30-H ) :  -0.7473
B(  2-C , 32-F ) :  -0.1328 B(  3-C ,  4-H ) :   0.1359 B(  3-C ,  5-H ) :   0.6180
B(  3-C ,  6-H ) :   0.6502 B(  3-C ,  7-C ) :   1.1433 B(  3-C , 10-H ) :   0.2418
B(  3-C , 30-H ) :  -0.1562 B(  4-H ,  7-C ) :  -0.1101 B(  4-H , 10-H ) :   0.1107
B(  4-H , 12-H ) :   0.1157 B(  4-H , 21-H ) :   0.2161 B(  5-H ,  6-H ) :  -0.1701
B(  5-H ,  7-C ) :   0.1841 B(  5-H , 10-H ) :   0.1318 B(  6-H ,  7-C ) :   0.1361
B(  6-H ,  8-H ) :   0.1022 B(  7-C ,  8-H ) :   0.5921 B(  7-C ,  9-C ) :   1.0775
B(  7-C , 10-H ) :   0.1936 B(  7-C , 11-H ) :   0.2165 B(  7-C , 12-H ) :   0.1234
B(  8-H ,  9-C ) :   0.2293 B(  9-C , 10-H ) :   0.3002 B(  9-C , 11-H ) :   0.7883
B(  9-C , 12-H ) :   0.8437 B(  9-C , 13-C ) :   1.1634 B(  9-C , 14-C ) :   0.1433
B(  9-C , 15-H ) :   0.1547 B(  9-C , 16-H ) :   0.2726 B( 10-H , 13-C ) :  -0.1007
B( 10-H , 19-H ) :   0.1216 B( 10-H , 30-H ) :   0.1136 B( 13-C , 14-C ) :   1.1229
B( 13-C , 15-H ) :   0.5718 B( 13-C , 16-H ) :   0.6089 B( 14-C , 15-H ) :   0.3356
B( 14-C , 16-H ) :   0.1050 B( 14-C , 17-H ) :   0.8333 B( 14-C , 18-C ) :   1.1077
B( 14-C , 19-H ) :   0.8250 B( 14-C , 20-H ) :   0.1870 B( 14-C , 21-H ) :   0.2976
B( 15-H , 16-H ) :  -0.1628 B( 17-H , 18-C ) :   0.1466 B( 18-C , 19-H ) :   0.1244
B( 18-C , 20-H ) :   0.6229 B( 18-C , 21-H ) :   0.4380 B( 18-C , 22-C ) :   1.1947
B( 18-C , 23-H ) :   0.1668 B( 18-C , 24-H ) :   0.2948 B( 18-C , 25-C ) :   0.1619
B( 20-H , 21-H ) :   0.1023 B( 21-H , 22-C ) :   0.1733 B( 22-C , 23-H ) :   0.7152
B( 22-C , 24-H ) :   0.6194 B( 22-C , 25-C ) :   1.1132 B( 22-C , 26-C ) :   0.1084
B( 22-C , 27-H ) :   0.1036 B( 22-C , 28-H ) :   0.1906 B( 23-H , 24-H ) :  -0.1760
B( 23-H , 25-C ) :   0.1515 B( 24-H , 25-C ) :   0.1048 B( 25-C , 26-C ) :   1.2204
B( 25-C , 27-H ) :   0.7699 B( 25-C , 28-H ) :   0.5524 B( 25-C , 33-O ) :   0.1022
B( 26-C , 27-H ) :   0.1742 B( 26-C , 28-H ) :   0.3288 B( 26-C , 30-H ) :   0.1145
B( 26-C , 32-F ) :   0.6269 B( 26-C , 33-O ) :   1.6893 B( 29-H , 30-H ) :   0.2317
B( 30-H , 31-H ) :   0.4827 B( 30-H , 32-F ) :   0.2926 B( 31-H , 33-O ) :   0.2174
B( 32-F , 33-O ) :   0.1004

Dispersion correction           -0.061043418
FINAL SINGLE POINT ENERGY      -606.107225481550

DIPOLE MOMENT
-------------
                                X             Y             Z
Electronic contribution:     -5.47280       2.47864      10.84274
Nuclear contribution   :      5.54676      -3.70047     -10.28793
                        -----------------------------------------
Total Dipole Moment    :      0.07396      -1.22183       0.55482
                        -----------------------------------------
Magnitude (a.u.)       :      1.34393
Magnitude (Debye)      :      3.41601

Rotational constants in cm-1:     0.028503     0.023389     0.015214
Rotational constants in MHz :   854.502405   701.197575   456.108322

                             ****ORCA TERMINATED NORMALLY****
TOTAL RUN TIME: 0 days 0 hours 2 minutes 56 seconds 521 msec
