                         Program Version 5.0.0 -  RELEASE  -
|  1> !wB97X-D3 RIJCOSX def2-SVPD def2/J TightSCF CPCM(Water)
|  2> *xyz -1 1
|  3> C          1.44442        5.26658       -0.97546
|  4> O          1.56525        4.23349       -1.86489
|  5> C         -1.07389        4.84473       -0.97990
|  6> C          0.14812        5.21087       -0.13809
|  7> H          1.47425        6.26464       -1.47692
|  8> H          2.28962        5.30327       -0.26445
|  9> H          0.26183        4.45094        0.64071
| 10> H         -0.00252        6.17103        0.37148
| 11> H         -1.20745        5.57445       -1.75098
| 12> H         -1.94291        4.82190       -0.35605
| 13> H         -0.92683        3.88150       -1.42201
| 14> *
| 15> %MaxCore 64000
| 16>
| 17> %pal nprocs 18
| 18> end
| 19>
| 20> %scf
| 21>   MaxIter 150
| 22> end
| 23>
| 24>
| 25>                          ****END OF INPUT****

CARTESIAN COORDINATES (ANGSTROEM)
---------------------------------
  C      1.444420    5.266580   -0.975460
  O      1.565250    4.233490   -1.864890
  C     -1.073890    4.844730   -0.979900
  C      0.148120    5.210870   -0.138090
  H      1.474250    6.264640   -1.476920
  H      2.289620    5.303270   -0.264450
  H      0.261830    4.450940    0.640710
  H     -0.002520    6.171030    0.371480
  H     -1.207450    5.574450   -1.750980
  H     -1.942910    4.821900   -0.356050
  H     -0.926830    3.881500   -1.422010

 Total Charge           Charge          ....   -1
 Multiplicity           Mult            ....    1
 Number of Electrons    NEL             ....   34
 Basis Dimension        Dim             ....  139

ORBITAL ENERGIES
----------------

  NO   OCC          E(Eh)            E(eV)
   0   2.0000     -19.117670      -520.2182
   1   2.0000     -10.284271      -279.8492
   2   2.0000     -10.255526      -279.0671
   3   2.0000     -10.252512      -278.9850
   4   2.0000      -0.988327       -26.8937
   5   2.0000      -0.848714       -23.0947
   6   2.0000      -0.736545       -20.0424
   7   2.0000      -0.635354       -17.2889
   8   2.0000      -0.537276       -14.6200
   9   2.0000      -0.525081       -14.2882
  10   2.0000      -0.477522       -12.9940
  11   2.0000      -0.452563       -12.3149
  12   2.0000      -0.421034       -11.4569
  13   2.0000      -0.409126       -11.1329
  14   2.0000      -0.398730       -10.8500
  15   2.0000      -0.269649        -7.3375
  16   2.0000      -0.267762        -7.2862
  17   0.0000       0.102905         2.8002
  18   0.0000       0.127261         3.4629
  19   0.0000       0.135719         3.6931
  20   0.0000       0.147586         4.0160
  21   0.0000       0.172161         4.6847

MULLIKEN ATOMIC CHARGES
-----------------------
   0 C :    0.432463
   1 O :   -0.952193
   2 C :    0.624254
   3 C :   -0.433361
   4 H :   -0.121455
   5 H :   -0.178181
   6 H :   -0.078778
   7 H :   -0.084025
   8 H :   -0.071460
   9 H :   -0.070643
  10 H :   -0.066623
Sum of atomic charges:   -1.0000000

LOEWDIN ATOMIC CHARGES
----------------------
   0 C :   -0.224997
   1 O :   -0.654334
   2 C :    0.089085
   3 C :   -0.101379
   4 H :   -0.011910
   5 H :   -0.020236
   6 H :    0.006095
   7 H :    0.009665
   8 H :   -0.021685
   9 H :   -0.027501
  10 H :   -0.042803

  Mayer bond orders larger than 0.100000
B(  0-C ,  1-O ) :   1.2725 B(  0-C ,  3-C ) :   1.0913 B(  0-C ,  4-H ) :   0.9177
B(  0-C ,  5-H ) :   0.9367 B(  2-C ,  3-C ) :   1.2665 B(  2-C ,  8-H ) :   0.8189
B(  2-C ,  9-H ) :   0.8242 B(  2-C , 10-H ) :   0.8246 B(  3-C ,  4-H ) :   0.1171
B(  3-C ,  5-H ) :   0.1116 B(  3-C ,  6-H ) :   0.9379 B(  3-C ,  7-H ) :   0.9755
B(  3-C ,  8-H ) :   0.1833 B(  3-C ,  9-H ) :   0.1813 B(  3-C , 10-H ) :   0.1907

Dispersion correction           -0.001934484
FINAL SINGLE POINT ENERGY      -193.666321823907

DIPOLE MOMENT
-------------
                                X             Y             Z
Electronic contribution:      1.59781      -0.81092      -0.87386
Nuclear contribution   :     -3.50495       2.13585       2.58010
                        -----------------------------------------
Total Dipole Moment    :     -1.90714       1.32493       1.70624
                        -----------------------------------------
Magnitude (a.u.)       :      2.88165
Magnitude (Debye)      :      7.32456

Rotational constants in cm-1:     0.478988     0.188199     0.150738
Rotational constants in MHz : 14359.706344  5642.078771  4519.011003

                             ****ORCA TERMINATED NORMALLY****
TOTAL RUN TIME: 0 days 0 hours 0 minutes 7 seconds 534 msec
