                         Program Version 5.0.0 -  RELEASE  -
|  1> !wB97X-D3 RIJCOSX def2-SVPD def2/J TightSCF CPCM(Water)
|  2> *xyz 1 1
|  3> C         -0.70169        4.07250       -4.00392
|  4> N          0.68053        4.61482       -4.04800
|  5> H          0.69993        5.58489       -4.38827
|  6> H          1.27804        4.05598       -4.66824
|  7> H          1.08573        4.53358       -3.10652
|  8> C         -1.70347        5.09320       -3.47740
|  9> H         -0.99590        3.74039       -5.00065
| 10> H         -0.64358        3.20191       -3.35153
| 11> C         -1.31400        5.78600       -2.16927
| 12> H         -1.87706        5.85010       -4.25115
| 13> H         -2.65326        4.56448       -3.35480
| 14> H         -0.38448        6.29945       -2.30062
| 15> H         -1.21111        5.05451       -1.39516
| 16> H         -2.07413        6.48833       -1.89758
| 17> *
| 18> %MaxCore 64000
| 19>
| 20> %pal nprocs 18
| 21> end
| 22>
| 23> %scf
| 24>   MaxIter 150
| 25> end
| 26>
| 27>
| 28>                          ****END OF INPUT****

CARTESIAN COORDINATES (ANGSTROEM)
---------------------------------
  C     -0.701690    4.072500   -4.003920
  N      0.680530    4.614820   -4.048000
  H      0.699930    5.584890   -4.388270
  H      1.278040    4.055980   -4.668240
  H      1.085730    4.533580   -3.106520
  C     -1.703470    5.093200   -3.477400
  H     -0.995900    3.740390   -5.000650
  H     -0.643580    3.201910   -3.351530
  C     -1.314000    5.786000   -2.169270
  H     -1.877060    5.850100   -4.251150
  H     -2.653260    4.564480   -3.354800
  H     -0.384480    6.299450   -2.300620
  H     -1.211110    5.054510   -1.395160
  H     -2.074130    6.488330   -1.897580

 Total Charge           Charge          ....    1
 Multiplicity           Mult            ....    1
 Number of Electrons    NEL             ....   34
 Basis Dimension        Dim             ....  160

ORBITAL ENERGIES
----------------

  NO   OCC          E(Eh)            E(eV)
   0   2.0000     -14.556434      -396.1007
   1   2.0000     -10.350002      -281.6379
   2   2.0000     -10.300971      -280.3037
   3   2.0000     -10.278902      -279.7031
   4   2.0000      -1.110890       -30.2289
   5   2.0000      -0.906599       -24.6698
   6   2.0000      -0.815494       -22.1907
   7   2.0000      -0.720128       -19.5957
   8   2.0000      -0.687371       -18.7043
   9   2.0000      -0.678810       -18.4714
  10   2.0000      -0.596885       -16.2421
  11   2.0000      -0.557570       -15.1723
  12   2.0000      -0.538159       -14.6440
  13   2.0000      -0.509593       -13.8667
  14   2.0000      -0.455626       -12.3982
  15   2.0000      -0.453864       -12.3503
  16   2.0000      -0.438277       -11.9261
  17   0.0000       0.083566         2.2739
  18   0.0000       0.117280         3.1913
  19   0.0000       0.119858         3.2615
  20   0.0000       0.132122         3.5952
  21   0.0000       0.155025         4.2185

MULLIKEN ATOMIC CHARGES
-----------------------
   0 C :    0.467078
   1 N :   -0.815835
   2 H :    0.445237
   3 H :    0.354525
   4 H :    0.473026
   5 C :   -0.476163
   6 H :   -0.012351
   7 H :    0.008171
   8 C :    0.596140
   9 H :    0.003131
  10 H :    0.004782
  11 H :   -0.016070
  12 H :    0.013102
  13 H :   -0.044773
Sum of atomic charges:    1.0000000

LOEWDIN ATOMIC CHARGES
----------------------
   0 C :    0.088260
   1 N :    0.353918
   2 H :    0.117072
   3 H :    0.117174
   4 H :    0.112724
   5 C :   -0.055354
   6 H :    0.051940
   7 H :    0.052930
   8 C :    0.129605
   9 H :    0.033193
  10 H :    0.035187
  11 H :   -0.020148
  12 H :   -0.007068
  13 H :   -0.009433

  Mayer bond orders larger than 0.100000
B(  0-C ,  1-N ) :   0.7879 B(  0-C ,  5-C ) :   1.1762 B(  0-C ,  6-H ) :   0.9509
B(  0-C ,  7-H ) :   0.8845 B(  0-C ,  9-H ) :   0.1024 B(  0-C , 10-H ) :   0.1326
B(  1-N ,  2-H ) :   0.6714 B(  1-N ,  3-H ) :   0.7959 B(  1-N ,  4-H ) :   0.6824
B(  1-N ,  7-H ) :   0.1112 B(  5-C ,  7-H ) :   0.1054 B(  5-C ,  8-C ) :   1.2874
B(  5-C ,  9-H ) :   0.9576 B(  5-C , 10-H ) :   0.9491 B(  5-C , 11-H ) :   0.1687
B(  5-C , 12-H ) :   0.1748 B(  5-C , 13-H ) :   0.1975 B(  8-C , 11-H ) :   0.8559
B(  8-C , 12-H ) :   0.8266 B(  8-C , 13-H ) :   0.8144

Dispersion correction           -0.002864036
FINAL SINGLE POINT ENERGY      -174.798512278622

DIPOLE MOMENT
-------------
                                X             Y             Z
Electronic contribution:      2.03607      -1.00142      -1.67466
Nuclear contribution   :      0.19992       0.44181       0.60618
                        -----------------------------------------
Total Dipole Moment    :      2.23598      -0.55960      -1.06847
                        -----------------------------------------
Magnitude (a.u.)       :      2.54055
Magnitude (Debye)      :      6.45757

Rotational constants in cm-1:     0.427003     0.166237     0.135950
Rotational constants in MHz : 12801.234133  4983.663157  4075.681698

                             ****ORCA TERMINATED NORMALLY****
TOTAL RUN TIME: 0 days 0 hours 0 minutes 8 seconds 793 msec
