                         Program Version 5.0.0 -  RELEASE  -
|  1> !wB97X-D3 RIJCOSX def2-SVPD def2/J TightSCF CPCM(Water)
|  2> *xyz 0 1
|  3> C          1.44442        5.26658       -0.97546
|  4> F          1.56525        4.23349       -1.86489
|  5> C         -1.07389        4.84473       -0.97990
|  6> C          0.14812        5.21087       -0.13809
|  7> H          1.47425        6.26464       -1.47692
|  8> H          2.28962        5.30327       -0.26445
|  9> H          0.26183        4.45094        0.64071
| 10> H         -0.00252        6.17103        0.37148
| 11> H         -1.20745        5.57445       -1.75098
| 12> H         -1.94291        4.82190       -0.35605
| 13> H         -0.92683        3.88150       -1.42201
| 14> *
| 15> %MaxCore 64000
| 16>
| 17> %pal nprocs 18
| 18> end
| 19>
| 20> %scf
| 21>   MaxIter 150
| 22> end
| 23>
| 24>
| 25>                          ****END OF INPUT****

CARTESIAN COORDINATES (ANGSTROEM)
---------------------------------
  C      1.444420    5.266580   -0.975460
  F      1.565250    4.233490   -1.864890
  C     -1.073890    4.844730   -0.979900
  C      0.148120    5.210870   -0.138090
  H      1.474250    6.264640   -1.476920
  H      2.289620    5.303270   -0.264450
  H      0.261830    4.450940    0.640710
  H     -0.002520    6.171030    0.371480
  H     -1.207450    5.574450   -1.750980
  H     -1.942910    4.821900   -0.356050
  H     -0.926830    3.881500   -1.422010

 Total Charge           Charge          ....    0
 Multiplicity           Mult            ....    1
 Number of Electrons    NEL             ....   34
 Basis Dimension        Dim             ....  139

ORBITAL ENERGIES
----------------

  NO   OCC          E(Eh)            E(eV)
   0   2.0000     -24.797947      -674.7864
   1   2.0000     -10.362346      -281.9738
   2   2.0000     -10.287527      -279.9378
   3   2.0000     -10.268849      -279.4296
   4   2.0000      -1.307600       -35.5816
   5   2.0000      -0.891792       -24.2669
   6   2.0000      -0.793444       -21.5907
   7   2.0000      -0.696541       -18.9538
   8   2.0000      -0.613542       -16.6953
   9   2.0000      -0.598574       -16.2880
  10   2.0000      -0.576678       -15.6922
  11   2.0000      -0.532986       -14.5033
  12   2.0000      -0.495620       -13.4865
  13   2.0000      -0.467055       -12.7092
  14   2.0000      -0.446088       -12.1387
  15   2.0000      -0.418518       -11.3885
  16   2.0000      -0.411437       -11.1958
  17   0.0000       0.097574         2.6551
  18   0.0000       0.124807         3.3962
  19   0.0000       0.132408         3.6030
  20   0.0000       0.152218         4.1421
  21   0.0000       0.174396         4.7455

MULLIKEN ATOMIC CHARGES
-----------------------
   0 C :    0.650283
   1 F :   -0.477030
   2 C :    0.537223
   3 C :   -0.566178
   4 H :    0.023963
   5 H :   -0.031494
   6 H :   -0.021263
   7 H :   -0.022485
   8 H :   -0.038170
   9 H :   -0.045392
  10 H :   -0.009459
Sum of atomic charges:   -0.0000000

LOEWDIN ATOMIC CHARGES
----------------------
   0 C :    0.105131
   1 F :   -0.236194
   2 C :    0.111885
   3 C :   -0.062171
   4 H :    0.043251
   5 H :    0.033819
   6 H :    0.021425
   7 H :    0.032919
   8 H :   -0.013043
   9 H :   -0.016197
  10 H :   -0.020824

  Mayer bond orders larger than 0.100000
B(  0-C ,  1-F ) :   0.7044 B(  0-C ,  3-C ) :   1.1834 B(  0-C ,  4-H ) :   0.9105
B(  0-C ,  5-H ) :   0.9397 B(  2-C ,  3-C ) :   1.2758 B(  2-C ,  8-H ) :   0.8437
B(  2-C ,  9-H ) :   0.8470 B(  2-C , 10-H ) :   0.8399 B(  3-C ,  4-H ) :   0.1091
B(  3-C ,  5-H ) :   0.1016 B(  3-C ,  6-H ) :   0.9642 B(  3-C ,  7-H ) :   0.9856
B(  3-C ,  8-H ) :   0.1703 B(  3-C ,  9-H ) :   0.1733 B(  3-C , 10-H ) :   0.1592

Dispersion correction           -0.001927100
FINAL SINGLE POINT ENERGY      -218.168871522946

DIPOLE MOMENT
-------------
                                X             Y             Z
Electronic contribution:      4.59580      -2.27639      -3.00104
Nuclear contribution   :     -4.76356       2.92420       3.62609
                        -----------------------------------------
Total Dipole Moment    :     -0.16776       0.64781       0.62505
                        -----------------------------------------
Magnitude (a.u.)       :      0.91569
Magnitude (Debye)      :      2.32749

Rotational constants in cm-1:     0.464485     0.177633     0.142630
Rotational constants in MHz : 13924.923489  5325.290206  4275.938589

                             ****ORCA TERMINATED NORMALLY****
TOTAL RUN TIME: 0 days 0 hours 0 minutes 7 seconds 997 msec
