                         Program Version 5.0.0 -  RELEASE  -
|  1> !wB97X-D3 RIJCOSX def2-SVPD def2/J TightSCF CPCM(Water)
|  2> *xyz 0 1
|  3> C         -0.70169        4.07250       -4.00392
|  4> C          0.68053        4.61482       -4.04800
|  5> H          0.69993        5.58489       -4.38827
|  6> H          1.27804        4.05598       -4.66824
|  7> H          1.08573        4.53358       -3.10652
|  8> C         -1.70347        5.09320       -3.47740
|  9> H         -0.99590        3.74039       -5.00065
| 10> H         -0.64358        3.20191       -3.35153
| 11> C         -1.31400        5.78600       -2.16927
| 12> H         -1.87706        5.85010       -4.25115
| 13> H         -2.65326        4.56448       -3.35480
| 14> H         -0.38448        6.29945       -2.30062
| 15> H         -1.21111        5.05451       -1.39516
| 16> H         -2.07413        6.48833       -1.89758
| 17> *
| 18> %MaxCore 64000
| 19>
| 20> %pal nprocs 18
| 21> end
| 22>
| 23> %scf
| 24>   MaxIter 150
| 25> end
| 26>
| 27>
| 28>                          ****END OF INPUT****

CARTESIAN COORDINATES (ANGSTROEM)
---------------------------------
  C     -0.701690    4.072500   -4.003920
  C      0.680530    4.614820   -4.048000
  H      0.699930    5.584890   -4.388270
  H      1.278040    4.055980   -4.668240
  H      1.085730    4.533580   -3.106520
  C     -1.703470    5.093200   -3.477400
  H     -0.995900    3.740390   -5.000650
  H     -0.643580    3.201910   -3.351530
  C     -1.314000    5.786000   -2.169270
  H     -1.877060    5.850100   -4.251150
  H     -2.653260    4.564480   -3.354800
  H     -0.384480    6.299450   -2.300620
  H     -1.211110    5.054510   -1.395160
  H     -2.074130    6.488330   -1.897580

 Total Charge           Charge          ....    0
 Multiplicity           Mult            ....    1
 Number of Electrons    NEL             ....   34
 Basis Dimension        Dim             ....  160

ORBITAL ENERGIES
----------------

  NO   OCC          E(Eh)            E(eV)
   0   2.0000     -10.274955      -279.5957
   1   2.0000     -10.269614      -279.4504
   2   2.0000     -10.264557      -279.3128
   3   2.0000     -10.244318      -278.7621
   4   2.0000      -0.909706       -24.7544
   5   2.0000      -0.832763       -22.6606
   6   2.0000      -0.749332       -20.3904
   7   2.0000      -0.663127       -18.0446
   8   2.0000      -0.566817       -15.4239
   9   2.0000      -0.559690       -15.2299
  10   2.0000      -0.520323       -14.1587
  11   2.0000      -0.480906       -13.0861
  12   2.0000      -0.476945       -12.9783
  13   2.0000      -0.455606       -12.3977
  14   2.0000      -0.412184       -11.2161
  15   2.0000      -0.409541       -11.1442
  16   2.0000      -0.405687       -11.0393
  17   0.0000       0.099872         2.7177
  18   0.0000       0.124100         3.3769
  19   0.0000       0.125792         3.4230
  20   0.0000       0.140558         3.8248
  21   0.0000       0.173221         4.7136

MULLIKEN ATOMIC CHARGES
-----------------------
   0 C :   -0.317932
   1 C :    0.887176
   2 H :   -0.171069
   3 H :   -0.332182
   4 H :   -0.015024
   5 C :   -0.378427
   6 H :   -0.077758
   7 H :   -0.028146
   8 C :    0.578495
   9 H :    0.021558
  10 H :   -0.084041
  11 H :   -0.013108
  12 H :   -0.018209
  13 H :   -0.051332
Sum of atomic charges:   -0.0000000

LOEWDIN ATOMIC CHARGES
----------------------
   0 C :   -0.083820
   1 C :    0.108586
   2 H :   -0.025098
   3 H :   -0.033525
   4 H :   -0.027449
   5 C :   -0.085580
   6 H :    0.022629
   7 H :    0.024400
   8 C :    0.118460
   9 H :    0.023320
  10 H :    0.014963
  11 H :   -0.025887
  12 H :   -0.012740
  13 H :   -0.018257

  Mayer bond orders larger than 0.100000
B(  0-C ,  1-C ) :   1.2713 B(  0-C ,  2-H ) :   0.2276 B(  0-C ,  3-H ) :   0.2238
B(  0-C ,  4-H ) :   0.2512 B(  0-C ,  5-C ) :   1.1647 B(  0-C ,  6-H ) :   0.9428
B(  0-C ,  7-H ) :   0.8807 B(  0-C ,  9-H ) :   0.1158 B(  0-C , 10-H ) :   0.1375
B(  1-C ,  2-H ) :   0.7511 B(  1-C ,  3-H ) :   0.7676 B(  1-C ,  4-H ) :   0.7050
B(  1-C ,  7-H ) :   0.1300 B(  5-C ,  7-H ) :   0.1230 B(  5-C ,  8-C ) :   1.3049
B(  5-C ,  9-H ) :   0.9092 B(  5-C , 10-H ) :   0.9547 B(  5-C , 11-H ) :   0.1807
B(  5-C , 12-H ) :   0.1751 B(  5-C , 13-H ) :   0.2030 B(  8-C , 11-H ) :   0.8519
B(  8-C , 12-H ) :   0.8205 B(  8-C , 13-H ) :   0.7880

Dispersion correction           -0.002770710
FINAL SINGLE POINT ENERGY      -158.290740326019

DIPOLE MOMENT
-------------
                                X             Y             Z
Electronic contribution:     -0.61605      -0.37602      -0.43048
Nuclear contribution   :      0.63648       0.35464       0.41252
                        -----------------------------------------
Total Dipole Moment    :      0.02042      -0.02138      -0.01796
                        -----------------------------------------
Magnitude (a.u.)       :      0.03460
Magnitude (Debye)      :      0.08793

Rotational constants in cm-1:     0.435124     0.173315     0.141457
Rotational constants in MHz : 13044.691962  5195.845291  4240.763698

                             ****ORCA TERMINATED NORMALLY****
TOTAL RUN TIME: 0 days 0 hours 0 minutes 9 seconds 179 msec
