                         Program Version 5.0.0 -  RELEASE  -
|  1> !PBE D3BJ RIJCOSX def2-TZVP def2/J TightSCF
|  2> *xyz -1 1
|  3> C          3.80351        1.37472       -3.26081
|  4> C          3.93993        0.32036       -4.36773
|  5> H          4.10504       -0.65508       -3.90773
|  6> H          3.02280        0.28052       -4.95712
|  7> C          5.10585        0.66802       -5.30546
|  8> O          4.80913        1.15019       -6.41436
|  9> O          6.26737        0.56500       -4.81948
| 10> H          3.64113        2.33595       -3.70189
| 11> H          4.69995        1.39701       -2.67703
| 12> H          2.97435        1.12625       -2.63180
| 13> *
| 14>
| 15> %MaxCore 64000
| 16>
| 17> %pal nprocs 4
| 18> end
| 19>
| 20> %scf
| 21>   MaxIter 150
| 22> end
| 23>
| 24>
| 25>                          ****END OF INPUT****

CARTESIAN COORDINATES (ANGSTROEM)
---------------------------------
  C      3.803510    1.374720   -3.260810
  C      3.939930    0.320360   -4.367730
  H      4.105040   -0.655080   -3.907730
  H      3.022800    0.280520   -4.957120
  C      5.105850    0.668020   -5.305460
  O      4.809130    1.150190   -6.414360
  O      6.267370    0.565000   -4.819480
  H      3.641130    2.335950   -3.701890
  H      4.699950    1.397010   -2.677030
  H      2.974350    1.126250   -2.631800

 Total Charge           Charge          ....   -1
 Multiplicity           Mult            ....    1
 Number of Electrons    NEL             ....   40
 Basis Dimension        Dim             ....  185

ORBITAL ENERGIES
----------------

  NO   OCC          E(Eh)            E(eV)
   0   2.0000     -18.475177      -502.7351
   1   2.0000     -18.472218      -502.6546
   2   2.0000      -9.742735      -265.1133
   3   2.0000      -9.711431      -264.2615
   4   2.0000      -9.697474      -263.8817
   5   2.0000      -0.722178       -19.6515
   6   2.0000      -0.634820       -17.2743
   7   2.0000      -0.526638       -14.3306
   8   2.0000      -0.401232       -10.9181
   9   2.0000      -0.259936        -7.0732
  10   2.0000      -0.236459        -6.4344
  11   2.0000      -0.201947        -5.4953
  12   2.0000      -0.175325        -4.7708
  13   2.0000      -0.157892        -4.2964
  14   2.0000      -0.151472        -4.1218
  15   2.0000      -0.121609        -3.3091
  16   2.0000      -0.111975        -3.0470
  17   2.0000      -0.001360        -0.0370
  18   2.0000       0.014674         0.3993
  19   2.0000       0.028910         0.7867
  20   0.0000       0.168161         4.5759
  21   0.0000       0.208323         5.6687
  22   0.0000       0.217108         5.9078
  23   0.0000       0.230412         6.2698
  24   0.0000       0.239762         6.5243

MULLIKEN ATOMIC CHARGES
-----------------------
   0 C :   -0.335607
   1 C :   -0.120341
   2 H :    0.020925
   3 H :    0.021702
   4 C :    0.127585
   5 O :   -0.460628
   6 O :   -0.489228
   7 H :    0.090534
   8 H :    0.087941
   9 H :    0.057116
Sum of atomic charges:   -1.0000000

LOEWDIN ATOMIC CHARGES
----------------------
   0 C :   -0.331010
   1 C :   -0.302359
   2 H :    0.114696
   3 H :    0.114490
   4 C :   -0.739436
   5 O :   -0.070306
   6 O :   -0.099360
   7 H :    0.109779
   8 H :    0.109923
   9 H :    0.093585

  Mayer bond orders larger than 0.100000
B(  0-C ,  1-C ) :   0.9867 B(  0-C ,  7-H ) :   0.9794 B(  0-C ,  8-H ) :   0.9644
B(  0-C ,  9-H ) :   0.9621 B(  1-C ,  2-H ) :   0.9314 B(  1-C ,  3-H ) :   0.9314
B(  1-C ,  4-C ) :   0.9231 B(  4-C ,  5-O ) :   1.9355 B(  4-C ,  6-O ) :   1.8821

Dispersion correction           -0.006570267
FINAL SINGLE POINT ENERGY      -267.635259760429

DIPOLE MOMENT
-------------
                                X             Y             Z
Electronic contribution:      3.88128      -0.45048      -4.63082
Nuclear contribution   :     -5.15232       0.33441       5.87398
                        -----------------------------------------
Total Dipole Moment    :     -1.27105      -0.11608       1.24316
                        -----------------------------------------
Magnitude (a.u.)       :      1.78170
Magnitude (Debye)      :      4.52873

Rotational constants in cm-1:     0.295355     0.137164     0.110193
Rotational constants in MHz :  8854.523706  4112.077980  3303.490503

                             ****ORCA TERMINATED NORMALLY****
TOTAL RUN TIME: 0 days 0 hours 0 minutes 6 seconds 352 msec
