                         Program Version 5.0.0 -  RELEASE  -
|  1> !PBE D3BJ RIJCOSX def2-TZVP def2/J TightSCF
|  2> *xyz 1 1
|  3> C          3.90595        2.81985       -3.75292
|  4> N          5.29562        3.13151       -4.10533
|  5> C          3.80351        1.37472       -3.26081
|  6> C          5.70862        3.46889       -5.32419
|  7> N          6.90470        3.03895       -5.71708
|  8> N          4.98188        4.29357       -6.09746
|  9> H          5.00055        4.10131       -7.08776
| 10> H          4.08469        4.59690       -5.73965
| 11> H          5.96336        2.52611       -3.64239
| 12> H          7.04716        2.06686       -5.47360
| 13> H          7.19815        3.30799       -6.64523
| 14> H          3.28202        2.94919       -4.64026
| 15> H          3.56525        3.51457       -2.98252
| 16> H          4.14157        0.71142       -4.02935
| 17> H          2.78528        1.15146       -3.01944
| 18> H          4.41205        1.25066       -2.38949
| 19> *
| 20>
| 21> %MaxCore 64000
| 22>
| 23> %pal nprocs 4
| 24> end
| 25>
| 26> %scf
| 27>   MaxIter 150
| 28> end
| 29>
| 30>
| 31>                          ****END OF INPUT****

CARTESIAN COORDINATES (ANGSTROEM)
---------------------------------
  C      3.905950    2.819850   -3.752920
  N      5.295620    3.131510   -4.105330
  C      3.803510    1.374720   -3.260810
  C      5.708620    3.468890   -5.324190
  N      6.904700    3.038950   -5.717080
  N      4.981880    4.293570   -6.097460
  H      5.000550    4.101310   -7.087760
  H      4.084690    4.596900   -5.739650
  H      5.963360    2.526110   -3.642390
  H      7.047160    2.066860   -5.473600
  H      7.198150    3.307990   -6.645230
  H      3.282020    2.949190   -4.640260
  H      3.565250    3.514570   -2.982520
  H      4.141570    0.711420   -4.029350
  H      2.785280    1.151460   -3.019440
  H      4.412050    1.250660   -2.389490

 Total Charge           Charge          ....    1
 Multiplicity           Mult            ....    1
 Number of Electrons    NEL             ....   48
 Basis Dimension        Dim             ....  246

ORBITAL ENERGIES
----------------

  NO   OCC          E(Eh)            E(eV)
   0   2.0000     -14.211209      -386.7067
   1   2.0000     -14.209458      -386.6590
   2   2.0000     -14.208170      -386.6239
   3   2.0000     -10.203822      -277.6601
   4   2.0000     -10.091092      -274.5926
   5   2.0000     -10.024676      -272.7853
   6   2.0000      -1.135971       -30.9113
   7   2.0000      -1.030689       -28.0465
   8   2.0000      -1.023079       -27.8394
   9   2.0000      -0.866018       -23.5655
  10   2.0000      -0.775200       -21.0943
  11   2.0000      -0.750175       -20.4133
  12   2.0000      -0.722754       -19.6671
  13   2.0000      -0.692138       -18.8340
  14   2.0000      -0.651056       -17.7161
  15   2.0000      -0.639249       -17.3949
  16   2.0000      -0.602627       -16.3983
  17   2.0000      -0.581600       -15.8261
  18   2.0000      -0.548796       -14.9335
  19   2.0000      -0.516752       -14.0615
  20   2.0000      -0.494512       -13.4564
  21   2.0000      -0.479274       -13.0417
  22   2.0000      -0.448571       -12.2062
  23   2.0000      -0.421680       -11.4745
  24   0.0000      -0.223362        -6.0780
  25   0.0000      -0.176607        -4.8057
  26   0.0000      -0.142075        -3.8661
  27   0.0000      -0.128626        -3.5001
  28   0.0000      -0.111150        -3.0246

MULLIKEN ATOMIC CHARGES
-----------------------
   0 C :   -0.116016
   1 N :   -0.174257
   2 C :   -0.396789
   3 C :    0.310413
   4 N :   -0.335348
   5 N :   -0.352795
   6 H :    0.273234
   7 H :    0.276430
   8 H :    0.234402
   9 H :    0.271354
  10 H :    0.268390
  11 H :    0.116737
  12 H :    0.170306
  13 H :    0.133805
  14 H :    0.166030
  15 H :    0.154105
Sum of atomic charges:    1.0000000

LOEWDIN ATOMIC CHARGES
----------------------
   0 C :   -0.284596
   1 N :    0.183278
   2 C :   -0.285395
   3 C :   -0.442265
   4 N :    0.074181
   5 N :    0.077130
   6 H :    0.194903
   7 H :    0.194828
   8 H :    0.210005
   9 H :    0.199422
  10 H :    0.196187
  11 H :    0.138285
  12 H :    0.147886
  13 H :    0.124170
  14 H :    0.141662
  15 H :    0.130318

  Mayer bond orders larger than 0.100000
B(  0-C ,  1-N ) :   0.8882 B(  0-C ,  2-C ) :   1.0019 B(  0-C , 11-H ) :   0.9575
B(  0-C , 12-H ) :   0.9362 B(  1-N ,  3-C ) :   1.3990 B(  1-N ,  8-H ) :   0.8997
B(  2-C , 13-H ) :   0.9641 B(  2-C , 14-H ) :   0.9526 B(  2-C , 15-H ) :   0.9594
B(  3-C ,  4-N ) :   1.3298 B(  3-C ,  5-N ) :   1.3350 B(  4-N ,  9-H ) :   0.8894
B(  4-N , 10-H ) :   0.8946 B(  5-N ,  6-H ) :   0.8877 B(  5-N ,  7-H ) :   0.8938

Dispersion correction           -0.012251198
FINAL SINGLE POINT ENERGY      -284.146701802792

DIPOLE MOMENT
-------------
                                X             Y             Z
Electronic contribution:      3.51922       3.40971      -2.64620
Nuclear contribution   :     -3.31456      -3.64300       1.57303
                        -----------------------------------------
Total Dipole Moment    :      0.20466      -0.23329      -1.07317
                        -----------------------------------------
Magnitude (a.u.)       :      1.11714
Magnitude (Debye)      :      2.83954

Rotational constants in cm-1:     0.229487     0.071000     0.059428
Rotational constants in MHz :  6879.840828  2128.520047  1781.605314

                             ****ORCA TERMINATED NORMALLY****
TOTAL RUN TIME: 0 days 0 hours 0 minutes 9 seconds 549 msec
