                         Program Version 5.0.0 -  RELEASE  -
|  1> !PBE D3BJ RIJCOSX def2-TZVP def2/J TightSCF
|  2> *xyz 0 1
|  3> C          3.80351        1.37472       -3.26081
|  4> C          3.93993        0.32036       -4.36773
|  5> H          4.10504       -0.65508       -3.90773
|  6> H          3.02280        0.28052       -4.95712
|  7> C          5.10585        0.66802       -5.30546
|  8> F          4.80913        1.15019       -6.41436
|  9> O          6.26737        0.56500       -4.81948
| 10> H          3.64113        2.33595       -3.70189
| 11> H          4.69995        1.39701       -2.67703
| 12> H          2.97435        1.12625       -2.63180
| 13> *
| 14>
| 15> %MaxCore 64000
| 16>
| 17> %pal nprocs 4
| 18> end
| 19>
| 20> %scf
| 21>   MaxIter 150
| 22> end
| 23>
| 24>
| 25>                          ****END OF INPUT****

CARTESIAN COORDINATES (ANGSTROEM)
---------------------------------
  C      3.803510    1.374720   -3.260810
  C      3.939930    0.320360   -4.367730
  H      4.105040   -0.655080   -3.907730
  H      3.022800    0.280520   -4.957120
  C      5.105850    0.668020   -5.305460
  F      4.809130    1.150190   -6.414360
  O      6.267370    0.565000   -4.819480
  H      3.641130    2.335950   -3.701890
  H      4.699950    1.397010   -2.677030
  H      2.974350    1.126250   -2.631800

 Total Charge           Charge          ....    0
 Multiplicity           Mult            ....    1
 Number of Electrons    NEL             ....   40
 Basis Dimension        Dim             ....  185

ORBITAL ENERGIES
----------------

  NO   OCC          E(Eh)            E(eV)
   0   2.0000     -24.328661      -662.0165
   1   2.0000     -18.750214      -510.2193
   2   2.0000     -10.046512      -273.3795
   3   2.0000      -9.910089      -269.6672
   4   2.0000      -9.885705      -269.0037
   5   2.0000      -1.222071       -33.2542
   6   2.0000      -0.939198       -25.5569
   7   2.0000      -0.726934       -19.7809
   8   2.0000      -0.622849       -16.9486
   9   2.0000      -0.578230       -15.7344
  10   2.0000      -0.492057       -13.3896
  11   2.0000      -0.476256       -12.9596
  12   2.0000      -0.449586       -12.2338
  13   2.0000      -0.414608       -11.2821
  14   2.0000      -0.384525       -10.4635
  15   2.0000      -0.354118        -9.6360
  16   2.0000      -0.331836        -9.0297
  17   2.0000      -0.327462        -8.9107
  18   2.0000      -0.304281        -8.2799
  19   2.0000      -0.239612        -6.5202
  20   0.0000      -0.066554        -1.8110
  21   0.0000       0.014373         0.3911
  22   0.0000       0.055052         1.4980
  23   0.0000       0.066191         1.8011
  24   0.0000       0.078546         2.1374

MULLIKEN ATOMIC CHARGES
-----------------------
   0 C :   -0.359579
   1 C :   -0.197577
   2 H :    0.123113
   3 H :    0.100257
   4 C :    0.304783
   5 F :   -0.052711
   6 O :   -0.300189
   7 H :    0.118490
   8 H :    0.138384
   9 H :    0.125029
Sum of atomic charges:    0.0000000

LOEWDIN ATOMIC CHARGES
----------------------
   0 C :   -0.291109
   1 C :   -0.265882
   2 H :    0.152020
   3 H :    0.137824
   4 C :   -0.539759
   5 F :    0.362103
   6 O :    0.076365
   7 H :    0.120997
   8 H :    0.126041
   9 H :    0.121401

  Mayer bond orders larger than 0.100000
B(  0-C ,  1-C ) :   0.9893 B(  0-C ,  7-H ) :   0.9692 B(  0-C ,  8-H ) :   0.9658
B(  0-C ,  9-H ) :   0.9617 B(  1-C ,  2-H ) :   0.9390 B(  1-C ,  3-H ) :   0.9408
B(  1-C ,  4-C ) :   0.9961 B(  4-C ,  5-F ) :   1.2027 B(  4-C ,  6-O ) :   2.0723

Dispersion correction           -0.006234845
FINAL SINGLE POINT ENERGY      -292.187835449294

DIPOLE MOMENT
-------------
                                X             Y             Z
Electronic contribution:      4.06504       0.00382      -7.46055
Nuclear contribution   :     -5.17129      -0.01923       7.59895
                        -----------------------------------------
Total Dipole Moment    :     -1.10625      -0.01541       0.13840
                        -----------------------------------------
Magnitude (a.u.)       :      1.11498
Magnitude (Debye)      :      2.83406

Rotational constants in cm-1:     0.282073     0.131822     0.105134
Rotational constants in MHz :  8456.328792  3951.925810  3151.840112

                             ****ORCA TERMINATED NORMALLY****
TOTAL RUN TIME: 0 days 0 hours 0 minutes 6 seconds 663 msec
