                         Program Version 5.0.0 -  RELEASE  -
|  1> !PBE D3BJ RIJCOSX def2-TZVP def2/J TightSCF
|  2> *xyz 0 1
|  3> C          3.90595        2.81985       -3.75292
|  4> C          5.29562        3.13151       -4.10533
|  5> C          3.80351        1.37472       -3.26081
|  6> C          5.70862        3.46889       -5.32419
|  7> N          6.90470        3.03895       -5.71708
|  8> N          4.98188        4.29357       -6.09746
|  9> H          5.00055        4.10131       -7.08776
| 10> H          4.08469        4.59690       -5.73965
| 11> H          5.96336        2.52611       -3.64239
| 12> H          7.04716        2.06686       -5.47360
| 13> H          7.19815        3.30799       -6.64523
| 14> H          3.28202        2.94919       -4.64026
| 15> H          3.56525        3.51457       -2.98252
| 16> H          4.14157        0.71142       -4.02935
| 17> H          2.78528        1.15146       -3.01944
| 18> H          4.41205        1.25066       -2.38949
| 19> *
| 20>
| 21> %MaxCore 64000
| 22>
| 23> %pal nprocs 4
| 24> end
| 25>
| 26> %scf
| 27>   MaxIter 150
| 28> end
| 29>
| 30>
| 31>                          ****END OF INPUT****

CARTESIAN COORDINATES (ANGSTROEM)
---------------------------------
  C      3.905950    2.819850   -3.752920
  C      5.295620    3.131510   -4.105330
  C      3.803510    1.374720   -3.260810
  C      5.708620    3.468890   -5.324190
  N      6.904700    3.038950   -5.717080
  N      4.981880    4.293570   -6.097460
  H      5.000550    4.101310   -7.087760
  H      4.084690    4.596900   -5.739650
  H      5.963360    2.526110   -3.642390
  H      7.047160    2.066860   -5.473600
  H      7.198150    3.307990   -6.645230
  H      3.282020    2.949190   -4.640260
  H      3.565250    3.514570   -2.982520
  H      4.141570    0.711420   -4.029350
  H      2.785280    1.151460   -3.019440
  H      4.412050    1.250660   -2.389490

 Total Charge           Charge          ....    0
 Multiplicity           Mult            ....    1
 Number of Electrons    NEL             ....   48
 Basis Dimension        Dim             ....  246

ORBITAL ENERGIES
----------------

  NO   OCC          E(Eh)            E(eV)
   0   2.0000     -13.986568      -380.5939
   1   2.0000     -13.983629      -380.5139
   2   2.0000      -9.915515      -269.8149
   3   2.0000      -9.858248      -268.2566
   4   2.0000      -9.849512      -268.0188
   5   2.0000      -9.807010      -266.8623
   6   2.0000      -0.882836       -24.0232
   7   2.0000      -0.800477       -21.7821
   8   2.0000      -0.703327       -19.1385
   9   2.0000      -0.627408       -17.0726
  10   2.0000      -0.552529       -15.0351
  11   2.0000      -0.520152       -14.1540
  12   2.0000      -0.483149       -13.1472
  13   2.0000      -0.457973       -12.4621
  14   2.0000      -0.428580       -11.6623
  15   2.0000      -0.396684       -10.7943
  16   2.0000      -0.373408       -10.1610
  17   2.0000      -0.342159        -9.3106
  18   2.0000      -0.323561        -8.8045
  19   2.0000      -0.307421        -8.3654
  20   2.0000      -0.283775        -7.7219
  21   2.0000      -0.280809        -7.6412
  22   2.0000      -0.230892        -6.2829
  23   2.0000      -0.139106        -3.7853
  24   0.0000      -0.004263        -0.1160
  25   0.0000       0.024630         0.6702
  26   0.0000       0.037561         1.0221
  27   0.0000       0.040981         1.1152
  28   0.0000       0.059401         1.6164

MULLIKEN ATOMIC CHARGES
-----------------------
   0 C :   -0.126494
   1 C :   -0.275775
   2 C :   -0.362705
   3 C :    0.225541
   4 N :   -0.419629
   5 N :   -0.418773
   6 H :    0.195769
   7 H :    0.230549
   8 H :    0.058638
   9 H :    0.237975
  10 H :    0.199898
  11 H :    0.044083
  12 H :    0.091625
  13 H :    0.099480
  14 H :    0.105640
  15 H :    0.114179
Sum of atomic charges:    0.0000000

LOEWDIN ATOMIC CHARGES
----------------------
   0 C :   -0.311573
   1 C :   -0.271856
   2 C :   -0.306394
   3 C :   -0.488803
   4 N :   -0.003684
   5 N :   -0.006650
   6 H :    0.152009
   7 H :    0.172613
   8 H :    0.127078
   9 H :    0.178730
  10 H :    0.158025
  11 H :    0.126085
  12 H :    0.131110
  13 H :    0.113292
  14 H :    0.112584
  15 H :    0.117434

  Mayer bond orders larger than 0.100000
B(  0-C ,  1-C ) :   1.0005 B(  0-C ,  2-C ) :   0.9838 B(  0-C , 11-H ) :   0.9456
B(  0-C , 12-H ) :   0.9496 B(  1-C ,  3-C ) :   1.6710 B(  1-C ,  8-H ) :   1.0163
B(  2-C , 13-H ) :   0.9753 B(  2-C , 14-H ) :   0.9664 B(  2-C , 15-H ) :   0.9742
B(  3-C ,  4-N ) :   1.1411 B(  3-C ,  5-N ) :   1.1700 B(  4-N ,  9-H ) :   0.9144
B(  4-N , 10-H ) :   0.9246 B(  5-N ,  6-H ) :   0.9058 B(  5-N ,  7-H ) :   0.9185

Dispersion correction           -0.012710731
FINAL SINGLE POINT ENERGY      -267.668484363354

DIPOLE MOMENT
-------------
                                X             Y             Z
Electronic contribution:      3.22484       3.28778      -2.87188
Nuclear contribution   :     -3.27358      -3.61654       1.70633
                        -----------------------------------------
Total Dipole Moment    :     -0.04873      -0.32877      -1.16555
                        -----------------------------------------
Magnitude (a.u.)       :      1.21202
Magnitude (Debye)      :      3.08070

Rotational constants in cm-1:     0.231961     0.071249     0.059473
Rotational constants in MHz :  6954.024434  2135.976855  1782.962814

                             ****ORCA TERMINATED NORMALLY****
TOTAL RUN TIME: 0 days 0 hours 0 minutes 12 seconds 712 msec
