                         Program Version 5.0.0 -  RELEASE  -
|  1> !PBE D3BJ RIJCOSX def2-TZVP def2/J TightSCF
|  2> *xyz 0 1
|  3> C          3.80351        1.37472       -3.26081
|  4> C          3.93993        0.32036       -4.36773
|  5> H          4.10504       -0.65508       -3.90773
|  6> H          3.02280        0.28052       -4.95712
|  7> C          5.10585        0.66802       -5.30546
|  8> O          4.80913        1.15019       -6.41436
|  9> F          6.26737        0.56500       -4.81948
| 10> H          3.64113        2.33595       -3.70189
| 11> H          4.69995        1.39701       -2.67703
| 12> H          2.97435        1.12625       -2.63180
| 13> *
| 14>
| 15> %MaxCore 64000
| 16>
| 17> %pal nprocs 4
| 18> end
| 19>
| 20> %scf
| 21>   MaxIter 150
| 22> end
| 23>
| 24>
| 25>                          ****END OF INPUT****

CARTESIAN COORDINATES (ANGSTROEM)
---------------------------------
  C      3.803510    1.374720   -3.260810
  C      3.939930    0.320360   -4.367730
  H      4.105040   -0.655080   -3.907730
  H      3.022800    0.280520   -4.957120
  C      5.105850    0.668020   -5.305460
  O      4.809130    1.150190   -6.414360
  F      6.267370    0.565000   -4.819480
  H      3.641130    2.335950   -3.701890
  H      4.699950    1.397010   -2.677030
  H      2.974350    1.126250   -2.631800

 Total Charge           Charge          ....    0
 Multiplicity           Mult            ....    1
 Number of Electrons    NEL             ....   40
 Basis Dimension        Dim             ....  185

ORBITAL ENERGIES
----------------

  NO   OCC          E(Eh)            E(eV)
   0   2.0000     -24.321903      -661.8326
   1   2.0000     -18.752580      -510.2837
   2   2.0000     -10.044593      -273.3273
   3   2.0000      -9.909667      -269.6557
   4   2.0000      -9.888389      -269.0767
   5   2.0000      -1.208797       -32.8930
   6   2.0000      -0.949579       -25.8394
   7   2.0000      -0.728819       -19.8322
   8   2.0000      -0.617791       -16.8109
   9   2.0000      -0.576579       -15.6895
  10   2.0000      -0.486921       -13.2498
  11   2.0000      -0.472143       -12.8477
  12   2.0000      -0.446401       -12.1472
  13   2.0000      -0.414094       -11.2681
  14   2.0000      -0.385420       -10.4878
  15   2.0000      -0.356423        -9.6988
  16   2.0000      -0.336101        -9.1458
  17   2.0000      -0.328650        -8.9430
  18   2.0000      -0.312851        -8.5131
  19   2.0000      -0.240552        -6.5458
  20   0.0000      -0.062762        -1.7078
  21   0.0000       0.012183         0.3315
  22   0.0000       0.054399         1.4803
  23   0.0000       0.068414         1.8616
  24   0.0000       0.084085         2.2881

MULLIKEN ATOMIC CHARGES
-----------------------
   0 C :   -0.364790
   1 C :   -0.196594
   2 H :    0.107727
   3 H :    0.123434
   4 C :    0.296103
   5 O :   -0.277667
   6 F :   -0.070746
   7 H :    0.131391
   8 H :    0.123054
   9 H :    0.128087
Sum of atomic charges:    0.0000000

LOEWDIN ATOMIC CHARGES
----------------------
   0 C :   -0.295002
   1 C :   -0.262931
   2 H :    0.142595
   3 H :    0.150733
   4 C :   -0.537278
   5 O :    0.100339
   6 F :    0.333733
   7 H :    0.124174
   8 H :    0.120943
   9 H :    0.122694

  Mayer bond orders larger than 0.100000
B(  0-C ,  1-C ) :   0.9805 B(  0-C ,  7-H ) :   0.9681 B(  0-C ,  8-H ) :   0.9684
B(  0-C ,  9-H ) :   0.9614 B(  1-C ,  2-H ) :   0.9296 B(  1-C ,  3-H ) :   0.9519
B(  1-C ,  4-C ) :   1.0100 B(  4-C ,  5-O ) :   2.1066 B(  4-C ,  6-F ) :   1.1753

Dispersion correction           -0.006214541
FINAL SINGLE POINT ENERGY      -292.192891197394

DIPOLE MOMENT
-------------
                                X             Y             Z
Electronic contribution:      6.44717      -0.96261      -4.82320
Nuclear contribution   :     -6.76123       0.61881       5.86003
                        -----------------------------------------
Total Dipole Moment    :     -0.31406      -0.34380       1.03682
                        -----------------------------------------
Magnitude (a.u.)       :      1.13659
Magnitude (Debye)      :      2.88899

Rotational constants in cm-1:     0.275298     0.134631     0.105723
Rotational constants in MHz :  8253.224169  4036.137572  3169.487264

                             ****ORCA TERMINATED NORMALLY****
TOTAL RUN TIME: 0 days 0 hours 0 minutes 6 seconds 197 msec
