                         Program Version 5.0.0 -  RELEASE  -
|  1> !PBE D3BJ RIJCOSX def2-TZVP def2/J TightSCF
|  2> *xyz 0 1
|  3> C          3.90595        2.81985       -3.75292
|  4> N          5.29562        3.13151       -4.10533
|  5> C          3.80351        1.37472       -3.26081
|  6> C          5.70862        3.46889       -5.32419
|  7> C          6.90470        3.03895       -5.71708
|  8> N          4.98188        4.29357       -6.09746
|  9> H          5.00055        4.10131       -7.08776
| 10> H          4.08469        4.59690       -5.73965
| 11> H          5.96336        2.52611       -3.64239
| 12> H          7.04716        2.06686       -5.47360
| 13> H          7.19815        3.30799       -6.64523
| 14> H          3.28202        2.94919       -4.64026
| 15> H          3.56525        3.51457       -2.98252
| 16> H          4.14157        0.71142       -4.02935
| 17> H          2.78528        1.15146       -3.01944
| 18> H          4.41205        1.25066       -2.38949
| 19> *
| 20>
| 21> %MaxCore 64000
| 22>
| 23> %pal nprocs 4
| 24> end
| 25>
| 26> %scf
| 27>   MaxIter 150
| 28> end
| 29>
| 30>
| 31>                          ****END OF INPUT****

CARTESIAN COORDINATES (ANGSTROEM)
---------------------------------
  C      3.905950    2.819850   -3.752920
  N      5.295620    3.131510   -4.105330
  C      3.803510    1.374720   -3.260810
  C      5.708620    3.468890   -5.324190
  C      6.904700    3.038950   -5.717080
  N      4.981880    4.293570   -6.097460
  H      5.000550    4.101310   -7.087760
  H      4.084690    4.596900   -5.739650
  H      5.963360    2.526110   -3.642390
  H      7.047160    2.066860   -5.473600
  H      7.198150    3.307990   -6.645230
  H      3.282020    2.949190   -4.640260
  H      3.565250    3.514570   -2.982520
  H      4.141570    0.711420   -4.029350
  H      2.785280    1.151460   -3.019440
  H      4.412050    1.250660   -2.389490

 Total Charge           Charge          ....    0
 Multiplicity           Mult            ....    1
 Number of Electrons    NEL             ....   48
 Basis Dimension        Dim             ....  246

ORBITAL ENERGIES
----------------

  NO   OCC          E(Eh)            E(eV)
   0   2.0000     -13.987559      -380.6208
   1   2.0000     -13.986508      -380.5922
   2   2.0000      -9.919979      -269.9364
   3   2.0000      -9.919662      -269.9277
   4   2.0000      -9.879208      -268.8269
   5   2.0000      -9.792412      -266.4651
   6   2.0000      -0.887701       -24.1556
   7   2.0000      -0.811393       -22.0791
   8   2.0000      -0.703610       -19.1462
   9   2.0000      -0.638099       -17.3636
  10   2.0000      -0.569422       -15.4948
  11   2.0000      -0.540596       -14.7104
  12   2.0000      -0.482095       -13.1185
  13   2.0000      -0.445575       -12.1247
  14   2.0000      -0.434841       -11.8326
  15   2.0000      -0.405983       -11.0474
  16   2.0000      -0.375783       -10.2256
  17   2.0000      -0.355111        -9.6631
  18   2.0000      -0.337031        -9.1711
  19   2.0000      -0.330233        -8.9861
  20   2.0000      -0.328267        -8.9326
  21   2.0000      -0.293153        -7.9771
  22   2.0000      -0.219835        -5.9820
  23   2.0000      -0.142934        -3.8894
  24   0.0000       0.001238         0.0337
  25   0.0000       0.019165         0.5215
  26   0.0000       0.030818         0.8386
  27   0.0000       0.042196         1.1482
  28   0.0000       0.059707         1.6247

MULLIKEN ATOMIC CHARGES
-----------------------
   0 C :   -0.081928
   1 N :   -0.216095
   2 C :   -0.393644
   3 C :    0.251278
   4 C :   -0.481614
   5 N :   -0.424146
   6 H :    0.236286
   7 H :    0.206841
   8 H :    0.200449
   9 H :    0.078300
  10 H :    0.063303
  11 H :    0.079207
  12 H :    0.111948
  13 H :    0.130314
  14 H :    0.116566
  15 H :    0.122935
Sum of atomic charges:   -0.0000000

LOEWDIN ATOMIC CHARGES
----------------------
   0 C :   -0.314910
   1 N :    0.126918
   2 C :   -0.311716
   3 C :   -0.488502
   4 C :   -0.349811
   5 N :    0.001111
   6 H :    0.172933
   7 H :    0.157552
   8 H :    0.194784
   9 H :    0.103554
  10 H :    0.097240
  11 H :    0.125780
  12 H :    0.125037
  13 H :    0.120789
  14 H :    0.120622
  15 H :    0.118619

  Mayer bond orders larger than 0.100000
B(  0-C ,  1-N ) :   0.9583 B(  0-C ,  2-C ) :   1.0024 B(  0-C , 11-H ) :   0.9536
B(  0-C , 12-H ) :   0.9507 B(  1-N ,  3-C ) :   1.2512 B(  1-N ,  8-H ) :   0.9180
B(  2-C , 13-H ) :   0.9710 B(  2-C , 14-H ) :   0.9633 B(  2-C , 15-H ) :   0.9683
B(  3-C ,  4-C ) :   1.6570 B(  3-C ,  5-N ) :   1.1278 B(  4-C ,  9-H ) :   0.9781
B(  4-C , 10-H ) :   1.0086 B(  5-N ,  6-H ) :   0.9164 B(  5-N ,  7-H ) :   0.9244

Dispersion correction           -0.012608799
FINAL SINGLE POINT ENERGY      -267.657443829652

DIPOLE MOMENT
-------------
                                X             Y             Z
Electronic contribution:      1.53098       3.28122      -1.28021
Nuclear contribution   :     -2.93222      -3.63618       1.36440
                        -----------------------------------------
Total Dipole Moment    :     -1.40124      -0.35496       0.08419
                        -----------------------------------------
Magnitude (a.u.)       :      1.44795
Magnitude (Debye)      :      3.68040

Rotational constants in cm-1:     0.237993     0.072843     0.061284
Rotational constants in MHz :  7134.860770  2183.763760  1837.240960

                             ****ORCA TERMINATED NORMALLY****
TOTAL RUN TIME: 0 days 0 hours 0 minutes 10 seconds 377 msec
