                         Program Version 5.0.0 -  RELEASE  -
|  1> !PBE D3BJ RIJCOSX def2-TZVP def2/J TightSCF
|  2> *xyz 0 1
|  3> C          3.90595        2.81985       -3.75292
|  4> N          5.29562        3.13151       -4.10533
|  5> C          3.80351        1.37472       -3.26081
|  6> C          5.70862        3.46889       -5.32419
|  7> N          6.90470        3.03895       -5.71708
|  8> C          4.98188        4.29357       -6.09746
|  9> H          5.00055        4.10131       -7.08776
| 10> H          4.08469        4.59690       -5.73965
| 11> H          5.96336        2.52611       -3.64239
| 12> H          7.04716        2.06686       -5.47360
| 13> H          7.19815        3.30799       -6.64523
| 14> H          3.28202        2.94919       -4.64026
| 15> H          3.56525        3.51457       -2.98252
| 16> H          4.14157        0.71142       -4.02935
| 17> H          2.78528        1.15146       -3.01944
| 18> H          4.41205        1.25066       -2.38949
| 19> *
| 20>
| 21> %MaxCore 64000
| 22>
| 23> %pal nprocs 4
| 24> end
| 25>
| 26> %scf
| 27>   MaxIter 150
| 28> end
| 29>
| 30>
| 31>                          ****END OF INPUT****

CARTESIAN COORDINATES (ANGSTROEM)
---------------------------------
  C      3.905950    2.819850   -3.752920
  N      5.295620    3.131510   -4.105330
  C      3.803510    1.374720   -3.260810
  C      5.708620    3.468890   -5.324190
  N      6.904700    3.038950   -5.717080
  C      4.981880    4.293570   -6.097460
  H      5.000550    4.101310   -7.087760
  H      4.084690    4.596900   -5.739650
  H      5.963360    2.526110   -3.642390
  H      7.047160    2.066860   -5.473600
  H      7.198150    3.307990   -6.645230
  H      3.282020    2.949190   -4.640260
  H      3.565250    3.514570   -2.982520
  H      4.141570    0.711420   -4.029350
  H      2.785280    1.151460   -3.019440
  H      4.412050    1.250660   -2.389490

 Total Charge           Charge          ....    0
 Multiplicity           Mult            ....    1
 Number of Electrons    NEL             ....   48
 Basis Dimension        Dim             ....  246

ORBITAL ENERGIES
----------------

  NO   OCC          E(Eh)            E(eV)
   0   2.0000     -13.989984      -380.6868
   1   2.0000     -13.985306      -380.5595
   2   2.0000      -9.918938      -269.9080
   3   2.0000      -9.914557      -269.7888
   4   2.0000      -9.877187      -268.7719
   5   2.0000      -9.797744      -266.6102
   6   2.0000      -0.892631       -24.2897
   7   2.0000      -0.813131       -22.1264
   8   2.0000      -0.693480       -18.8705
   9   2.0000      -0.638990       -17.3878
  10   2.0000      -0.583227       -15.8704
  11   2.0000      -0.511777       -13.9262
  12   2.0000      -0.484803       -13.1922
  13   2.0000      -0.466154       -12.6847
  14   2.0000      -0.422887       -11.5073
  15   2.0000      -0.410373       -11.1668
  16   2.0000      -0.358955        -9.7676
  17   2.0000      -0.358141        -9.7455
  18   2.0000      -0.346251        -9.4220
  19   2.0000      -0.329828        -8.9751
  20   2.0000      -0.320476        -8.7206
  21   2.0000      -0.294757        -8.0208
  22   2.0000      -0.217488        -5.9181
  23   2.0000      -0.146909        -3.9976
  24   0.0000      -0.001672        -0.0455
  25   0.0000       0.024663         0.6711
  26   0.0000       0.032192         0.8760
  27   0.0000       0.044651         1.2150
  28   0.0000       0.060449         1.6449

MULLIKEN ATOMIC CHARGES
-----------------------
   0 C :   -0.060184
   1 N :   -0.235189
   2 C :   -0.391767
   3 C :    0.261076
   4 N :   -0.414739
   5 C :   -0.485698
   6 H :    0.087345
   7 H :    0.075077
   8 H :    0.166909
   9 H :    0.195572
  10 H :    0.229030
  11 H :    0.105208
  12 H :    0.109110
  13 H :    0.120443
  14 H :    0.118570
  15 H :    0.119237
Sum of atomic charges:    0.0000000

LOEWDIN ATOMIC CHARGES
----------------------
   0 C :   -0.299329
   1 N :    0.129408
   2 C :   -0.314937
   3 C :   -0.497207
   4 N :   -0.004870
   5 C :   -0.336106
   6 H :    0.098384
   7 H :    0.098610
   8 H :    0.176707
   9 H :    0.156060
  10 H :    0.174575
  11 H :    0.136319
  12 H :    0.127283
  13 H :    0.117136
  14 H :    0.121540
  15 H :    0.116427

  Mayer bond orders larger than 0.100000
B(  0-C ,  1-N ) :   0.9572 B(  0-C ,  2-C ) :   0.9969 B(  0-C , 11-H ) :   0.9500
B(  0-C , 12-H ) :   0.9538 B(  1-N ,  3-C ) :   1.1913 B(  1-N ,  8-H ) :   0.9259
B(  2-C , 13-H ) :   0.9722 B(  2-C , 14-H ) :   0.9638 B(  2-C , 15-H ) :   0.9684
B(  3-C ,  4-N ) :   1.1689 B(  3-C ,  5-C ) :   1.5997 B(  4-N ,  9-H ) :   0.9088
B(  4-N , 10-H ) :   0.9181 B(  5-C ,  6-H ) :   0.9673 B(  5-C ,  7-H ) :   0.9996

Dispersion correction           -0.012639025
FINAL SINGLE POINT ENERGY      -267.661726463687

DIPOLE MOMENT
-------------
                                X             Y             Z
Electronic contribution:      3.42795       2.08980      -0.97615
Nuclear contribution   :     -3.34013      -3.37002       1.28371
                        -----------------------------------------
Total Dipole Moment    :      0.08781      -1.28022       0.30756
                        -----------------------------------------
Magnitude (a.u.)       :      1.31957
Magnitude (Debye)      :      3.35408

Rotational constants in cm-1:     0.239537     0.072280     0.060961
Rotational constants in MHz :  7181.153552  2166.902802  1827.551447

                             ****ORCA TERMINATED NORMALLY****
TOTAL RUN TIME: 0 days 0 hours 0 minutes 10 seconds 354 msec
