                         Program Version 5.0.0 -  RELEASE  -
|  1> !PBE D3BJ RIJCOSX def2-TZVP def2/J TightSCF xyzfile
|  2>
|  3> *xyzfile 0 1 D1.xyz
|  4>
|  5> %MaxCore 64000
|  6>
|  7> %pal nprocs 18
|  8> end
|  9>
| 10> %scf
| 11>   MaxIter 150
| 12> end
| 13>
| 14>
| 15>                          ****END OF INPUT****

CARTESIAN COORDINATES (ANGSTROEM)
---------------------------------
  C      3.905947    2.819855   -3.752920
  C      5.295615    3.131515   -4.105334
  C      3.803511    1.374716   -3.260807
  C      3.939934    0.320362   -4.367729
  H      4.105043   -0.655085   -3.907733
  H      3.022801    0.280517   -4.957117
  C      5.105846    0.668022   -5.305463
  C      5.708619    3.468885   -5.324190
  N      6.904696    3.038954   -5.717084
  N      4.981884    4.293570   -6.097457
  H      5.000546    4.101311   -7.087761
  H      4.084693    4.596899   -5.739652
  H      5.963358    2.526112   -3.642391
  H      7.047164    2.066861   -5.473604
  H      7.198145    3.307994   -6.645225
  H      3.282025    2.949187   -4.640259
  H      3.565254    3.514574   -2.982523
  H      4.574833    1.215157   -2.500443
  H      2.843514    1.260845   -2.751465
  F      4.809132    1.150187   -6.414361
  O      6.267366    0.564999   -4.819481

 Total Charge           Charge          ....    0
 Multiplicity           Mult            ....    1
 Number of Electrons    NEL             ....   78
 Basis Dimension        Dim             ....  376

ORBITAL ENERGIES
----------------

  NO   OCC          E(Eh)            E(eV)
   0   2.0000     -24.329944      -662.0514
   1   2.0000     -18.751369      -510.2507
   2   2.0000     -13.987304      -380.6139
   3   2.0000     -13.966666      -380.0523
   4   2.0000     -10.049424      -273.4587
   5   2.0000      -9.916192      -269.8333
   6   2.0000      -9.905431      -269.5405
   7   2.0000      -9.886931      -269.0371
   8   2.0000      -9.870413      -268.5876
   9   2.0000      -9.810826      -266.9662
  10   2.0000      -1.224407       -33.3178
  11   2.0000      -0.947221       -25.7752
  12   2.0000      -0.878735       -23.9116
  13   2.0000      -0.794916       -21.6308
  14   2.0000      -0.741927       -20.1888
  15   2.0000      -0.680041       -18.5048
  16   2.0000      -0.626923       -17.0594
  17   2.0000      -0.594548       -16.1785
  18   2.0000      -0.547591       -14.9007
  19   2.0000      -0.522908       -14.2291
  20   2.0000      -0.496039       -13.4979
  21   2.0000      -0.484700       -13.1894
  22   2.0000      -0.472246       -12.8505
  23   2.0000      -0.465507       -12.6671
  24   2.0000      -0.447689       -12.1822
  25   2.0000      -0.417818       -11.3694
  26   2.0000      -0.410170       -11.1613
  27   2.0000      -0.390782       -10.6337
  28   2.0000      -0.382474       -10.4076
  29   2.0000      -0.345320        -9.3966
  30   2.0000      -0.340771        -9.2729
  31   2.0000      -0.324115        -8.8196
  32   2.0000      -0.316994        -8.6258
  33   2.0000      -0.304133        -8.2759
  34   2.0000      -0.292483        -7.9589
  35   2.0000      -0.280399        -7.6300
  36   2.0000      -0.248934        -6.7738
  37   2.0000      -0.222661        -6.0589
  38   2.0000      -0.142742        -3.8842
  39   0.0000      -0.068516        -1.8644
  40   0.0000       0.002857         0.0777
  41   0.0000       0.024921         0.6781
  42   0.0000       0.027700         0.7537
  43   0.0000       0.041423         1.1272

MULLIKEN ATOMIC CHARGES
-----------------------
   0 C :   -0.155940
   1 C :   -0.274699
   2 C :   -0.203115
   3 C :   -0.205405
   4 H :    0.121484
   5 H :    0.094564
   6 C :    0.353580
   7 C :    0.094894
   8 N :   -0.358824
   9 N :   -0.404106
  10 H :    0.197660
  11 H :    0.227776
  12 H :    0.102362
  13 H :    0.239052
  14 H :    0.194152
  15 H :    0.047850
  16 H :    0.100557
  17 H :    0.118638
  18 H :    0.097050
  19 F :   -0.054175
  20 O :   -0.333355
Sum of atomic charges:   -0.0000000

LOEWDIN ATOMIC CHARGES
----------------------
   0 C :   -0.289413
   1 C :   -0.257745
   2 C :   -0.251321
   3 C :   -0.233564
   4 H :    0.155258
   5 H :    0.140899
   6 C :   -0.540574
   7 C :   -0.501828
   8 N :    0.010384
   9 N :   -0.002706
  10 H :    0.151954
  11 H :    0.170381
  12 H :    0.134051
  13 H :    0.161715
  14 H :    0.156055
  15 H :    0.131971
  16 H :    0.137281
  17 H :    0.147364
  18 H :    0.137607
  19 F :    0.372664
  20 O :    0.069566

  Mayer bond orders larger than 0.100000
B(  0-C ,  1-C ) :   1.0254 B(  0-C ,  2-C ) :   0.9966 B(  0-C , 15-H ) :   0.9398
B(  0-C , 16-H ) :   0.9310 B(  1-C ,  7-C ) :   1.6057 B(  1-C , 12-H ) :   1.0177
B(  2-C ,  3-C ) :   1.0121 B(  2-C , 17-H ) :   0.9536 B(  2-C , 18-H ) :   0.9391
B(  3-C ,  4-H ) :   0.9277 B(  3-C ,  5-H ) :   0.9309 B(  3-C ,  6-C ) :   1.0239
B(  6-C , 19-F ) :   1.1990 B(  6-C , 20-O ) :   1.9575 B(  7-C ,  8-N ) :   1.2315
B(  7-C ,  9-N ) :   1.1934 B(  8-N , 13-H ) :   0.8547 B(  8-N , 14-H ) :   0.9224
B(  9-N , 10-H ) :   0.9086 B(  9-N , 11-H ) :   0.9187 B( 13-H , 20-O ) :   0.1100

Dispersion correction           -0.022828417
FINAL SINGLE POINT ENERGY      -519.397561343953

DIPOLE MOMENT
-------------
                                X             Y             Z
Electronic contribution:      3.52013      -3.51987      -6.50456
Nuclear contribution   :     -4.60158       3.22721       5.56005
                        -----------------------------------------
Total Dipole Moment    :     -1.08145      -0.29265      -0.94451
                        -----------------------------------------
Magnitude (a.u.)       :      1.46536
Magnitude (Debye)      :      3.72465

Rotational constants in cm-1:     0.061224     0.042534     0.033552
Rotational constants in MHz :  1835.464095  1275.135177  1005.856966

                             ****ORCA TERMINATED NORMALLY****
TOTAL RUN TIME: 0 days 0 hours 0 minutes 12 seconds 322 msec
