                         Program Version 5.0.0 -  RELEASE  -
|  1> !PBE D3BJ RIJCOSX def2-TZVP def2/J TightSCF xyzfile
|  2>
|  3> *xyzfile 0 1 D3.xyz
|  4>
|  5> %MaxCore 64000
|  6>
|  7> %pal nprocs 18
|  8> end
|  9>
| 10> %scf
| 11>   MaxIter 150
| 12> end
| 13>
| 14>
| 15>                          ****END OF INPUT****

CARTESIAN COORDINATES (ANGSTROEM)
---------------------------------
  C      3.905947    2.819855   -3.752920
  N      5.295615    3.131515   -4.105334
  C      3.803511    1.374716   -3.260807
  C      3.939934    0.320362   -4.367729
  H      4.105043   -0.655085   -3.907733
  H      3.022801    0.280517   -4.957117
  C      5.105846    0.668022   -5.305463
  C      5.708619    3.468885   -5.324190
  N      6.904696    3.038954   -5.717084
  C      4.981884    4.293570   -6.097457
  H      5.000546    4.101311   -7.087761
  H      4.084693    4.596899   -5.739652
  H      5.963358    2.526112   -3.642391
  H      7.047164    2.066861   -5.473604
  H      7.198145    3.307994   -6.645225
  H      3.282025    2.949187   -4.640259
  H      3.565254    3.514574   -2.982523
  H      4.574833    1.215157   -2.500443
  H      2.843514    1.260845   -2.751465
  F      4.809132    1.150187   -6.414361
  O      6.267366    0.564999   -4.819481

 Total Charge           Charge          ....    0
 Multiplicity           Mult            ....    1
 Number of Electrons    NEL             ....   78
 Basis Dimension        Dim             ....  376

ORBITAL ENERGIES
----------------

  NO   OCC          E(Eh)            E(eV)
   0   2.0000     -24.342814      -662.4016
   1   2.0000     -18.770872      -510.7814
   2   2.0000     -13.990845      -380.7102
   3   2.0000     -13.964184      -379.9848
   4   2.0000     -10.068188      -273.9693
   5   2.0000      -9.924601      -270.0621
   6   2.0000      -9.923795      -270.0402
   7   2.0000      -9.913788      -269.7679
   8   2.0000      -9.912732      -269.7391
   9   2.0000      -9.793302      -266.4893
  10   2.0000      -1.236541       -33.6480
  11   2.0000      -0.967081       -26.3156
  12   2.0000      -0.888726       -24.1835
  13   2.0000      -0.809792       -22.0356
  14   2.0000      -0.745340       -20.2817
  15   2.0000      -0.670219       -18.2376
  16   2.0000      -0.635087       -17.2816
  17   2.0000      -0.613466       -16.6933
  18   2.0000      -0.572976       -15.5915
  19   2.0000      -0.513631       -13.9766
  20   2.0000      -0.511051       -13.9064
  21   2.0000      -0.496909       -13.5216
  22   2.0000      -0.480775       -13.0826
  23   2.0000      -0.463749       -12.6193
  24   2.0000      -0.451052       -12.2738
  25   2.0000      -0.433706       -11.8017
  26   2.0000      -0.424619       -11.5545
  27   2.0000      -0.389392       -10.5959
  28   2.0000      -0.377712       -10.2781
  29   2.0000      -0.363869        -9.9014
  30   2.0000      -0.345920        -9.4130
  31   2.0000      -0.343772        -9.3545
  32   2.0000      -0.332919        -9.0592
  33   2.0000      -0.326981        -8.8976
  34   2.0000      -0.316501        -8.6124
  35   2.0000      -0.289731        -7.8840
  36   2.0000      -0.264109        -7.1868
  37   2.0000      -0.212165        -5.7733
  38   2.0000      -0.142011        -3.8643
  39   0.0000      -0.088067        -2.3964
  40   0.0000       0.004603         0.1253
  41   0.0000       0.024559         0.6683
  42   0.0000       0.036872         1.0033
  43   0.0000       0.038859         1.0574

MULLIKEN ATOMIC CHARGES
-----------------------
   0 C :   -0.103755
   1 N :   -0.209811
   2 C :   -0.250624
   3 C :   -0.179425
   4 H :    0.129318
   5 H :    0.108702
   6 C :    0.313215
   7 C :    0.133108
   8 N :   -0.367351
   9 C :   -0.458405
  10 H :    0.082268
  11 H :    0.068343
  12 H :    0.192982
  13 H :    0.219365
  14 H :    0.219682
  15 H :    0.108669
  16 H :    0.121432
  17 H :    0.125894
  18 H :    0.112954
  19 F :   -0.026453
  20 O :   -0.340110
Sum of atomic charges:    0.0000000

LOEWDIN ATOMIC CHARGES
----------------------
   0 C :   -0.277535
   1 N :    0.143938
   2 C :   -0.263686
   3 C :   -0.232264
   4 H :    0.157545
   5 H :    0.145364
   6 C :   -0.535807
   7 C :   -0.518744
   8 N :    0.003450
   9 C :   -0.342322
  10 H :    0.096683
  11 H :    0.095967
  12 H :    0.181553
  13 H :    0.149510
  14 H :    0.171182
  15 H :    0.141377
  16 H :    0.132851
  17 H :    0.145531
  18 H :    0.145491
  19 F :    0.393672
  20 O :    0.066244

  Mayer bond orders larger than 0.100000
B(  0-C ,  1-N ) :   0.9836 B(  0-C ,  2-C ) :   0.9988 B(  0-C , 15-H ) :   0.9488
B(  0-C , 16-H ) :   0.9536 B(  1-N ,  7-C ) :   1.1602 B(  1-N , 12-H ) :   0.9145
B(  2-C ,  3-C ) :   0.9989 B(  2-C , 17-H ) :   0.9540 B(  2-C , 18-H ) :   0.9401
B(  3-C ,  4-H ) :   0.9290 B(  3-C ,  5-H ) :   0.9328 B(  3-C ,  6-C ) :   1.0061
B(  6-C , 19-F ) :   1.2409 B(  6-C , 20-O ) :   1.9598 B(  7-C ,  8-N ) :   1.2460
B(  7-C ,  9-C ) :   1.6593 B(  8-N , 13-H ) :   0.8722 B(  8-N , 14-H ) :   0.9207
B(  9-C , 10-H ) :   0.9707 B(  9-C , 11-H ) :   0.9967

Dispersion correction           -0.022710818
FINAL SINGLE POINT ENERGY      -519.386550924249

DIPOLE MOMENT
-------------
                                X             Y             Z
Electronic contribution:      3.66703      -4.79133      -4.89879
Nuclear contribution   :     -4.64021       3.37029       5.31478
                        -----------------------------------------
Total Dipole Moment    :     -0.97318      -1.42105       0.41599
                        -----------------------------------------
Magnitude (a.u.)       :      1.77187
Magnitude (Debye)      :      4.50373

Rotational constants in cm-1:     0.061077     0.043622     0.034103
Rotational constants in MHz :  1831.041375  1307.759852  1022.388536

                             ****ORCA TERMINATED NORMALLY****
TOTAL RUN TIME: 0 days 0 hours 0 minutes 12 seconds 817 msec
