                         Program Version 5.0.0 -  RELEASE  -
|  1> !PBE D3BJ RIJCOSX def2-TZVP def2/J TightSCF xyzfile
|  2>
|  3> *xyzfile 0 1 D4.xyz
|  4>
|  5> %MaxCore 64000
|  6>
|  7> %pal nprocs 18
|  8> end
|  9>
| 10> %scf
| 11>   MaxIter 150
| 12> end
| 13>
| 14>
| 15>                          ****END OF INPUT****

CARTESIAN COORDINATES (ANGSTROEM)
---------------------------------
  C      3.905947    2.819855   -3.752920
  C      5.295615    3.131515   -4.105334
  C      3.803511    1.374716   -3.260807
  C      3.939934    0.320362   -4.367729
  H      4.105043   -0.655085   -3.907733
  H      3.022801    0.280517   -4.957117
  C      5.105846    0.668022   -5.305463
  C      5.708619    3.468885   -5.324190
  N      6.904696    3.038954   -5.717084
  N      4.981884    4.293570   -6.097457
  H      5.000546    4.101311   -7.087761
  H      4.084693    4.596899   -5.739652
  H      5.963358    2.526112   -3.642391
  H      7.047164    2.066861   -5.473604
  H      7.198145    3.307994   -6.645225
  H      3.282025    2.949187   -4.640259
  H      3.565254    3.514574   -2.982523
  H      4.574833    1.215157   -2.500443
  H      2.843514    1.260845   -2.751465
  O      4.809132    1.150187   -6.414361
  F      6.267366    0.564999   -4.819481

 Total Charge           Charge          ....    0
 Multiplicity           Mult            ....    1
 Number of Electrons    NEL             ....   78
 Basis Dimension        Dim             ....  376

ORBITAL ENERGIES
----------------

  NO   OCC          E(Eh)            E(eV)
   0   2.0000     -24.327179      -661.9762
   1   2.0000     -18.746816      -510.1268
   2   2.0000     -13.985996      -380.5783
   3   2.0000     -13.975209      -380.2848
   4   2.0000     -10.041977      -273.2561
   5   2.0000      -9.918830      -269.9051
   6   2.0000      -9.902273      -269.4545
   7   2.0000      -9.886988      -269.0386
   8   2.0000      -9.868013      -268.5223
   9   2.0000      -9.812004      -266.9982
  10   2.0000      -1.217085       -33.1186
  11   2.0000      -0.947784       -25.7905
  12   2.0000      -0.880343       -23.9553
  13   2.0000      -0.797636       -21.7048
  14   2.0000      -0.741236       -20.1701
  15   2.0000      -0.678876       -18.4732
  16   2.0000      -0.626070       -17.0362
  17   2.0000      -0.592564       -16.1245
  18   2.0000      -0.548292       -14.9198
  19   2.0000      -0.529877       -14.4187
  20   2.0000      -0.493658       -13.4331
  21   2.0000      -0.482098       -13.1185
  22   2.0000      -0.474832       -12.9208
  23   2.0000      -0.456842       -12.4313
  24   2.0000      -0.440413       -11.9843
  25   2.0000      -0.420115       -11.4319
  26   2.0000      -0.412344       -11.2204
  27   2.0000      -0.392315       -10.6754
  28   2.0000      -0.378817       -10.3081
  29   2.0000      -0.344976        -9.3873
  30   2.0000      -0.338634        -9.2147
  31   2.0000      -0.327666        -8.9162
  32   2.0000      -0.317889        -8.6502
  33   2.0000      -0.301796        -8.2123
  34   2.0000      -0.292658        -7.9636
  35   2.0000      -0.285150        -7.7593
  36   2.0000      -0.240804        -6.5526
  37   2.0000      -0.222406        -6.0520
  38   2.0000      -0.144755        -3.9390
  39   0.0000      -0.060002        -1.6327
  40   0.0000       0.007212         0.1962
  41   0.0000       0.023616         0.6426
  42   0.0000       0.028531         0.7764
  43   0.0000       0.042031         1.1437

MULLIKEN ATOMIC CHARGES
-----------------------
   0 C :   -0.130511
   1 C :   -0.270418
   2 C :   -0.237433
   3 C :   -0.194659
   4 H :    0.110327
   5 H :    0.109398
   6 C :    0.314795
   7 C :    0.126780
   8 N :   -0.351893
   9 N :   -0.407099
  10 H :    0.209518
  11 H :    0.227607
  12 H :    0.077115
  13 H :    0.222853
  14 H :    0.202328
  15 H :    0.056629
  16 H :    0.099078
  17 H :    0.115331
  18 H :    0.098202
  19 O :   -0.281925
  20 F :   -0.096024
Sum of atomic charges:    0.0000000

LOEWDIN ATOMIC CHARGES
----------------------
   0 C :   -0.287131
   1 C :   -0.269434
   2 C :   -0.257367
   3 C :   -0.233207
   4 H :    0.145418
   5 H :    0.152710
   6 C :   -0.550571
   7 C :   -0.490656
   8 N :    0.014094
   9 N :    0.009523
  10 H :    0.158037
  11 H :    0.171905
  12 H :    0.125948
  13 H :    0.162967
  14 H :    0.159983
  15 H :    0.136774
  16 H :    0.136860
  17 H :    0.142529
  18 H :    0.138013
  19 O :    0.100829
  20 F :    0.332775

  Mayer bond orders larger than 0.100000
B(  0-C ,  1-C ) :   1.0165 B(  0-C ,  2-C ) :   0.9915 B(  0-C , 15-H ) :   0.9364
B(  0-C , 16-H ) :   0.9318 B(  1-C ,  7-C ) :   1.6079 B(  1-C , 12-H ) :   1.0315
B(  2-C ,  3-C ) :   1.0067 B(  2-C , 17-H ) :   0.9589 B(  2-C , 18-H ) :   0.9376
B(  3-C ,  4-H ) :   0.9224 B(  3-C ,  5-H ) :   0.9451 B(  3-C ,  6-C ) :   1.0337
B(  6-C , 19-O ) :   2.0784 B(  6-C , 20-F ) :   1.1119 B(  7-C ,  8-N ) :   1.2090
B(  7-C ,  9-N ) :   1.1984 B(  8-N , 13-H ) :   0.9009 B(  8-N , 14-H ) :   0.9232
B(  9-N , 10-H ) :   0.9098 B(  9-N , 11-H ) :   0.9196

Dispersion correction           -0.022865208
FINAL SINGLE POINT ENERGY      -519.397735637781

DIPOLE MOMENT
-------------
                                X             Y             Z
Electronic contribution:      5.92582      -4.37591      -3.98328
Nuclear contribution   :     -6.25608       3.89116       3.75052
                        -----------------------------------------
Total Dipole Moment    :     -0.33025      -0.48475      -0.23275
                        -----------------------------------------
Magnitude (a.u.)       :      0.63105
Magnitude (Debye)      :      1.60400

Rotational constants in cm-1:     0.061229     0.042568     0.033282
Rotational constants in MHz :  1835.590871  1276.154029   997.769927

                             ****ORCA TERMINATED NORMALLY****
TOTAL RUN TIME: 0 days 0 hours 0 minutes 10 seconds 533 msec
