                         Program Version 5.0.0 -  RELEASE  -
|  1> !CAM-B3LYP RIJCOSX def2-SVPD def2/J TightSCF
|  2> *xyz -1 1
|  3> C         -1.10433        0.25137       -2.86006
|  4> C         -0.71189        0.84252       -4.21834
|  5> H          0.15463        1.49980       -4.13091
|  6> H         -1.53813        1.45922       -4.58267
|  7> C         -0.39762       -0.20587       -5.28802
|  8> O          0.61717       -0.00535       -5.99827
|  9> O         -1.13317       -1.22138       -5.34147
| 10> C         -0.19626       -0.86337       -2.32576
| 11> H         -1.14384        1.06671       -2.12968
| 12> H         -2.11440       -0.15683       -2.93032
| 13> H         -0.15538       -1.66172       -3.03700
| 14> H         -0.58845       -1.22999       -1.40020
| 15> H          0.78852       -0.47602       -2.16737
| 16> *
| 17>
| 18> %MaxCore 64000
| 19>
| 20> %pal nprocs 4
| 21> end
| 22>
| 23> %scf
| 24>   MaxIter 150
| 25> end
| 26>
| 27>
| 28>                          ****END OF INPUT****

CARTESIAN COORDINATES (ANGSTROEM)
---------------------------------
  C     -1.104330    0.251370   -2.860060
  C     -0.711890    0.842520   -4.218340
  H      0.154630    1.499800   -4.130910
  H     -1.538130    1.459220   -4.582670
  C     -0.397620   -0.205870   -5.288020
  O      0.617170   -0.005350   -5.998270
  O     -1.133170   -1.221380   -5.341470
  C     -0.196260   -0.863370   -2.325760
  H     -1.143840    1.066710   -2.129680
  H     -2.114400   -0.156830   -2.930320
  H     -0.155380   -1.661720   -3.037000
  H     -0.588450   -1.229990   -1.400200
  H      0.788520   -0.476020   -2.167370

 Total Charge           Charge          ....   -1
 Multiplicity           Mult            ....    1
 Number of Electrons    NEL             ....   48
 Basis Dimension        Dim             ....  182

ORBITAL ENERGIES
----------------

  NO   OCC          E(Eh)            E(eV)
   0   2.0000     -18.955790      -515.8133
   1   2.0000     -18.955006      -515.7919
   2   2.0000     -10.151348      -276.2322
   3   2.0000     -10.110487      -275.1203
   4   2.0000     -10.101113      -274.8653
   5   2.0000     -10.087223      -274.4873
   6   2.0000      -0.899362       -24.4729
   7   2.0000      -0.803793       -21.8723
   8   2.0000      -0.712759       -19.3951
   9   2.0000      -0.618364       -16.8265
  10   2.0000      -0.518555       -14.1106
  11   2.0000      -0.397288       -10.8108
  12   2.0000      -0.375751       -10.2247
  13   2.0000      -0.361283        -9.8310
  14   2.0000      -0.326667        -8.8891
  15   2.0000      -0.305110        -8.3025
  16   2.0000      -0.284266        -7.7353
  17   2.0000      -0.275168        -7.4877
  18   2.0000      -0.263072        -7.1585
  19   2.0000      -0.243410        -6.6235
  20   2.0000      -0.231877        -6.3097
  21   2.0000      -0.118552        -3.2260
  22   2.0000      -0.113163        -3.0793
  23   2.0000      -0.101108        -2.7513
  24   0.0000       0.175517         4.7761
  25   0.0000       0.198679         5.4063
  26   0.0000       0.216420         5.8891
  27   0.0000       0.226937         6.1753
  28   0.0000       0.249943         6.8013

MULLIKEN ATOMIC CHARGES
-----------------------
   0 C :   -0.272217
   1 C :    0.302459
   2 H :   -0.070112
   3 H :   -0.104408
   4 C :    0.330760
   5 O :   -0.655303
   6 O :   -0.717202
   7 C :    0.867208
   8 H :   -0.250070
   9 H :   -0.060457
  10 H :   -0.139224
  11 H :   -0.136509
  12 H :   -0.094925
Sum of atomic charges:   -1.0000000

LOEWDIN ATOMIC CHARGES
----------------------
   0 C :   -0.088704
   1 C :    0.000340
   2 H :    0.002454
   3 H :    0.011321
   4 C :   -0.311254
   5 O :   -0.326687
   6 O :   -0.317381
   7 C :    0.115774
   8 H :   -0.003099
   9 H :    0.009279
  10 H :   -0.028760
  11 H :   -0.037094
  12 H :   -0.026189

  Mayer bond orders larger than 0.100000
B(  0-C ,  1-C ) :   1.1946 B(  0-C ,  2-H ) :   0.1495 B(  0-C ,  3-H ) :   0.1441
B(  0-C ,  7-C ) :   1.3117 B(  0-C ,  8-H ) :   0.9308 B(  0-C ,  9-H ) :   0.8633
B(  0-C , 10-H ) :   0.2279 B(  0-C , 11-H ) :   0.2519 B(  0-C , 12-H ) :   0.2134
B(  1-C ,  2-H ) :   0.8425 B(  1-C ,  3-H ) :   0.7980 B(  1-C ,  4-C ) :   1.0177
B(  1-C ,  8-H ) :   0.1228 B(  1-C ,  9-H ) :   0.1256 B(  2-H ,  4-C ) :   0.2384
B(  3-H ,  4-C ) :   0.1036 B(  4-C ,  5-O ) :   1.4601 B(  4-C ,  6-O ) :   1.5309
B(  7-C ,  8-H ) :   0.1020 B(  7-C , 10-H ) :   0.8023 B(  7-C , 11-H ) :   0.6922
B(  7-C , 12-H ) :   0.7525

FINAL SINGLE POINT ENERGY      -306.808264594311

DIPOLE MOMENT
-------------
                                X             Y             Z
Electronic contribution:      0.64976      -0.99738      -7.08245
Nuclear contribution   :     -1.15173       1.87787       9.37659
                        -----------------------------------------
Total Dipole Moment    :     -0.50197       0.88049       2.29414
                        -----------------------------------------
Magnitude (a.u.)       :      2.50805
Magnitude (Debye)      :      6.37496

Rotational constants in cm-1:     0.203160     0.081703     0.075834
Rotational constants in MHz :  6090.598467  2449.397428  2273.436534

                             ****ORCA TERMINATED NORMALLY****
TOTAL RUN TIME: 0 days 0 hours 0 minutes 27 seconds 876 msec
