                         Program Version 5.0.0 -  RELEASE  -
|  1> !CAM-B3LYP RIJCOSX def2-SVPD def2/J TightSCF
|  2> *xyz 1 1
|  3> C          2.23447       -2.98975       -2.39762
|  4> N          2.75680       -2.94555       -3.76503
|  5> C          1.98721       -2.59045       -4.81898
|  6> N          0.74322       -3.01749       -4.91352
|  7> N          2.49964       -1.84860       -5.80324
|  8> H          3.30978       -1.29282       -5.55895
|  9> H          1.80103       -1.30430       -6.28913
| 10> H          3.71612       -2.62880       -3.82953
| 11> H          0.39583       -3.62775       -4.18502
| 12> H          0.03920       -2.45438       -5.37137
| 13> C          2.19120       -1.61950       -1.71549
| 14> H          2.87278       -3.66637       -1.82801
| 15> H          1.24619       -3.44744       -2.40784
| 16> C          1.29873       -0.55431       -2.35977
| 17> H          1.87292       -1.78796       -0.68131
| 18> H          3.21681       -1.23843       -1.65443
| 19> H          1.61097       -0.39090       -3.37007
| 20> H          1.37981        0.35955       -1.80916
| 21> H          0.28197       -0.88750       -2.35015
| 22> *
| 23>
| 24> %MaxCore 64000
| 25>
| 26> %pal nprocs 4
| 27> end
| 28>
| 29> %scf
| 30>   MaxIter 150
| 31> end
| 32>
| 33>
| 34>                          ****END OF INPUT****

CARTESIAN COORDINATES (ANGSTROEM)
---------------------------------
  C      2.234470   -2.989750   -2.397620
  N      2.756800   -2.945550   -3.765030
  C      1.987210   -2.590450   -4.818980
  N      0.743220   -3.017490   -4.913520
  N      2.499640   -1.848600   -5.803240
  H      3.309780   -1.292820   -5.558950
  H      1.801030   -1.304300   -6.289130
  H      3.716120   -2.628800   -3.829530
  H      0.395830   -3.627750   -4.185020
  H      0.039200   -2.454380   -5.371370
  C      2.191200   -1.619500   -1.715490
  H      2.872780   -3.666370   -1.828010
  H      1.246190   -3.447440   -2.407840
  C      1.298730   -0.554310   -2.359770
  H      1.872920   -1.787960   -0.681310
  H      3.216810   -1.238430   -1.654430
  H      1.610970   -0.390900   -3.370070
  H      1.379810    0.359550   -1.809160
  H      0.281970   -0.887500   -2.350150

 Total Charge           Charge          ....    1
 Multiplicity           Mult            ....    1
 Number of Electrons    NEL             ....   56
 Basis Dimension        Dim             ....  236

ORBITAL ENERGIES
----------------

  NO   OCC          E(Eh)            E(eV)
   0   2.0000     -14.634633      -398.2286
   1   2.0000     -14.631251      -398.1366
   2   2.0000     -14.627223      -398.0270
   3   2.0000     -10.602994      -288.5221
   4   2.0000     -10.465186      -284.7722
   5   2.0000     -10.407919      -283.2139
   6   2.0000     -10.388962      -282.6980
   7   2.0000      -1.297535       -35.3077
   8   2.0000      -1.181009       -32.1369
   9   2.0000      -1.176012       -32.0009
  10   2.0000      -1.018365       -27.7111
  11   2.0000      -0.945125       -25.7182
  12   2.0000      -0.900957       -24.5163
  13   2.0000      -0.859801       -23.3964
  14   2.0000      -0.841868       -22.9084
  15   2.0000      -0.804921       -21.9030
  16   2.0000      -0.771514       -20.9940
  17   2.0000      -0.755158       -20.5489
  18   2.0000      -0.722670       -19.6648
  19   2.0000      -0.696740       -18.9593
  20   2.0000      -0.669009       -18.2047
  21   2.0000      -0.657427       -17.8895
  22   2.0000      -0.628096       -17.0914
  23   2.0000      -0.589367       -16.0375
  24   2.0000      -0.563359       -15.3298
  25   2.0000      -0.559471       -15.2240
  26   2.0000      -0.549007       -14.9392
  27   2.0000      -0.511649       -13.9227
  28   0.0000      -0.149572        -4.0701
  29   0.0000      -0.116975        -3.1831
  30   0.0000      -0.090899        -2.4735
  31   0.0000      -0.078803        -2.1443
  32   0.0000      -0.056967        -1.5502

MULLIKEN ATOMIC CHARGES
-----------------------
   0 C :    0.877706
   1 N :   -0.327669
   2 C :    0.812446
   3 N :    0.175504
   4 N :    0.069632
   5 H :   -0.020078
   6 H :    0.010976
   7 H :   -0.172914
   8 H :   -0.019312
   9 H :   -0.059660
  10 C :   -0.191241
  11 H :   -0.334293
  12 H :   -0.154769
  13 C :    1.031418
  14 H :   -0.104829
  15 H :   -0.106050
  16 H :   -0.284005
  17 H :   -0.149395
  18 H :   -0.053468
Sum of atomic charges:    1.0000000

LOEWDIN ATOMIC CHARGES
----------------------
   0 C :    0.070738
   1 N :    0.062767
   2 C :   -0.063494
   3 N :    0.289374
   4 N :    0.276252
   5 H :    0.034397
   6 H :    0.034537
   7 H :    0.051451
   8 H :    0.025635
   9 H :    0.048578
  10 C :   -0.044109
  11 H :    0.040873
  12 H :    0.017903
  13 C :    0.140290
  14 H :    0.039242
  15 H :    0.029013
  16 H :   -0.041739
  17 H :   -0.000613
  18 H :   -0.011096

  Mayer bond orders larger than 0.100000
B(  0-C ,  1-N ) :   0.9342 B(  0-C , 10-C ) :   1.1257 B(  0-C , 11-H ) :   0.8132
B(  0-C , 12-H ) :   0.7365 B(  0-C , 14-H ) :   0.1530 B(  0-C , 15-H ) :   0.1353
B(  1-N ,  2-C ) :   1.1233 B(  1-N ,  4-N ) :   0.1487 B(  1-N ,  7-H ) :   1.1678
B(  1-N , 11-H ) :   0.2026 B(  1-N , 12-H ) :   0.1375 B(  2-C ,  3-N ) :   1.0736
B(  2-C ,  4-N ) :   0.9949 B(  2-C ,  7-H ) :  -0.1721 B(  3-N ,  4-N ) :   0.1373
B(  3-N ,  8-H ) :   0.9861 B(  3-N ,  9-H ) :   1.1855 B(  4-N ,  5-H ) :   1.0059
B(  4-N ,  6-H ) :   0.9991 B(  8-H ,  9-H ) :  -0.1610 B( 10-C , 12-H ) :   0.1538
B( 10-C , 13-C ) :   1.2631 B( 10-C , 14-H ) :   0.8914 B( 10-C , 15-H ) :   0.8999
B( 10-C , 16-H ) :   0.2518 B( 10-C , 17-H ) :   0.2308 B( 10-C , 18-H ) :   0.2537
B( 11-H , 12-H ) :  -0.1280 B( 13-C , 16-H ) :   0.7412 B( 13-C , 17-H ) :   0.7295
B( 13-C , 18-H ) :   0.6861 B( 16-H , 18-H ) :   0.1354

FINAL SINGLE POINT ENERGY      -323.316237565450

DIPOLE MOMENT
-------------
                                X             Y             Z
Electronic contribution:      1.23294      -3.56527      -5.57640
Nuclear contribution   :     -1.48325       3.81474       4.74728
                        -----------------------------------------
Total Dipole Moment    :     -0.25031       0.24947      -0.82913
                        -----------------------------------------
Magnitude (a.u.)       :      0.90130
Magnitude (Debye)      :      2.29093

Rotational constants in cm-1:     0.127669     0.058023     0.053953
Rotational constants in MHz :  3827.411023  1739.493733  1617.466565

                             ****ORCA TERMINATED NORMALLY****
TOTAL RUN TIME: 0 days 0 hours 0 minutes 47 seconds 451 msec
