                         Program Version 5.0.0 -  RELEASE  -
|  1> !CAM-B3LYP RIJCOSX def2-SVPD def2/J TightSCF
|  2> *xyz 0 1
|  3> C         -1.10433        0.25137       -2.86006
|  4> C         -0.71189        0.84252       -4.21834
|  5> H          0.15463        1.49980       -4.13091
|  6> H         -1.53813        1.45922       -4.58267
|  7> C         -0.39762       -0.20587       -5.28802
|  8> F          0.61717       -0.00535       -5.99827
|  9> O         -1.13317       -1.22138       -5.34147
| 10> C         -0.19626       -0.86337       -2.32576
| 11> H         -1.14384        1.06671       -2.12968
| 12> H         -2.11440       -0.15683       -2.93032
| 13> H         -0.15538       -1.66172       -3.03700
| 14> H         -0.58845       -1.22999       -1.40020
| 15> H          0.78852       -0.47602       -2.16737
| 16> *
| 17>
| 18> %MaxCore 64000
| 19>
| 20> %pal nprocs 4
| 21> end
| 22>
| 23> %scf
| 24>   MaxIter 150
| 25> end
| 26>
| 27>
| 28>                          ****END OF INPUT****

CARTESIAN COORDINATES (ANGSTROEM)
---------------------------------
  C     -1.104330    0.251370   -2.860060
  C     -0.711890    0.842520   -4.218340
  H      0.154630    1.499800   -4.130910
  H     -1.538130    1.459220   -4.582670
  C     -0.397620   -0.205870   -5.288020
  F      0.617170   -0.005350   -5.998270
  O     -1.133170   -1.221380   -5.341470
  C     -0.196260   -0.863370   -2.325760
  H     -1.143840    1.066710   -2.129680
  H     -2.114400   -0.156830   -2.930320
  H     -0.155380   -1.661720   -3.037000
  H     -0.588450   -1.229990   -1.400200
  H      0.788520   -0.476020   -2.167370

 Total Charge           Charge          ....    0
 Multiplicity           Mult            ....    1
 Number of Electrons    NEL             ....   48
 Basis Dimension        Dim             ....  182

ORBITAL ENERGIES
----------------

  NO   OCC          E(Eh)            E(eV)
   0   2.0000     -24.848456      -676.1609
   1   2.0000     -19.227245      -523.1999
   2   2.0000     -10.448043      -284.3057
   3   2.0000     -10.292246      -280.0662
   4   2.0000     -10.272704      -279.5345
   5   2.0000     -10.248512      -278.8762
   6   2.0000      -1.392702       -37.8973
   7   2.0000      -1.111572       -30.2474
   8   2.0000      -0.890339       -24.2274
   9   2.0000      -0.807227       -21.9658
  10   2.0000      -0.741088       -20.1660
  11   2.0000      -0.686730       -18.6869
  12   2.0000      -0.630315       -17.1517
  13   2.0000      -0.609947       -16.5975
  14   2.0000      -0.584380       -15.9018
  15   2.0000      -0.539843       -14.6899
  16   2.0000      -0.527217       -14.3463
  17   2.0000      -0.488343       -13.2885
  18   2.0000      -0.475370       -12.9355
  19   2.0000      -0.438574       -11.9342
  20   2.0000      -0.424566       -11.5530
  21   2.0000      -0.416347       -11.3294
  22   2.0000      -0.409829       -11.1520
  23   2.0000      -0.366791        -9.9809
  24   0.0000       0.013280         0.3614
  25   0.0000       0.043322         1.1788
  26   0.0000       0.070400         1.9157
  27   0.0000       0.076173         2.0728
  28   0.0000       0.089661         2.4398

MULLIKEN ATOMIC CHARGES
-----------------------
   0 C :   -0.226535
   1 C :    0.214853
   2 H :   -0.030373
   3 H :   -0.036339
   4 C :    0.665718
   5 F :   -0.345268
   6 O :   -0.501667
   7 C :    0.889848
   8 H :   -0.215473
   9 H :   -0.050314
  10 H :   -0.163820
  11 H :   -0.112791
  12 H :   -0.087838
Sum of atomic charges:   -0.0000000

LOEWDIN ATOMIC CHARGES
----------------------
   0 C :   -0.060279
   1 C :    0.042265
   2 H :    0.025342
   3 H :    0.041177
   4 C :   -0.014046
   5 F :   -0.029795
   6 O :   -0.130075
   7 C :    0.134238
   8 H :    0.023344
   9 H :    0.025819
  10 H :   -0.027455
  11 H :   -0.014426
  12 H :   -0.016109

  Mayer bond orders larger than 0.100000
B(  0-C ,  1-C ) :   1.2317 B(  0-C ,  2-H ) :   0.1467 B(  0-C ,  3-H ) :   0.1438
B(  0-C ,  7-C ) :   1.3362 B(  0-C ,  8-H ) :   0.9162 B(  0-C ,  9-H ) :   0.8619
B(  0-C , 10-H ) :   0.2136 B(  0-C , 11-H ) :   0.2387 B(  0-C , 12-H ) :   0.2052
B(  1-C ,  2-H ) :   0.8531 B(  1-C ,  3-H ) :   0.7972 B(  1-C ,  4-C ) :   1.0844
B(  1-C ,  8-H ) :   0.1201 B(  1-C ,  9-H ) :   0.1184 B(  2-H ,  4-C ) :   0.1273
B(  4-C ,  5-F ) :   0.7530 B(  4-C ,  6-O ) :   1.8476 B(  5-F ,  6-O ) :   0.1044
B(  7-C , 10-H ) :   0.7963 B(  7-C , 11-H ) :   0.7032 B(  7-C , 12-H ) :   0.7540

FINAL SINGLE POINT ENERGY      -331.340237725113

DIPOLE MOMENT
-------------
                                X             Y             Z
Electronic contribution:      2.60894      -0.65326     -10.66407
Nuclear contribution   :     -2.39146       1.63977      11.24418
                        -----------------------------------------
Total Dipole Moment    :      0.21748       0.98651       0.58011
                        -----------------------------------------
Magnitude (a.u.)       :      1.16491
Magnitude (Debye)      :      2.96097

Rotational constants in cm-1:     0.198868     0.077542     0.072498
Rotational constants in MHz :  5961.919605  2324.650173  2173.425242

                             ****ORCA TERMINATED NORMALLY****
TOTAL RUN TIME: 0 days 0 hours 0 minutes 29 seconds 52 msec
