                         Program Version 5.0.0 -  RELEASE  -
|  1> !CAM-B3LYP RIJCOSX def2-SVPD def2/J TightSCF
|  2> *xyz 0 1
|  3> C          2.23447       -2.98975       -2.39762
|  4> C          2.75680       -2.94555       -3.76503
|  5> C          1.98721       -2.59045       -4.81898
|  6> N          0.74322       -3.01749       -4.91352
|  7> N          2.49964       -1.84860       -5.80324
|  8> H          3.30978       -1.29282       -5.55895
|  9> H          1.80103       -1.30430       -6.28913
| 10> H          3.71612       -2.62880       -3.82953
| 11> H          0.39583       -3.62775       -4.18502
| 12> H          0.03920       -2.45438       -5.37137
| 13> C          2.19120       -1.61950       -1.71549
| 14> H          2.87278       -3.66637       -1.82801
| 15> H          1.24619       -3.44744       -2.40784
| 16> C          1.29873       -0.55431       -2.35977
| 17> H          1.87292       -1.78796       -0.68131
| 18> H          3.21681       -1.23843       -1.65443
| 19> H          1.61097       -0.39090       -3.37007
| 20> H          1.37981        0.35955       -1.80916
| 21> H          0.28197       -0.88750       -2.35015
| 22> *
| 23>
| 24> %MaxCore 64000
| 25>
| 26> %pal nprocs 4
| 27> end
| 28>
| 29> %scf
| 30>   MaxIter 150
| 31> end
| 32>
| 33>
| 34>                          ****END OF INPUT****

CARTESIAN COORDINATES (ANGSTROEM)
---------------------------------
  C      2.234470   -2.989750   -2.397620
  C      2.756800   -2.945550   -3.765030
  C      1.987210   -2.590450   -4.818980
  N      0.743220   -3.017490   -4.913520
  N      2.499640   -1.848600   -5.803240
  H      3.309780   -1.292820   -5.558950
  H      1.801030   -1.304300   -6.289130
  H      3.716120   -2.628800   -3.829530
  H      0.395830   -3.627750   -4.185020
  H      0.039200   -2.454380   -5.371370
  C      2.191200   -1.619500   -1.715490
  H      2.872780   -3.666370   -1.828010
  H      1.246190   -3.447440   -2.407840
  C      1.298730   -0.554310   -2.359770
  H      1.872920   -1.787960   -0.681310
  H      3.216810   -1.238430   -1.654430
  H      1.610970   -0.390900   -3.370070
  H      1.379810    0.359550   -1.809160
  H      0.281970   -0.887500   -2.350150

 Total Charge           Charge          ....    0
 Multiplicity           Mult            ....    1
 Number of Electrons    NEL             ....   56
 Basis Dimension        Dim             ....  236

ORBITAL ENERGIES
----------------

  NO   OCC          E(Eh)            E(eV)
   0   2.0000     -14.413206      -392.2033
   1   2.0000     -14.409839      -392.1116
   2   2.0000     -10.311474      -280.5895
   3   2.0000     -10.240451      -278.6568
   4   2.0000     -10.235850      -278.5316
   5   2.0000     -10.235398      -278.5193
   6   2.0000     -10.184985      -277.1475
   7   2.0000      -1.049407       -28.5558
   8   2.0000      -0.954848       -25.9827
   9   2.0000      -0.865355       -23.5475
  10   2.0000      -0.798896       -21.7391
  11   2.0000      -0.736513       -20.0415
  12   2.0000      -0.675372       -18.3778
  13   2.0000      -0.641793       -17.4641
  14   2.0000      -0.617170       -16.7940
  15   2.0000      -0.580916       -15.8075
  16   2.0000      -0.541956       -14.7474
  17   2.0000      -0.523006       -14.2317
  18   2.0000      -0.511676       -13.9234
  19   2.0000      -0.483173       -13.1478
  20   2.0000      -0.457823       -12.4580
  21   2.0000      -0.445497       -12.1226
  22   2.0000      -0.420578       -11.4445
  23   2.0000      -0.405850       -11.0437
  24   2.0000      -0.382781       -10.4160
  25   2.0000      -0.378489       -10.2992
  26   2.0000      -0.343692        -9.3523
  27   2.0000      -0.220898        -6.0109
  28   0.0000       0.037963         1.0330
  29   0.0000       0.069338         1.8868
  30   0.0000       0.071490         1.9453
  31   0.0000       0.080614         2.1936
  32   0.0000       0.093790         2.5521

MULLIKEN ATOMIC CHARGES
-----------------------
   0 C :    0.333822
   1 C :   -0.024552
   2 C :    0.181917
   3 N :    0.150433
   4 N :    0.071467
   5 H :    0.022968
   6 H :   -0.012770
   7 H :   -0.256004
   8 H :   -0.030113
   9 H :   -0.149139
  10 C :   -0.175373
  11 H :   -0.134309
  12 H :   -0.244792
  13 C :    1.064013
  14 H :   -0.173102
  15 H :   -0.130245
  16 H :   -0.243934
  17 H :   -0.193089
  18 H :   -0.057198
Sum of atomic charges:   -0.0000000

LOEWDIN ATOMIC CHARGES
----------------------
   0 C :   -0.070231
   1 C :   -0.016718
   2 C :   -0.253123
   3 N :    0.204751
   4 N :    0.196835
   5 H :    0.002206
   6 H :   -0.011933
   7 H :   -0.056541
   8 H :   -0.003958
   9 H :   -0.001099
  10 C :   -0.070175
  11 H :    0.011289
  12 H :   -0.005422
  13 C :    0.125118
  14 H :    0.013689
  15 H :    0.018686
  16 H :   -0.039043
  17 H :   -0.022738
  18 H :   -0.021593

  Mayer bond orders larger than 0.100000
B(  0-C ,  1-C ) :   1.2154 B(  0-C ,  2-C ) :   0.1601 B(  0-C ,  7-H ) :   0.3455
B(  0-C , 10-C ) :   1.1556 B(  0-C , 11-H ) :   0.7622 B(  0-C , 12-H ) :   0.7349
B(  0-C , 14-H ) :   0.2194 B(  0-C , 15-H ) :   0.1806 B(  1-C ,  2-C ) :   1.7223
B(  1-C ,  3-N ) :   0.1315 B(  1-C ,  4-N ) :   0.2563 B(  1-C ,  7-H ) :   0.5890
B(  1-C , 11-H ) :   0.2148 B(  1-C , 12-H ) :   0.2257 B(  2-C ,  3-N ) :   1.0835
B(  2-C ,  4-N ) :   0.9541 B(  2-C ,  6-H ) :   0.1161 B(  2-C ,  7-H ) :   0.3132
B(  3-N ,  4-N ) :   0.1098 B(  3-N ,  8-H ) :   0.9967 B(  3-N ,  9-H ) :   1.1744
B(  4-N ,  5-H ) :   0.9422 B(  4-N ,  6-H ) :   0.8622 B(  8-H ,  9-H ) :  -0.1456
B( 10-C , 12-H ) :   0.1485 B( 10-C , 13-C ) :   1.2677 B( 10-C , 14-H ) :   0.8538
B( 10-C , 15-H ) :   0.8882 B( 10-C , 16-H ) :   0.2697 B( 10-C , 17-H ) :   0.2567
B( 10-C , 18-H ) :   0.2432 B( 13-C , 16-H ) :   0.7445 B( 13-C , 17-H ) :   0.6834
B( 13-C , 18-H ) :   0.6962 B( 16-H , 18-H ) :   0.1370

FINAL SINGLE POINT ENERGY      -306.847086730138

DIPOLE MOMENT
-------------
                                X             Y             Z
Electronic contribution:      0.57529      -2.83986      -5.01265
Nuclear contribution   :     -1.30515       3.65216       4.73330
                        -----------------------------------------
Total Dipole Moment    :     -0.72986       0.81230      -0.27935
                        -----------------------------------------
Magnitude (a.u.)       :      1.12720
Magnitude (Debye)      :      2.86510

Rotational constants in cm-1:     0.129987     0.058163     0.054282
Rotational constants in MHz :  3896.918182  1743.696851  1627.337267

                             ****ORCA TERMINATED NORMALLY****
TOTAL RUN TIME: 0 days 0 hours 0 minutes 55 seconds 995 msec
