                         Program Version 5.0.0 -  RELEASE  -
|  1> !CAM-B3LYP RIJCOSX def2-SVPD def2/J TightSCF
|  2> *xyz 0 1
|  3> C         -1.10433        0.25137       -2.86006
|  4> C         -0.71189        0.84252       -4.21834
|  5> H          0.15463        1.49980       -4.13091
|  6> H         -1.53813        1.45922       -4.58267
|  7> C         -0.39762       -0.20587       -5.28802
|  8> O          0.61717       -0.00535       -5.99827
|  9> F         -1.13317       -1.22138       -5.34147
| 10> C         -0.19626       -0.86337       -2.32576
| 11> H         -1.14384        1.06671       -2.12968
| 12> H         -2.11440       -0.15683       -2.93032
| 13> H         -0.15538       -1.66172       -3.03700
| 14> H         -0.58845       -1.22999       -1.40020
| 15> H          0.78852       -0.47602       -2.16737
| 16> *
| 17>
| 18> %MaxCore 64000
| 19>
| 20> %pal nprocs 4
| 21> end
| 22>
| 23> %scf
| 24>   MaxIter 150
| 25> end
| 26>
| 27>
| 28>                          ****END OF INPUT****

CARTESIAN COORDINATES (ANGSTROEM)
---------------------------------
  C     -1.104330    0.251370   -2.860060
  C     -0.711890    0.842520   -4.218340
  H      0.154630    1.499800   -4.130910
  H     -1.538130    1.459220   -4.582670
  C     -0.397620   -0.205870   -5.288020
  O      0.617170   -0.005350   -5.998270
  F     -1.133170   -1.221380   -5.341470
  C     -0.196260   -0.863370   -2.325760
  H     -1.143840    1.066710   -2.129680
  H     -2.114400   -0.156830   -2.930320
  H     -0.155380   -1.661720   -3.037000
  H     -0.588450   -1.229990   -1.400200
  H      0.788520   -0.476020   -2.167370

 Total Charge           Charge          ....    0
 Multiplicity           Mult            ....    1
 Number of Electrons    NEL             ....   48
 Basis Dimension        Dim             ....  182

ORBITAL ENERGIES
----------------

  NO   OCC          E(Eh)            E(eV)
   0   2.0000     -24.849251      -676.1825
   1   2.0000     -19.225866      -523.1624
   2   2.0000     -10.446946      -284.2759
   3   2.0000     -10.291055      -280.0338
   4   2.0000     -10.277926      -279.6766
   5   2.0000     -10.256847      -279.1030
   6   2.0000      -1.393237       -37.9119
   7   2.0000      -1.109777       -30.1986
   8   2.0000      -0.895987       -24.3810
   9   2.0000      -0.807722       -21.9792
  10   2.0000      -0.741391       -20.1743
  11   2.0000      -0.692761       -18.8510
  12   2.0000      -0.632473       -17.2105
  13   2.0000      -0.621913       -16.9231
  14   2.0000      -0.567277       -15.4364
  15   2.0000      -0.546876       -14.8813
  16   2.0000      -0.527940       -14.3660
  17   2.0000      -0.492351       -13.3975
  18   2.0000      -0.475646       -12.9430
  19   2.0000      -0.447611       -12.1801
  20   2.0000      -0.434066       -11.8115
  21   2.0000      -0.421473       -11.4689
  22   2.0000      -0.411531       -11.1983
  23   2.0000      -0.361116        -9.8265
  24   0.0000       0.016618         0.4522
  25   0.0000       0.040337         1.0976
  26   0.0000       0.071273         1.9394
  27   0.0000       0.075698         2.0599
  28   0.0000       0.085422         2.3244

MULLIKEN ATOMIC CHARGES
-----------------------
   0 C :   -0.224216
   1 C :    0.240075
   2 H :   -0.048820
   3 H :   -0.052650
   4 C :    0.683225
   5 O :   -0.441642
   6 F :   -0.399402
   7 C :    0.891966
   8 H :   -0.225546
   9 H :   -0.070100
  10 H :   -0.166447
  11 H :   -0.112244
  12 H :   -0.074198
Sum of atomic charges:    0.0000000

LOEWDIN ATOMIC CHARGES
----------------------
   0 C :   -0.068765
   1 C :    0.047542
   2 H :    0.036282
   3 H :    0.039028
   4 C :   -0.020788
   5 O :   -0.131827
   6 F :   -0.028581
   7 C :    0.134007
   8 H :    0.023677
   9 H :    0.020741
  10 H :   -0.026105
  11 H :   -0.014169
  12 H :   -0.011042

  Mayer bond orders larger than 0.100000
B(  0-C ,  1-C ) :   1.2036 B(  0-C ,  2-H ) :   0.1399 B(  0-C ,  3-H ) :   0.1345
B(  0-C ,  7-C ) :   1.3341 B(  0-C ,  8-H ) :   0.9234 B(  0-C ,  9-H ) :   0.8651
B(  0-C , 10-H ) :   0.2140 B(  0-C , 11-H ) :   0.2433 B(  0-C , 12-H ) :   0.2111
B(  1-C ,  2-H ) :   0.8754 B(  1-C ,  3-H ) :   0.8100 B(  1-C ,  4-C ) :   1.0386
B(  1-C ,  8-H ) :   0.1228 B(  1-C ,  9-H ) :   0.1103 B(  2-H ,  4-C ) :   0.1643
B(  4-C ,  5-O ) :   1.8241 B(  4-C ,  6-F ) :   0.7237 B(  5-O ,  6-F ) :   0.1190
B(  7-C , 10-H ) :   0.7950 B(  7-C , 11-H ) :   0.7005 B(  7-C , 12-H ) :   0.7579

FINAL SINGLE POINT ENERGY      -331.339468148527

DIPOLE MOMENT
-------------
                                X             Y             Z
Electronic contribution:     -0.36845      -2.70721      -9.48714
Nuclear contribution   :     -0.41432       3.01336      10.50227
                        -----------------------------------------
Total Dipole Moment    :     -0.78277       0.30615       1.01513
                        -----------------------------------------
Magnitude (a.u.)       :      1.31794
Magnitude (Debye)      :      3.34992

Rotational constants in cm-1:     0.192167     0.080512     0.073747
Rotational constants in MHz :  5761.018137  2413.690728  2210.882638

                             ****ORCA TERMINATED NORMALLY****
TOTAL RUN TIME: 0 days 0 hours 0 minutes 29 seconds 52 msec
