                         Program Version 5.0.0 -  RELEASE  -
|  1> !CAM-B3LYP RIJCOSX def2-SVPD def2/J TightSCF
|  2> *xyz 0 1
|  3> C          2.23447       -2.98975       -2.39762
|  4> N          2.75680       -2.94555       -3.76503
|  5> C          1.98721       -2.59045       -4.81898
|  6> C          0.74322       -3.01749       -4.91352
|  7> N          2.49964       -1.84860       -5.80324
|  8> H          3.30978       -1.29282       -5.55895
|  9> H          1.80103       -1.30430       -6.28913
| 10> H          3.71612       -2.62880       -3.82953
| 11> H          0.39583       -3.62775       -4.18502
| 12> H          0.03920       -2.45438       -5.37137
| 13> C          2.19120       -1.61950       -1.71549
| 14> H          2.87278       -3.66637       -1.82801
| 15> H          1.24619       -3.44744       -2.40784
| 16> C          1.29873       -0.55431       -2.35977
| 17> H          1.87292       -1.78796       -0.68131
| 18> H          3.21681       -1.23843       -1.65443
| 19> H          1.61097       -0.39090       -3.37007
| 20> H          1.37981        0.35955       -1.80916
| 21> H          0.28197       -0.88750       -2.35015
| 22> *
| 23>
| 24> %MaxCore 64000
| 25>
| 26> %pal nprocs 4
| 27> end
| 28>
| 29> %scf
| 30>   MaxIter 150
| 31> end
| 32>
| 33>
| 34>                          ****END OF INPUT****

CARTESIAN COORDINATES (ANGSTROEM)
---------------------------------
  C      2.234470   -2.989750   -2.397620
  N      2.756800   -2.945550   -3.765030
  C      1.987210   -2.590450   -4.818980
  C      0.743220   -3.017490   -4.913520
  N      2.499640   -1.848600   -5.803240
  H      3.309780   -1.292820   -5.558950
  H      1.801030   -1.304300   -6.289130
  H      3.716120   -2.628800   -3.829530
  H      0.395830   -3.627750   -4.185020
  H      0.039200   -2.454380   -5.371370
  C      2.191200   -1.619500   -1.715490
  H      2.872780   -3.666370   -1.828010
  H      1.246190   -3.447440   -2.407840
  C      1.298730   -0.554310   -2.359770
  H      1.872920   -1.787960   -0.681310
  H      3.216810   -1.238430   -1.654430
  H      1.610970   -0.390900   -3.370070
  H      1.379810    0.359550   -1.809160
  H      0.281970   -0.887500   -2.350150

 Total Charge           Charge          ....    0
 Multiplicity           Mult            ....    1
 Number of Electrons    NEL             ....   56
 Basis Dimension        Dim             ....  236

ORBITAL ENERGIES
----------------

  NO   OCC          E(Eh)            E(eV)
   0   2.0000     -14.407890      -392.0586
   1   2.0000     -14.407487      -392.0477
   2   2.0000     -10.308019      -280.4954
   3   2.0000     -10.290420      -280.0166
   4   2.0000     -10.259398      -279.1724
   5   2.0000     -10.243705      -278.7454
   6   2.0000     -10.177448      -276.9424
   7   2.0000      -1.046091       -28.4656
   8   2.0000      -0.964644       -26.2493
   9   2.0000      -0.855666       -23.2839
  10   2.0000      -0.796958       -21.6863
  11   2.0000      -0.763939       -20.7878
  12   2.0000      -0.678843       -18.4723
  13   2.0000      -0.634066       -17.2538
  14   2.0000      -0.616228       -16.7684
  15   2.0000      -0.582777       -15.8582
  16   2.0000      -0.543215       -14.7816
  17   2.0000      -0.527439       -14.3523
  18   2.0000      -0.497234       -13.5304
  19   2.0000      -0.482548       -13.1308
  20   2.0000      -0.470651       -12.8071
  21   2.0000      -0.449139       -12.2217
  22   2.0000      -0.435131       -11.8405
  23   2.0000      -0.424966       -11.5639
  24   2.0000      -0.410792       -11.1782
  25   2.0000      -0.400699       -10.9036
  26   2.0000      -0.319070        -8.6823
  27   2.0000      -0.236205        -6.4275
  28   0.0000       0.040521         1.1026
  29   0.0000       0.064464         1.7541
  30   0.0000       0.070035         1.9057
  31   0.0000       0.081853         2.2273
  32   0.0000       0.096088         2.6147

MULLIKEN ATOMIC CHARGES
-----------------------
   0 C :    0.857288
   1 N :   -0.269391
   2 C :    0.341533
   3 C :    0.505158
   4 N :    0.073303
   5 H :   -0.074550
   6 H :    0.020063
   7 H :   -0.280499
   8 H :   -0.249599
   9 H :   -0.451786
  10 C :   -0.230274
  11 H :   -0.360334
  12 H :   -0.148361
  13 C :    1.056286
  14 H :   -0.144255
  15 H :   -0.126813
  16 H :   -0.304941
  17 H :   -0.137919
  18 H :   -0.074909
Sum of atomic charges:    0.0000000

LOEWDIN ATOMIC CHARGES
----------------------
   0 C :    0.047322
   1 N :    0.002338
   2 C :   -0.261221
   3 C :    0.158718
   4 N :    0.193664
   5 H :   -0.015142
   6 H :    0.000715
   7 H :    0.012730
   8 H :   -0.102976
   9 H :   -0.089533
  10 C :   -0.064059
  11 H :    0.017930
  12 H :    0.009182
  13 C :    0.130139
  14 H :    0.018208
  15 H :    0.014364
  16 H :   -0.036605
  17 H :   -0.020805
  18 H :   -0.014967

  Mayer bond orders larger than 0.100000
B(  0-C ,  1-N ) :   0.9347 B(  0-C , 10-C ) :   1.0888 B(  0-C , 11-H ) :   0.8212
B(  0-C , 12-H ) :   0.7137 B(  0-C , 14-H ) :   0.1648 B(  0-C , 15-H ) :   0.1392
B(  1-N ,  2-C ) :   1.0629 B(  1-N ,  3-C ) :   0.2761 B(  1-N ,  4-N ) :   0.1192
B(  1-N ,  7-H ) :   1.0966 B(  1-N , 11-H ) :   0.1789 B(  1-N , 12-H ) :   0.1420
B(  2-C ,  3-C ) :   1.7993 B(  2-C ,  4-N ) :   0.9123 B(  2-C ,  7-H ) :  -0.1192
B(  2-C ,  8-H ) :   0.3166 B(  2-C ,  9-H ) :   0.1900 B(  3-C ,  4-N ) :   0.2180
B(  3-C ,  8-H ) :   0.4940 B(  3-C ,  9-H ) :   0.7722 B(  4-N ,  5-H ) :   0.9312
B(  4-N ,  6-H ) :   0.9324 B(  8-H ,  9-H ) :   0.1648 B( 10-C , 12-H ) :   0.1634
B( 10-C , 13-C ) :   1.2556 B( 10-C , 14-H ) :   0.8963 B( 10-C , 15-H ) :   0.9078
B( 10-C , 16-H ) :   0.2681 B( 10-C , 17-H ) :   0.2264 B( 10-C , 18-H ) :   0.2553
B( 11-H , 12-H ) :  -0.1353 B( 13-C , 16-H ) :   0.7517 B( 13-C , 17-H ) :   0.6954
B( 13-C , 18-H ) :   0.6842 B( 16-H , 18-H ) :   0.1615

FINAL SINGLE POINT ENERGY      -306.841117911045

DIPOLE MOMENT
-------------
                                X             Y             Z
Electronic contribution:      2.34599      -2.69260      -3.88473
Nuclear contribution   :     -1.74624       3.63640       4.48172
                        -----------------------------------------
Total Dipole Moment    :      0.59975       0.94380       0.59699
                        -----------------------------------------
Magnitude (a.u.)       :      1.26762
Magnitude (Debye)      :      3.22202

Rotational constants in cm-1:     0.131012     0.059513     0.054636
Rotational constants in MHz :  3927.631151  1784.169731  1637.945644

                             ****ORCA TERMINATED NORMALLY****
TOTAL RUN TIME: 0 days 0 hours 0 minutes 52 seconds 31 msec
