                         Program Version 5.0.0 -  RELEASE  -
|  1> !CAM-B3LYP RIJCOSX def2-SVPD def2/J TightSCF
|  2> *xyz 0 1
|  3> C          2.23447       -2.98975       -2.39762
|  4> N          2.75680       -2.94555       -3.76503
|  5> C          1.98721       -2.59045       -4.81898
|  6> N          0.74322       -3.01749       -4.91352
|  7> C          2.49964       -1.84860       -5.80324
|  8> H          3.30978       -1.29282       -5.55895
|  9> H          1.80103       -1.30430       -6.28913
| 10> H          3.71612       -2.62880       -3.82953
| 11> H          0.39583       -3.62775       -4.18502
| 12> H          0.03920       -2.45438       -5.37137
| 13> C          2.19120       -1.61950       -1.71549
| 14> H          2.87278       -3.66637       -1.82801
| 15> H          1.24619       -3.44744       -2.40784
| 16> C          1.29873       -0.55431       -2.35977
| 17> H          1.87292       -1.78796       -0.68131
| 18> H          3.21681       -1.23843       -1.65443
| 19> H          1.61097       -0.39090       -3.37007
| 20> H          1.37981        0.35955       -1.80916
| 21> H          0.28197       -0.88750       -2.35015
| 22> *
| 23>
| 24> %MaxCore 64000
| 25>
| 26> %pal nprocs 4
| 27> end
| 28>
| 29> %scf
| 30>   MaxIter 150
| 31> end
| 32>
| 33>
| 34>                          ****END OF INPUT****

CARTESIAN COORDINATES (ANGSTROEM)
---------------------------------
  C      2.234470   -2.989750   -2.397620
  N      2.756800   -2.945550   -3.765030
  C      1.987210   -2.590450   -4.818980
  N      0.743220   -3.017490   -4.913520
  C      2.499640   -1.848600   -5.803240
  H      3.309780   -1.292820   -5.558950
  H      1.801030   -1.304300   -6.289130
  H      3.716120   -2.628800   -3.829530
  H      0.395830   -3.627750   -4.185020
  H      0.039200   -2.454380   -5.371370
  C      2.191200   -1.619500   -1.715490
  H      2.872780   -3.666370   -1.828010
  H      1.246190   -3.447440   -2.407840
  C      1.298730   -0.554310   -2.359770
  H      1.872920   -1.787960   -0.681310
  H      3.216810   -1.238430   -1.654430
  H      1.610970   -0.390900   -3.370070
  H      1.379810    0.359550   -1.809160
  H      0.281970   -0.887500   -2.350150

 Total Charge           Charge          ....    0
 Multiplicity           Mult            ....    1
 Number of Electrons    NEL             ....   56
 Basis Dimension        Dim             ....  236

ORBITAL ENERGIES
----------------

  NO   OCC          E(Eh)            E(eV)
   0   2.0000     -14.410519      -392.1301
   1   2.0000     -14.406767      -392.0281
   2   2.0000     -10.312577      -280.6195
   3   2.0000     -10.298792      -280.2444
   4   2.0000     -10.262540      -279.2579
   5   2.0000     -10.245739      -278.8007
   6   2.0000     -10.172989      -276.8211
   7   2.0000      -1.048262       -28.5247
   8   2.0000      -0.964368       -26.2418
   9   2.0000      -0.863081       -23.4856
  10   2.0000      -0.804824       -21.9004
  11   2.0000      -0.750338       -20.4177
  12   2.0000      -0.676864       -18.4184
  13   2.0000      -0.671298       -18.2669
  14   2.0000      -0.614183       -16.7128
  15   2.0000      -0.565196       -15.3798
  16   2.0000      -0.559436       -15.2230
  17   2.0000      -0.522819       -14.2266
  18   2.0000      -0.518292       -14.1034
  19   2.0000      -0.475866       -12.9490
  20   2.0000      -0.461676       -12.5628
  21   2.0000      -0.449796       -12.2396
  22   2.0000      -0.435984       -11.8637
  23   2.0000      -0.427228       -11.6255
  24   2.0000      -0.410899       -11.1811
  25   2.0000      -0.408360       -11.1120
  26   2.0000      -0.321002        -8.7349
  27   2.0000      -0.232065        -6.3148
  28   0.0000       0.041255         1.1226
  29   0.0000       0.062728         1.7069
  30   0.0000       0.065567         1.7842
  31   0.0000       0.077903         2.1198
  32   0.0000       0.094165         2.5623

MULLIKEN ATOMIC CHARGES
-----------------------
   0 C :    0.897940
   1 N :   -0.358211
   2 C :    0.170759
   3 N :    0.302962
   4 C :    0.641071
   5 H :   -0.256766
   6 H :   -0.471595
   7 H :   -0.177361
   8 H :   -0.123164
   9 H :   -0.111434
  10 C :   -0.243776
  11 H :   -0.372569
  12 H :   -0.180009
  13 C :    1.024880
  14 H :   -0.141021
  15 H :   -0.128376
  16 H :   -0.208628
  17 H :   -0.219239
  18 H :   -0.045463
Sum of atomic charges:    0.0000000

LOEWDIN ATOMIC CHARGES
----------------------
   0 C :    0.040545
   1 N :    0.006309
   2 C :   -0.255990
   3 N :    0.205721
   4 C :    0.137929
   5 H :   -0.105016
   6 H :   -0.104878
   7 H :    0.026232
   8 H :   -0.018102
   9 H :    0.014615
  10 C :   -0.064558
  11 H :    0.016847
  12 H :    0.003225
  13 C :    0.132268
  14 H :    0.016934
  15 H :    0.018356
  16 H :   -0.031660
  17 H :   -0.019502
  18 H :   -0.019275

  Mayer bond orders larger than 0.100000
B(  0-C ,  1-N ) :   0.9429 B(  0-C , 10-C ) :   1.0991 B(  0-C , 11-H ) :   0.8070
B(  0-C , 12-H ) :   0.7291 B(  0-C , 14-H ) :   0.1471 B(  0-C , 15-H ) :   0.1544
B(  1-N ,  2-C ) :   1.0648 B(  1-N ,  4-C ) :   0.2085 B(  1-N ,  7-H ) :   1.1079
B(  1-N , 11-H ) :   0.2015 B(  1-N , 12-H ) :   0.1531 B(  2-C ,  3-N ) :   1.0982
B(  2-C ,  4-C ) :   2.0257 B(  2-C ,  5-H ) :   0.2815 B(  2-C ,  6-H ) :   0.3269
B(  2-C ,  7-H ) :  -0.1123 B(  3-N ,  4-C ) :   0.2024 B(  3-N ,  8-H ) :   0.9705
B(  3-N ,  9-H ) :   1.0818 B(  4-C ,  5-H ) :   0.6286 B(  4-C ,  6-H ) :   0.5907
B(  5-H ,  6-H ) :   0.2906 B(  8-H ,  9-H ) :  -0.1539 B( 10-C , 12-H ) :   0.1658
B( 10-C , 13-C ) :   1.2622 B( 10-C , 14-H ) :   0.9125 B( 10-C , 15-H ) :   0.8798
B( 10-C , 16-H ) :   0.2678 B( 10-C , 17-H ) :   0.2397 B( 10-C , 18-H ) :   0.2521
B( 11-H , 12-H ) :  -0.1309 B( 13-C , 16-H ) :   0.7583 B( 13-C , 17-H ) :   0.7066
B( 13-C , 18-H ) :   0.6961 B( 16-H , 18-H ) :   0.1160

FINAL SINGLE POINT ENERGY      -306.836951591087

DIPOLE MOMENT
-------------
                                X             Y             Z
Electronic contribution:      0.75063      -3.81821      -3.01495
Nuclear contribution   :     -1.36148       3.89245       4.28682
                        -----------------------------------------
Total Dipole Moment    :     -0.61085       0.07424       1.27187
                        -----------------------------------------
Magnitude (a.u.)       :      1.41291
Magnitude (Debye)      :      3.59133

Rotational constants in cm-1:     0.130039     0.059901     0.055416
Rotational constants in MHz :  3898.472533  1795.778295  1661.317267

                             ****ORCA TERMINATED NORMALLY****
TOTAL RUN TIME: 0 days 0 hours 0 minutes 55 seconds 89 msec
