                         Program Version 5.0.0 -  RELEASE  -
|  1> !CAM-B3LYP RIJCOSX def2-SVPD def2/J TightSCF xyzfile
|  2>
|  3> *xyzfile 0 1 D4.xyz
|  4>
|  5> %MaxCore 64000
|  6>
|  7> %pal nprocs 4
|  8> end
|  9>
| 10> %scf
| 11>   MaxIter 150
| 12> end
| 13>
| 14>
| 15>                          ****END OF INPUT****

CARTESIAN COORDINATES (ANGSTROEM)
---------------------------------
  C      2.234473   -2.989754   -2.397622
  C      2.756799   -2.945553   -3.765029
  C     -1.104325    0.251374   -2.860056
  C     -0.711893    0.842517   -4.218344
  H      0.154626    1.499800   -4.130909
  H     -1.538134    1.459222   -4.582671
  C     -0.397624   -0.205875   -5.288018
  C      1.987208   -2.590451   -4.818975
  N      0.743221   -3.017493   -4.913524
  N      2.499636   -1.848598   -5.803241
  H      3.309780   -1.292818   -5.558947
  H      1.801025   -1.304298   -6.289129
  H      3.716116   -2.628797   -3.829533
  H      0.395828   -3.627747   -4.185024
  H      0.039201   -2.454383   -5.371367
  O      0.617165   -0.005348   -5.998273
  F     -1.133173   -1.221380   -5.341465
  C      2.191199   -1.619503   -1.715492
  H      2.872783   -3.666368   -1.828014
  H      1.246188   -3.447444   -2.407842
  C      1.298729   -0.554314   -2.359773
  H      1.872917   -1.787955   -0.681310
  H      3.216809   -1.238432   -1.654428
  C     -0.196255   -0.863365   -2.325763
  H      1.612531   -0.371346   -3.393065
  H      1.480944    0.388638   -1.834444
  H     -0.404105   -1.761825   -2.909448
  H     -0.490439   -1.087880   -1.294131
  H     -1.143842    1.066711   -2.129680
  H     -2.114401   -0.156834   -2.930323

 Total Charge           Charge          ....    0
 Multiplicity           Mult            ....    1
 Number of Electrons    NEL             ....  102
 Basis Dimension        Dim             ....  402

ORBITAL ENERGIES
----------------

  NO   OCC          E(Eh)            E(eV)
   0   2.0000     -24.884499      -677.1416
   1   2.0000     -19.258176      -524.0416
   2   2.0000     -14.396872      -391.7588
   3   2.0000     -14.378923      -391.2704
   4   2.0000     -10.475976      -285.0658
   5   2.0000     -10.305111      -280.4163
   6   2.0000     -10.297487      -280.2089
   7   2.0000     -10.283147      -279.8186
   8   2.0000     -10.264021      -279.2982
   9   2.0000     -10.252932      -278.9965
  10   2.0000     -10.240916      -278.6695
  11   2.0000     -10.231172      -278.4043
  12   2.0000     -10.171174      -276.7717
  13   2.0000      -1.431019       -38.9400
  14   2.0000      -1.145639       -31.1744
  15   2.0000      -1.032840       -28.1050
  16   2.0000      -0.936939       -25.4954
  17   2.0000      -0.915092       -24.9009
  18   2.0000      -0.869368       -23.6567
  19   2.0000      -0.831215       -22.6185
  20   2.0000      -0.784296       -21.3418
  21   2.0000      -0.767667       -20.8893
  22   2.0000      -0.733106       -19.9488
  23   2.0000      -0.691667       -18.8212
  24   2.0000      -0.678290       -18.4572
  25   2.0000      -0.660208       -17.9652
  26   2.0000      -0.649214       -17.6660
  27   2.0000      -0.635788       -17.3007
  28   2.0000      -0.601444       -16.3661
  29   2.0000      -0.590951       -16.0806
  30   2.0000      -0.562149       -15.2969
  31   2.0000      -0.557853       -15.1800
  32   2.0000      -0.549134       -14.9427
  33   2.0000      -0.522512       -14.2183
  34   2.0000      -0.514314       -13.9952
  35   2.0000      -0.510501       -13.8915
  36   2.0000      -0.502877       -13.6840
  37   2.0000      -0.475745       -12.9457
  38   2.0000      -0.469562       -12.7774
  39   2.0000      -0.464061       -12.6277
  40   2.0000      -0.453895       -12.3511
  41   2.0000      -0.432864       -11.7788
  42   2.0000      -0.429628       -11.6908
  43   2.0000      -0.414240       -11.2720
  44   2.0000      -0.406182       -11.0528
  45   2.0000      -0.393632       -10.7113
  46   2.0000      -0.385071       -10.4783
  47   2.0000      -0.374632       -10.1943
  48   2.0000      -0.371221       -10.1014
  49   2.0000      -0.323570        -8.8048
  50   2.0000      -0.207228        -5.6389
  51   0.0000      -0.012259        -0.3336
  52   0.0000       0.031882         0.8676
  53   0.0000       0.055801         1.5184
  54   0.0000       0.061387         1.6704
  55   0.0000       0.065670         1.7870

MULLIKEN ATOMIC CHARGES
-----------------------
   0 C :    0.481050
   1 C :   -0.039670
   2 C :    0.688290
   3 C :    0.345398
   4 H :    0.132673
   5 H :   -0.321441
   6 C :    0.556405
   7 C :    0.208450
   8 N :    0.393391
   9 N :    0.184078
  10 H :    0.097409
  11 H :   -0.200767
  12 H :   -0.275201
  13 H :    0.036143
  14 H :   -0.508006
  15 O :   -0.429843
  16 F :   -0.446996
  17 C :    0.600067
  18 H :   -0.239355
  19 H :   -0.243153
  20 C :    0.155464
  21 H :   -0.091039
  22 H :   -0.164721
  23 C :    0.177239
  24 H :   -0.233876
  25 H :   -0.196367
  26 H :   -0.284747
  27 H :   -0.179764
  28 H :   -0.167430
  29 H :   -0.033683
Sum of atomic charges:    0.0000000

LOEWDIN ATOMIC CHARGES
----------------------
   0 C :   -0.063668
   1 C :   -0.018088
   2 C :   -0.019586
   3 C :    0.064372
   4 H :    0.038483
   5 H :    0.041319
   6 C :    0.025923
   7 C :   -0.225263
   8 N :    0.232011
   9 N :    0.216728
  10 H :    0.008431
  11 H :   -0.093007
  12 H :   -0.059205
  13 H :    0.001988
  14 H :   -0.071102
  15 O :   -0.119650
  16 F :   -0.026668
  17 C :   -0.023251
  18 H :    0.010503
  19 H :   -0.010504
  20 C :   -0.023929
  21 H :    0.016461
  22 H :    0.023042
  23 C :   -0.026734
  24 H :    0.004071
  25 H :    0.024993
  26 H :   -0.009968
  27 H :    0.030193
  28 H :    0.028693
  29 H :    0.023414

  Mayer bond orders larger than 0.100000
B(  0-C ,  1-C ) :   1.1577 B(  0-C ,  7-C ) :   0.1502 B(  0-C , 12-H ) :   0.3987
B(  0-C , 17-C ) :   1.1173 B(  0-C , 18-H ) :   0.6525 B(  0-C , 19-H ) :   0.7135
B(  0-C , 21-H ) :   0.2265 B(  0-C , 22-H ) :   0.2026 B(  1-C ,  7-C ) :   1.5910
B(  1-C ,  8-N ) :   0.1464 B(  1-C ,  9-N ) :   0.3137 B(  1-C , 12-H ) :   0.4643
B(  1-C , 18-H ) :   0.2392 B(  1-C , 19-H ) :   0.2378 B(  2-C ,  3-C ) :   1.1342
B(  2-C ,  4-H ) :   0.1053 B(  2-C ,  5-H ) :   0.1814 B(  2-C , 23-C ) :   1.2111
B(  2-C , 26-H ) :   0.1074 B(  2-C , 28-H ) :   0.7440 B(  2-C , 29-H ) :   0.5931
B(  3-C ,  4-H ) :   0.8027 B(  3-C ,  5-H ) :   0.7167 B(  3-C ,  6-C ) :   1.1646
B(  3-C , 23-C ) :   0.1083 B(  3-C , 28-H ) :   0.1592 B(  3-C , 29-H ) :   0.1051
B(  4-H ,  5-H ) :  -0.1099 B(  4-H ,  6-C ) :   0.2232 B(  5-H ,  6-C ) :   0.2134
B(  6-C , 15-O ) :   1.7274 B(  6-C , 16-F ) :   0.6202 B(  7-C ,  8-N ) :   1.0605
B(  7-C ,  9-N ) :   0.9165 B(  7-C , 11-H ) :   0.1527 B(  7-C , 12-H ) :   0.4074
B(  8-N ,  9-N ) :   0.1071 B(  8-N , 13-H ) :   0.9055 B(  8-N , 14-H ) :   1.1334
B(  9-N , 10-H ) :   0.8564 B(  9-N , 11-H ) :   0.7990 B( 11-H , 15-O ) :   0.1145
B( 13-H , 14-H ) :  -0.2261 B( 17-C , 18-H ) :   0.1156 B( 17-C , 19-H ) :   0.1370
B( 17-C , 20-C ) :   1.2167 B( 17-C , 21-H ) :   0.7171 B( 17-C , 22-H ) :   0.6216
B( 17-C , 24-H ) :   0.1192 B( 20-C , 21-H ) :   0.1709 B( 20-C , 22-H ) :   0.3153
B( 20-C , 23-C ) :   1.2476 B( 20-C , 24-H ) :   0.8546 B( 20-C , 25-H ) :   0.7264
B( 20-C , 26-H ) :   0.1649 B( 20-C , 27-H ) :   0.2320 B( 21-H , 22-H ) :  -0.1556
B( 23-C , 24-H ) :   0.1669 B( 23-C , 25-H ) :   0.2223 B( 23-C , 26-H ) :   0.8404
B( 23-C , 27-H ) :   0.7202 B( 23-C , 28-H ) :   0.1832 B( 23-C , 29-H ) :   0.2907
B( 28-H , 29-H ) :  -0.1443

FINAL SINGLE POINT ENERGY      -636.985962783762

DIPOLE MOMENT
-------------
                                X             Y             Z
Electronic contribution:     -6.04577       0.25361     -13.38402
Nuclear contribution   :      4.38568       1.15960      13.97148
                        -----------------------------------------
Total Dipole Moment    :     -1.66008       1.41321       0.58746
                        -----------------------------------------
Magnitude (a.u.)       :      2.25791
Magnitude (Debye)      :      5.73915

Rotational constants in cm-1:     0.032892     0.023844     0.017123
Rotational constants in MHz :   986.091711   714.821905   513.334630

                             ****ORCA TERMINATED NORMALLY****
TOTAL RUN TIME: 0 days 0 hours 4 minutes 10 seconds 548 msec
