                         Program Version 5.0.0 -  RELEASE  -
|  1> !M062X D3Zero RIJCOSX def2-SVPD def2/J TightSCF
|  2> *xyz -1 1
|  3> C          0.84888        2.66797       -4.30235
|  4> C          2.09343        1.86104       -4.65684
|  5> H          2.44481        2.04157       -5.67499
|  6> H          2.90175        2.13786       -3.98034
|  7> S          1.87964        0.07859       -4.46297
|  8> O          3.20757       -0.46611       -4.42026
|  9> O          1.07506       -0.05616       -3.26876
| 10> O          1.13166       -0.31996       -5.67903
| 11> H          0.05064        2.40112       -4.96303
| 12> H          1.06043        3.71210       -4.40203
| 13> H          0.56237        2.45684       -3.29327
| 14> *
| 15>
| 16> %MaxCore 64000
| 17>
| 18> %pal nprocs 4
| 19> end
| 20>
| 21> %scf
| 22>   MaxIter 150
| 23> end
| 24>
| 25>
| 26>                          ****END OF INPUT****

CARTESIAN COORDINATES (ANGSTROEM)
---------------------------------
  C      0.848880    2.667970   -4.302350
  C      2.093430    1.861040   -4.656840
  H      2.444810    2.041570   -5.674990
  H      2.901750    2.137860   -3.980340
  S      1.879640    0.078590   -4.462970
  O      3.207570   -0.466110   -4.420260
  O      1.075060   -0.056160   -3.268760
  O      1.131660   -0.319960   -5.679030
  H      0.050640    2.401120   -4.963030
  H      1.060430    3.712100   -4.402030
  H      0.562370    2.456840   -3.293270

 Total Charge           Charge          ....   -1
 Multiplicity           Mult            ....    1
 Number of Electrons    NEL             ....   58
 Basis Dimension        Dim             ....  176

ORBITAL ENERGIES
----------------

  NO   OCC          E(Eh)            E(eV)
   0   2.0000     -89.936062     -2447.2847
   1   2.0000     -19.420567      -528.4605
   2   2.0000     -19.417413      -528.3747
   3   2.0000     -19.404781      -528.0309
   4   2.0000     -10.409779      -283.2645
   5   2.0000     -10.405328      -283.1434
   6   2.0000      -8.259538      -224.7535
   7   2.0000      -6.184898      -168.2996
   8   2.0000      -6.184692      -168.2940
   9   2.0000      -6.184405      -168.2862
  10   2.0000      -1.051708       -28.6184
  11   2.0000      -0.909878       -24.7590
  12   2.0000      -0.882448       -24.0126
  13   2.0000      -0.721051       -19.6208
  14   2.0000      -0.586498       -15.9594
  15   2.0000      -0.462505       -12.5854
  16   2.0000      -0.398212       -10.8359
  17   2.0000      -0.388429       -10.5697
  18   2.0000      -0.355214        -9.6659
  19   2.0000      -0.344115        -9.3639
  20   2.0000      -0.328595        -8.9415
  21   2.0000      -0.294217        -8.0060
  22   2.0000      -0.277487        -7.5508
  23   2.0000      -0.228340        -6.2135
  24   2.0000      -0.227048        -6.1783
  25   2.0000      -0.190699        -5.1892
  26   2.0000      -0.177404        -4.8274
  27   2.0000      -0.163983        -4.4622
  28   2.0000      -0.138371        -3.7653
  29   0.0000       0.157994         4.2992
  30   0.0000       0.178912         4.8684
  31   0.0000       0.182148         4.9565
  32   0.0000       0.189241         5.1495
  33   0.0000       0.209676         5.7056

MULLIKEN ATOMIC CHARGES
-----------------------
   0 C :    0.728515
   1 C :   -0.331650
   2 H :   -0.093089
   3 H :   -0.040788
   4 S :    1.454025
   5 O :   -0.825941
   6 O :   -0.836087
   7 O :   -0.865934
   8 H :   -0.045087
   9 H :   -0.112302
  10 H :   -0.031663
Sum of atomic charges:   -1.0000000

LOEWDIN ATOMIC CHARGES
----------------------
   0 C :    0.098415
   1 C :   -0.133112
   2 H :    0.004809
   3 H :   -0.002308
   4 S :    0.895016
   5 O :   -0.587481
   6 O :   -0.587217
   7 O :   -0.613738
   8 H :   -0.014602
   9 H :   -0.034341
  10 H :   -0.025441

  Mayer bond orders larger than 0.100000
B(  0-C ,  1-C ) :   1.2930 B(  0-C ,  8-H ) :   0.8187 B(  0-C ,  9-H ) :   0.7692
B(  0-C , 10-H ) :   0.8242 B(  1-C ,  2-H ) :   1.0100 B(  1-C ,  3-H ) :   1.0011
B(  1-C ,  4-S ) :   0.8928 B(  1-C ,  8-H ) :   0.1818 B(  1-C ,  9-H ) :   0.2055
B(  1-C , 10-H ) :   0.2024 B(  4-S ,  5-O ) :   1.3094 B(  4-S ,  6-O ) :   1.2800
B(  4-S ,  7-O ) :   1.2479

Dispersion correction           -0.000144194
FINAL SINGLE POINT ENERGY      -702.625972604160

DIPOLE MOMENT
-------------
                                X             Y             Z
Electronic contribution:      1.61555      -7.61429       0.05947
Nuclear contribution   :     -1.55288       9.51857       0.00420
                        -----------------------------------------
Total Dipole Moment    :      0.06267       1.90428       0.06367
                        -----------------------------------------
Magnitude (a.u.)       :      1.90638
Magnitude (Debye)      :      4.84563

Rotational constants in cm-1:     0.163401     0.083833     0.082462
Rotational constants in MHz :  4898.624208  2513.264548  2472.149188

                             ****ORCA TERMINATED NORMALLY****
TOTAL RUN TIME: 0 days 0 hours 0 minutes 22 seconds 593 msec
