                         Program Version 5.0.0 -  RELEASE  -
|  1> !M062X D3Zero RIJCOSX def2-SVPD def2/J TightSCF
|  2> *xyz 1 1
|  3> C         -0.46129        2.23469       -4.98962
|  4> C          0.84888        2.66797       -4.30235
|  5> C         -0.42384        2.39877       -6.47432
|  6> N         -0.95947        3.49265       -7.00740
|  7> N          0.14558        1.48689       -7.20399
|  8> H          0.56537        0.69681       -6.72386
|  9> H          0.22068        1.58177       -8.20752
| 10> H         -1.40624        4.18151       -6.40326
| 11> H         -0.93421        3.68160       -7.99947
| 12> H         -1.28888        2.82674       -4.59500
| 13> H         -0.65170        1.18634       -4.75655
| 14> H          1.66208        2.08894       -4.68750
| 15> H          0.76716        2.51042       -3.24717
| 16> H          1.02677        3.70527       -4.49537
| 17> *
| 18>
| 19> %MaxCore 64000
| 20>
| 21> %pal nprocs 4
| 22> end
| 23>
| 24> %scf
| 25>   MaxIter 150
| 26> end
| 27>
| 28>
| 29>                          ****END OF INPUT****

CARTESIAN COORDINATES (ANGSTROEM)
---------------------------------
  C     -0.461290    2.234690   -4.989620
  C      0.848880    2.667970   -4.302350
  C     -0.423840    2.398770   -6.474320
  N     -0.959470    3.492650   -7.007400
  N      0.145580    1.486890   -7.203990
  H      0.565370    0.696810   -6.723860
  H      0.220680    1.581770   -8.207520
  H     -1.406240    4.181510   -6.403260
  H     -0.934210    3.681600   -7.999470
  H     -1.288880    2.826740   -4.595000
  H     -0.651700    1.186340   -4.756550
  H      1.662080    2.088940   -4.687500
  H      0.767160    2.510420   -3.247170
  H      1.026770    3.705270   -4.495370

 Total Charge           Charge          ....    1
 Multiplicity           Mult            ....    1
 Number of Electrons    NEL             ....   40
 Basis Dimension        Dim             ....  172

ORBITAL ENERGIES
----------------

  NO   OCC          E(Eh)            E(eV)
   0   2.0000     -15.011970      -408.4965
   1   2.0000     -15.007651      -408.3790
   2   2.0000     -10.878240      -296.0119
   3   2.0000     -10.750141      -292.5262
   4   2.0000     -10.707902      -291.3768
   5   2.0000      -1.306633       -35.5553
   6   2.0000      -1.203492       -32.7487
   7   2.0000      -1.059102       -28.8196
   8   2.0000      -0.943803       -25.6822
   9   2.0000      -0.896721       -24.4010
  10   2.0000      -0.855193       -23.2710
  11   2.0000      -0.827184       -22.5088
  12   2.0000      -0.772383       -21.0176
  13   2.0000      -0.723074       -19.6758
  14   2.0000      -0.693151       -18.8616
  15   2.0000      -0.684294       -18.6206
  16   2.0000      -0.608347       -16.5540
  17   2.0000      -0.598172       -16.2771
  18   2.0000      -0.592170       -16.1138
  19   2.0000      -0.555168       -15.1069
  20   0.0000      -0.170488        -4.6392
  21   0.0000      -0.137420        -3.7394
  22   0.0000      -0.095292        -2.5930
  23   0.0000      -0.093542        -2.5454
  24   0.0000      -0.066787        -1.8174

MULLIKEN ATOMIC CHARGES
-----------------------
   0 C :   -0.379357
   1 C :    0.580259
   2 C :    0.810903
   3 N :   -0.105622
   4 N :    0.042711
   5 H :    0.097543
   6 H :   -0.149278
   7 H :    0.079855
   8 H :   -0.123349
   9 H :    0.033753
  10 H :    0.048777
  11 H :    0.000841
  12 H :    0.064493
  13 H :   -0.001529
Sum of atomic charges:    1.0000000

LOEWDIN ATOMIC CHARGES
----------------------
   0 C :    0.009624
   1 C :    0.176823
   2 C :   -0.043284
   3 N :    0.274991
   4 N :    0.280180
   5 H :    0.060755
   6 H :    0.055176
   7 H :    0.056103
   8 H :    0.045554
   9 H :    0.039755
  10 H :    0.045192
  11 H :   -0.007506
  12 H :    0.008617
  13 H :   -0.001979

  Mayer bond orders larger than 0.100000
B(  0-C ,  1-C ) :   1.2735 B(  0-C ,  2-C ) :   1.1526 B(  0-C ,  9-H ) :   0.9045
B(  0-C , 10-H ) :   0.9141 B(  0-C , 11-H ) :   0.1839 B(  0-C , 12-H ) :   0.1414
B(  0-C , 13-H ) :   0.1628 B(  1-C , 11-H ) :   0.8127 B(  1-C , 12-H ) :   0.8476
B(  1-C , 13-H ) :   0.8563 B(  2-C ,  3-N ) :   0.9635 B(  2-C ,  4-N ) :   1.1698
B(  2-C ,  6-H ) :  -0.1822 B(  2-C ,  8-H ) :  -0.2178 B(  2-C ,  9-H ) :   0.1283
B(  3-N ,  4-N ) :   0.1530 B(  3-N ,  7-H ) :   1.0664 B(  3-N ,  8-H ) :   1.3317
B(  4-N ,  5-H ) :   1.0426 B(  4-N ,  6-H ) :   1.3193 B(  5-H ,  6-H ) :  -0.1798
B(  7-H ,  8-H ) :  -0.1872

Dispersion correction           -0.000203841
FINAL SINGLE POINT ENERGY      -228.758723638019

DIPOLE MOMENT
-------------
                                X             Y             Z
Electronic contribution:     -1.55167      -0.27040      -3.86698
Nuclear contribution   :      1.33202       0.27544       2.83701
                        -----------------------------------------
Total Dipole Moment    :     -0.21965       0.00504      -1.02997
                        -----------------------------------------
Magnitude (a.u.)       :      1.05314
Magnitude (Debye)      :      2.67688

Rotational constants in cm-1:     0.258570     0.126296     0.098869
Rotational constants in MHz :  7751.748523  3786.267300  2964.011691

                             ****ORCA TERMINATED NORMALLY****
TOTAL RUN TIME: 0 days 0 hours 0 minutes 28 seconds 784 msec
