                         Program Version 5.0.0 -  RELEASE  -
|  1> !M062X D3Zero RIJCOSX def2-SVPD def2/J TightSCF
|  2> *xyz 0 1
|  3> C          0.84888        2.66797       -4.30235
|  4> C          2.09343        1.86104       -4.65684
|  5> H          2.44481        2.04157       -5.67499
|  6> H          2.90175        2.13786       -3.98034
|  7> S          1.87964        0.07859       -4.46297
|  8> F          3.20757       -0.46611       -4.42026
|  9> O          1.07506       -0.05616       -3.26876
| 10> O          1.13166       -0.31996       -5.67903
| 11> H          0.05064        2.40112       -4.96303
| 12> H          1.06043        3.71210       -4.40203
| 13> H          0.56237        2.45684       -3.29327
| 14> *
| 15>
| 16> %MaxCore 64000
| 17>
| 18> %pal nprocs 4
| 19> end
| 20>
| 21> %scf
| 22>   MaxIter 150
| 23> end
| 24>
| 25>
| 26>                          ****END OF INPUT****

CARTESIAN COORDINATES (ANGSTROEM)
---------------------------------
  C      0.848880    2.667970   -4.302350
  C      2.093430    1.861040   -4.656840
  H      2.444810    2.041570   -5.674990
  H      2.901750    2.137860   -3.980340
  S      1.879640    0.078590   -4.462970
  F      3.207570   -0.466110   -4.420260
  O      1.075060   -0.056160   -3.268760
  O      1.131660   -0.319960   -5.679030
  H      0.050640    2.401120   -4.963030
  H      1.060430    3.712100   -4.402030
  H      0.562370    2.456840   -3.293270

 Total Charge           Charge          ....    0
 Multiplicity           Mult            ....    1
 Number of Electrons    NEL             ....   58
 Basis Dimension        Dim             ....  176

ORBITAL ENERGIES
----------------

  NO   OCC          E(Eh)            E(eV)
   0   2.0000     -90.198698     -2454.4314
   1   2.0000     -25.385315      -690.7695
   2   2.0000     -19.653751      -534.8058
   3   2.0000     -19.641009      -534.4590
   4   2.0000     -10.614457      -288.8340
   5   2.0000     -10.569926      -287.6223
   6   2.0000      -8.523279      -231.9302
   7   2.0000      -6.451683      -175.5592
   8   2.0000      -6.446353      -175.4142
   9   2.0000      -6.445323      -175.3862
  10   2.0000      -1.525843       -41.5203
  11   2.0000      -1.227460       -33.4009
  12   2.0000      -1.118382       -30.4327
  13   2.0000      -0.915083       -24.9007
  14   2.0000      -0.839916       -22.8553
  15   2.0000      -0.766258       -20.8510
  16   2.0000      -0.696388       -18.9497
  17   2.0000      -0.687887       -18.7184
  18   2.0000      -0.643145       -17.5009
  19   2.0000      -0.568990       -15.4830
  20   2.0000      -0.566453       -15.4140
  21   2.0000      -0.523788       -14.2530
  22   2.0000      -0.501410       -13.6441
  23   2.0000      -0.475337       -12.9346
  24   2.0000      -0.461205       -12.5500
  25   2.0000      -0.452256       -12.3065
  26   2.0000      -0.408753       -11.1227
  27   2.0000      -0.389155       -10.5894
  28   2.0000      -0.381523       -10.3818
  29   0.0000       0.009034         0.2458
  30   0.0000       0.035853         0.9756
  31   0.0000       0.042095         1.1455
  32   0.0000       0.045095         1.2271
  33   0.0000       0.073456         1.9988

MULLIKEN ATOMIC CHARGES
-----------------------
   0 C :    0.690303
   1 C :   -0.415406
   2 H :   -0.014660
   3 H :    0.037649
   4 S :    1.615299
   5 F :   -0.427776
   6 O :   -0.697011
   7 O :   -0.726129
   8 H :   -0.010454
   9 H :   -0.057744
  10 H :    0.005927
Sum of atomic charges:    0.0000000

LOEWDIN ATOMIC CHARGES
----------------------
   0 C :    0.143986
   1 C :   -0.095078
   2 H :    0.024978
   3 H :    0.015501
   4 S :    1.159122
   5 F :   -0.264076
   6 O :   -0.478090
   7 O :   -0.498798
   8 H :    0.002987
   9 H :   -0.002798
  10 H :   -0.007734

  Mayer bond orders larger than 0.100000
B(  0-C ,  1-C ) :   1.3596 B(  0-C ,  8-H ) :   0.8259 B(  0-C ,  9-H ) :   0.7868
B(  0-C , 10-H ) :   0.8252 B(  1-C ,  2-H ) :   1.0093 B(  1-C ,  3-H ) :   0.9738
B(  1-C ,  4-S ) :   0.9446 B(  1-C ,  8-H ) :   0.1733 B(  1-C ,  9-H ) :   0.1935
B(  1-C , 10-H ) :   0.1948 B(  4-S ,  5-F ) :   0.6424 B(  4-S ,  6-O ) :   1.5052
B(  4-S ,  7-O ) :   1.4636

Dispersion correction           -0.000140026
FINAL SINGLE POINT ENERGY      -727.103585415195

DIPOLE MOMENT
-------------
                                X             Y             Z
Electronic contribution:      4.18260      -9.24484       0.10643
Nuclear contribution   :     -3.08754      10.54185      -0.04092
                        -----------------------------------------
Total Dipole Moment    :      1.09506       1.29701       0.06552
                        -----------------------------------------
Magnitude (a.u.)       :      1.69873
Magnitude (Debye)      :      4.31782

Rotational constants in cm-1:     0.158925     0.081210     0.079022
Rotational constants in MHz :  4764.450166  2434.603461  2369.014434

                             ****ORCA TERMINATED NORMALLY****
TOTAL RUN TIME: 0 days 0 hours 0 minutes 24 seconds 565 msec
