                         Program Version 5.0.0 -  RELEASE  -
|  1> !M062X D3Zero RIJCOSX def2-SVPD def2/J TightSCF
|  2> *xyz 0 1
|  3> C         -0.46129        2.23469       -4.98962
|  4> C          0.84888        2.66797       -4.30235
|  5> C         -0.42384        2.39877       -6.47432
|  6> C         -0.95947        3.49265       -7.00740
|  7> N          0.14558        1.48689       -7.20399
|  8> H          0.56537        0.69681       -6.72386
|  9> H          0.22068        1.58177       -8.20752
| 10> H         -1.40624        4.18151       -6.40326
| 11> H         -0.93421        3.68160       -7.99947
| 12> H         -1.28888        2.82674       -4.59500
| 13> H         -0.65170        1.18634       -4.75655
| 14> H          1.66208        2.08894       -4.68750
| 15> H          0.76716        2.51042       -3.24717
| 16> H          1.02677        3.70527       -4.49537
| 17> *
| 18>
| 19> %MaxCore 64000
| 20>
| 21> %pal nprocs 4
| 22> end
| 23>
| 24> %scf
| 25>   MaxIter 150
| 26> end
| 27>
| 28>
| 29>                          ****END OF INPUT****

CARTESIAN COORDINATES (ANGSTROEM)
---------------------------------
  C     -0.461290    2.234690   -4.989620
  C      0.848880    2.667970   -4.302350
  C     -0.423840    2.398770   -6.474320
  C     -0.959470    3.492650   -7.007400
  N      0.145580    1.486890   -7.203990
  H      0.565370    0.696810   -6.723860
  H      0.220680    1.581770   -8.207520
  H     -1.406240    4.181510   -6.403260
  H     -0.934210    3.681600   -7.999470
  H     -1.288880    2.826740   -4.595000
  H     -0.651700    1.186340   -4.756550
  H      1.662080    2.088940   -4.687500
  H      0.767160    2.510420   -3.247170
  H      1.026770    3.705270   -4.495370

 Total Charge           Charge          ....    0
 Multiplicity           Mult            ....    1
 Number of Electrons    NEL             ....   40
 Basis Dimension        Dim             ....  172

ORBITAL ENERGIES
----------------

  NO   OCC          E(Eh)            E(eV)
   0   2.0000     -14.764848      -401.7719
   1   2.0000     -10.570647      -287.6419
   2   2.0000     -10.549938      -287.0784
   3   2.0000     -10.537072      -286.7283
   4   2.0000     -10.482603      -285.2461
   5   2.0000      -1.034209       -28.1423
   6   2.0000      -0.867942       -23.6179
   7   2.0000      -0.799615       -21.7586
   8   2.0000      -0.716706       -19.5026
   9   2.0000      -0.646179       -17.5834
  10   2.0000      -0.604361       -16.4455
  11   2.0000      -0.552156       -15.0249
  12   2.0000      -0.506277       -13.7765
  13   2.0000      -0.487791       -13.2735
  14   2.0000      -0.458419       -12.4742
  15   2.0000      -0.448253       -12.1976
  16   2.0000      -0.414463       -11.2781
  17   2.0000      -0.397178       -10.8078
  18   2.0000      -0.395366       -10.7584
  19   2.0000      -0.240049        -6.5321
  20   0.0000       0.034926         0.9504
  21   0.0000       0.064493         1.7550
  22   0.0000       0.074228         2.0198
  23   0.0000       0.075053         2.0423
  24   0.0000       0.090593         2.4652

MULLIKEN ATOMIC CHARGES
-----------------------
   0 C :   -0.173246
   1 C :    0.609145
   2 C :   -0.038850
   3 C :    0.409776
   4 N :    0.155637
   5 H :   -0.064192
   6 H :   -0.195196
   7 H :   -0.143155
   8 H :   -0.501045
   9 H :    0.082270
  10 H :   -0.064484
  11 H :   -0.038167
  12 H :    0.016436
  13 H :   -0.054927
Sum of atomic charges:    0.0000000

LOEWDIN ATOMIC CHARGES
----------------------
   0 C :   -0.032940
   1 C :    0.136971
   2 C :   -0.274778
   3 C :    0.179332
   4 N :    0.160606
   5 H :    0.008305
   6 H :    0.015628
   7 H :   -0.082867
   8 H :   -0.091223
   9 H :    0.022299
  10 H :    0.017441
  11 H :   -0.023764
  12 H :   -0.019898
  13 H :   -0.015111

  Mayer bond orders larger than 0.100000
B(  0-C ,  1-C ) :   1.2602 B(  0-C ,  2-C ) :   1.1642 B(  0-C ,  3-C ) :   0.1452
B(  0-C ,  9-H ) :   0.8424 B(  0-C , 10-H ) :   0.8697 B(  0-C , 11-H ) :   0.2097
B(  0-C , 12-H ) :   0.1593 B(  0-C , 13-H ) :   0.1783 B(  1-C , 11-H ) :   0.8126
B(  1-C , 12-H ) :   0.8223 B(  1-C , 13-H ) :   0.8690 B(  2-C ,  3-C ) :   1.6949
B(  2-C ,  4-N ) :   1.2218 B(  2-C ,  7-H ) :   0.1014 B(  2-C ,  8-H ) :   0.1396
B(  2-C ,  9-H ) :   0.1588 B(  2-C , 10-H ) :   0.1692 B(  3-C ,  4-N ) :   0.2400
B(  3-C ,  7-H ) :   0.9369 B(  3-C ,  8-H ) :   0.7582 B(  4-N ,  5-H ) :   1.0926
B(  4-N ,  6-H ) :   1.2648 B(  5-H ,  6-H ) :  -0.1531 B(  7-H ,  8-H ) :  -0.1173

Dispersion correction           -0.000200400
FINAL SINGLE POINT ENERGY      -212.304879911195

DIPOLE MOMENT
-------------
                                X             Y             Z
Electronic contribution:     -0.72422      -1.16100      -2.58399
Nuclear contribution   :      1.14741       0.51394       2.60761
                        -----------------------------------------
Total Dipole Moment    :      0.42319      -0.64706       0.02361
                        -----------------------------------------
Magnitude (a.u.)       :      0.77352
Magnitude (Debye)      :      1.96613

Rotational constants in cm-1:     0.269157     0.129188     0.102123
Rotational constants in MHz :  8069.118715  3872.945231  3061.580645

                             ****ORCA TERMINATED NORMALLY****
TOTAL RUN TIME: 0 days 0 hours 0 minutes 25 seconds 348 msec
