                         Program Version 5.0.0 -  RELEASE  -
|  1> !M062X D3Zero RIJCOSX def2-SVPD def2/J TightSCF
|  2> *xyz 0 1
|  3> C          0.84888        2.66797       -4.30235
|  4> C          2.09343        1.86104       -4.65684
|  5> H          2.44481        2.04157       -5.67499
|  6> H          2.90175        2.13786       -3.98034
|  7> S          1.87964        0.07859       -4.46297
|  8> O          3.20757       -0.46611       -4.42026
|  9> F          1.07506       -0.05616       -3.26876
| 10> O          1.13166       -0.31996       -5.67903
| 11> H          0.05064        2.40112       -4.96303
| 12> H          1.06043        3.71210       -4.40203
| 13> H          0.56237        2.45684       -3.29327
| 14> *
| 15>
| 16> %MaxCore 64000
| 17>
| 18> %pal nprocs 4
| 19> end
| 20>
| 21> %scf
| 22>   MaxIter 150
| 23> end
| 24>
| 25>
| 26>                          ****END OF INPUT****

CARTESIAN COORDINATES (ANGSTROEM)
---------------------------------
  C      0.848880    2.667970   -4.302350
  C      2.093430    1.861040   -4.656840
  H      2.444810    2.041570   -5.674990
  H      2.901750    2.137860   -3.980340
  S      1.879640    0.078590   -4.462970
  O      3.207570   -0.466110   -4.420260
  F      1.075060   -0.056160   -3.268760
  O      1.131660   -0.319960   -5.679030
  H      0.050640    2.401120   -4.963030
  H      1.060430    3.712100   -4.402030
  H      0.562370    2.456840   -3.293270

 Total Charge           Charge          ....    0
 Multiplicity           Mult            ....    1
 Number of Electrons    NEL             ....   58
 Basis Dimension        Dim             ....  176

ORBITAL ENERGIES
----------------

  NO   OCC          E(Eh)            E(eV)
   0   2.0000     -90.198228     -2454.4186
   1   2.0000     -25.379864      -690.6212
   2   2.0000     -19.657224      -534.9003
   3   2.0000     -19.641102      -534.4616
   4   2.0000     -10.614327      -288.8305
   5   2.0000     -10.576934      -287.8130
   6   2.0000      -8.522753      -231.9159
   7   2.0000      -6.451250      -175.5474
   8   2.0000      -6.445818      -175.3996
   9   2.0000      -6.444769      -175.3711
  10   2.0000      -1.516750       -41.2729
  11   2.0000      -1.231842       -33.5201
  12   2.0000      -1.121716       -30.5235
  13   2.0000      -0.920486       -25.0477
  14   2.0000      -0.832817       -22.6621
  15   2.0000      -0.767901       -20.8956
  16   2.0000      -0.697103       -18.9691
  17   2.0000      -0.688827       -18.7439
  18   2.0000      -0.634237       -17.2585
  19   2.0000      -0.571279       -15.5453
  20   2.0000      -0.559376       -15.2214
  21   2.0000      -0.531722       -14.4689
  22   2.0000      -0.513685       -13.9781
  23   2.0000      -0.482656       -13.1337
  24   2.0000      -0.466801       -12.7023
  25   2.0000      -0.455894       -12.4055
  26   2.0000      -0.408827       -11.1248
  27   2.0000      -0.390311       -10.6209
  28   2.0000      -0.384657       -10.4670
  29   0.0000       0.008530         0.2321
  30   0.0000       0.037254         1.0137
  31   0.0000       0.042128         1.1464
  32   0.0000       0.045044         1.2257
  33   0.0000       0.074200         2.0191

MULLIKEN ATOMIC CHARGES
-----------------------
   0 C :    0.691992
   1 C :   -0.374549
   2 H :   -0.018072
   3 H :    0.026861
   4 S :    1.584601
   5 O :   -0.682345
   6 F :   -0.426421
   7 O :   -0.727936
   8 H :   -0.010210
   9 H :   -0.058088
  10 H :   -0.005831
Sum of atomic charges:   -0.0000000

LOEWDIN ATOMIC CHARGES
----------------------
   0 C :    0.128900
   1 C :   -0.082377
   2 H :    0.037340
   3 H :    0.019680
   4 S :    1.153732
   5 O :   -0.473009
   6 F :   -0.268228
   7 O :   -0.498028
   8 H :   -0.001122
   9 H :   -0.004158
  10 H :   -0.012730

  Mayer bond orders larger than 0.100000
B(  0-C ,  1-C ) :   1.3102 B(  0-C ,  8-H ) :   0.8355 B(  0-C ,  9-H ) :   0.7870
B(  0-C , 10-H ) :   0.8265 B(  1-C ,  2-H ) :   1.0101 B(  1-C ,  3-H ) :   1.0096
B(  1-C ,  4-S ) :   0.9688 B(  1-C ,  8-H ) :   0.1720 B(  1-C ,  9-H ) :   0.1953
B(  1-C , 10-H ) :   0.1794 B(  4-S ,  5-O ) :   1.5376 B(  4-S ,  6-F ) :   0.6365
B(  4-S ,  7-O ) :   1.4789

Dispersion correction           -0.000151158
FINAL SINGLE POINT ENERGY      -727.108039213590

DIPOLE MOMENT
-------------
                                X             Y             Z
Electronic contribution:      0.55917      -8.52193       2.04758
Nuclear contribution   :     -0.86540      10.11467      -1.24082
                        -----------------------------------------
Total Dipole Moment    :     -0.30623       1.59274       0.80676
                        -----------------------------------------
Magnitude (a.u.)       :      1.81148
Magnitude (Debye)      :      4.60442

Rotational constants in cm-1:     0.154065     0.083345     0.080357
Rotational constants in MHz :  4618.752213  2498.631937  2409.037217

                             ****ORCA TERMINATED NORMALLY****
TOTAL RUN TIME: 0 days 0 hours 0 minutes 24 seconds 297 msec
