                         Program Version 5.0.0 -  RELEASE  -
|  1> !M062X D3Zero RIJCOSX def2-SVPD def2/J TightSCF
|  2> *xyz 0 1
|  3> C         -0.46129        2.23469       -4.98962
|  4> C          0.84888        2.66797       -4.30235
|  5> C         -0.42384        2.39877       -6.47432
|  6> N         -0.95947        3.49265       -7.00740
|  7> C          0.14558        1.48689       -7.20399
|  8> H          0.56537        0.69681       -6.72386
|  9> H          0.22068        1.58177       -8.20752
| 10> H         -1.40624        4.18151       -6.40326
| 11> H         -0.93421        3.68160       -7.99947
| 12> H         -1.28888        2.82674       -4.59500
| 13> H         -0.65170        1.18634       -4.75655
| 14> H          1.66208        2.08894       -4.68750
| 15> H          0.76716        2.51042       -3.24717
| 16> H          1.02677        3.70527       -4.49537
| 17> *
| 18>
| 19> %MaxCore 64000
| 20>
| 21> %pal nprocs 4
| 22> end
| 23>
| 24> %scf
| 25>   MaxIter 150
| 26> end
| 27>
| 28>
| 29>                          ****END OF INPUT****

CARTESIAN COORDINATES (ANGSTROEM)
---------------------------------
  C     -0.461290    2.234690   -4.989620
  C      0.848880    2.667970   -4.302350
  C     -0.423840    2.398770   -6.474320
  N     -0.959470    3.492650   -7.007400
  C      0.145580    1.486890   -7.203990
  H      0.565370    0.696810   -6.723860
  H      0.220680    1.581770   -8.207520
  H     -1.406240    4.181510   -6.403260
  H     -0.934210    3.681600   -7.999470
  H     -1.288880    2.826740   -4.595000
  H     -0.651700    1.186340   -4.756550
  H      1.662080    2.088940   -4.687500
  H      0.767160    2.510420   -3.247170
  H      1.026770    3.705270   -4.495370

 Total Charge           Charge          ....    0
 Multiplicity           Mult            ....    1
 Number of Electrons    NEL             ....   40
 Basis Dimension        Dim             ....  172

ORBITAL ENERGIES
----------------

  NO   OCC          E(Eh)            E(eV)
   0   2.0000     -14.761449      -401.6795
   1   2.0000     -10.568479      -287.5829
   2   2.0000     -10.549630      -287.0700
   3   2.0000     -10.535705      -286.6911
   4   2.0000     -10.481570      -285.2180
   5   2.0000      -1.021235       -27.7892
   6   2.0000      -0.869741       -23.6669
   7   2.0000      -0.803722       -21.8704
   8   2.0000      -0.717623       -19.5275
   9   2.0000      -0.640156       -17.4195
  10   2.0000      -0.593994       -16.1634
  11   2.0000      -0.554712       -15.0945
  12   2.0000      -0.508147       -13.8274
  13   2.0000      -0.482406       -13.1269
  14   2.0000      -0.459194       -12.4953
  15   2.0000      -0.448725       -12.2104
  16   2.0000      -0.411875       -11.2077
  17   2.0000      -0.398797       -10.8518
  18   2.0000      -0.393006       -10.6942
  19   2.0000      -0.245112        -6.6698
  20   0.0000       0.036386         0.9901
  21   0.0000       0.064550         1.7565
  22   0.0000       0.072484         1.9724
  23   0.0000       0.077247         2.1020
  24   0.0000       0.091138         2.4800

MULLIKEN ATOMIC CHARGES
-----------------------
   0 C :   -0.158287
   1 C :    0.577757
   2 C :    0.097992
   3 N :   -0.006779
   4 C :    0.378357
   5 H :   -0.122109
   6 H :   -0.450070
   7 H :   -0.057389
   8 H :   -0.172582
   9 H :   -0.087297
  10 H :    0.077824
  11 H :   -0.051735
  12 H :    0.019810
  13 H :   -0.045493
Sum of atomic charges:   -0.0000000

LOEWDIN ATOMIC CHARGES
----------------------
   0 C :   -0.032706
   1 C :    0.137860
   2 C :   -0.267884
   3 N :    0.158675
   4 C :    0.171890
   5 H :   -0.073828
   6 H :   -0.080804
   7 H :    0.001626
   8 H :    0.005009
   9 H :    0.012813
  10 H :    0.024721
  11 H :   -0.019086
  12 H :   -0.020351
  13 H :   -0.017935

  Mayer bond orders larger than 0.100000
B(  0-C ,  1-C ) :   1.2742 B(  0-C ,  2-C ) :   1.0963 B(  0-C ,  3-N ) :   0.1122
B(  0-C ,  4-C ) :   0.1452 B(  0-C ,  9-H ) :   0.8670 B(  0-C , 10-H ) :   0.8476
B(  0-C , 11-H ) :   0.1902 B(  0-C , 12-H ) :   0.1485 B(  0-C , 13-H ) :   0.1910
B(  1-C , 11-H ) :   0.8520 B(  1-C , 12-H ) :   0.8234 B(  1-C , 13-H ) :   0.8478
B(  2-C ,  3-N ) :   1.0419 B(  2-C ,  4-C ) :   1.8103 B(  2-C ,  5-H ) :   0.1620
B(  2-C ,  6-H ) :   0.1978 B(  2-C ,  8-H ) :  -0.1495 B(  2-C ,  9-H ) :   0.1580
B(  2-C , 10-H ) :   0.1179 B(  3-N ,  4-C ) :   0.2542 B(  3-N ,  7-H ) :   1.1045
B(  3-N ,  8-H ) :   1.2935 B(  4-C ,  5-H ) :   0.8063 B(  4-C ,  6-H ) :   0.7511
B(  5-H ,  6-H ) :  -0.1077 B(  7-H ,  8-H ) :  -0.1742

Dispersion correction           -0.000200509
FINAL SINGLE POINT ENERGY      -212.304982225912

DIPOLE MOMENT
-------------
                                X             Y             Z
Electronic contribution:     -1.69242       0.56731      -2.41269
Nuclear contribution   :      1.40335       0.04939       2.56207
                        -----------------------------------------
Total Dipole Moment    :     -0.28907       0.61670       0.14938
                        -----------------------------------------
Magnitude (a.u.)       :      0.69727
Magnitude (Debye)      :      1.77233

Rotational constants in cm-1:     0.271383     0.128194     0.101873
Rotational constants in MHz :  8135.853259  3843.152748  3054.074278

                             ****ORCA TERMINATED NORMALLY****
TOTAL RUN TIME: 0 days 0 hours 0 minutes 24 seconds 950 msec
