                         Program Version 5.0.0 -  RELEASE  -
|  1> !M062X D3Zero RIJCOSX def2-SVPD def2/J TightSCF
|  2> *xyz 0 1
|  3> C          0.84888        2.66797       -4.30235
|  4> C          2.09343        1.86104       -4.65684
|  5> H          2.44481        2.04157       -5.67499
|  6> H          2.90175        2.13786       -3.98034
|  7> S          1.87964        0.07859       -4.46297
|  8> O          3.20757       -0.46611       -4.42026
|  9> O          1.07506       -0.05616       -3.26876
| 10> F          1.13166       -0.31996       -5.67903
| 11> H          0.05064        2.40112       -4.96303
| 12> H          1.06043        3.71210       -4.40203
| 13> H          0.56237        2.45684       -3.29327
| 14> *
| 15>
| 16> %MaxCore 64000
| 17>
| 18> %pal nprocs 4
| 19> end
| 20>
| 21> %scf
| 22>   MaxIter 150
| 23> end
| 24>
| 25>
| 26>                          ****END OF INPUT****

CARTESIAN COORDINATES (ANGSTROEM)
---------------------------------
  C      0.848880    2.667970   -4.302350
  C      2.093430    1.861040   -4.656840
  H      2.444810    2.041570   -5.674990
  H      2.901750    2.137860   -3.980340
  S      1.879640    0.078590   -4.462970
  O      3.207570   -0.466110   -4.420260
  O      1.075060   -0.056160   -3.268760
  F      1.131660   -0.319960   -5.679030
  H      0.050640    2.401120   -4.963030
  H      1.060430    3.712100   -4.402030
  H      0.562370    2.456840   -3.293270

 Total Charge           Charge          ....    0
 Multiplicity           Mult            ....    1
 Number of Electrons    NEL             ....   58
 Basis Dimension        Dim             ....  176

ORBITAL ENERGIES
----------------

  NO   OCC          E(Eh)            E(eV)
   0   2.0000     -90.196898     -2454.3824
   1   2.0000     -25.360813      -690.1028
   2   2.0000     -19.656860      -534.8904
   3   2.0000     -19.653585      -534.8012
   4   2.0000     -10.613410      -288.8056
   5   2.0000     -10.571221      -287.6576
   6   2.0000      -8.521248      -231.8749
   7   2.0000      -6.449494      -175.4997
   8   2.0000      -6.444579      -175.3659
   9   2.0000      -6.443493      -175.3364
  10   2.0000      -1.485089       -40.4113
  11   2.0000      -1.240701       -33.7612
  12   2.0000      -1.141909       -31.0729
  13   2.0000      -0.915951       -24.9243
  14   2.0000      -0.819393       -22.2968
  15   2.0000      -0.760288       -20.6885
  16   2.0000      -0.674800       -18.3622
  17   2.0000      -0.666630       -18.1399
  18   2.0000      -0.637410       -17.3448
  19   2.0000      -0.574507       -15.6331
  20   2.0000      -0.558173       -15.1887
  21   2.0000      -0.541416       -14.7327
  22   2.0000      -0.505565       -13.7571
  23   2.0000      -0.479483       -13.0474
  24   2.0000      -0.471055       -12.8181
  25   2.0000      -0.451292       -12.2803
  26   2.0000      -0.417787       -11.3686
  27   2.0000      -0.399818       -10.8796
  28   2.0000      -0.397191       -10.8081
  29   0.0000       0.010371         0.2822
  30   0.0000       0.038759         1.0547
  31   0.0000       0.042258         1.1499
  32   0.0000       0.044202         1.2028
  33   0.0000       0.074227         2.0198

MULLIKEN ATOMIC CHARGES
-----------------------
   0 C :    0.725125
   1 C :   -0.407490
   2 H :   -0.022936
   3 H :    0.035576
   4 S :    1.602068
   5 O :   -0.692622
   6 O :   -0.710703
   7 F :   -0.444057
   8 H :   -0.032784
   9 H :   -0.059547
  10 H :    0.007371
Sum of atomic charges:    0.0000000

LOEWDIN ATOMIC CHARGES
----------------------
   0 C :    0.130737
   1 C :   -0.085287
   2 H :    0.023280
   3 H :    0.030137
   4 S :    1.154167
   5 O :   -0.473805
   6 O :   -0.475985
   7 F :   -0.284762
   8 H :   -0.004695
   9 H :   -0.005075
  10 H :   -0.008711

  Mayer bond orders larger than 0.100000
B(  0-C ,  1-C ) :   1.3247 B(  0-C ,  8-H ) :   0.8159 B(  0-C ,  9-H ) :   0.7824
B(  0-C , 10-H ) :   0.8321 B(  1-C ,  2-H ) :   1.0074 B(  1-C ,  3-H ) :   0.9994
B(  1-C ,  4-S ) :   0.9694 B(  1-C ,  8-H ) :   0.1754 B(  1-C ,  9-H ) :   0.1927
B(  1-C , 10-H ) :   0.1962 B(  4-S ,  5-O ) :   1.5327 B(  4-S ,  6-O ) :   1.5135
B(  4-S ,  7-F ) :   0.5853

Dispersion correction           -0.000149483
FINAL SINGLE POINT ENERGY      -727.124449441045

DIPOLE MOMENT
-------------
                                X             Y             Z
Electronic contribution:      0.64029      -9.00115      -2.05993
Nuclear contribution   :     -0.92438      10.38956       1.27076
                        -----------------------------------------
Total Dipole Moment    :     -0.28409       1.38841      -0.78917
                        -----------------------------------------
Magnitude (a.u.)       :      1.62209
Magnitude (Debye)      :      4.12302

Rotational constants in cm-1:     0.154243     0.082247     0.080562
Rotational constants in MHz :  4624.087322  2465.703680  2415.175852

                             ****ORCA TERMINATED NORMALLY****
TOTAL RUN TIME: 0 days 0 hours 0 minutes 23 seconds 612 msec
