                         Program Version 5.0.0 -  RELEASE  -
|  1> !M062X D3Zero RIJCOSX def2-SVPD def2/J TightSCF xyzfile
|  2>
|  3> *xyzfile 0 1 D3.xyz
|  4>
|  5> %MaxCore 64000
|  6>
|  7> %pal nprocs 4
|  8> end
|  9>
| 10> %scf
| 11>   MaxIter 150
| 12> end
| 13>
| 14>
| 15>                          ****END OF INPUT****

CARTESIAN COORDINATES (ANGSTROEM)
---------------------------------
  C     -0.461293    2.234686   -4.989619
  C      0.848883    2.667967   -4.302351
  C      2.093434    1.861037   -4.656845
  H      2.444814    2.041567   -5.674990
  H      2.901748    2.137864   -3.980338
  S      1.879644    0.078594   -4.462965
  C     -0.423841    2.398772   -6.474317
  C     -0.959467    3.492647   -7.007401
  N      0.145585    1.486891   -7.203987
  H      0.565371    0.696807   -6.723858
  H      0.220682    1.581768   -8.207520
  H     -1.406243    4.181507   -6.403261
  H     -0.934215    3.681601   -7.999468
  O      3.207574   -0.466111   -4.420259
  F      1.075064   -0.056160   -3.268758
  O      1.131661   -0.319960   -5.679031
  H      0.668432    2.559427   -3.232850
  H      1.034074    3.729426   -4.497081
  H     -1.288884    2.826737   -4.594997
  H     -0.651696    1.186343   -4.756552

 Total Charge           Charge          ....    0
 Multiplicity           Mult            ....    1
 Number of Electrons    NEL             ....   88
 Basis Dimension        Dim             ....  296

ORBITAL ENERGIES
----------------

  NO   OCC          E(Eh)            E(eV)
   0   2.0000     -90.218422     -2454.9681
   1   2.0000     -25.395211      -691.0388
   2   2.0000     -19.673382      -535.3399
   3   2.0000     -19.665457      -535.1243
   4   2.0000     -14.739052      -401.0700
   5   2.0000     -10.620374      -288.9951
   6   2.0000     -10.587739      -288.1070
   7   2.0000     -10.570577      -287.6400
   8   2.0000     -10.564285      -287.4688
   9   2.0000     -10.481318      -285.2112
  10   2.0000      -8.542159      -232.4440
  11   2.0000      -6.470676      -176.0760
  12   2.0000      -6.465512      -175.9355
  13   2.0000      -6.464063      -175.8961
  14   2.0000      -1.531579       -41.6764
  15   2.0000      -1.251939       -34.0670
  16   2.0000      -1.148859       -31.2620
  17   2.0000      -1.023121       -27.8405
  18   2.0000      -0.936995       -25.4969
  19   2.0000      -0.863942       -23.5091
  20   2.0000      -0.834216       -22.7002
  21   2.0000      -0.788113       -21.4456
  22   2.0000      -0.735978       -20.0270
  23   2.0000      -0.707624       -19.2554
  24   2.0000      -0.702825       -19.1248
  25   2.0000      -0.661596       -18.0030
  26   2.0000      -0.641875       -17.4663
  27   2.0000      -0.598169       -16.2770
  28   2.0000      -0.578978       -15.7548
  29   2.0000      -0.574073       -15.6213
  30   2.0000      -0.554910       -15.0999
  31   2.0000      -0.536897       -14.6097
  32   2.0000      -0.525509       -14.2998
  33   2.0000      -0.495979       -13.4963
  34   2.0000      -0.477419       -12.9912
  35   2.0000      -0.469021       -12.7627
  36   2.0000      -0.452603       -12.3160
  37   2.0000      -0.445775       -12.1302
  38   2.0000      -0.421941       -11.4816
  39   2.0000      -0.412655       -11.2289
  40   2.0000      -0.408949       -11.1281
  41   2.0000      -0.396896       -10.8001
  42   2.0000      -0.388594       -10.5742
  43   2.0000      -0.234893        -6.3918
  44   0.0000       0.003773         0.1027
  45   0.0000       0.030593         0.8325
  46   0.0000       0.034217         0.9311
  47   0.0000       0.041928         1.1409
  48   0.0000       0.061589         1.6759

MULLIKEN ATOMIC CHARGES
-----------------------
   0 C :    0.500263
   1 C :    0.179648
   2 C :    0.105009
   3 H :    0.157092
   4 H :   -0.136284
   5 S :    1.630633
   6 C :   -0.030755
   7 C :    0.294934
   8 N :    0.574459
   9 H :   -0.394835
  10 H :   -0.222324
  11 H :   -0.122554
  12 H :   -0.435653
  13 O :   -0.706851
  14 F :   -0.444865
  15 O :   -0.825491
  16 H :    0.142695
  17 H :   -0.220033
  18 H :    0.001124
  19 H :   -0.046213
Sum of atomic charges:   -0.0000000

LOEWDIN ATOMIC CHARGES
----------------------
   0 C :    0.024891
   1 C :   -0.017419
   2 C :   -0.023461
   3 H :    0.037933
   4 H :    0.022015
   5 S :    1.200455
   6 C :   -0.248323
   7 C :    0.175494
   8 N :    0.193854
   9 H :   -0.134310
  10 H :    0.021834
  11 H :   -0.087505
  12 H :   -0.090016
  13 O :   -0.454302
  14 F :   -0.253892
  15 O :   -0.467941
  16 H :    0.021955
  17 H :    0.038438
  18 H :    0.031497
  19 H :    0.008803

  Mayer bond orders larger than 0.100000
B(  0-C ,  1-C ) :   1.1566 B(  0-C ,  6-C ) :   1.1443 B(  0-C ,  8-N ) :   0.1140
B(  0-C , 16-H ) :   0.1317 B(  0-C , 18-H ) :   0.7328 B(  0-C , 19-H ) :   0.7072
B(  1-C ,  2-C ) :   1.3383 B(  1-C ,  3-H ) :   0.1190 B(  1-C ,  4-H ) :   0.1805
B(  1-C , 16-H ) :   0.7771 B(  1-C , 17-H ) :   0.9284 B(  1-C , 18-H ) :   0.1423
B(  1-C , 19-H ) :   0.1403 B(  2-C ,  3-H ) :   0.8728 B(  2-C ,  4-H ) :   0.8827
B(  2-C ,  5-S ) :   0.9486 B(  2-C , 16-H ) :   0.1218 B(  5-S , 13-O ) :   1.5493
B(  5-S , 14-F ) :   0.6135 B(  5-S , 15-O ) :   1.3802 B(  6-C ,  7-C ) :   1.6459
B(  6-C ,  8-N ) :   1.1237 B(  6-C , 10-H ) :  -0.1446 B(  6-C , 12-H ) :   0.1456
B(  6-C , 18-H ) :   0.1653 B(  6-C , 19-H ) :   0.1976 B(  7-C ,  8-N ) :   0.1622
B(  7-C , 11-H ) :   0.9456 B(  7-C , 12-H ) :   0.6992 B(  8-N ,  9-H ) :   1.0110
B(  8-N , 10-H ) :   1.2220 B(  8-N , 15-O ) :  -0.1175 B(  9-H , 10-H ) :  -0.2234
B(  9-H , 15-O ) :   0.1107 B( 16-H , 17-H ) :  -0.1298

Dispersion correction           -0.000728172
FINAL SINGLE POINT ENERGY      -898.965856535219

DIPOLE MOMENT
-------------
                                X             Y             Z
Electronic contribution:      6.44316     -13.07324       7.37675
Nuclear contribution   :     -6.19944      13.70770      -6.43483
                        -----------------------------------------
Total Dipole Moment    :      0.24373       0.63446       0.94192
                        -----------------------------------------
Magnitude (a.u.)       :      1.16153
Magnitude (Debye)      :      2.95238

Rotational constants in cm-1:     0.079903     0.025241     0.022805
Rotational constants in MHz :  2395.439281   756.708181   683.680583

                             ****ORCA TERMINATED NORMALLY****
TOTAL RUN TIME: 0 days 0 hours 1 minutes 11 seconds 85 msec
