                         Program Version 5.0.0 -  RELEASE  -
|  1> !M062X D3Zero RIJCOSX def2-SVPD def2/J TightSCF xyzfile
|  2>
|  3> *xyzfile 0 1 D4.xyz
|  4>
|  5> %MaxCore 64000
|  6>
|  7> %pal nprocs 4
|  8> end
|  9>
| 10> %scf
| 11>   MaxIter 150
| 12> end
| 13>
| 14>
| 15>                          ****END OF INPUT****

CARTESIAN COORDINATES (ANGSTROEM)
---------------------------------
  C     -0.461293    2.234686   -4.989619
  C      0.848883    2.667967   -4.302351
  C      2.093434    1.861037   -4.656845
  H      2.444814    2.041567   -5.674990
  H      2.901748    2.137864   -3.980338
  S      1.879644    0.078594   -4.462965
  C     -0.423841    2.398772   -6.474317
  N     -0.959467    3.492647   -7.007401
  C      0.145585    1.486891   -7.203987
  H      0.565371    0.696807   -6.723858
  H      0.220682    1.581768   -8.207520
  H     -1.406243    4.181507   -6.403261
  H     -0.934215    3.681601   -7.999468
  O      3.207574   -0.466111   -4.420259
  F      1.075064   -0.056160   -3.268758
  O      1.131661   -0.319960   -5.679031
  H      0.668432    2.559427   -3.232850
  H      1.034074    3.729426   -4.497081
  H     -1.288884    2.826737   -4.594997
  H     -0.651696    1.186343   -4.756552

 Total Charge           Charge          ....    0
 Multiplicity           Mult            ....    1
 Number of Electrons    NEL             ....   88
 Basis Dimension        Dim             ....  296

ORBITAL ENERGIES
----------------

  NO   OCC          E(Eh)            E(eV)
   0   2.0000     -90.200963     -2454.4930
   1   2.0000     -25.381292      -690.6601
   2   2.0000     -19.657693      -534.9130
   3   2.0000     -19.642759      -534.5066
   4   2.0000     -14.760721      -401.6596
   5   2.0000     -10.609454      -288.6979
   6   2.0000     -10.585312      -288.0410
   7   2.0000     -10.565881      -287.5122
   8   2.0000     -10.564235      -287.4675
   9   2.0000     -10.463380      -284.7230
  10   2.0000      -8.524695      -231.9687
  11   2.0000      -6.453314      -175.6036
  12   2.0000      -6.447936      -175.4573
  13   2.0000      -6.446616      -175.4213
  14   2.0000      -1.517810       -41.3017
  15   2.0000      -1.234373       -33.5890
  16   2.0000      -1.128808       -30.7164
  17   2.0000      -1.021688       -27.8015
  18   2.0000      -0.930141       -25.3104
  19   2.0000      -0.861731       -23.4489
  20   2.0000      -0.820416       -22.3247
  21   2.0000      -0.794471       -21.6187
  22   2.0000      -0.727785       -19.8040
  23   2.0000      -0.694384       -18.8951
  24   2.0000      -0.692603       -18.8467
  25   2.0000      -0.646708       -17.5978
  26   2.0000      -0.639565       -17.4034
  27   2.0000      -0.592447       -16.1213
  28   2.0000      -0.572631       -15.5821
  29   2.0000      -0.560893       -15.2627
  30   2.0000      -0.551941       -15.0191
  31   2.0000      -0.540919       -14.7192
  32   2.0000      -0.517686       -14.0869
  33   2.0000      -0.484511       -13.1842
  34   2.0000      -0.471445       -12.8287
  35   2.0000      -0.466978       -12.7071
  36   2.0000      -0.450022       -12.2457
  37   2.0000      -0.440552       -11.9880
  38   2.0000      -0.408423       -11.1138
  39   2.0000      -0.401502       -10.9254
  40   2.0000      -0.396892       -10.8000
  41   2.0000      -0.390543       -10.6272
  42   2.0000      -0.360249        -9.8029
  43   2.0000      -0.241710        -6.5773
  44   0.0000       0.010357         0.2818
  45   0.0000       0.033729         0.9178
  46   0.0000       0.038102         1.0368
  47   0.0000       0.044036         1.1983
  48   0.0000       0.061226         1.6660

MULLIKEN ATOMIC CHARGES
-----------------------
   0 C :    0.422461
   1 C :    0.208518
   2 C :    0.079246
   3 H :    0.221353
   4 H :   -0.182146
   5 S :    1.606409
   6 C :    0.159767
   7 N :   -0.079920
   8 C :    0.846224
   9 H :   -0.199567
  10 H :   -0.684822
  11 H :   -0.084143
  12 H :   -0.183519
  13 O :   -0.715543
  14 F :   -0.453974
  15 O :   -0.808808
  16 H :    0.128772
  17 H :   -0.223649
  18 H :   -0.196704
  19 H :    0.140046
Sum of atomic charges:   -0.0000000

LOEWDIN ATOMIC CHARGES
----------------------
   0 C :    0.025331
   1 C :   -0.021200
   2 C :   -0.023429
   3 H :    0.036287
   4 H :    0.020146
   5 S :    1.194596
   6 C :   -0.237283
   7 N :    0.153646
   8 C :    0.208837
   9 H :   -0.185286
  10 H :   -0.067906
  11 H :   -0.002555
  12 H :    0.005097
  13 O :   -0.462623
  14 F :   -0.260816
  15 O :   -0.475019
  16 H :    0.021142
  17 H :    0.035065
  18 H :    0.021909
  19 H :    0.014060

  Mayer bond orders larger than 0.100000
B(  0-C ,  1-C ) :   1.1621 B(  0-C ,  6-C ) :   1.0806 B(  0-C ,  7-N ) :   0.1136
B(  0-C ,  8-C ) :   0.1786 B(  0-C , 16-H ) :   0.1221 B(  0-C , 18-H ) :   0.7557
B(  0-C , 19-H ) :   0.8116 B(  1-C ,  2-C ) :   1.3385 B(  1-C ,  3-H ) :   0.1130
B(  1-C ,  4-H ) :   0.1725 B(  1-C , 16-H ) :   0.7587 B(  1-C , 17-H ) :   0.9101
B(  1-C , 18-H ) :   0.1668 B(  1-C , 19-H ) :   0.1238 B(  2-C ,  3-H ) :   0.8528
B(  2-C ,  4-H ) :   0.9047 B(  2-C ,  5-S ) :   0.9567 B(  2-C ,  9-H ) :   0.1203
B(  2-C , 15-O ) :   0.1114 B(  2-C , 16-H ) :   0.1137 B(  3-H ,  9-H ) :   0.1094
B(  4-H ,  5-S ) :   0.1006 B(  4-H ,  9-H ) :  -0.1360 B(  5-S , 13-O ) :   1.5291
B(  5-S , 14-F ) :   0.6046 B(  5-S , 15-O ) :   1.4214 B(  6-C ,  7-N ) :   0.8768
B(  6-C ,  8-C ) :   1.8546 B(  6-C ,  9-H ) :   0.3835 B(  6-C , 10-H ) :   0.2343
B(  6-C , 12-H ) :  -0.1506 B(  6-C , 18-H ) :   0.1601 B(  7-N ,  8-C ) :   0.3091
B(  7-N , 11-H ) :   1.1728 B(  7-N , 12-H ) :   1.3444 B(  8-C ,  9-H ) :   0.5853
B(  8-C , 10-H ) :   0.6917 B(  9-H , 10-H ) :  -0.3297 B( 11-H , 12-H ) :  -0.1737
B( 16-H , 17-H ) :  -0.1176

Dispersion correction           -0.000724725
FINAL SINGLE POINT ENERGY      -898.944515248517

DIPOLE MOMENT
-------------
                                X             Y             Z
Electronic contribution:      5.54402     -11.63218       7.32615
Nuclear contribution   :     -6.09390      13.51614      -6.45360
                        -----------------------------------------
Total Dipole Moment    :     -0.54988       1.88396       0.87254
                        -----------------------------------------
Magnitude (a.u.)       :      2.14779
Magnitude (Debye)      :      5.45924

Rotational constants in cm-1:     0.081469     0.024519     0.022336
Rotational constants in MHz :  2442.393231   735.066768   669.628729

                             ****ORCA TERMINATED NORMALLY****
TOTAL RUN TIME: 0 days 0 hours 1 minutes 22 seconds 756 msec
