                         Program Version 5.0.0 -  RELEASE  -
|  1> !CAM-B3LYP RIJCOSX def2-TZVP def2/J TightSCF
|  2> *xyz -1 1
|  3> C         -0.91495        0.61511        2.50554
|  4> C         -0.05915        1.50352        3.41058
|  5> H          0.36536        2.34431        2.86116
|  6> H         -0.69226        1.92021        4.19898
|  7> C          1.08303        0.74964        4.08571
|  8> O          2.22817        1.26348        4.01983
|  9> O          0.81003       -0.34541        4.63627
| 10> H         -0.30401        0.20228        1.73015
| 11> H         -1.69811        1.19946        2.06954
| 12> H         -1.34124       -0.17772        3.08397
| 13> *
| 14>
| 15> %MaxCore 64000
| 16>
| 17> %pal nprocs 4
| 18> end
| 19>
| 20> %scf
| 21>   MaxIter 150
| 22> end
| 23>
| 24>
| 25>                          ****END OF INPUT****

CARTESIAN COORDINATES (ANGSTROEM)
---------------------------------
  C     -0.914950    0.615110    2.505540
  C     -0.059150    1.503520    3.410580
  H      0.365360    2.344310    2.861160
  H     -0.692260    1.920210    4.198980
  C      1.083030    0.749640    4.085710
  O      2.228170    1.263480    4.019830
  O      0.810030   -0.345410    4.636270
  H     -0.304010    0.202280    1.730150
  H     -1.698110    1.199460    2.069540
  H     -1.341240   -0.177720    3.083970

 Total Charge           Charge          ....   -1
 Multiplicity           Mult            ....    1
 Number of Electrons    NEL             ....   40
 Basis Dimension        Dim             ....  185

ORBITAL ENERGIES
----------------

  NO   OCC          E(Eh)            E(eV)
   0   2.0000     -18.921811      -514.8886
   1   2.0000     -18.920832      -514.8620
   2   2.0000     -10.119906      -275.3766
   3   2.0000     -10.075569      -274.1702
   4   2.0000     -10.064373      -273.8655
   5   2.0000      -0.893347       -24.3092
   6   2.0000      -0.798619       -21.7315
   7   2.0000      -0.684856       -18.6359
   8   2.0000      -0.549839       -14.9619
   9   2.0000      -0.388308       -10.5664
  10   2.0000      -0.360893        -9.8204
  11   2.0000      -0.325736        -8.8637
  12   2.0000      -0.294204        -8.0057
  13   2.0000      -0.278332        -7.5738
  14   2.0000      -0.270188        -7.3522
  15   2.0000      -0.239737        -6.5236
  16   2.0000      -0.221826        -6.0362
  17   2.0000      -0.103404        -2.8138
  18   2.0000      -0.099439        -2.7059
  19   2.0000      -0.086382        -2.3506
  20   0.0000       0.219653         5.9771
  21   0.0000       0.261345         7.1116
  22   0.0000       0.283284         7.7085
  23   0.0000       0.285897         7.7797
  24   0.0000       0.303934         8.2705

MULLIKEN ATOMIC CHARGES
-----------------------
   0 C :   -0.320533
   1 C :   -0.137697
   2 H :    0.045288
   3 H :    0.036458
   4 C :    0.179188
   5 O :   -0.520134
   6 O :   -0.521983
   7 H :    0.085809
   8 H :    0.054390
   9 H :    0.099214
Sum of atomic charges:   -1.0000000

LOEWDIN ATOMIC CHARGES
----------------------
   0 C :   -0.325841
   1 C :   -0.290243
   2 H :    0.118678
   3 H :    0.121641
   4 C :   -0.699430
   5 O :   -0.119954
   6 O :   -0.117006
   7 H :    0.107935
   8 H :    0.092454
   9 H :    0.111765

  Mayer bond orders larger than 0.100000
B(  0-C ,  1-C ) :   0.9361 B(  0-C ,  7-H ) :   0.9842 B(  0-C ,  8-H ) :   0.9750
B(  0-C ,  9-H ) :   0.9745 B(  1-C ,  2-H ) :   0.9633 B(  1-C ,  3-H ) :   0.9618
B(  1-C ,  4-C ) :   0.9360 B(  4-C ,  5-O ) :   1.9048 B(  4-C ,  6-O ) :   1.8628

FINAL SINGLE POINT ENERGY      -267.831004680637

DIPOLE MOMENT
-------------
                                X             Y             Z
Electronic contribution:      4.76951      -1.01316       3.38267
Nuclear contribution   :     -6.38408       1.63097      -4.40540
                        -----------------------------------------
Total Dipole Moment    :     -1.61456       0.61780      -1.02273
                        -----------------------------------------
Magnitude (a.u.)       :      2.00860
Magnitude (Debye)      :      5.10545

Rotational constants in cm-1:     0.319732     0.134414     0.104753
Rotational constants in MHz :  9585.336550  4029.633034  3140.404334

                             ****ORCA TERMINATED NORMALLY****
TOTAL RUN TIME: 0 days 0 hours 0 minutes 26 seconds 222 msec
