                         Program Version 5.0.0 -  RELEASE  -
|  1> !CAM-B3LYP RIJCOSX def2-TZVP def2/J TightSCF
|  2> *xyz 1 1
|  3> C          4.60295       -2.44010        2.63478
|  4> C          3.86085       -1.59157        3.62289
|  5> N          2.75650       -2.04616        4.16633
|  6> N          4.25433       -0.36291        3.86046
|  7> H          3.56526        0.31099        4.16898
|  8> H          5.05429       -0.01606        3.33784
|  9> H          2.43970       -2.97389        3.89740
| 10> H          2.06687       -1.41253        4.54981
| 11> C          3.74469       -2.58056        1.36188
| 12> H          5.56156       -1.97135        2.40708
| 13> H          4.81050       -3.42255        3.06310
| 14> H          4.26314       -3.18477        0.64702
| 15> H          3.56325       -1.61180        0.94535
| 16> H          2.81197       -3.04259        1.60980
| 17> *
| 18>
| 19> %MaxCore 64000
| 20>
| 21> %pal nprocs 4
| 22> end
| 23>
| 24> %scf
| 25>   MaxIter 150
| 26> end
| 27>
| 28>
| 29>                          ****END OF INPUT****

CARTESIAN COORDINATES (ANGSTROEM)
---------------------------------
  C      4.602950   -2.440100    2.634780
  C      3.860850   -1.591570    3.622890
  N      2.756500   -2.046160    4.166330
  N      4.254330   -0.362910    3.860460
  H      3.565260    0.310990    4.168980
  H      5.054290   -0.016060    3.337840
  H      2.439700   -2.973890    3.897400
  H      2.066870   -1.412530    4.549810
  C      3.744690   -2.580560    1.361880
  H      5.561560   -1.971350    2.407080
  H      4.810500   -3.422550    3.063100
  H      4.263140   -3.184770    0.647020
  H      3.563250   -1.611800    0.945350
  H      2.811970   -3.042590    1.609800

 Total Charge           Charge          ....    1
 Multiplicity           Mult            ....    1
 Number of Electrons    NEL             ....   40
 Basis Dimension        Dim             ....  209

ORBITAL ENERGIES
----------------

  NO   OCC          E(Eh)            E(eV)
   0   2.0000     -14.635254      -398.2455
   1   2.0000     -14.634304      -398.2197
   2   2.0000     -10.570531      -287.6388
   3   2.0000     -10.446405      -284.2611
   4   2.0000     -10.403947      -283.1058
   5   2.0000      -1.294041       -35.2127
   6   2.0000      -1.193984       -32.4900
   7   2.0000      -1.055797       -28.7297
   8   2.0000      -0.940427       -25.5903
   9   2.0000      -0.893875       -24.3236
  10   2.0000      -0.845877       -23.0175
  11   2.0000      -0.827586       -22.5198
  12   2.0000      -0.767775       -20.8922
  13   2.0000      -0.736798       -20.0493
  14   2.0000      -0.697128       -18.9698
  15   2.0000      -0.671488       -18.2721
  16   2.0000      -0.616731       -16.7821
  17   2.0000      -0.611146       -16.6301
  18   2.0000      -0.598539       -16.2871
  19   2.0000      -0.560822       -15.2608
  20   0.0000      -0.166871        -4.5408
  21   0.0000      -0.122683        -3.3384
  22   0.0000      -0.078121        -2.1258
  23   0.0000      -0.075706        -2.0601
  24   0.0000      -0.041887        -1.1398

MULLIKEN ATOMIC CHARGES
-----------------------
   0 C :   -0.270210
   1 C :    0.320064
   2 N :   -0.324068
   3 N :   -0.316460
   4 H :    0.276449
   5 H :    0.294673
   6 H :    0.296205
   7 H :    0.279957
   8 C :   -0.339196
   9 H :    0.148955
  10 H :    0.186185
  11 H :    0.177343
  12 H :    0.143215
  13 H :    0.126888
Sum of atomic charges:    1.0000000

LOEWDIN ATOMIC CHARGES
----------------------
   0 C :   -0.215849
   1 C :   -0.289097
   2 N :    0.113008
   3 N :    0.111589
   4 H :    0.201034
   5 H :    0.210684
   6 H :    0.210485
   7 H :    0.200530
   8 C :   -0.258119
   9 H :    0.158158
  10 H :    0.166711
  11 H :    0.139896
  12 H :    0.129100
  13 H :    0.121870

  Mayer bond orders larger than 0.100000
B(  0-C ,  1-C ) :   0.9703 B(  0-C ,  8-C ) :   0.9184 B(  0-C ,  9-H ) :   0.9711
B(  0-C , 10-H ) :   0.9518 B(  1-C ,  2-N ) :   1.4308 B(  1-C ,  3-N ) :   1.4465
B(  2-N ,  6-H ) :   0.8936 B(  2-N ,  7-H ) :   0.8943 B(  3-N ,  4-H ) :   0.8950
B(  3-N ,  5-H ) :   0.8896 B(  8-C , 11-H ) :   0.9675 B(  8-C , 12-H ) :   0.9606
B(  8-C , 13-H ) :   0.9729

FINAL SINGLE POINT ENERGY      -228.992734348835

DIPOLE MOMENT
-------------
                                X             Y             Z
Electronic contribution:     -0.23917       1.79589       3.72679
Nuclear contribution   :     -0.22400      -1.16268      -3.30447
                        -----------------------------------------
Total Dipole Moment    :     -0.46318       0.63321       0.42232
                        -----------------------------------------
Magnitude (a.u.)       :      0.89098
Magnitude (Debye)      :      2.26468

Rotational constants in cm-1:     0.258103     0.130571     0.102508
Rotational constants in MHz :  7737.732062  3914.431392  3073.119154

                             ****ORCA TERMINATED NORMALLY****
TOTAL RUN TIME: 0 days 0 hours 0 minutes 36 seconds 391 msec
