                         Program Version 5.0.0 -  RELEASE  -
|  1> !CAM-B3LYP RIJCOSX def2-TZVP def2/J TightSCF
|  2> *xyz 0 1
|  3> C         -0.91495        0.61511        2.50554
|  4> C         -0.05915        1.50352        3.41058
|  5> H          0.36536        2.34431        2.86116
|  6> H         -0.69226        1.92021        4.19898
|  7> C          1.08303        0.74964        4.08571
|  8> F          2.22817        1.26348        4.01983
|  9> O          0.81003       -0.34541        4.63627
| 10> H         -0.30401        0.20228        1.73015
| 11> H         -1.69811        1.19946        2.06954
| 12> H         -1.34124       -0.17772        3.08397
| 13> *
| 14>
| 15> %MaxCore 64000
| 16>
| 17> %pal nprocs 4
| 18> end
| 19>
| 20> %scf
| 21>   MaxIter 150
| 22> end
| 23>
| 24>
| 25>                          ****END OF INPUT****

CARTESIAN COORDINATES (ANGSTROEM)
---------------------------------
  C     -0.914950    0.615110    2.505540
  C     -0.059150    1.503520    3.410580
  H      0.365360    2.344310    2.861160
  H     -0.692260    1.920210    4.198980
  C      1.083030    0.749640    4.085710
  F      2.228170    1.263480    4.019830
  O      0.810030   -0.345410    4.636270
  H     -0.304010    0.202280    1.730150
  H     -1.698110    1.199460    2.069540
  H     -1.341240   -0.177720    3.083970

 Total Charge           Charge          ....    0
 Multiplicity           Mult            ....    1
 Number of Electrons    NEL             ....   40
 Basis Dimension        Dim             ....  185

ORBITAL ENERGIES
----------------

  NO   OCC          E(Eh)            E(eV)
   0   2.0000     -24.826717      -675.5693
   1   2.0000     -19.204956      -522.5934
   2   2.0000     -10.426408      -283.7170
   3   2.0000     -10.276783      -279.6455
   4   2.0000     -10.246381      -278.8182
   5   2.0000      -1.401741       -38.1433
   6   2.0000      -1.116076       -30.3700
   7   2.0000      -0.884919       -24.0799
   8   2.0000      -0.771194       -20.9853
   9   2.0000      -0.715488       -19.4694
  10   2.0000      -0.624912       -17.0047
  11   2.0000      -0.610693       -16.6178
  12   2.0000      -0.583132       -15.8678
  13   2.0000      -0.537951       -14.6384
  14   2.0000      -0.505523       -13.7560
  15   2.0000      -0.466082       -12.6827
  16   2.0000      -0.446352       -12.1458
  17   2.0000      -0.442423       -12.0389
  18   2.0000      -0.413842       -11.2612
  19   2.0000      -0.362803        -9.8724
  20   0.0000       0.020114         0.5473
  21   0.0000       0.070962         1.9310
  22   0.0000       0.109432         2.9778
  23   0.0000       0.126227         3.4348
  24   0.0000       0.135713         3.6929

MULLIKEN ATOMIC CHARGES
-----------------------
   0 C :   -0.346009
   1 C :   -0.213910
   2 H :    0.115063
   3 H :    0.128946
   4 C :    0.360315
   5 F :   -0.100768
   6 O :   -0.325648
   7 H :    0.118619
   8 H :    0.121960
   9 H :    0.141431
Sum of atomic charges:    0.0000000

LOEWDIN ATOMIC CHARGES
----------------------
   0 C :   -0.286928
   1 C :   -0.259921
   2 H :    0.139263
   3 H :    0.155567
   4 C :   -0.495730
   5 F :    0.321209
   6 O :    0.061319
   7 H :    0.120184
   8 H :    0.119024
   9 H :    0.126012

  Mayer bond orders larger than 0.100000
B(  0-C ,  1-C ) :   0.9530 B(  0-C ,  7-H ) :   0.9774 B(  0-C ,  8-H ) :   0.9740
B(  0-C ,  9-H ) :   0.9698 B(  1-C ,  2-H ) :   0.9660 B(  1-C ,  3-H ) :   0.9429
B(  1-C ,  4-C ) :   0.9778 B(  4-C ,  5-F ) :   1.1670 B(  4-C ,  6-O ) :   2.0619

FINAL SINGLE POINT ENERGY      -292.403135772900

DIPOLE MOMENT
-------------
                                X             Y             Z
Electronic contribution:      7.72632      -0.15537       4.08905
Nuclear contribution   :     -8.12386       1.06915      -4.71960
                        -----------------------------------------
Total Dipole Moment    :     -0.39754       0.91377      -0.63055
                        -----------------------------------------
Magnitude (a.u.)       :      1.17924
Magnitude (Debye)      :      2.99739

Rotational constants in cm-1:     0.309513     0.127560     0.099675
Rotational constants in MHz :  9278.979128  3824.146597  2988.174827

                             ****ORCA TERMINATED NORMALLY****
TOTAL RUN TIME: 0 days 0 hours 0 minutes 26 seconds 752 msec
