                         Program Version 5.0.0 -  RELEASE  -
|  1> !CAM-B3LYP RIJCOSX def2-TZVP def2/J TightSCF
|  2> *xyz 0 1
|  3> C          4.60295       -2.44010        2.63478
|  4> C          3.86085       -1.59157        3.62289
|  5> C          2.75650       -2.04616        4.16633
|  6> N          4.25433       -0.36291        3.86046
|  7> H          3.56526        0.31099        4.16898
|  8> H          5.05429       -0.01606        3.33784
|  9> H          2.43970       -2.97389        3.89740
| 10> H          2.06687       -1.41253        4.54981
| 11> C          3.74469       -2.58056        1.36188
| 12> H          5.56156       -1.97135        2.40708
| 13> H          4.81050       -3.42255        3.06310
| 14> H          4.26314       -3.18477        0.64702
| 15> H          3.56325       -1.61180        0.94535
| 16> H          2.81197       -3.04259        1.60980
| 17> *
| 18>
| 19> %MaxCore 64000
| 20>
| 21> %pal nprocs 4
| 22> end
| 23>
| 24> %scf
| 25>   MaxIter 150
| 26> end
| 27>
| 28>
| 29>                          ****END OF INPUT****

CARTESIAN COORDINATES (ANGSTROEM)
---------------------------------
  C      4.602950   -2.440100    2.634780
  C      3.860850   -1.591570    3.622890
  C      2.756500   -2.046160    4.166330
  N      4.254330   -0.362910    3.860460
  H      3.565260    0.310990    4.168980
  H      5.054290   -0.016060    3.337840
  H      2.439700   -2.973890    3.897400
  H      2.066870   -1.412530    4.549810
  C      3.744690   -2.580560    1.361880
  H      5.561560   -1.971350    2.407080
  H      4.810500   -3.422550    3.063100
  H      4.263140   -3.184770    0.647020
  H      3.563250   -1.611800    0.945350
  H      2.811970   -3.042590    1.609800

 Total Charge           Charge          ....    0
 Multiplicity           Mult            ....    1
 Number of Electrons    NEL             ....   40
 Basis Dimension        Dim             ....  209

ORBITAL ENERGIES
----------------

  NO   OCC          E(Eh)            E(eV)
   0   2.0000     -14.387689      -391.5089
   1   2.0000     -10.261984      -279.2428
   2   2.0000     -10.245475      -278.7935
   3   2.0000     -10.227569      -278.3063
   4   2.0000     -10.169300      -276.7207
   5   2.0000      -1.016469       -27.6595
   6   2.0000      -0.864957       -23.5367
   7   2.0000      -0.792805       -21.5733
   8   2.0000      -0.718744       -19.5580
   9   2.0000      -0.636123       -17.3098
  10   2.0000      -0.595383       -16.2012
  11   2.0000      -0.553753       -15.0684
  12   2.0000      -0.518521       -14.1097
  13   2.0000      -0.481954       -13.1146
  14   2.0000      -0.456102       -12.4112
  15   2.0000      -0.444983       -12.1086
  16   2.0000      -0.418972       -11.4008
  17   2.0000      -0.408242       -11.1088
  18   2.0000      -0.394422       -10.7328
  19   2.0000      -0.247925        -6.7464
  20   0.0000       0.063314         1.7228
  21   0.0000       0.081694         2.2230
  22   0.0000       0.107965         2.9379
  23   0.0000       0.113188         3.0800
  24   0.0000       0.125664         3.4195

MULLIKEN ATOMIC CHARGES
-----------------------
   0 C :   -0.227113
   1 C :    0.227795
   2 C :   -0.410474
   3 N :   -0.432537
   4 H :    0.227145
   5 H :    0.219855
   6 H :    0.082489
   7 H :    0.081814
   8 C :   -0.318566
   9 H :    0.085975
  10 H :    0.125185
  11 H :    0.110180
  12 H :    0.108186
  13 H :    0.120065
Sum of atomic charges:   -0.0000000

LOEWDIN ATOMIC CHARGES
----------------------
   0 C :   -0.234074
   1 C :   -0.369234
   2 C :   -0.278137
   3 N :   -0.001460
   4 H :    0.173926
   5 H :    0.168307
   6 H :    0.106381
   7 H :    0.098121
   8 C :   -0.287567
   9 H :    0.130626
  10 H :    0.145855
  11 H :    0.112036
  12 H :    0.116455
  13 H :    0.118764

  Mayer bond orders larger than 0.100000
B(  0-C ,  1-C ) :   0.9254 B(  0-C ,  8-C ) :   0.9368 B(  0-C ,  9-H ) :   0.9889
B(  0-C , 10-H ) :   0.9923 B(  1-C ,  2-C ) :   1.7518 B(  1-C ,  3-N ) :   1.1465
B(  2-C ,  6-H ) :   1.0061 B(  2-C ,  7-H ) :   0.9943 B(  3-N ,  4-H ) :   0.9237
B(  3-N ,  5-H ) :   0.9312 B(  8-C , 11-H ) :   0.9790 B(  8-C , 12-H ) :   0.9774
B(  8-C , 13-H ) :   0.9785

FINAL SINGLE POINT ENERGY      -212.517633407415

DIPOLE MOMENT
-------------
                                X             Y             Z
Electronic contribution:      0.82293       1.79518       2.52955
Nuclear contribution   :     -0.47010      -1.22282      -3.06417
                        -----------------------------------------
Total Dipole Moment    :      0.35283       0.57236      -0.53462
                        -----------------------------------------
Magnitude (a.u.)       :      0.85901
Magnitude (Debye)      :      2.18344

Rotational constants in cm-1:     0.271862     0.131962     0.105499
Rotational constants in MHz :  8150.219120  3956.123671  3162.785522

                             ****ORCA TERMINATED NORMALLY****
TOTAL RUN TIME: 0 days 0 hours 0 minutes 37 seconds 632 msec
