                         Program Version 5.0.0 -  RELEASE  -
|  1> !CAM-B3LYP RIJCOSX def2-TZVP def2/J TightSCF
|  2> *xyz 0 1
|  3> C         -0.91495        0.61511        2.50554
|  4> C         -0.05915        1.50352        3.41058
|  5> H          0.36536        2.34431        2.86116
|  6> H         -0.69226        1.92021        4.19898
|  7> C          1.08303        0.74964        4.08571
|  8> O          2.22817        1.26348        4.01983
|  9> F          0.81003       -0.34541        4.63627
| 10> H         -0.30401        0.20228        1.73015
| 11> H         -1.69811        1.19946        2.06954
| 12> H         -1.34124       -0.17772        3.08397
| 13> *
| 14>
| 15> %MaxCore 64000
| 16>
| 17> %pal nprocs 4
| 18> end
| 19>
| 20> %scf
| 21>   MaxIter 150
| 22> end
| 23>
| 24>
| 25>                          ****END OF INPUT****

CARTESIAN COORDINATES (ANGSTROEM)
---------------------------------
  C     -0.914950    0.615110    2.505540
  C     -0.059150    1.503520    3.410580
  H      0.365360    2.344310    2.861160
  H     -0.692260    1.920210    4.198980
  C      1.083030    0.749640    4.085710
  O      2.228170    1.263480    4.019830
  F      0.810030   -0.345410    4.636270
  H     -0.304010    0.202280    1.730150
  H     -1.698110    1.199460    2.069540
  H     -1.341240   -0.177720    3.083970

 Total Charge           Charge          ....    0
 Multiplicity           Mult            ....    1
 Number of Electrons    NEL             ....   40
 Basis Dimension        Dim             ....  185

ORBITAL ENERGIES
----------------

  NO   OCC          E(Eh)            E(eV)
   0   2.0000     -24.827885      -675.6011
   1   2.0000     -19.203915      -522.5651
   2   2.0000     -10.425678      -283.6971
   3   2.0000     -10.276156      -279.6284
   4   2.0000     -10.251907      -278.9686
   5   2.0000      -1.403287       -38.1854
   6   2.0000      -1.114035       -30.3144
   7   2.0000      -0.889192       -24.1961
   8   2.0000      -0.767023       -20.8718
   9   2.0000      -0.722573       -19.6622
  10   2.0000      -0.627697       -17.0805
  11   2.0000      -0.617800       -16.8112
  12   2.0000      -0.573529       -15.6065
  13   2.0000      -0.538953       -14.6657
  14   2.0000      -0.506059       -13.7706
  15   2.0000      -0.471395       -12.8273
  16   2.0000      -0.453417       -12.3381
  17   2.0000      -0.446182       -12.1412
  18   2.0000      -0.415436       -11.3046
  19   2.0000      -0.357338        -9.7237
  20   0.0000       0.023378         0.6361
  21   0.0000       0.066248         1.8027
  22   0.0000       0.108511         2.9527
  23   0.0000       0.128056         3.4846
  24   0.0000       0.137830         3.7505

MULLIKEN ATOMIC CHARGES
-----------------------
   0 C :   -0.351882
   1 C :   -0.210921
   2 H :    0.137949
   3 H :    0.120864
   4 C :    0.352450
   5 O :   -0.323207
   6 F :   -0.103045
   7 H :    0.127341
   8 H :    0.127216
   9 H :    0.123236
Sum of atomic charges:    0.0000000

LOEWDIN ATOMIC CHARGES
----------------------
   0 C :   -0.295217
   1 C :   -0.255433
   2 H :    0.152165
   3 H :    0.150319
   4 C :   -0.497715
   5 O :    0.057740
   6 F :    0.325730
   7 H :    0.121412
   8 H :    0.121200
   9 H :    0.119800

  Mayer bond orders larger than 0.100000
B(  0-C ,  1-C ) :   0.9377 B(  0-C ,  7-H ) :   0.9750 B(  0-C ,  8-H ) :   0.9747
B(  0-C ,  9-H ) :   0.9715 B(  1-C ,  2-H ) :   0.9695 B(  1-C ,  3-H ) :   0.9446
B(  1-C ,  4-C ) :   0.9939 B(  4-C ,  5-O ) :   2.0799 B(  4-C ,  6-F ) :   1.1553

FINAL SINGLE POINT ENERGY      -292.402169801557

DIPOLE MOMENT
-------------
                                X             Y             Z
Electronic contribution:      5.33523      -2.83016       5.10047
Nuclear contribution   :     -6.57765       2.82334      -5.39171
                        -----------------------------------------
Total Dipole Moment    :     -1.24242      -0.00682      -0.29124
                        -----------------------------------------
Magnitude (a.u.)       :      1.27611
Magnitude (Debye)      :      3.24362

Rotational constants in cm-1:     0.294245     0.132994     0.101060
Rotational constants in MHz :  8821.228602  3987.049251  3029.696815

                             ****ORCA TERMINATED NORMALLY****
TOTAL RUN TIME: 0 days 0 hours 0 minutes 27 seconds 4 msec
