                         Program Version 5.0.0 -  RELEASE  -
|  1> !CAM-B3LYP RIJCOSX def2-TZVP def2/J TightSCF
|  2> *xyz 0 1
|  3> C          4.60295       -2.44010        2.63478
|  4> C          3.86085       -1.59157        3.62289
|  5> N          2.75650       -2.04616        4.16633
|  6> C          4.25433       -0.36291        3.86046
|  7> H          3.56526        0.31099        4.16898
|  8> H          5.05429       -0.01606        3.33784
|  9> H          2.43970       -2.97389        3.89740
| 10> H          2.06687       -1.41253        4.54981
| 11> C          3.74469       -2.58056        1.36188
| 12> H          5.56156       -1.97135        2.40708
| 13> H          4.81050       -3.42255        3.06310
| 14> H          4.26314       -3.18477        0.64702
| 15> H          3.56325       -1.61180        0.94535
| 16> H          2.81197       -3.04259        1.60980
| 17> *
| 18>
| 19> %MaxCore 64000
| 20>
| 21> %pal nprocs 4
| 22> end
| 23>
| 24> %scf
| 25>   MaxIter 150
| 26> end
| 27>
| 28>
| 29>                          ****END OF INPUT****

CARTESIAN COORDINATES (ANGSTROEM)
---------------------------------
  C      4.602950   -2.440100    2.634780
  C      3.860850   -1.591570    3.622890
  N      2.756500   -2.046160    4.166330
  C      4.254330   -0.362910    3.860460
  H      3.565260    0.310990    4.168980
  H      5.054290   -0.016060    3.337840
  H      2.439700   -2.973890    3.897400
  H      2.066870   -1.412530    4.549810
  C      3.744690   -2.580560    1.361880
  H      5.561560   -1.971350    2.407080
  H      4.810500   -3.422550    3.063100
  H      4.263140   -3.184770    0.647020
  H      3.563250   -1.611800    0.945350
  H      2.811970   -3.042590    1.609800

 Total Charge           Charge          ....    0
 Multiplicity           Mult            ....    1
 Number of Electrons    NEL             ....   40
 Basis Dimension        Dim             ....  209

ORBITAL ENERGIES
----------------

  NO   OCC          E(Eh)            E(eV)
   0   2.0000     -14.387826      -391.5127
   1   2.0000     -10.263131      -279.2740
   2   2.0000     -10.244989      -278.7803
   3   2.0000     -10.231390      -278.4103
   4   2.0000     -10.170761      -276.7605
   5   2.0000      -1.016389       -27.6574
   6   2.0000      -0.863020       -23.4840
   7   2.0000      -0.801132       -21.7999
   8   2.0000      -0.714018       -19.4294
   9   2.0000      -0.643177       -17.5017
  10   2.0000      -0.597074       -16.2472
  11   2.0000      -0.548939       -14.9374
  12   2.0000      -0.508806       -13.8453
  13   2.0000      -0.499191       -13.5837
  14   2.0000      -0.456113       -12.4115
  15   2.0000      -0.447645       -12.1810
  16   2.0000      -0.422918       -11.5082
  17   2.0000      -0.405515       -11.0346
  18   2.0000      -0.390670       -10.6307
  19   2.0000      -0.250666        -6.8210
  20   0.0000       0.060987         1.6595
  21   0.0000       0.084880         2.3097
  22   0.0000       0.112104         3.0505
  23   0.0000       0.112672         3.0660
  24   0.0000       0.121024         3.2932

MULLIKEN ATOMIC CHARGES
-----------------------
   0 C :   -0.225773
   1 C :    0.216931
   2 N :   -0.435775
   3 C :   -0.387620
   4 H :    0.076231
   5 H :    0.080050
   6 H :    0.222413
   7 H :    0.227056
   8 C :   -0.327005
   9 H :    0.112138
  10 H :    0.105892
  11 H :    0.117765
  12 H :    0.123329
  13 H :    0.094367
Sum of atomic charges:    0.0000000

LOEWDIN ATOMIC CHARGES
----------------------
   0 C :   -0.234384
   1 C :   -0.369618
   2 N :    0.002523
   3 C :   -0.279396
   4 H :    0.099117
   5 H :    0.105942
   6 H :    0.169482
   7 H :    0.172962
   8 C :   -0.291517
   9 H :    0.145326
  10 H :    0.134206
  11 H :    0.115039
  12 H :    0.120262
  13 H :    0.110056

  Mayer bond orders larger than 0.100000
B(  0-C ,  1-C ) :   0.9534 B(  0-C ,  8-C ) :   0.9250 B(  0-C ,  9-H ) :   0.9885
B(  0-C , 10-H ) :   0.9813 B(  1-C ,  2-N ) :   1.1449 B(  1-C ,  3-C ) :   1.7728
B(  2-N ,  6-H ) :   0.9360 B(  2-N ,  7-H ) :   0.9237 B(  3-C ,  4-H ) :   0.9951
B(  3-C ,  5-H ) :   1.0014 B(  8-C , 11-H ) :   0.9801 B(  8-C , 12-H ) :   0.9776
B(  8-C , 13-H ) :   0.9779

FINAL SINGLE POINT ENERGY      -212.518313532371

DIPOLE MOMENT
-------------
                                X             Y             Z
Electronic contribution:     -0.50786       0.29499       2.81983
Nuclear contribution   :     -0.12319      -0.83296      -3.13501
                        -----------------------------------------
Total Dipole Moment    :     -0.63105      -0.53797      -0.31518
                        -----------------------------------------
Magnitude (a.u.)       :      0.88712
Magnitude (Debye)      :      2.25488

Rotational constants in cm-1:     0.266453     0.134423     0.106086
Rotational constants in MHz :  7988.053142  4029.892766  3180.375228

                             ****ORCA TERMINATED NORMALLY****
TOTAL RUN TIME: 0 days 0 hours 0 minutes 39 seconds 18 msec
