                         Program Version 5.0.0 -  RELEASE  -
|  1> !CAM-B3LYP RIJCOSX def2-TZVP def2/J TightSCF xyzfile
|  2>
|  3> *xyzfile 0 1 D1.xyz
|  4>
|  5> %MaxCore 64000
|  6>
|  7> %pal nprocs 18
|  8> end
|  9>
| 10> %scf
| 11>   MaxIter 150
| 12> end
| 13>
| 14>
| 15>                          ****END OF INPUT****

CARTESIAN COORDINATES (ANGSTROEM)
---------------------------------
  C      4.602954   -2.440100    2.634780
  C     -0.914947    0.615112    2.505538
  C     -0.059146    1.503524    3.410578
  H      0.365364    2.344315    2.861161
  H     -0.692261    1.920207    4.198985
  C      1.083027    0.749640    4.085705
  C      3.860851   -1.591565    3.622893
  C      2.756502   -2.046159    4.166333
  N      4.254325   -0.362905    3.860455
  H      3.565256    0.310994    4.168983
  H      5.054292   -0.016059    3.337838
  H      2.439696   -2.973894    3.897395
  H      2.066869   -1.412532    4.549813
  F      2.228167    1.263475    4.019826
  O      0.810034   -0.345411    4.636269
  C      3.744685   -2.580557    1.361882
  C      0.772139    0.636882    0.562129
  C     -0.130740   -0.193985    1.470763
  H     -0.840563   -0.760165    0.856377
  H      0.466691   -0.938942    2.006959
  H     -1.647961    1.245963    1.991076
  H     -1.478180   -0.081046    3.130424
  C      3.203721   -1.256004    0.826211
  H      2.898939   -3.239289    1.583074
  H      4.334962   -3.095523    0.600188
  C      2.107815   -1.442385   -0.216865
  H      2.786775   -0.672760    1.650711
  H      4.021008   -0.652993    0.414046
  C      1.390662   -0.145912   -0.602422
  H      1.372179   -2.152184    0.176151
  H      2.523302   -1.906787   -1.117115
  H      1.561361    1.100094    1.161831
  H      0.195516    1.468325    0.142758
  H      0.602893   -0.398214   -1.319716
  H      2.087247    0.508272   -1.137335
  H      5.561557   -1.971347    2.407084
  H      4.810498   -3.422552    3.063099

 Total Charge           Charge          ....    0
 Multiplicity           Mult            ....    1
 Number of Electrons    NEL             ....  118
 Basis Dimension        Dim             ....  597

ORBITAL ENERGIES
----------------

  NO   OCC          E(Eh)            E(eV)
   0   2.0000     -24.852908      -676.2820
   1   2.0000     -19.218171      -522.9530
   2   2.0000     -14.363553      -390.8521
   3   2.0000     -10.441759      -284.1347
   4   2.0000     -10.281667      -279.7784
   5   2.0000     -10.259037      -279.1626
   6   2.0000     -10.243373      -278.7363
   7   2.0000     -10.243094      -278.7288
   8   2.0000     -10.239941      -278.6430
   9   2.0000     -10.238303      -278.5984
  10   2.0000     -10.231799      -278.4214
  11   2.0000     -10.230002      -278.3725
  12   2.0000     -10.229814      -278.3674
  13   2.0000     -10.227691      -278.3096
  14   2.0000     -10.136706      -275.8338
  15   2.0000      -1.431310       -38.9479
  16   2.0000      -1.136021       -30.9127
  17   2.0000      -0.998533       -27.1715
  18   2.0000      -0.915915       -24.9233
  19   2.0000      -0.889985       -24.2177
  20   2.0000      -0.864281       -23.5183
  21   2.0000      -0.826380       -22.4869
  22   2.0000      -0.801280       -21.8039
  23   2.0000      -0.770854       -20.9760
  24   2.0000      -0.756779       -20.5930
  25   2.0000      -0.726729       -19.7753
  26   2.0000      -0.691094       -18.8056
  27   2.0000      -0.667829       -18.1726
  28   2.0000      -0.652624       -17.7588
  29   2.0000      -0.643977       -17.5235
  30   2.0000      -0.629651       -17.1337
  31   2.0000      -0.613020       -16.6811
  32   2.0000      -0.599770       -16.3206
  33   2.0000      -0.569460       -15.4958
  34   2.0000      -0.554800       -15.0969
  35   2.0000      -0.551417       -15.0048
  36   2.0000      -0.541357       -14.7311
  37   2.0000      -0.522085       -14.2067
  38   2.0000      -0.514941       -14.0123
  39   2.0000      -0.496774       -13.5179
  40   2.0000      -0.493576       -13.4309
  41   2.0000      -0.478083       -13.0093
  42   2.0000      -0.472350       -12.8533
  43   2.0000      -0.458252       -12.4697
  44   2.0000      -0.454264       -12.3612
  45   2.0000      -0.439789       -11.9673
  46   2.0000      -0.436015       -11.8646
  47   2.0000      -0.427559       -11.6345
  48   2.0000      -0.418444       -11.3864
  49   2.0000      -0.409807       -11.1514
  50   2.0000      -0.407134       -11.0787
  51   2.0000      -0.398995       -10.8572
  52   2.0000      -0.388483       -10.5712
  53   2.0000      -0.384588       -10.4652
  54   2.0000      -0.376019       -10.2320
  55   2.0000      -0.372903       -10.1472
  56   2.0000      -0.366199        -9.9648
  57   2.0000      -0.340939        -9.2774
  58   2.0000      -0.226881        -6.1738
  59   0.0000       0.003669         0.0998
  60   0.0000       0.060581         1.6485
  61   0.0000       0.077002         2.0953
  62   0.0000       0.080131         2.1805
  63   0.0000       0.086393         2.3509

MULLIKEN ATOMIC CHARGES
-----------------------
   0 C :   -0.217510
   1 C :   -0.173258
   2 C :   -0.244894
   3 H :    0.135371
   4 H :    0.148950
   5 C :    0.393553
   6 C :    0.124653
   7 C :   -0.412619
   8 N :   -0.409314
   9 H :    0.220474
  10 H :    0.210905
  11 H :    0.070103
  12 H :    0.141862
  13 F :   -0.133728
  14 O :   -0.308140
  15 C :   -0.191485
  16 C :   -0.257823
  17 C :   -0.281105
  18 H :    0.112560
  19 H :    0.162977
  20 H :    0.114734
  21 H :    0.127675
  22 C :   -0.209094
  23 H :    0.106811
  24 H :    0.094433
  25 C :   -0.209888
  26 H :    0.103795
  27 H :    0.086358
  28 C :   -0.174254
  29 H :    0.114939
  30 H :    0.104348
  31 H :    0.113812
  32 H :    0.107782
  33 H :    0.107446
  34 H :    0.101684
  35 H :    0.091803
  36 H :    0.126086
Sum of atomic charges:   -0.0000000

LOEWDIN ATOMIC CHARGES
----------------------
   0 C :   -0.214300
   1 C :   -0.254831
   2 C :   -0.231830
   3 H :    0.143360
   4 H :    0.159990
   5 C :   -0.478386
   6 C :   -0.389382
   7 C :   -0.276632
   8 N :   -0.008861
   9 H :    0.152220
  10 H :    0.162754
  11 H :    0.102501
  12 H :    0.091973
  13 F :    0.331626
  14 O :    0.103795
  15 C :   -0.251307
  16 C :   -0.273035
  17 C :   -0.268677
  18 H :    0.140580
  19 H :    0.145333
  20 H :    0.140451
  21 H :    0.146187
  22 C :   -0.265414
  23 H :    0.138073
  24 H :    0.130347
  25 C :   -0.268964
  26 H :    0.140233
  27 H :    0.131013
  28 C :   -0.265845
  29 H :    0.136895
  30 H :    0.134601
  31 H :    0.129893
  32 H :    0.135879
  33 H :    0.136171
  34 H :    0.135011
  35 H :    0.131199
  36 H :    0.147378

  Mayer bond orders larger than 0.100000
B(  0-C ,  6-C ) :   0.9070 B(  0-C , 15-C ) :   0.9482 B(  0-C , 35-H ) :   0.9926
B(  0-C , 36-H ) :   0.9898 B(  1-C ,  2-C ) :   0.9374 B(  1-C , 17-C ) :   0.9600
B(  1-C , 20-H ) :   0.9755 B(  1-C , 21-H ) :   0.9732 B(  2-C ,  3-H ) :   0.9687
B(  2-C ,  4-H ) :   0.9507 B(  2-C ,  5-C ) :   0.9695 B(  5-C , 13-F ) :   1.0771
B(  5-C , 14-O ) :   2.0109 B(  6-C ,  7-C ) :   1.7606 B(  6-C ,  8-N ) :   1.1462
B(  7-C , 11-H ) :   1.0057 B(  7-C , 12-H ) :   0.9826 B(  8-N ,  9-H ) :   0.9092
B(  8-N , 10-H ) :   0.9365 B( 15-C , 22-C ) :   0.9508 B( 15-C , 23-H ) :   0.9790
B( 15-C , 24-H ) :   0.9771 B( 16-C , 17-C ) :   0.8975 B( 16-C , 28-C ) :   0.9617
B( 16-C , 31-H ) :   0.9812 B( 16-C , 32-H ) :   0.9779 B( 17-C , 18-H ) :   0.9779
B( 17-C , 19-H ) :   0.9754 B( 22-C , 25-C ) :   0.9427 B( 22-C , 26-H ) :   0.9825
B( 22-C , 27-H ) :   0.9705 B( 25-C , 28-C ) :   0.9480 B( 25-C , 29-H ) :   0.9830
B( 25-C , 30-H ) :   0.9819 B( 28-C , 33-H ) :   0.9841 B( 28-C , 34-H ) :   0.9875

FINAL SINGLE POINT ENERGY      -700.201594508464

DIPOLE MOMENT
-------------
                                X             Y             Z
Electronic contribution:      1.18700       7.40206      14.94955
Nuclear contribution   :     -1.66567      -5.90236     -15.95042
                        -----------------------------------------
Total Dipole Moment    :     -0.47867       1.49970      -1.00088
                        -----------------------------------------
Magnitude (a.u.)       :      1.86547
Magnitude (Debye)      :      4.74164

Rotational constants in cm-1:     0.021600     0.017292     0.011381
Rotational constants in MHz :   647.565282   518.410024   341.193038

                             ****ORCA TERMINATED NORMALLY****
TOTAL RUN TIME: 0 days 0 hours 1 minutes 45 seconds 422 msec
