                         Program Version 5.0.0 -  RELEASE  -
|  1> !CAM-B3LYP RIJCOSX def2-TZVP def2/J TightSCF xyzfile
|  2>
|  3> *xyzfile 0 1 D2.xyz
|  4>
|  5> %MaxCore 64000
|  6>
|  7> %pal nprocs 18
|  8> end
|  9>
| 10> %scf
| 11>   MaxIter 150
| 12> end
| 13>
| 14>
| 15>                          ****END OF INPUT****

CARTESIAN COORDINATES (ANGSTROEM)
---------------------------------
  C      4.602954   -2.440100    2.634780
  C     -0.914947    0.615112    2.505538
  C     -0.059146    1.503524    3.410578
  H      0.365364    2.344315    2.861161
  H     -0.692261    1.920207    4.198985
  C      1.083027    0.749640    4.085705
  C      3.860851   -1.591565    3.622893
  N      2.756502   -2.046159    4.166333
  C      4.254325   -0.362905    3.860455
  H      3.565256    0.310994    4.168983
  H      5.054292   -0.016059    3.337838
  H      2.439696   -2.973894    3.897395
  H      2.066869   -1.412532    4.549813
  F      2.228167    1.263475    4.019826
  O      0.810034   -0.345411    4.636269
  C      3.744685   -2.580557    1.361882
  C      0.772139    0.636882    0.562129
  C     -0.130740   -0.193985    1.470763
  H     -0.840563   -0.760165    0.856377
  H      0.466691   -0.938942    2.006959
  H     -1.647961    1.245963    1.991076
  H     -1.478180   -0.081046    3.130424
  C      3.203721   -1.256004    0.826211
  H      2.898939   -3.239289    1.583074
  H      4.334962   -3.095523    0.600188
  C      2.107815   -1.442385   -0.216865
  H      2.786775   -0.672760    1.650711
  H      4.021008   -0.652993    0.414046
  C      1.390662   -0.145912   -0.602422
  H      1.372179   -2.152184    0.176151
  H      2.523302   -1.906787   -1.117115
  H      1.561361    1.100094    1.161831
  H      0.195516    1.468325    0.142758
  H      0.602893   -0.398214   -1.319716
  H      2.087247    0.508272   -1.137335
  H      5.561557   -1.971347    2.407084
  H      4.810498   -3.422552    3.063099

 Total Charge           Charge          ....    0
 Multiplicity           Mult            ....    1
 Number of Electrons    NEL             ....  118
 Basis Dimension        Dim             ....  597

ORBITAL ENERGIES
----------------

  NO   OCC          E(Eh)            E(eV)
   0   2.0000     -24.843255      -676.0193
   1   2.0000     -19.229365      -523.2576
   2   2.0000     -14.352271      -390.5452
   3   2.0000     -10.449352      -284.3413
   4   2.0000     -10.284643      -279.8594
   5   2.0000     -10.262671      -279.2615
   6   2.0000     -10.247048      -278.8363
   7   2.0000     -10.244248      -278.7601
   8   2.0000     -10.242869      -278.7226
   9   2.0000     -10.238824      -278.6126
  10   2.0000     -10.233454      -278.4664
  11   2.0000     -10.232336      -278.4360
  12   2.0000     -10.229301      -278.3534
  13   2.0000     -10.226083      -278.2659
  14   2.0000     -10.145465      -276.0722
  15   2.0000      -1.423231       -38.7281
  16   2.0000      -1.146513       -31.1982
  17   2.0000      -0.991360       -26.9763
  18   2.0000      -0.918754       -25.0006
  19   2.0000      -0.890745       -24.2384
  20   2.0000      -0.863584       -23.4993
  21   2.0000      -0.828199       -22.5364
  22   2.0000      -0.796792       -21.6818
  23   2.0000      -0.783076       -21.3086
  24   2.0000      -0.749657       -20.3992
  25   2.0000      -0.728164       -19.8143
  26   2.0000      -0.690416       -18.7872
  27   2.0000      -0.663508       -18.0550
  28   2.0000      -0.646291       -17.5865
  29   2.0000      -0.639476       -17.4010
  30   2.0000      -0.631725       -17.1901
  31   2.0000      -0.623940       -16.9783
  32   2.0000      -0.600466       -16.3395
  33   2.0000      -0.570866       -15.5341
  34   2.0000      -0.558300       -15.1921
  35   2.0000      -0.551037       -14.9945
  36   2.0000      -0.533945       -14.5294
  37   2.0000      -0.524482       -14.2719
  38   2.0000      -0.514321       -13.9954
  39   2.0000      -0.504189       -13.7197
  40   2.0000      -0.493414       -13.4265
  41   2.0000      -0.479262       -13.0414
  42   2.0000      -0.476050       -12.9540
  43   2.0000      -0.463165       -12.6034
  44   2.0000      -0.449007       -12.2181
  45   2.0000      -0.441521       -12.0144
  46   2.0000      -0.436757       -11.8847
  47   2.0000      -0.433488       -11.7958
  48   2.0000      -0.418818       -11.3966
  49   2.0000      -0.414521       -11.2797
  50   2.0000      -0.408266       -11.1095
  51   2.0000      -0.395018       -10.7490
  52   2.0000      -0.388483       -10.5712
  53   2.0000      -0.385045       -10.4776
  54   2.0000      -0.378921       -10.3110
  55   2.0000      -0.376316       -10.2401
  56   2.0000      -0.366904        -9.9840
  57   2.0000      -0.357508        -9.7283
  58   2.0000      -0.228593        -6.2203
  59   0.0000      -0.001777        -0.0484
  60   0.0000       0.060486         1.6459
  61   0.0000       0.072754         1.9797
  62   0.0000       0.081594         2.2203
  63   0.0000       0.085678         2.3314

MULLIKEN ATOMIC CHARGES
-----------------------
   0 C :   -0.218758
   1 C :   -0.173840
   2 C :   -0.244240
   3 H :    0.141914
   4 H :    0.150122
   5 C :    0.411339
   6 C :    0.118960
   7 N :   -0.410322
   8 C :   -0.372870
   9 H :    0.071613
  10 H :    0.072611
  11 H :    0.205391
  12 H :    0.250650
  13 F :   -0.093010
  14 O :   -0.360265
  15 C :   -0.223883
  16 C :   -0.259473
  17 C :   -0.275944
  18 H :    0.114046
  19 H :    0.139236
  20 H :    0.116888
  21 H :    0.126436
  22 C :   -0.203351
  23 H :    0.099303
  24 H :    0.104055
  25 C :   -0.198848
  26 H :    0.114372
  27 H :    0.091581
  28 C :   -0.176311
  29 H :    0.109084
  30 H :    0.104391
  31 H :    0.124643
  32 H :    0.108164
  33 H :    0.106597
  34 H :    0.104368
  35 H :    0.110101
  36 H :    0.115247
Sum of atomic charges:   -0.0000000

LOEWDIN ATOMIC CHARGES
----------------------
   0 C :   -0.213307
   1 C :   -0.255407
   2 C :   -0.228780
   3 H :    0.146120
   4 H :    0.160833
   5 C :   -0.467106
   6 C :   -0.382898
   7 N :    0.006072
   8 C :   -0.298570
   9 H :    0.089129
  10 H :    0.101032
  11 H :    0.163723
  12 H :    0.147847
  13 F :    0.349285
  14 O :    0.078712
  15 C :   -0.257675
  16 C :   -0.272385
  17 C :   -0.269690
  18 H :    0.140640
  19 H :    0.139929
  20 H :    0.141312
  21 H :    0.145203
  22 C :   -0.261431
  23 H :    0.130717
  24 H :    0.133703
  25 C :   -0.270814
  26 H :    0.142159
  27 H :    0.135384
  28 C :   -0.265393
  29 H :    0.134451
  30 H :    0.134383
  31 H :    0.132760
  32 H :    0.136199
  33 H :    0.135823
  34 H :    0.136102
  35 H :    0.145606
  36 H :    0.136332

  Mayer bond orders larger than 0.100000
B(  0-C ,  6-C ) :   0.9326 B(  0-C , 15-C ) :   0.9293 B(  0-C , 35-H ) :   0.9879
B(  0-C , 36-H ) :   0.9928 B(  1-C ,  2-C ) :   0.9339 B(  1-C , 17-C ) :   0.9586
B(  1-C , 20-H ) :   0.9750 B(  1-C , 21-H ) :   0.9750 B(  2-C ,  3-H ) :   0.9700
B(  2-C ,  4-H ) :   0.9488 B(  2-C ,  5-C ) :   0.9703 B(  5-C , 13-F ) :   1.1457
B(  5-C , 14-O ) :   1.9373 B(  6-C ,  7-N ) :   1.1840 B(  6-C ,  8-C ) :   1.7619
B(  7-N , 11-H ) :   0.9402 B(  7-N , 12-H ) :   0.8598 B(  8-C ,  9-H ) :   0.9970
B(  8-C , 10-H ) :   1.0014 B( 12-H , 14-O ) :   0.1047 B( 15-C , 22-C ) :   0.9291
B( 15-C , 23-H ) :   0.9932 B( 15-C , 24-H ) :   0.9756 B( 16-C , 17-C ) :   0.8986
B( 16-C , 28-C ) :   0.9621 B( 16-C , 31-H ) :   0.9795 B( 16-C , 32-H ) :   0.9777
B( 17-C , 18-H ) :   0.9777 B( 17-C , 19-H ) :   0.9785 B( 22-C , 25-C ) :   0.9274
B( 22-C , 26-H ) :   0.9991 B( 22-C , 27-H ) :   0.9708 B( 25-C , 28-C ) :   0.9493
B( 25-C , 29-H ) :   0.9831 B( 25-C , 30-H ) :   0.9828 B( 28-C , 33-H ) :   0.9839
B( 28-C , 34-H ) :   0.9870

FINAL SINGLE POINT ENERGY      -700.212019769931

DIPOLE MOMENT
-------------
                                X             Y             Z
Electronic contribution:      0.05486       6.24595      15.12199
Nuclear contribution   :     -1.39991      -5.60370     -16.00470
                        -----------------------------------------
Total Dipole Moment    :     -1.34504       0.64224      -0.88271
                        -----------------------------------------
Magnitude (a.u.)       :      1.73228
Magnitude (Debye)      :      4.40311

Rotational constants in cm-1:     0.021622     0.017313     0.011402
Rotational constants in MHz :   648.226014   519.043632   341.814105

                             ****ORCA TERMINATED NORMALLY****
TOTAL RUN TIME: 0 days 0 hours 1 minutes 48 seconds 92 msec
