                         Program Version 5.0.0 -  RELEASE  -
|  1> !CAM-B3LYP RIJCOSX def2-TZVP def2/J TightSCF xyzfile
|  2>
|  3> *xyzfile 0 1 D4.xyz
|  4>
|  5> %MaxCore 64000
|  6>
|  7> %pal nprocs 18
|  8> end
|  9>
| 10> %scf
| 11>   MaxIter 150
| 12> end
| 13>
| 14>
| 15>                          ****END OF INPUT****

CARTESIAN COORDINATES (ANGSTROEM)
---------------------------------
  C      4.602954   -2.440100    2.634780
  C     -0.914947    0.615112    2.505538
  C     -0.059146    1.503524    3.410578
  H      0.365364    2.344315    2.861161
  H     -0.692261    1.920207    4.198985
  C      1.083027    0.749640    4.085705
  C      3.860851   -1.591565    3.622893
  N      2.756502   -2.046159    4.166333
  C      4.254325   -0.362905    3.860455
  H      3.565256    0.310994    4.168983
  H      5.054292   -0.016059    3.337838
  H      2.439696   -2.973894    3.897395
  H      2.066869   -1.412532    4.549813
  O      2.228167    1.263475    4.019826
  F      0.810034   -0.345411    4.636269
  C      3.744685   -2.580557    1.361882
  C      0.772139    0.636882    0.562129
  C     -0.130740   -0.193985    1.470763
  H     -0.840563   -0.760165    0.856377
  H      0.466691   -0.938942    2.006959
  H     -1.647961    1.245963    1.991076
  H     -1.478180   -0.081046    3.130424
  C      3.203721   -1.256004    0.826211
  H      2.898939   -3.239289    1.583074
  H      4.334962   -3.095523    0.600188
  C      2.107815   -1.442385   -0.216865
  H      2.786775   -0.672760    1.650711
  H      4.021008   -0.652993    0.414046
  C      1.390662   -0.145912   -0.602422
  H      1.372179   -2.152184    0.176151
  H      2.523302   -1.906787   -1.117115
  H      1.561361    1.100094    1.161831
  H      0.195516    1.468325    0.142758
  H      0.602893   -0.398214   -1.319716
  H      2.087247    0.508272   -1.137335
  H      5.561557   -1.971347    2.407084
  H      4.810498   -3.422552    3.063099

 Total Charge           Charge          ....    0
 Multiplicity           Mult            ....    1
 Number of Electrons    NEL             ....  118
 Basis Dimension        Dim             ....  597

ORBITAL ENERGIES
----------------

  NO   OCC          E(Eh)            E(eV)
   0   2.0000     -24.854960      -676.3378
   1   2.0000     -19.219398      -522.9864
   2   2.0000     -14.365011      -390.8918
   3   2.0000     -10.443218      -284.1744
   4   2.0000     -10.282342      -279.7968
   5   2.0000     -10.265251      -279.3317
   6   2.0000     -10.250729      -278.9365
   7   2.0000     -10.241488      -278.6851
   8   2.0000     -10.238072      -278.5921
   9   2.0000     -10.237091      -278.5654
  10   2.0000     -10.231924      -278.4248
  11   2.0000     -10.231114      -278.4028
  12   2.0000     -10.227601      -278.3072
  13   2.0000     -10.223379      -278.1923
  14   2.0000     -10.135209      -275.7931
  15   2.0000      -1.434063       -39.0228
  16   2.0000      -1.136147       -30.9161
  17   2.0000      -0.998049       -27.1583
  18   2.0000      -0.920627       -25.0515
  19   2.0000      -0.890060       -24.2198
  20   2.0000      -0.863490       -23.4968
  21   2.0000      -0.825765       -22.4702
  22   2.0000      -0.799121       -21.7452
  23   2.0000      -0.773814       -21.0566
  24   2.0000      -0.759810       -20.6755
  25   2.0000      -0.726550       -19.7704
  26   2.0000      -0.693072       -18.8595
  27   2.0000      -0.665064       -18.0973
  28   2.0000      -0.658858       -17.9284
  29   2.0000      -0.649784       -17.6815
  30   2.0000      -0.630025       -17.1438
  31   2.0000      -0.616927       -16.7874
  32   2.0000      -0.594012       -16.1639
  33   2.0000      -0.572778       -15.5861
  34   2.0000      -0.558939       -15.2095
  35   2.0000      -0.554704       -15.0943
  36   2.0000      -0.531743       -14.4695
  37   2.0000      -0.517365       -14.0782
  38   2.0000      -0.511665       -13.9231
  39   2.0000      -0.505880       -13.7657
  40   2.0000      -0.489456       -13.3188
  41   2.0000      -0.483462       -13.1557
  42   2.0000      -0.477531       -12.9943
  43   2.0000      -0.457760       -12.4563
  44   2.0000      -0.450941       -12.2707
  45   2.0000      -0.442809       -12.0494
  46   2.0000      -0.439538       -11.9604
  47   2.0000      -0.427814       -11.6414
  48   2.0000      -0.422205       -11.4888
  49   2.0000      -0.414038       -11.2665
  50   2.0000      -0.409890       -11.1537
  51   2.0000      -0.394657       -10.7392
  52   2.0000      -0.388187       -10.5631
  53   2.0000      -0.386562       -10.5189
  54   2.0000      -0.376117       -10.2347
  55   2.0000      -0.372128       -10.1261
  56   2.0000      -0.365040        -9.9332
  57   2.0000      -0.335757        -9.1364
  58   2.0000      -0.226844        -6.1728
  59   0.0000       0.004990         0.1358
  60   0.0000       0.055707         1.5159
  61   0.0000       0.070720         1.9244
  62   0.0000       0.080294         2.1849
  63   0.0000       0.087507         2.3812

MULLIKEN ATOMIC CHARGES
-----------------------
   0 C :   -0.221302
   1 C :   -0.210005
   2 C :   -0.232428
   3 H :    0.155712
   4 H :    0.143691
   5 C :    0.386739
   6 C :    0.117538
   7 N :   -0.424554
   8 C :   -0.367269
   9 H :    0.121330
  10 H :    0.065624
  11 H :    0.212430
  12 H :    0.224497
  13 O :   -0.310243
  14 F :   -0.131330
  15 C :   -0.216727
  16 C :   -0.270033
  17 C :   -0.250664
  18 H :    0.115622
  19 H :    0.117650
  20 H :    0.119926
  21 H :    0.122852
  22 C :   -0.224627
  23 H :    0.094573
  24 H :    0.104360
  25 C :   -0.194835
  26 H :    0.134991
  27 H :    0.092604
  28 C :   -0.177307
  29 H :    0.104573
  30 H :    0.104094
  31 H :    0.151405
  32 H :    0.106960
  33 H :    0.104588
  34 H :    0.105431
  35 H :    0.111987
  36 H :    0.112148
Sum of atomic charges:   -0.0000000

LOEWDIN ATOMIC CHARGES
----------------------
   0 C :   -0.215627
   1 C :   -0.265394
   2 C :   -0.226850
   3 H :    0.157450
   4 H :    0.155477
   5 C :   -0.480649
   6 C :   -0.389176
   7 N :   -0.005842
   8 C :   -0.275121
   9 H :    0.091126
  10 H :    0.100833
  11 H :    0.164935
  12 H :    0.152029
  13 O :    0.102745
  14 F :    0.336064
  15 C :   -0.259264
  16 C :   -0.271012
  17 C :   -0.270688
  18 H :    0.140663
  19 H :    0.134882
  20 H :    0.142307
  21 H :    0.139445
  22 C :   -0.260687
  23 H :    0.128826
  24 H :    0.133494
  25 C :   -0.271547
  26 H :    0.144911
  27 H :    0.136295
  28 C :   -0.265600
  29 H :    0.132921
  30 H :    0.134174
  31 H :    0.139819
  32 H :    0.136207
  33 H :    0.134900
  34 H :    0.136767
  35 H :    0.146602
  36 H :    0.134585

  Mayer bond orders larger than 0.100000
B(  0-C ,  6-C ) :   0.9352 B(  0-C , 15-C ) :   0.9285 B(  0-C , 35-H ) :   0.9877
B(  0-C , 36-H ) :   0.9935 B(  1-C ,  2-C ) :   0.9156 B(  1-C , 17-C ) :   0.9415
B(  1-C , 20-H ) :   0.9725 B(  1-C , 21-H ) :   0.9870 B(  2-C ,  3-H ) :   0.9739
B(  2-C ,  4-H ) :   0.9527 B(  2-C ,  5-C ) :   0.9800 B(  5-C , 13-O ) :   2.0069
B(  5-C , 14-F ) :   1.0785 B(  6-C ,  7-N ) :   1.1347 B(  6-C ,  8-C ) :   1.7811
B(  7-N , 11-H ) :   0.9386 B(  7-N , 12-H ) :   0.9037 B(  8-C ,  9-H ) :   0.9825
B(  8-C , 10-H ) :   1.0003 B( 15-C , 22-C ) :   0.9191 B( 15-C , 23-H ) :   0.9954
B( 15-C , 24-H ) :   0.9756 B( 16-C , 17-C ) :   0.8963 B( 16-C , 28-C ) :   0.9595
B( 16-C , 31-H ) :   0.9764 B( 16-C , 32-H ) :   0.9771 B( 17-C , 18-H ) :   0.9774
B( 17-C , 19-H ) :   0.9831 B( 22-C , 25-C ) :   0.9203 B( 22-C , 26-H ) :   1.0036
B( 22-C , 27-H ) :   0.9713 B( 25-C , 28-C ) :   0.9498 B( 25-C , 29-H ) :   0.9841
B( 25-C , 30-H ) :   0.9826 B( 28-C , 33-H ) :   0.9848 B( 28-C , 34-H ) :   0.9865

FINAL SINGLE POINT ENERGY      -700.200250726162

DIPOLE MOMENT
-------------
                                X             Y             Z
Electronic contribution:     -2.29050       3.58254      16.20095
Nuclear contribution   :      0.32481      -3.64700     -16.75441
                        -----------------------------------------
Total Dipole Moment    :     -1.96570      -0.06446      -0.55345
                        -----------------------------------------
Magnitude (a.u.)       :      2.04314
Magnitude (Debye)      :      5.19326

Rotational constants in cm-1:     0.021629     0.017327     0.011372
Rotational constants in MHz :   648.414821   519.443407   340.925013

                             ****ORCA TERMINATED NORMALLY****
TOTAL RUN TIME: 0 days 0 hours 1 minutes 45 seconds 152 msec
