                         Program Version 5.0.0 -  RELEASE  -
|  1> !PBE D3BJ RIJCOSX def2-SVPD def2/J TightSCF
|  2> *xyz -1 1
|  3> C         -0.91495        0.61511        2.50554
|  4> C         -0.05915        1.50352        3.41058
|  5> H          0.36536        2.34431        2.86116
|  6> H         -0.69226        1.92021        4.19898
|  7> C          1.08303        0.74964        4.08571
|  8> O          2.22817        1.26348        4.01983
|  9> O          0.81003       -0.34541        4.63627
| 10> C         -0.13074       -0.19398        1.47076
| 11> H         -1.64796        1.24596        1.99108
| 12> H         -1.47818       -0.08105        3.13042
| 13> H         -0.80952       -0.78099        0.88803
| 14> H          0.55985       -0.83974        1.97175
| 15> H          0.40595        0.47288        0.82877
| 16> *
| 17>
| 18> %MaxCore 64000
| 19>
| 20> %pal nprocs 4
| 21> end
| 22>
| 23> %scf
| 24>   MaxIter 150
| 25> end
| 26>
| 27>
| 28>                          ****END OF INPUT****

CARTESIAN COORDINATES (ANGSTROEM)
---------------------------------
  C     -0.914950    0.615110    2.505540
  C     -0.059150    1.503520    3.410580
  H      0.365360    2.344310    2.861160
  H     -0.692260    1.920210    4.198980
  C      1.083030    0.749640    4.085710
  O      2.228170    1.263480    4.019830
  O      0.810030   -0.345410    4.636270
  C     -0.130740   -0.193980    1.470760
  H     -1.647960    1.245960    1.991080
  H     -1.478180   -0.081050    3.130420
  H     -0.809520   -0.780990    0.888030
  H      0.559850   -0.839740    1.971750
  H      0.405950    0.472880    0.828770

 Total Charge           Charge          ....   -1
 Multiplicity           Mult            ....    1
 Number of Electrons    NEL             ....   48
 Basis Dimension        Dim             ....  182

ORBITAL ENERGIES
----------------

  NO   OCC          E(Eh)            E(eV)
   0   2.0000     -18.509209      -503.6612
   1   2.0000     -18.508109      -503.6313
   2   2.0000      -9.774959      -265.9902
   3   2.0000      -9.747289      -265.2372
   4   2.0000      -9.739888      -265.0358
   5   2.0000      -9.722602      -264.5654
   6   2.0000      -0.728724       -19.8296
   7   2.0000      -0.639681       -17.4066
   8   2.0000      -0.558358       -15.1937
   9   2.0000      -0.470076       -12.7914
  10   2.0000      -0.380006       -10.3405
  11   2.0000      -0.274282        -7.4636
  12   2.0000      -0.256495        -6.9796
  13   2.0000      -0.237725        -6.4688
  14   2.0000      -0.209258        -5.6942
  15   2.0000      -0.183193        -4.9849
  16   2.0000      -0.170983        -4.6527
  17   2.0000      -0.162453        -4.4206
  18   2.0000      -0.149602        -4.0709
  19   2.0000      -0.131130        -3.5682
  20   2.0000      -0.122215        -3.3256
  21   2.0000      -0.017755        -0.4832
  22   2.0000      -0.002680        -0.0729
  23   2.0000       0.014086         0.3833
  24   0.0000       0.129910         3.5350
  25   0.0000       0.154373         4.2007
  26   0.0000       0.171500         4.6668
  27   0.0000       0.181330         4.9342
  28   0.0000       0.196247         5.3402

MULLIKEN ATOMIC CHARGES
-----------------------
   0 C :   -0.451645
   1 C :    0.115767
   2 H :   -0.003033
   3 H :   -0.031271
   4 C :    0.339793
   5 O :   -0.638297
   6 O :   -0.692413
   7 C :    0.649009
   8 H :   -0.175693
   9 H :    0.027142
  10 H :   -0.077727
  11 H :   -0.040575
  12 H :   -0.021057
Sum of atomic charges:   -1.0000000

LOEWDIN ATOMIC CHARGES
----------------------
   0 C :   -0.098280
   1 C :   -0.007820
   2 H :   -0.000517
   3 H :    0.010021
   4 C :   -0.329821
   5 O :   -0.309304
   6 O :   -0.298700
   7 C :    0.112857
   8 H :   -0.003555
   9 H :    0.009908
  10 H :   -0.037685
  11 H :   -0.022029
  12 H :   -0.025075

  Mayer bond orders larger than 0.100000
B(  0-C ,  1-C ) :   1.2292 B(  0-C ,  2-H ) :   0.1510 B(  0-C ,  3-H ) :   0.1307
B(  0-C ,  7-C ) :   1.3744 B(  0-C ,  8-H ) :   0.9840 B(  0-C ,  9-H ) :   0.8703
B(  0-C , 10-H ) :   0.2324 B(  0-C , 11-H ) :   0.2261 B(  0-C , 12-H ) :   0.2165
B(  1-C ,  2-H ) :   0.8671 B(  1-C ,  3-H ) :   0.8244 B(  1-C ,  4-C ) :   1.0709
B(  1-C ,  8-H ) :   0.1140 B(  1-C ,  9-H ) :   0.1341 B(  2-H ,  4-C ) :   0.2219
B(  3-H ,  4-C ) :   0.1092 B(  4-C ,  5-O ) :   1.4187 B(  4-C ,  6-O ) :   1.4886
B(  7-C ,  8-H ) :   0.1072 B(  7-C , 10-H ) :   0.7482 B(  7-C , 11-H ) :   0.8304
B(  7-C , 12-H ) :   0.7844

Dispersion correction           -0.009878687
FINAL SINGLE POINT ENERGY      -306.592232181386

DIPOLE MOMENT
-------------
                                X             Y             Z
Electronic contribution:      4.67648       0.17407       5.57399
Nuclear contribution   :     -6.45806       0.15825      -7.12052
                        -----------------------------------------
Total Dipole Moment    :     -1.78158       0.33232      -1.54654
                        -----------------------------------------
Magnitude (a.u.)       :      2.38249
Magnitude (Debye)      :      6.05580

Rotational constants in cm-1:     0.199323     0.080770     0.077827
Rotational constants in MHz :  5975.562678  2421.415024  2333.195390

                             ****ORCA TERMINATED NORMALLY****
TOTAL RUN TIME: 0 days 0 hours 0 minutes 6 seconds 583 msec
