                         Program Version 5.0.0 -  RELEASE  -
|  1> !PBE D3BJ RIJCOSX def2-SVPD def2/J TightSCF
|  2> *xyz 1 1
|  3> C          4.60295       -2.44010        2.63478
|  4> C          3.86085       -1.59157        3.62289
|  5> N          2.75650       -2.04616        4.16633
|  6> N          4.25433       -0.36291        3.86046
|  7> H          3.56526        0.31099        4.16898
|  8> H          5.05429       -0.01606        3.33784
|  9> H          2.43970       -2.97389        3.89740
| 10> H          2.06687       -1.41253        4.54981
| 11> C          3.74469       -2.58056        1.36188
| 12> C          3.20372       -1.25600        0.82621
| 13> H          2.89894       -3.23929        1.58307
| 14> H          4.33496       -3.09552        0.60019
| 15> H          5.56156       -1.97135        2.40708
| 16> H          4.81050       -3.42255        3.06310
| 17> H          2.62184       -1.43789       -0.05313
| 18> H          4.02069       -0.60826        0.58562
| 19> H          2.58975       -0.79418        1.57097
| 20> *
| 21>
| 22> %MaxCore 64000
| 23>
| 24> %pal nprocs 4
| 25> end
| 26>
| 27> %scf
| 28>   MaxIter 150
| 29> end
| 30>
| 31>
| 32>                          ****END OF INPUT****

CARTESIAN COORDINATES (ANGSTROEM)
---------------------------------
  C      4.602950   -2.440100    2.634780
  C      3.860850   -1.591570    3.622890
  N      2.756500   -2.046160    4.166330
  N      4.254330   -0.362910    3.860460
  H      3.565260    0.310990    4.168980
  H      5.054290   -0.016060    3.337840
  H      2.439700   -2.973890    3.897400
  H      2.066870   -1.412530    4.549810
  C      3.744690   -2.580560    1.361880
  C      3.203720   -1.256000    0.826210
  H      2.898940   -3.239290    1.583070
  H      4.334960   -3.095520    0.600190
  H      5.561560   -1.971350    2.407080
  H      4.810500   -3.422550    3.063100
  H      2.621840   -1.437890   -0.053130
  H      4.020690   -0.608260    0.585620
  H      2.589750   -0.794180    1.570970

 Total Charge           Charge          ....    1
 Multiplicity           Mult            ....    1
 Number of Electrons    NEL             ....   48
 Basis Dimension        Dim             ....  208

ORBITAL ENERGIES
----------------

  NO   OCC          E(Eh)            E(eV)
   0   2.0000     -14.243307      -387.5801
   1   2.0000     -14.243035      -387.5727
   2   2.0000     -10.206628      -277.7365
   3   2.0000     -10.093104      -274.6473
   4   2.0000     -10.065443      -273.8946
   5   2.0000     -10.032144      -272.9885
   6   2.0000      -1.116198       -30.3733
   7   2.0000      -1.024383       -27.8749
   8   2.0000      -0.900464       -24.5029
   9   2.0000      -0.819011       -22.2864
  10   2.0000      -0.773913       -21.0593
  11   2.0000      -0.725968       -19.7546
  12   2.0000      -0.719142       -19.5689
  13   2.0000      -0.677484       -18.4353
  14   2.0000      -0.648490       -17.6463
  15   2.0000      -0.617752       -16.8099
  16   2.0000      -0.581572       -15.8254
  17   2.0000      -0.549195       -14.9444
  18   2.0000      -0.531396       -14.4600
  19   2.0000      -0.522968       -14.2307
  20   2.0000      -0.471663       -12.8346
  21   2.0000      -0.468962       -12.7611
  22   2.0000      -0.457511       -12.4495
  23   2.0000      -0.454344       -12.3633
  24   0.0000      -0.249773        -6.7967
  25   0.0000      -0.181003        -4.9253
  26   0.0000      -0.141341        -3.8461
  27   0.0000      -0.138401        -3.7661
  28   0.0000      -0.110124        -2.9966

MULLIKEN ATOMIC CHARGES
-----------------------
   0 C :    0.323006
   1 C :    0.446276
   2 N :    0.078676
   3 N :    0.049382
   4 H :   -0.081357
   5 H :    0.079467
   6 H :    0.073787
   7 H :   -0.123416
   8 C :   -0.349957
   9 C :    0.820683
  10 H :    0.024633
  11 H :   -0.167131
  12 H :    0.027488
  13 H :   -0.015289
  14 H :   -0.128683
  15 H :   -0.017976
  16 H :   -0.039589
Sum of atomic charges:    1.0000000

LOEWDIN ATOMIC CHARGES
----------------------
   0 C :    0.051541
   1 C :   -0.087861
   2 N :    0.302335
   3 N :    0.302022
   4 H :    0.048651
   5 H :    0.051636
   6 H :    0.052023
   7 H :    0.049754
   8 C :   -0.041698
   9 C :    0.142959
  10 H :    0.025621
  11 H :    0.043505
  12 H :    0.039944
  13 H :    0.049796
  14 H :    0.003294
  15 H :   -0.004678
  16 H :   -0.028845

  Mayer bond orders larger than 0.100000
B(  0-C ,  1-C ) :   1.1930 B(  0-C ,  8-C ) :   1.1736 B(  0-C , 10-H ) :   0.1096
B(  0-C , 11-H ) :   0.1152 B(  0-C , 12-H ) :   0.7636 B(  0-C , 13-H ) :   0.7928
B(  1-C ,  2-N ) :   1.1244 B(  1-C ,  3-N ) :   1.0861 B(  1-C ,  4-H ) :  -0.1396
B(  1-C ,  7-H ) :  -0.1269 B(  1-C , 12-H ) :   0.1849 B(  1-C , 13-H ) :   0.1835
B(  2-N ,  3-N ) :   0.2085 B(  2-N ,  6-H ) :   1.0142 B(  2-N ,  7-H ) :   1.2324
B(  3-N ,  4-H ) :   1.2073 B(  3-N ,  5-H ) :   0.9932 B(  4-H ,  5-H ) :  -0.1443
B(  6-H ,  7-H ) :  -0.1629 B(  8-C ,  9-C ) :   1.3885 B(  8-C , 10-H ) :   0.8673
B(  8-C , 11-H ) :   0.9795 B(  8-C , 12-H ) :   0.1387 B(  8-C , 14-H ) :   0.2348
B(  8-C , 15-H ) :   0.2079 B(  8-C , 16-H ) :   0.2412 B(  9-C , 14-H ) :   0.7433
B(  9-C , 15-H ) :   0.7531 B(  9-C , 16-H ) :   0.7859

Dispersion correction           -0.014226083
FINAL SINGLE POINT ENERGY      -267.823979120160

DIPOLE MOMENT
-------------
                                X             Y             Z
Electronic contribution:      0.49038       0.57297       5.20312
Nuclear contribution   :     -0.82989      -0.08664      -4.26094
                        -----------------------------------------
Total Dipole Moment    :     -0.33951       0.48633       0.94218
                        -----------------------------------------
Magnitude (a.u.)       :      1.11333
Magnitude (Debye)      :      2.82985

Rotational constants in cm-1:     0.166042     0.084809     0.078793
Rotational constants in MHz :  4977.819890  2542.513379  2362.161076

                             ****ORCA TERMINATED NORMALLY****
TOTAL RUN TIME: 0 days 0 hours 0 minutes 8 seconds 431 msec
