                         Program Version 5.0.0 -  RELEASE  -
|  1> !PBE D3BJ RIJCOSX def2-SVPD def2/J TightSCF
|  2> *xyz 0 1
|  3> C         -0.91495        0.61511        2.50554
|  4> C         -0.05915        1.50352        3.41058
|  5> H          0.36536        2.34431        2.86116
|  6> H         -0.69226        1.92021        4.19898
|  7> C          1.08303        0.74964        4.08571
|  8> F          2.22817        1.26348        4.01983
|  9> O          0.81003       -0.34541        4.63627
| 10> C         -0.13074       -0.19398        1.47076
| 11> H         -1.64796        1.24596        1.99108
| 12> H         -1.47818       -0.08105        3.13042
| 13> H         -0.80952       -0.78099        0.88803
| 14> H          0.55985       -0.83974        1.97175
| 15> H          0.40595        0.47288        0.82877
| 16> *
| 17>
| 18> %MaxCore 64000
| 19>
| 20> %pal nprocs 4
| 21> end
| 22>
| 23> %scf
| 24>   MaxIter 150
| 25> end
| 26>
| 27>
| 28>                          ****END OF INPUT****

CARTESIAN COORDINATES (ANGSTROEM)
---------------------------------
  C     -0.914950    0.615110    2.505540
  C     -0.059150    1.503520    3.410580
  H      0.365360    2.344310    2.861160
  H     -0.692260    1.920210    4.198980
  C      1.083030    0.749640    4.085710
  F      2.228170    1.263480    4.019830
  O      0.810030   -0.345410    4.636270
  C     -0.130740   -0.193980    1.470760
  H     -1.647960    1.245960    1.991080
  H     -1.478180   -0.081050    3.130420
  H     -0.809520   -0.780990    0.888030
  H      0.559850   -0.839740    1.971750
  H      0.405950    0.472880    0.828770

 Total Charge           Charge          ....    0
 Multiplicity           Mult            ....    1
 Number of Electrons    NEL             ....   48
 Basis Dimension        Dim             ....  182

ORBITAL ENERGIES
----------------

  NO   OCC          E(Eh)            E(eV)
   0   2.0000     -24.344670      -662.4521
   1   2.0000     -18.772898      -510.8365
   2   2.0000     -10.066754      -273.9303
   3   2.0000      -9.926375      -270.1104
   4   2.0000      -9.910822      -269.6872
   5   2.0000      -9.888104      -269.0690
   6   2.0000      -1.203574       -32.7509
   7   2.0000      -0.939602       -25.5679
   8   2.0000      -0.735148       -20.0044
   9   2.0000      -0.657334       -17.8870
  10   2.0000      -0.597254       -16.2521
  11   2.0000      -0.547760       -14.9053
  12   2.0000      -0.491760       -13.3815
  13   2.0000      -0.472569       -12.8593
  14   2.0000      -0.452249       -12.3063
  15   2.0000      -0.417800       -11.3689
  16   2.0000      -0.406658       -11.0657
  17   2.0000      -0.373707       -10.1691
  18   2.0000      -0.354090        -9.6353
  19   2.0000      -0.331265        -9.0142
  20   2.0000      -0.314987        -8.5712
  21   2.0000      -0.308964        -8.4073
  22   2.0000      -0.304452        -8.2846
  23   2.0000      -0.247785        -6.7426
  24   0.0000      -0.072437        -1.9711
  25   0.0000      -0.003551        -0.0966
  26   0.0000       0.024799         0.6748
  27   0.0000       0.030053         0.8178
  28   0.0000       0.039721         1.0809

MULLIKEN ATOMIC CHARGES
-----------------------
   0 C :   -0.379541
   1 C :    0.054025
   2 H :    0.024403
   3 H :    0.024216
   4 C :    0.692209
   5 F :   -0.325403
   6 O :   -0.505339
   7 C :    0.677309
   8 H :   -0.149627
   9 H :    0.027410
  10 H :   -0.061458
  11 H :   -0.062635
  12 H :   -0.015568
Sum of atomic charges:   -0.0000000

LOEWDIN ATOMIC CHARGES
----------------------
   0 C :   -0.067280
   1 C :    0.034167
   2 H :    0.023759
   3 H :    0.042381
   4 C :   -0.040720
   5 F :   -0.014591
   6 O :   -0.113997
   7 C :    0.132527
   8 H :    0.025213
   9 H :    0.027758
  10 H :   -0.013971
  11 H :   -0.020595
  12 H :   -0.014652

  Mayer bond orders larger than 0.100000
B(  0-C ,  1-C ) :   1.2612 B(  0-C ,  2-H ) :   0.1451 B(  0-C ,  3-H ) :   0.1316
B(  0-C ,  7-C ) :   1.4027 B(  0-C ,  8-H ) :   0.9535 B(  0-C ,  9-H ) :   0.8647
B(  0-C , 10-H ) :   0.2174 B(  0-C , 11-H ) :   0.2106 B(  0-C , 12-H ) :   0.2069
B(  1-C ,  2-H ) :   0.8659 B(  1-C ,  3-H ) :   0.8112 B(  1-C ,  4-C ) :   1.1045
B(  1-C ,  8-H ) :   0.1088 B(  1-C ,  9-H ) :   0.1215 B(  2-H ,  4-C ) :   0.1168
B(  4-C ,  5-F ) :   0.7442 B(  4-C ,  6-O ) :   1.7821 B(  5-F ,  6-O ) :   0.1109
B(  7-C ,  8-H ) :   0.1009 B(  7-C , 10-H ) :   0.7495 B(  7-C , 11-H ) :   0.8323
B(  7-C , 12-H ) :   0.7836

Dispersion correction           -0.009512659
FINAL SINGLE POINT ENERGY      -331.108493372472

DIPOLE MOMENT
-------------
                                X             Y             Z
Electronic contribution:      7.98946       1.42895       7.24265
Nuclear contribution   :     -8.39104      -0.60591      -7.87060
                        -----------------------------------------
Total Dipole Moment    :     -0.40158       0.82304      -0.62794
                        -----------------------------------------
Magnitude (a.u.)       :      1.11039
Magnitude (Debye)      :      2.82240

Rotational constants in cm-1:     0.194210     0.077092     0.074391
Rotational constants in MHz :  5822.269139  2311.145895  2230.180895

                             ****ORCA TERMINATED NORMALLY****
TOTAL RUN TIME: 0 days 0 hours 0 minutes 6 seconds 183 msec
