                         Program Version 5.0.0 -  RELEASE  -
|  1> !PBE D3BJ RIJCOSX def2-SVPD def2/J TightSCF
|  2> *xyz 0 1
|  3> C          4.60295       -2.44010        2.63478
|  4> C          3.86085       -1.59157        3.62289
|  5> C          2.75650       -2.04616        4.16633
|  6> N          4.25433       -0.36291        3.86046
|  7> H          3.56526        0.31099        4.16898
|  8> H          5.05429       -0.01606        3.33784
|  9> H          2.43970       -2.97389        3.89740
| 10> H          2.06687       -1.41253        4.54981
| 11> C          3.74469       -2.58056        1.36188
| 12> C          3.20372       -1.25600        0.82621
| 13> H          2.89894       -3.23929        1.58307
| 14> H          4.33496       -3.09552        0.60019
| 15> H          5.56156       -1.97135        2.40708
| 16> H          4.81050       -3.42255        3.06310
| 17> H          2.62184       -1.43789       -0.05313
| 18> H          4.02069       -0.60826        0.58562
| 19> H          2.58975       -0.79418        1.57097
| 20> *
| 21>
| 22> %MaxCore 64000
| 23>
| 24> %pal nprocs 4
| 25> end
| 26>
| 27> %scf
| 28>   MaxIter 150
| 29> end
| 30>
| 31>
| 32>                          ****END OF INPUT****

CARTESIAN COORDINATES (ANGSTROEM)
---------------------------------
  C      4.602950   -2.440100    2.634780
  C      3.860850   -1.591570    3.622890
  C      2.756500   -2.046160    4.166330
  N      4.254330   -0.362910    3.860460
  H      3.565260    0.310990    4.168980
  H      5.054290   -0.016060    3.337840
  H      2.439700   -2.973890    3.897400
  H      2.066870   -1.412530    4.549810
  C      3.744690   -2.580560    1.361880
  C      3.203720   -1.256000    0.826210
  H      2.898940   -3.239290    1.583070
  H      4.334960   -3.095520    0.600190
  H      5.561560   -1.971350    2.407080
  H      4.810500   -3.422550    3.063100
  H      2.621840   -1.437890   -0.053130
  H      4.020690   -0.608260    0.585620
  H      2.589750   -0.794180    1.570970

 Total Charge           Charge          ....    0
 Multiplicity           Mult            ....    1
 Number of Electrons    NEL             ....   48
 Basis Dimension        Dim             ....  208

ORBITAL ENERGIES
----------------

  NO   OCC          E(Eh)            E(eV)
   0   2.0000     -14.004697      -381.0872
   1   2.0000      -9.911678      -269.7105
   2   2.0000      -9.897249      -269.3178
   3   2.0000      -9.894062      -269.2311
   4   2.0000      -9.876789      -268.7611
   5   2.0000      -9.827562      -267.4216
   6   2.0000      -0.848419       -23.0867
   7   2.0000      -0.717957       -19.5366
   8   2.0000      -0.655792       -17.8450
   9   2.0000      -0.613816       -16.7028
  10   2.0000      -0.543400       -14.7867
  11   2.0000      -0.500972       -13.6322
  12   2.0000      -0.472067       -12.8456
  13   2.0000      -0.436040       -11.8652
  14   2.0000      -0.408521       -11.1164
  15   2.0000      -0.388109       -10.5610
  16   2.0000      -0.358251        -9.7485
  17   2.0000      -0.343287        -9.3413
  18   2.0000      -0.323538        -8.8039
  19   2.0000      -0.319008        -8.6807
  20   2.0000      -0.297123        -8.0851
  21   2.0000      -0.288628        -7.8540
  22   2.0000      -0.282152        -7.6778
  23   2.0000      -0.161810        -4.4031
  24   0.0000      -0.004190        -0.1140
  25   0.0000       0.001672         0.0455
  26   0.0000       0.027368         0.7447
  27   0.0000       0.035382         0.9628
  28   0.0000       0.040432         1.1002

MULLIKEN ATOMIC CHARGES
-----------------------
   0 C :    0.483141
   1 C :   -0.319009
   2 C :    0.358176
   3 N :    0.142979
   4 H :   -0.089406
   5 H :   -0.006162
   6 H :   -0.103294
   7 H :   -0.425373
   8 C :   -0.412595
   9 C :    0.797029
  10 H :    0.006505
  11 H :   -0.158130
  12 H :   -0.055555
  13 H :    0.000307
  14 H :   -0.202724
  15 H :   -0.015548
  16 H :   -0.000341
Sum of atomic charges:    0.0000000

LOEWDIN ATOMIC CHARGES
----------------------
   0 C :    0.010726
   1 C :   -0.285923
   2 C :    0.172210
   3 N :    0.189966
   4 H :    0.008785
   5 H :   -0.001735
   6 H :   -0.076998
   7 H :   -0.081670
   8 C :   -0.066007
   9 C :    0.123655
  10 H :    0.017861
  11 H :    0.016187
  12 H :    0.012573
  13 H :    0.027507
  14 H :   -0.019748
  15 H :   -0.019703
  16 H :   -0.027687

  Mayer bond orders larger than 0.100000
B(  0-C ,  1-C ) :   1.2249 B(  0-C ,  2-C ) :   0.1088 B(  0-C ,  8-C ) :   1.1786
B(  0-C , 10-H ) :   0.1294 B(  0-C , 11-H ) :   0.1794 B(  0-C , 12-H ) :   0.6126
B(  0-C , 13-H ) :   0.7630 B(  1-C ,  2-C ) :   1.8396 B(  1-C ,  3-N ) :   0.9752
B(  1-C ,  5-H ) :   0.1149 B(  1-C ,  7-H ) :   0.2192 B(  1-C , 12-H ) :   0.2835
B(  1-C , 13-H ) :   0.2149 B(  2-C ,  3-N ) :   0.3592 B(  2-C ,  6-H ) :   0.7502
B(  2-C ,  7-H ) :   0.7761 B(  3-N ,  4-H ) :   1.0780 B(  3-N ,  5-H ) :   0.9414
B(  4-H ,  5-H ) :  -0.1315 B(  8-C ,  9-C ) :   1.3490 B(  8-C , 10-H ) :   0.8866
B(  8-C , 11-H ) :   0.9244 B(  8-C , 12-H ) :   0.1837 B(  8-C , 14-H ) :   0.2501
B(  8-C , 15-H ) :   0.2196 B(  8-C , 16-H ) :   0.2659 B(  9-C , 10-H ) :   0.1099
B(  9-C , 11-H ) :   0.1058 B(  9-C , 14-H ) :   0.7554 B(  9-C , 15-H ) :   0.7540
B(  9-C , 16-H ) :   0.7851

Dispersion correction           -0.014668883
FINAL SINGLE POINT ENERGY      -251.367302093045

DIPOLE MOMENT
-------------
                                X             Y             Z
Electronic contribution:      1.36159       0.70840       3.44551
Nuclear contribution   :     -1.05621      -0.17147      -3.92631
                        -----------------------------------------
Total Dipole Moment    :      0.30538       0.53692      -0.48080
                        -----------------------------------------
Magnitude (a.u.)       :      0.78276
Magnitude (Debye)      :      1.98962

Rotational constants in cm-1:     0.171127     0.086782     0.080643
Rotational constants in MHz :  5130.249275  2601.647634  2417.629092

                             ****ORCA TERMINATED NORMALLY****
TOTAL RUN TIME: 0 days 0 hours 0 minutes 8 seconds 956 msec
