                         Program Version 5.0.0 -  RELEASE  -
|  1> !PBE D3BJ RIJCOSX def2-SVPD def2/J TightSCF
|  2> *xyz 0 1
|  3> C         -0.91495        0.61511        2.50554
|  4> C         -0.05915        1.50352        3.41058
|  5> H          0.36536        2.34431        2.86116
|  6> H         -0.69226        1.92021        4.19898
|  7> C          1.08303        0.74964        4.08571
|  8> O          2.22817        1.26348        4.01983
|  9> F          0.81003       -0.34541        4.63627
| 10> C         -0.13074       -0.19398        1.47076
| 11> H         -1.64796        1.24596        1.99108
| 12> H         -1.47818       -0.08105        3.13042
| 13> H         -0.80952       -0.78099        0.88803
| 14> H          0.55985       -0.83974        1.97175
| 15> H          0.40595        0.47288        0.82877
| 16> *
| 17>
| 18> %MaxCore 64000
| 19>
| 20> %pal nprocs 4
| 21> end
| 22>
| 23> %scf
| 24>   MaxIter 150
| 25> end
| 26>
| 27>
| 28>                          ****END OF INPUT****

CARTESIAN COORDINATES (ANGSTROEM)
---------------------------------
  C     -0.914950    0.615110    2.505540
  C     -0.059150    1.503520    3.410580
  H      0.365360    2.344310    2.861160
  H     -0.692260    1.920210    4.198980
  C      1.083030    0.749640    4.085710
  O      2.228170    1.263480    4.019830
  F      0.810030   -0.345410    4.636270
  C     -0.130740   -0.193980    1.470760
  H     -1.647960    1.245960    1.991080
  H     -1.478180   -0.081050    3.130420
  H     -0.809520   -0.780990    0.888030
  H      0.559850   -0.839740    1.971750
  H      0.405950    0.472880    0.828770

 Total Charge           Charge          ....    0
 Multiplicity           Mult            ....    1
 Number of Electrons    NEL             ....   48
 Basis Dimension        Dim             ....  182

ORBITAL ENERGIES
----------------

  NO   OCC          E(Eh)            E(eV)
   0   2.0000     -24.345843      -662.4841
   1   2.0000     -18.771348      -510.7944
   2   2.0000     -10.065890      -273.9068
   3   2.0000      -9.925540      -270.0877
   4   2.0000      -9.915437      -269.8128
   5   2.0000      -9.893464      -269.2148
   6   2.0000      -1.205045       -32.7909
   7   2.0000      -0.937112       -25.5001
   8   2.0000      -0.739890       -20.1334
   9   2.0000      -0.657702       -17.8970
  10   2.0000      -0.597151       -16.2493
  11   2.0000      -0.552976       -15.0473
  12   2.0000      -0.494207       -13.4481
  13   2.0000      -0.482257       -13.1229
  14   2.0000      -0.437004       -11.8915
  15   2.0000      -0.423978       -11.5370
  16   2.0000      -0.410003       -11.1567
  17   2.0000      -0.374791       -10.1986
  18   2.0000      -0.353528        -9.6200
  19   2.0000      -0.336250        -9.1498
  20   2.0000      -0.323165        -8.7938
  21   2.0000      -0.311938        -8.4883
  22   2.0000      -0.307961        -8.3800
  23   2.0000      -0.242009        -6.5854
  24   0.0000      -0.069469        -1.8903
  25   0.0000      -0.007616        -0.2072
  26   0.0000       0.026205         0.7131
  27   0.0000       0.029640         0.8066
  28   0.0000       0.036870         1.0033

MULLIKEN ATOMIC CHARGES
-----------------------
   0 C :   -0.389984
   1 C :    0.079479
   2 H :    0.002110
   3 H :    0.013386
   4 C :    0.718734
   5 O :   -0.461608
   6 F :   -0.370719
   7 C :    0.685829
   8 H :   -0.158641
   9 H :    0.008239
  10 H :   -0.061105
  11 H :   -0.059768
  12 H :   -0.005953
Sum of atomic charges:   -0.0000000

LOEWDIN ATOMIC CHARGES
----------------------
   0 C :   -0.075863
   1 C :    0.039578
   2 H :    0.035899
   3 H :    0.039173
   4 C :   -0.046397
   5 O :   -0.117084
   6 F :   -0.011365
   7 C :    0.132649
   8 H :    0.025029
   9 H :    0.022450
  10 H :   -0.014106
  11 H :   -0.020477
  12 H :   -0.009486

  Mayer bond orders larger than 0.100000
B(  0-C ,  1-C ) :   1.2362 B(  0-C ,  2-H ) :   0.1381 B(  0-C ,  3-H ) :   0.1243
B(  0-C ,  7-C ) :   1.4026 B(  0-C ,  8-H ) :   0.9600 B(  0-C ,  9-H ) :   0.8679
B(  0-C , 10-H ) :   0.2224 B(  0-C , 11-H ) :   0.2108 B(  0-C , 12-H ) :   0.2124
B(  1-C ,  2-H ) :   0.8923 B(  1-C ,  3-H ) :   0.8176 B(  1-C ,  4-C ) :   1.0607
B(  1-C ,  8-H ) :   0.1115 B(  1-C ,  9-H ) :   0.1143 B(  2-H ,  4-C ) :   0.1456
B(  4-C ,  5-O ) :   1.7613 B(  4-C ,  6-F ) :   0.7143 B(  5-O ,  6-F ) :   0.1276
B(  7-C , 10-H ) :   0.7461 B(  7-C , 11-H ) :   0.8292 B(  7-C , 12-H ) :   0.7844

Dispersion correction           -0.009449031
FINAL SINGLE POINT ENERGY      -331.107348416132

DIPOLE MOMENT
-------------
                                X             Y             Z
Electronic contribution:      5.57999      -1.26332       8.23824
Nuclear contribution   :     -6.78915       1.21145      -8.56691
                        -----------------------------------------
Total Dipole Moment    :     -1.20916      -0.05186      -0.32867
                        -----------------------------------------
Magnitude (a.u.)       :      1.25410
Magnitude (Debye)      :      3.18767

Rotational constants in cm-1:     0.188995     0.079574     0.075294
Rotational constants in MHz :  5665.932233  2385.568994  2257.246443

                             ****ORCA TERMINATED NORMALLY****
TOTAL RUN TIME: 0 days 0 hours 0 minutes 6 seconds 529 msec
