                         Program Version 5.0.0 -  RELEASE  -
|  1> !PBE D3BJ RIJCOSX def2-SVPD def2/J TightSCF
|  2> *xyz 0 1
|  3> C          4.60295       -2.44010        2.63478
|  4> C          3.86085       -1.59157        3.62289
|  5> N          2.75650       -2.04616        4.16633
|  6> C          4.25433       -0.36291        3.86046
|  7> H          3.56526        0.31099        4.16898
|  8> H          5.05429       -0.01606        3.33784
|  9> H          2.43970       -2.97389        3.89740
| 10> H          2.06687       -1.41253        4.54981
| 11> C          3.74469       -2.58056        1.36188
| 12> C          3.20372       -1.25600        0.82621
| 13> H          2.89894       -3.23929        1.58307
| 14> H          4.33496       -3.09552        0.60019
| 15> H          5.56156       -1.97135        2.40708
| 16> H          4.81050       -3.42255        3.06310
| 17> H          2.62184       -1.43789       -0.05313
| 18> H          4.02069       -0.60826        0.58562
| 19> H          2.58975       -0.79418        1.57097
| 20> *
| 21>
| 22> %MaxCore 64000
| 23>
| 24> %pal nprocs 4
| 25> end
| 26>
| 27> %scf
| 28>   MaxIter 150
| 29> end
| 30>
| 31>
| 32>                          ****END OF INPUT****

CARTESIAN COORDINATES (ANGSTROEM)
---------------------------------
  C      4.602950   -2.440100    2.634780
  C      3.860850   -1.591570    3.622890
  N      2.756500   -2.046160    4.166330
  C      4.254330   -0.362910    3.860460
  H      3.565260    0.310990    4.168980
  H      5.054290   -0.016060    3.337840
  H      2.439700   -2.973890    3.897400
  H      2.066870   -1.412530    4.549810
  C      3.744690   -2.580560    1.361880
  C      3.203720   -1.256000    0.826210
  H      2.898940   -3.239290    1.583070
  H      4.334960   -3.095520    0.600190
  H      5.561560   -1.971350    2.407080
  H      4.810500   -3.422550    3.063100
  H      2.621840   -1.437890   -0.053130
  H      4.020690   -0.608260    0.585620
  H      2.589750   -0.794180    1.570970

 Total Charge           Charge          ....    0
 Multiplicity           Mult            ....    1
 Number of Electrons    NEL             ....   48
 Basis Dimension        Dim             ....  208

ORBITAL ENERGIES
----------------

  NO   OCC          E(Eh)            E(eV)
   0   2.0000     -14.005233      -381.1018
   1   2.0000      -9.911822      -269.7144
   2   2.0000      -9.897510      -269.3249
   3   2.0000      -9.896189      -269.2890
   4   2.0000      -9.875579      -268.7282
   5   2.0000      -9.828422      -267.4450
   6   2.0000      -0.848101       -23.0780
   7   2.0000      -0.716915       -19.5083
   8   2.0000      -0.658640       -17.9225
   9   2.0000      -0.615003       -16.7351
  10   2.0000      -0.536421       -14.5968
  11   2.0000      -0.510956       -13.9038
  12   2.0000      -0.475204       -12.9310
  13   2.0000      -0.422148       -11.4872
  14   2.0000      -0.408980       -11.1289
  15   2.0000      -0.399990       -10.8843
  16   2.0000      -0.345740        -9.4081
  17   2.0000      -0.345537        -9.4025
  18   2.0000      -0.332133        -9.0378
  19   2.0000      -0.320859        -8.7310
  20   2.0000      -0.292270        -7.9531
  21   2.0000      -0.290511        -7.9052
  22   2.0000      -0.279805        -7.6139
  23   2.0000      -0.163928        -4.4607
  24   0.0000      -0.006795        -0.1849
  25   0.0000       0.003163         0.0861
  26   0.0000       0.028904         0.7865
  27   0.0000       0.034413         0.9364
  28   0.0000       0.042354         1.1525

MULLIKEN ATOMIC CHARGES
-----------------------
   0 C :    0.316285
   1 C :   -0.344368
   2 N :    0.208887
   3 C :    0.411132
   4 H :   -0.389966
   5 H :   -0.047218
   6 H :   -0.042652
   7 H :   -0.163134
   8 C :   -0.366986
   9 C :    0.812577
  10 H :    0.028661
  11 H :   -0.228951
  12 H :    0.096136
  13 H :   -0.072611
  14 H :   -0.116992
  15 H :   -0.035342
  16 H :   -0.065459
Sum of atomic charges:   -0.0000000

LOEWDIN ATOMIC CHARGES
----------------------
   0 C :    0.009672
   1 C :   -0.289999
   2 N :    0.193338
   3 C :    0.171507
   4 H :   -0.080810
   5 H :   -0.079156
   6 H :    0.000008
   7 H :    0.008930
   8 C :   -0.069170
   9 C :    0.125582
  10 H :    0.009412
  11 H :    0.017446
  12 H :    0.024820
  13 H :    0.018920
  14 H :   -0.020367
  15 H :   -0.012642
  16 H :   -0.027491

  Mayer bond orders larger than 0.100000
B(  0-C ,  1-C ) :   1.2935 B(  0-C ,  3-C ) :   0.1186 B(  0-C ,  8-C ) :   1.1806
B(  0-C , 10-H ) :   0.1358 B(  0-C , 11-H ) :   0.1989 B(  0-C , 12-H ) :   0.7672
B(  0-C , 13-H ) :   0.7586 B(  1-C ,  2-N ) :   1.0605 B(  1-C ,  3-C ) :   1.9515
B(  1-C ,  4-H ) :   0.2975 B(  1-C ,  5-H ) :   0.1598 B(  1-C , 12-H ) :   0.1845
B(  1-C , 13-H ) :   0.2412 B(  2-N ,  3-C ) :   0.3223 B(  2-N ,  6-H ) :   1.0314
B(  2-N ,  7-H ) :   1.1244 B(  3-C ,  4-H ) :   0.7105 B(  3-C ,  5-H ) :   0.8206
B(  3-C , 12-H ) :  -0.1012 B(  6-H ,  7-H ) :  -0.1425 B(  8-C ,  9-C ) :   1.3564
B(  8-C , 10-H ) :   0.8513 B(  8-C , 11-H ) :   0.9751 B(  8-C , 12-H ) :   0.1624
B(  8-C , 14-H ) :   0.2430 B(  8-C , 15-H ) :   0.2117 B(  8-C , 16-H ) :   0.2719
B(  9-C , 10-H ) :   0.1005 B(  9-C , 14-H ) :   0.7349 B(  9-C , 15-H ) :   0.7690
B(  9-C , 16-H ) :   0.7980 B( 15-H , 16-H ) :   0.1173

Dispersion correction           -0.014663260
FINAL SINGLE POINT ENERGY      -251.367337862771

DIPOLE MOMENT
-------------
                                X             Y             Z
Electronic contribution:      0.07902      -0.72536       3.71702
Nuclear contribution   :     -0.70193       0.22667      -3.99866
                        -----------------------------------------
Total Dipole Moment    :     -0.62291      -0.49869      -0.28164
                        -----------------------------------------
Magnitude (a.u.)       :      0.84619
Magnitude (Debye)      :      2.15083

Rotational constants in cm-1:     0.170665     0.086587     0.081284
Rotational constants in MHz :  5116.404877  2595.819690  2436.831753

                             ****ORCA TERMINATED NORMALLY****
TOTAL RUN TIME: 0 days 0 hours 0 minutes 8 seconds 637 msec
