                         Program Version 5.0.0 -  RELEASE  -
|  1> !PBE D3BJ RIJCOSX def2-SVPD def2/J TightSCF xyzfile
|  2>
|  3> *xyzfile 0 1 D2.xyz
|  4>
|  5> %MaxCore 64000
|  6>
|  7> %pal nprocs 4
|  8> end
|  9>
| 10> %scf
| 11>   MaxIter 150
| 12> end
| 13>
| 14>
| 15>                          ****END OF INPUT****

CARTESIAN COORDINATES (ANGSTROEM)
---------------------------------
  C      4.602954   -2.440100    2.634780
  C     -0.914947    0.615112    2.505538
  C     -0.059146    1.503524    3.410578
  H      0.365364    2.344315    2.861161
  H     -0.692261    1.920207    4.198985
  C      1.083027    0.749640    4.085705
  C      3.860851   -1.591565    3.622893
  N      2.756502   -2.046159    4.166333
  C      4.254325   -0.362905    3.860455
  H      3.565256    0.310994    4.168983
  H      5.054292   -0.016059    3.337838
  H      2.439696   -2.973894    3.897395
  H      2.066869   -1.412532    4.549813
  F      2.228167    1.263475    4.019826
  O      0.810034   -0.345411    4.636269
  C      3.744685   -2.580557    1.361882
  C      0.772139    0.636882    0.562129
  C     -0.130740   -0.193985    1.470763
  H     -0.840563   -0.760165    0.856377
  H      0.466691   -0.938942    2.006959
  H     -1.647961    1.245963    1.991076
  H     -1.478180   -0.081046    3.130424
  C      3.203721   -1.256004    0.826211
  H      2.898939   -3.239289    1.583074
  H      4.334962   -3.095523    0.600188
  C      2.107815   -1.442385   -0.216865
  H      2.786775   -0.672760    1.650711
  H      4.021008   -0.652993    0.414046
  C      1.390662   -0.145912   -0.602422
  H      1.372179   -2.152184    0.176151
  H      2.523302   -1.906787   -1.117115
  H      1.561361    1.100094    1.161831
  H      0.195516    1.468325    0.142758
  H      0.602893   -0.398214   -1.319716
  H      2.087247    0.508272   -1.137335
  H      5.561557   -1.971347    2.407084
  H      4.810498   -3.422552    3.063099

 Total Charge           Charge          ....    0
 Multiplicity           Mult            ....    1
 Number of Electrons    NEL             ....  118
 Basis Dimension        Dim             ....  482

ORBITAL ENERGIES
----------------

  NO   OCC          E(Eh)            E(eV)
   0   2.0000     -24.361114      -662.8996
   1   2.0000     -18.797342      -511.5017
   2   2.0000     -13.970163      -380.1475
   3   2.0000     -10.088044      -274.5096
   4   2.0000      -9.935976      -270.3716
   5   2.0000      -9.916525      -269.8424
   6   2.0000      -9.901674      -269.4383
   7   2.0000      -9.898815      -269.3604
   8   2.0000      -9.893326      -269.2111
   9   2.0000      -9.893160      -269.2066
  10   2.0000      -9.888264      -269.0734
  11   2.0000      -9.887221      -269.0450
  12   2.0000      -9.882848      -268.9260
  13   2.0000      -9.881230      -268.8819
  14   2.0000      -9.804820      -266.8027
  15   2.0000      -1.223763       -33.3003
  16   2.0000      -0.968161       -26.3450
  17   2.0000      -0.823210       -22.4007
  18   2.0000      -0.754747       -20.5377
  19   2.0000      -0.728526       -19.8242
  20   2.0000      -0.703772       -19.1506
  21   2.0000      -0.671841       -18.2817
  22   2.0000      -0.642875       -17.4935
  23   2.0000      -0.632097       -17.2002
  24   2.0000      -0.603377       -16.4187
  25   2.0000      -0.581903       -15.8344
  26   2.0000      -0.549348       -14.9485
  27   2.0000      -0.524103       -14.2616
  28   2.0000      -0.512117       -13.9354
  29   2.0000      -0.503432       -13.6991
  30   2.0000      -0.497729       -13.5439
  31   2.0000      -0.487830       -13.2745
  32   2.0000      -0.471926       -12.8418
  33   2.0000      -0.448973       -12.2172
  34   2.0000      -0.436153       -11.8683
  35   2.0000      -0.430803       -11.7227
  36   2.0000      -0.414358       -11.2752
  37   2.0000      -0.405730       -11.0405
  38   2.0000      -0.395321       -10.7572
  39   2.0000      -0.389006       -10.5854
  40   2.0000      -0.380118       -10.3435
  41   2.0000      -0.367004        -9.9867
  42   2.0000      -0.360299        -9.8042
  43   2.0000      -0.353121        -9.6089
  44   2.0000      -0.338743        -9.2177
  45   2.0000      -0.333525        -9.0757
  46   2.0000      -0.329245        -8.9592
  47   2.0000      -0.324567        -8.8319
  48   2.0000      -0.311763        -8.4835
  49   2.0000      -0.308047        -8.3824
  50   2.0000      -0.302160        -8.2222
  51   2.0000      -0.287274        -7.8171
  52   2.0000      -0.285206        -7.7608
  53   2.0000      -0.280972        -7.6456
  54   2.0000      -0.274500        -7.4695
  55   2.0000      -0.272054        -7.4030
  56   2.0000      -0.265361        -7.2208
  57   2.0000      -0.253611        -6.9011
  58   2.0000      -0.143331        -3.9002
  59   0.0000      -0.092993        -2.5305
  60   0.0000      -0.009078        -0.2470
  61   0.0000       0.003319         0.0903
  62   0.0000       0.010610         0.2887
  63   0.0000       0.013561         0.3690

MULLIKEN ATOMIC CHARGES
-----------------------
   0 C :    0.635052
   1 C :    0.528792
   2 C :    0.108839
   3 H :    0.205329
   4 H :   -0.164886
   5 C :    0.674815
   6 C :   -0.460243
   7 N :    0.467311
   8 C :    0.909315
   9 H :   -0.747931
  10 H :   -0.060920
  11 H :    0.003100
  12 H :   -0.531738
  13 F :   -0.432029
  14 O :   -0.544677
  15 C :    0.158262
  16 C :   -0.220752
  17 C :   -0.196811
  18 H :   -0.192384
  19 H :   -0.006064
  20 H :   -0.084130
  21 H :    0.068582
  22 C :    0.157214
  23 H :    0.085289
  24 H :   -0.331833
  25 C :   -0.002329
  26 H :   -0.378860
  27 H :   -0.023017
  28 C :    0.807341
  29 H :    0.179550
  30 H :   -0.383252
  31 H :    0.181412
  32 H :   -0.515192
  33 H :    0.085543
  34 H :   -0.015964
  35 H :    0.133349
  36 H :   -0.096083
Sum of atomic charges:   -0.0000000

LOEWDIN ATOMIC CHARGES
----------------------
   0 C :    0.014898
   1 C :   -0.016599
   2 C :    0.053225
   3 H :    0.025410
   4 H :    0.045605
   5 C :    0.028328
   6 C :   -0.267632
   7 N :    0.224273
   8 C :    0.186063
   9 H :   -0.142123
  10 H :   -0.075248
  11 H :    0.003256
  12 H :   -0.109671
  13 F :   -0.013604
  14 O :   -0.089273
  15 C :   -0.023078
  16 C :   -0.038518
  17 C :   -0.031347
  18 H :    0.033441
  19 H :    0.012537
  20 H :    0.030095
  21 H :    0.029942
  22 C :   -0.030723
  23 H :    0.012053
  24 H :    0.022297
  25 C :   -0.042333
  26 H :   -0.014002
  27 H :    0.039099
  28 C :   -0.030224
  29 H :    0.015889
  30 H :    0.024331
  31 H :    0.010012
  32 H :    0.024465
  33 H :    0.022148
  34 H :    0.024099
  35 H :    0.023379
  36 H :    0.019534

  Mayer bond orders larger than 0.100000
B(  0-C ,  6-C ) :   1.3197 B(  0-C ,  8-C ) :   0.1378 B(  0-C , 15-C ) :   1.1212
B(  0-C , 23-H ) :   0.1199 B(  0-C , 24-H ) :   0.1508 B(  0-C , 35-H ) :   0.7129
B(  0-C , 36-H ) :   0.4907 B(  1-C ,  2-C ) :   1.2129 B(  1-C ,  3-H ) :   0.1015
B(  1-C ,  4-H ) :   0.1816 B(  1-C , 17-C ) :   1.2630 B(  1-C , 19-H ) :   0.1121
B(  1-C , 20-H ) :   0.7305 B(  1-C , 21-H ) :   0.5980 B(  2-C ,  3-H ) :   0.8114
B(  2-C ,  4-H ) :   0.6547 B(  2-C ,  5-C ) :   1.2177 B(  2-C , 17-C ) :   0.1506
B(  2-C , 20-H ) :   0.1635 B(  2-C , 21-H ) :   0.1267 B(  3-H ,  5-C ) :   0.1483
B(  4-H ,  5-C ) :   0.2618 B(  5-C , 13-F ) :   0.6834 B(  5-C , 14-O ) :   1.5897
B(  6-C ,  7-N ) :   0.9512 B(  6-C ,  8-C ) :   1.9198 B(  6-C ,  9-H ) :   0.3911
B(  6-C , 10-H ) :   0.2903 B(  6-C , 12-H ) :  -0.1093 B(  6-C , 15-C ) :   0.1068
B(  6-C , 24-H ) :  -0.1160 B(  6-C , 35-H ) :   0.1758 B(  6-C , 36-H ) :   0.3232
B(  7-N ,  8-C ) :   0.4354 B(  7-N , 11-H ) :   0.9804 B(  7-N , 12-H ) :   1.0346
B(  8-C , 10-H ) :   0.6898 B(  9-H , 13-F ) :   0.2185 B(  9-H , 24-H ) :  -0.1107
B( 10-H , 23-H ) :  -0.1041 B( 11-H , 12-H ) :  -0.2471 B( 12-H , 14-O ) :   0.1920
B( 13-F , 14-O ) :   0.1165 B( 15-C , 22-C ) :   1.1533 B( 15-C , 23-H ) :   0.8052
B( 15-C , 24-H ) :   0.8884 B( 15-C , 25-C ) :   0.1268 B( 15-C , 26-H ) :   0.1517
B( 15-C , 27-H ) :   0.1080 B( 15-C , 35-H ) :   0.1513 B( 15-C , 36-H ) :   0.1998
B( 16-C , 17-C ) :   1.2938 B( 16-C , 18-H ) :   0.1928 B( 16-C , 19-H ) :   0.1245
B( 16-C , 25-C ) :   0.1928 B( 16-C , 28-C ) :   1.0788 B( 16-C , 31-H ) :   0.7820
B( 16-C , 32-H ) :   1.1124 B( 16-C , 33-H ) :   0.1591 B( 16-C , 34-H ) :   0.2989
B( 17-C , 18-H ) :   0.8463 B( 17-C , 19-H ) :   0.8926 B( 17-C , 20-H ) :   0.2174
B( 17-C , 21-H ) :   0.2593 B( 17-C , 32-H ) :   0.1371 B( 20-H , 21-H ) :  -0.1283
B( 22-C , 23-H ) :   0.1387 B( 22-C , 24-H ) :   0.2238 B( 22-C , 25-C ) :   1.1890
B( 22-C , 26-H ) :   0.9680 B( 22-C , 27-H ) :   0.6961 B( 22-C , 29-H ) :   0.1304
B( 22-C , 30-H ) :   0.2667 B( 25-C , 27-H ) :   0.1254 B( 25-C , 28-C ) :   1.1627
B( 25-C , 29-H ) :   0.7895 B( 25-C , 30-H ) :   0.9348 B( 25-C , 33-H ) :   0.2285
B( 25-C , 34-H ) :   0.1682 B( 26-H , 27-H ) :   0.1977 B( 26-H , 31-H ) :   0.1843
B( 26-H , 32-H ) :  -0.1252 B( 28-C , 29-H ) :   0.1099 B( 28-C , 33-H ) :   0.6184
B( 28-C , 34-H ) :   0.5801 B( 33-H , 34-H ) :  -0.1158

Dispersion correction           -0.043062111
FINAL SINGLE POINT ENERGY      -698.982847302604

DIPOLE MOMENT
-------------
                                X             Y             Z
Electronic contribution:      0.08414       6.22541      15.18169
Nuclear contribution   :     -1.39991      -5.60370     -16.00470
                        -----------------------------------------
Total Dipole Moment    :     -1.31577       0.62170      -0.82301
                        -----------------------------------------
Magnitude (a.u.)       :      1.67186
Magnitude (Debye)      :      4.24953

Rotational constants in cm-1:     0.021622     0.017313     0.011402
Rotational constants in MHz :   648.226014   519.043632   341.814105

                             ****ORCA TERMINATED NORMALLY****
TOTAL RUN TIME: 0 days 0 hours 0 minutes 59 seconds 691 msec
