                         Program Version 5.0.0 -  RELEASE  -
|  1> !wB97X-D3 RIJCOSX def2-SVPD def2/J TightSCF CPCM(Water)
|  2>
|  3> *xyz -1 1
|  4> C          2.95263        1.86308       -3.57485
|  5> C          4.12921        0.89839       -3.41895
|  6> H          3.73369       -0.10060       -3.23763
|  7> H          4.71910        0.86256       -4.33901
|  8> C          5.01734        1.31521       -2.22130
|  9> O          4.73706        0.85411       -1.12283
| 10> O          5.92815        2.16811       -2.49136
| 11> H          2.35067        1.56005       -4.40594
| 12> H          3.32277        2.85258       -3.74453
| 13> H          2.36134        1.85149       -2.68315
| 14> *
| 15> %MaxCore 64000
| 16>
| 17> %pal nprocs 18
| 18> end
| 19>
| 20> %scf
| 21>   MaxIter 150
| 22> end
| 23>
| 24>
| 25>                          ****END OF INPUT****

CARTESIAN COORDINATES (ANGSTROEM)
---------------------------------
  C      2.952630    1.863080   -3.574850
  C      4.129210    0.898390   -3.418950
  H      3.733690   -0.100600   -3.237630
  H      4.719100    0.862560   -4.339010
  C      5.017340    1.315210   -2.221300
  O      4.737060    0.854110   -1.122830
  O      5.928150    2.168110   -2.491360
  H      2.350670    1.560050   -4.405940
  H      3.322770    2.852580   -3.744530
  H      2.361340    1.851490   -2.683150

 Total Charge           Charge          ....   -1
 Multiplicity           Mult            ....    1
 Number of Electrons    NEL             ....   40
 Basis Dimension        Dim             ....  146

ORBITAL ENERGIES
----------------

  NO   OCC          E(Eh)            E(eV)
   0   2.0000     -19.183801      -522.0178
   1   2.0000     -19.174439      -521.7630
   2   2.0000     -10.366380      -282.0835
   3   2.0000     -10.268573      -279.4221
   4   2.0000     -10.266518      -279.3662
   5   2.0000      -1.129639       -30.7390
   6   2.0000      -1.031049       -28.0563
   7   2.0000      -0.864793       -23.5322
   8   2.0000      -0.727656       -19.8005
   9   2.0000      -0.592032       -16.1100
  10   2.0000      -0.543281       -14.7834
  11   2.0000      -0.539098       -14.6696
  12   2.0000      -0.508825       -13.8458
  13   2.0000      -0.497772       -13.5451
  14   2.0000      -0.467371       -12.7178
  15   2.0000      -0.435554       -11.8520
  16   2.0000      -0.430740       -11.7210
  17   2.0000      -0.345201        -9.3934
  18   2.0000      -0.328135        -8.9290
  19   2.0000      -0.323247        -8.7960
  20   0.0000       0.094884         2.5819
  21   0.0000       0.121135         3.2962
  22   0.0000       0.131383         3.5751
  23   0.0000       0.144395         3.9292
  24   0.0000       0.149391         4.0651

MULLIKEN ATOMIC CHARGES
-----------------------
   0 C :    0.457833
   1 C :   -0.322496
   2 H :    0.005078
   3 H :   -0.012928
   4 C :    0.415239
   5 O :   -0.662189
   6 O :   -0.764954
   7 H :   -0.028707
   8 H :   -0.049264
   9 H :   -0.037613
Sum of atomic charges:   -1.0000000

LOEWDIN ATOMIC CHARGES
----------------------
   0 C :    0.115660
   1 C :   -0.038598
   2 H :    0.010693
   3 H :    0.014503
   4 C :   -0.328440
   5 O :   -0.333504
   6 O :   -0.388978
   7 H :   -0.018450
   8 H :   -0.017709
   9 H :   -0.015178

  Mayer bond orders larger than 0.100000
B(  0-C ,  1-C ) :   1.3070 B(  0-C ,  7-H ) :   0.8745 B(  0-C ,  8-H ) :   0.8623
B(  0-C ,  9-H ) :   0.8535 B(  1-C ,  2-H ) :   0.9342 B(  1-C ,  3-H ) :   0.9536
B(  1-C ,  4-C ) :   1.0260 B(  1-C ,  7-H ) :   0.1278 B(  1-C ,  8-H ) :   0.1604
B(  1-C ,  9-H ) :   0.1655 B(  4-C ,  5-O ) :   1.5490 B(  4-C ,  6-O ) :   1.4561
B(  5-O ,  6-O ) :   0.1381

Dispersion correction           -0.001998917
FINAL SINGLE POINT ENERGY      -267.690996496395

DIPOLE MOMENT
-------------
                                X             Y             Z
Electronic contribution:      3.87156      -0.36372       3.36742
Nuclear contribution   :     -5.85873      -0.10793      -5.24103
                        -----------------------------------------
Total Dipole Moment    :     -1.98717      -0.47165      -1.87361
                        -----------------------------------------
Magnitude (a.u.)       :      2.77159
Magnitude (Debye)      :      7.04482

Rotational constants in cm-1:     0.292505     0.135951     0.110253
Rotational constants in MHz :  8769.065873  4075.717001  3305.311891

                             ****ORCA TERMINATED NORMALLY****
TOTAL RUN TIME: 0 days 0 hours 0 minutes 8 seconds 381 msec
