                         Program Version 5.0.0 -  RELEASE  -
|  1> !wB97X-D3 RIJCOSX def2-SVPD def2/J TightSCF CPCM(Water)
|  2>
|  3> *xyz 1 1
|  4> C          3.34350        3.35457       -3.59200
|  5> C          2.95263        1.86308       -3.57485
|  6> C          4.25587        3.70385       -4.72605
|  7> N          3.73403        4.29378       -5.80077
|  8> N          5.51504        3.40725       -4.63718
|  9> H          6.14919        3.60120       -5.39905
| 10> H          5.81358        2.89950       -3.80879
| 11> H          2.74138        4.51311       -5.82470
| 12> H          4.28755        4.52126       -6.61434
| 13> H          3.86125        3.59725       -2.66298
| 14> H          2.44649        3.97346       -3.65656
| 15> H          2.44395        1.61721       -4.48352
| 16> H          2.30781        1.67290       -2.74242
| 17> H          3.83491        1.26414       -3.48670
| 18> *
| 19> %MaxCore 64000
| 20>
| 21> %pal nprocs 18
| 22> end
| 23>
| 24> %scf
| 25>   MaxIter 150
| 26> end
| 27>
| 28>
| 29>                          ****END OF INPUT****

CARTESIAN COORDINATES (ANGSTROEM)
---------------------------------
  C      3.343500    3.354570   -3.592000
  C      2.952630    1.863080   -3.574850
  C      4.255870    3.703850   -4.726050
  N      3.734030    4.293780   -5.800770
  N      5.515040    3.407250   -4.637180
  H      6.149190    3.601200   -5.399050
  H      5.813580    2.899500   -3.808790
  H      2.741380    4.513110   -5.824700
  H      4.287550    4.521260   -6.614340
  H      3.861250    3.597250   -2.662980
  H      2.446490    3.973460   -3.656560
  H      2.443950    1.617210   -4.483520
  H      2.307810    1.672900   -2.742420
  H      3.834910    1.264140   -3.486700

 Total Charge           Charge          ....    1
 Multiplicity           Mult            ....    1
 Number of Electrons    NEL             ....   40
 Basis Dimension        Dim             ....  172

ORBITAL ENERGIES
----------------

  NO   OCC          E(Eh)            E(eV)
   0   2.0000     -14.500452      -394.5773
   1   2.0000     -14.496512      -394.4701
   2   2.0000     -10.434907      -283.9483
   3   2.0000     -10.320068      -280.8233
   4   2.0000     -10.290495      -280.0186
   5   2.0000      -1.131690       -30.7949
   6   2.0000      -1.032622       -28.0991
   7   2.0000      -0.910472       -24.7752
   8   2.0000      -0.795847       -21.6561
   9   2.0000      -0.744477       -20.2582
  10   2.0000      -0.697844       -18.9893
  11   2.0000      -0.675545       -18.3825
  12   2.0000      -0.615937       -16.7605
  13   2.0000      -0.578571       -15.7437
  14   2.0000      -0.558299       -15.1921
  15   2.0000      -0.541032       -14.7222
  16   2.0000      -0.479153       -13.0384
  17   2.0000      -0.469301       -12.7703
  18   2.0000      -0.461652       -12.5622
  19   2.0000      -0.403852       -10.9894
  20   0.0000       0.050156         1.3648
  21   0.0000       0.088899         2.4191
  22   0.0000       0.121629         3.3097
  23   0.0000       0.131268         3.5720
  24   0.0000       0.135416         3.6849

MULLIKEN ATOMIC CHARGES
-----------------------
   0 C :   -0.414990
   1 C :    0.489455
   2 C :    0.625917
   3 N :   -0.107719
   4 N :    0.057240
   5 H :   -0.077772
   6 H :    0.141261
   7 H :    0.113341
   8 H :   -0.060922
   9 H :    0.100327
  10 H :    0.075353
  11 H :   -0.010449
  12 H :    0.056362
  13 H :    0.012595
Sum of atomic charges:    1.0000000

LOEWDIN ATOMIC CHARGES
----------------------
   0 C :    0.011507
   1 C :    0.155488
   2 C :   -0.042254
   3 N :    0.282169
   4 N :    0.289585
   5 H :    0.063462
   6 H :    0.066535
   7 H :    0.056112
   8 H :    0.052357
   9 H :    0.045025
  10 H :    0.039987
  11 H :   -0.006372
  12 H :   -0.003399
  13 H :   -0.010204

  Mayer bond orders larger than 0.100000
B(  0-C ,  1-C ) :   1.2626 B(  0-C ,  2-C ) :   1.1608 B(  0-C ,  9-H ) :   0.9032
B(  0-C , 10-H ) :   0.9135 B(  0-C , 11-H ) :   0.1485 B(  0-C , 12-H ) :   0.1364
B(  0-C , 13-H ) :   0.1757 B(  1-C , 11-H ) :   0.8794 B(  1-C , 12-H ) :   0.8502
B(  1-C , 13-H ) :   0.8253 B(  2-C ,  3-N ) :   1.0189 B(  2-C ,  4-N ) :   1.2371
B(  2-C ,  5-H ) :  -0.1284 B(  2-C ,  8-H ) :  -0.1798 B(  2-C , 10-H ) :   0.1186
B(  3-N ,  4-N ) :   0.1396 B(  3-N ,  7-H ) :   1.0527 B(  3-N ,  8-H ) :   1.3113
B(  4-N ,  5-H ) :   1.2815 B(  4-N ,  6-H ) :   1.0196 B(  5-H ,  6-H ) :  -0.1533
B(  7-H ,  8-H ) :  -0.1694

Dispersion correction           -0.003011887
FINAL SINGLE POINT ENERGY      -228.920677415029

DIPOLE MOMENT
-------------
                                X             Y             Z
Electronic contribution:      2.60149       2.74857      -2.47710
Nuclear contribution   :     -1.74195      -2.09431       1.58516
                        -----------------------------------------
Total Dipole Moment    :      0.85954       0.65426      -0.89194
                        -----------------------------------------
Magnitude (a.u.)       :      1.40087
Magnitude (Debye)      :      3.56072

Rotational constants in cm-1:     0.258965     0.126500     0.098780
Rotational constants in MHz :  7763.584551  3792.383135  2961.336502

                             ****ORCA TERMINATED NORMALLY****
TOTAL RUN TIME: 0 days 0 hours 0 minutes 10 seconds 339 msec
