                         Program Version 5.0.0 -  RELEASE  -
|  1> !wB97X-D3 RIJCOSX def2-SVPD def2/J TightSCF CPCM(Water) xyzfile
|  2>
|  3> *xyzfile 0 1 B.xyz
|  4>
|  5> %MaxCore 64000
|  6>
|  7> %pal nprocs 18
|  8> end
|  9>
| 10> %scf
| 11>   MaxIter 150
| 12> end
| 13>
| 14>
| 15>                          ****END OF INPUT****

CARTESIAN COORDINATES (ANGSTROEM)
---------------------------------
  C      3.343500    3.354571   -3.591998
  C      2.952633    1.863077   -3.574849
  C      4.129209    0.898394   -3.418950
  H      3.733687   -0.100605   -3.237633
  H      4.719095    0.862556   -4.339005
  C      5.017344    1.315212   -2.221305
  C      4.255868    3.703851   -4.726054
  N      3.734032    4.293783   -5.800770
  N      5.515039    3.407255   -4.637185
  H      6.149187    3.601203   -5.399053
  H      5.813584    2.899504   -3.808785
  H      2.741380    4.513109   -5.824701
  H      4.287548    4.521260   -6.614341
  H      2.278938    1.735250   -2.725496
  H      2.377466    1.625787   -4.475869
  O      4.737055    0.854112   -1.122825
  O      5.928146    2.168108   -2.491365
  H      3.861246    3.597252   -2.662979
  H      2.446493    3.973461   -3.656556

 Total Charge           Charge          ....    0
 Multiplicity           Mult            ....    1
 Number of Electrons    NEL             ....   70
 Basis Dimension        Dim             ....  266

ORBITAL ENERGIES
----------------

  NO   OCC          E(Eh)            E(eV)
   0   2.0000     -19.198264      -522.4113
   1   2.0000     -19.196277      -522.3573
   2   2.0000     -14.484706      -394.1489
   3   2.0000     -14.462380      -393.5414
   4   2.0000     -10.418543      -283.5030
   5   2.0000     -10.385605      -282.6067
   6   2.0000     -10.310553      -280.5644
   7   2.0000     -10.301623      -280.3214
   8   2.0000     -10.281565      -279.7756
   9   2.0000      -1.149886       -31.2900
  10   2.0000      -1.114003       -30.3136
  11   2.0000      -1.058755       -28.8102
  12   2.0000      -1.013286       -27.5729
  13   2.0000      -0.919283       -25.0150
  14   2.0000      -0.837679       -22.7944
  15   2.0000      -0.755214       -20.5504
  16   2.0000      -0.721026       -19.6201
  17   2.0000      -0.679902       -18.5011
  18   2.0000      -0.668133       -18.1808
  19   2.0000      -0.619693       -16.8627
  20   2.0000      -0.597424       -16.2567
  21   2.0000      -0.584102       -15.8942
  22   2.0000      -0.559879       -15.2351
  23   2.0000      -0.543608       -14.7923
  24   2.0000      -0.527480       -14.3535
  25   2.0000      -0.512547       -13.9471
  26   2.0000      -0.498723       -13.5709
  27   2.0000      -0.497066       -13.5259
  28   2.0000      -0.457368       -12.4456
  29   2.0000      -0.440553       -11.9880
  30   2.0000      -0.434892       -11.8340
  31   2.0000      -0.387029       -10.5316
  32   2.0000      -0.364794        -9.9265
  33   2.0000      -0.349391        -9.5074
  34   2.0000      -0.340736        -9.2719
  35   0.0000       0.061630         1.6770
  36   0.0000       0.091064         2.4780
  37   0.0000       0.108195         2.9441
  38   0.0000       0.112971         3.0741
  39   0.0000       0.124001         3.3742

MULLIKEN ATOMIC CHARGES
-----------------------
   0 C :    0.016325
   1 C :   -0.068234
   2 C :    0.145980
   3 H :   -0.124572
   4 H :    0.125711
   5 C :    0.438564
   6 C :    0.736406
   7 N :   -0.105834
   8 N :    0.308808
   9 H :   -0.091214
  10 H :   -0.244675
  11 H :    0.058519
  12 H :   -0.075411
  13 H :    0.070820
  14 H :   -0.096298
  15 O :   -0.625510
  16 O :   -0.655470
  17 H :    0.240178
  18 H :   -0.054093
Sum of atomic charges:    0.0000000

LOEWDIN ATOMIC CHARGES
----------------------
   0 C :    0.055846
   1 C :    0.006216
   2 C :    0.029851
   3 H :    0.021549
   4 H :    0.019895
   5 C :   -0.246550
   6 C :   -0.029270
   7 N :    0.268970
   8 N :    0.300130
   9 H :    0.059660
  10 H :   -0.138020
  11 H :    0.049230
  12 H :    0.046554
  13 H :    0.033814
  14 H :    0.032504
  15 O :   -0.289520
  16 O :   -0.295093
  17 H :    0.034911
  18 H :    0.039322

  Mayer bond orders larger than 0.100000
B(  0-C ,  1-C ) :   1.2245 B(  0-C ,  6-C ) :   1.0852 B(  0-C , 13-H ) :   0.1098
B(  0-C , 14-H ) :   0.1354 B(  0-C , 17-H ) :   0.7328 B(  0-C , 18-H ) :   0.9471
B(  1-C ,  2-C ) :   1.2639 B(  1-C ,  3-H ) :   0.1753 B(  1-C ,  4-H ) :   0.1519
B(  1-C , 13-H ) :   0.8627 B(  1-C , 14-H ) :   0.9707 B(  1-C , 17-H ) :   0.1216
B(  1-C , 18-H ) :   0.1513 B(  2-C ,  3-H ) :   0.8511 B(  2-C ,  4-H ) :   0.8304
B(  2-C ,  5-C ) :   1.0443 B(  2-C , 13-H ) :   0.1276 B(  3-H ,  5-C ) :   0.1478
B(  5-C , 15-O ) :   1.5804 B(  5-C , 16-O ) :   1.2810 B(  6-C ,  7-N ) :   0.9883
B(  6-C ,  8-N ) :   1.1233 B(  6-C ,  9-H ) :  -0.2212 B(  6-C , 12-H ) :  -0.1469
B(  6-C , 17-H ) :   0.1075 B(  7-N ,  8-N ) :   0.1401 B(  7-N , 11-H ) :   1.1362
B(  7-N , 12-H ) :   1.3008 B(  8-N ,  9-H ) :   1.3519 B(  8-N , 10-H ) :   1.0530
B(  9-H , 10-H ) :  -0.2515 B( 10-H , 16-O ) :   0.2488 B( 11-H , 12-H ) :  -0.1738
B( 15-O , 16-O ) :   0.1368

Dispersion correction           -0.007028433
FINAL SINGLE POINT ENERGY      -456.151820077020

DIPOLE MOMENT
-------------
                                X             Y             Z
Electronic contribution:      3.38084       0.68140       1.21461
Nuclear contribution   :     -5.42217       2.65262      -7.07590
                        -----------------------------------------
Total Dipole Moment    :     -2.04133       3.33402      -5.86129
                        -----------------------------------------
Magnitude (a.u.)       :      7.04538
Magnitude (Debye)      :     17.90794

Rotational constants in cm-1:     0.107541     0.035862     0.030371
Rotational constants in MHz :  3223.996852  1075.120464   910.508313

                             ****ORCA TERMINATED NORMALLY****
TOTAL RUN TIME: 0 days 0 hours 0 minutes 22 seconds 910 msec
