                         Program Version 5.0.0 -  RELEASE  -
|  1> !wB97X-D3 RIJCOSX def2-SVPD def2/J TightSCF CPCM(Water)
|  2>
|  3> *xyz 0 1
|  4> C          2.95263        1.86308       -3.57485
|  5> C          4.12921        0.89839       -3.41895
|  6> H          3.73369       -0.10060       -3.23763
|  7> H          4.71910        0.86256       -4.33901
|  8> C          5.01734        1.31521       -2.22130
|  9> F          4.73706        0.85411       -1.12283
| 10> O          5.92815        2.16811       -2.49136
| 11> H          2.35067        1.56005       -4.40594
| 12> H          3.32277        2.85258       -3.74453
| 13> H          2.36134        1.85149       -2.68315
| 14> *
| 15> %MaxCore 64000
| 16>
| 17> %pal nprocs 18
| 18> end
| 19>
| 20> %scf
| 21>   MaxIter 150
| 22> end
| 23>
| 24>
| 25>                          ****END OF INPUT****

CARTESIAN COORDINATES (ANGSTROEM)
---------------------------------
  C      2.952630    1.863080   -3.574850
  C      4.129210    0.898390   -3.418950
  H      3.733690   -0.100600   -3.237630
  H      4.719100    0.862560   -4.339010
  C      5.017340    1.315210   -2.221300
  F      4.737060    0.854110   -1.122830
  O      5.928150    2.168110   -2.491360
  H      2.350670    1.560050   -4.405940
  H      3.322770    2.852580   -3.744530
  H      2.361340    1.851490   -2.683150

 Total Charge           Charge          ....    0
 Multiplicity           Mult            ....    1
 Number of Electrons    NEL             ....   40
 Basis Dimension        Dim             ....  146

ORBITAL ENERGIES
----------------

  NO   OCC          E(Eh)            E(eV)
   0   2.0000     -24.889225      -677.2702
   1   2.0000     -19.260405      -524.1023
   2   2.0000     -10.483997      -285.2841
   3   2.0000     -10.310285      -280.5571
   4   2.0000     -10.284141      -279.8457
   5   2.0000      -1.450892       -39.4808
   6   2.0000      -1.138894       -30.9909
   7   2.0000      -0.902494       -24.5581
   8   2.0000      -0.798391       -21.7253
   9   2.0000      -0.750286       -20.4163
  10   2.0000      -0.672670       -18.3043
  11   2.0000      -0.655595       -17.8397
  12   2.0000      -0.613401       -16.6915
  13   2.0000      -0.555582       -15.1181
  14   2.0000      -0.533083       -14.5059
  15   2.0000      -0.494417       -13.4538
  16   2.0000      -0.470743       -12.8096
  17   2.0000      -0.455777       -12.4023
  18   2.0000      -0.447118       -12.1667
  19   2.0000      -0.393438       -10.7060
  20   0.0000       0.049385         1.3438
  21   0.0000       0.089777         2.4430
  22   0.0000       0.124396         3.3850
  23   0.0000       0.134550         3.6613
  24   0.0000       0.146817         3.9951

MULLIKEN ATOMIC CHARGES
-----------------------
   0 C :    0.417609
   1 C :   -0.445123
   2 H :    0.088071
   3 H :    0.058116
   4 C :    0.827986
   5 F :   -0.351073
   6 O :   -0.584918
   7 H :    0.008897
   8 H :   -0.017658
   9 H :   -0.001907
Sum of atomic charges:   -0.0000000

LOEWDIN ATOMIC CHARGES
----------------------
   0 C :    0.137815
   1 C :    0.010807
   2 H :    0.031999
   3 H :    0.039761
   4 C :    0.002323
   5 F :   -0.001352
   6 O :   -0.203846
   7 H :   -0.005299
   8 H :   -0.007532
   9 H :   -0.004676

  Mayer bond orders larger than 0.100000
B(  0-C ,  1-C ) :   1.3075 B(  0-C ,  7-H ) :   0.8823 B(  0-C ,  8-H ) :   0.8708
B(  0-C ,  9-H ) :   0.8581 B(  1-C ,  2-H ) :   0.9323 B(  1-C ,  3-H ) :   0.9661
B(  1-C ,  4-C ) :   1.0662 B(  1-C ,  7-H ) :   0.1198 B(  1-C ,  8-H ) :   0.1457
B(  1-C ,  9-H ) :   0.1481 B(  4-C ,  5-F ) :   0.7733 B(  4-C ,  6-O ) :   1.7533
B(  5-F ,  6-O ) :   0.1065

Dispersion correction           -0.001949907
FINAL SINGLE POINT ENERGY      -292.113422437229

DIPOLE MOMENT
-------------
                                X             Y             Z
Electronic contribution:      4.74619      -1.43759       6.48916
Nuclear contribution   :     -6.06116       0.51860      -6.80802
                        -----------------------------------------
Total Dipole Moment    :     -1.31496      -0.91899      -0.31886
                        -----------------------------------------
Magnitude (a.u.)       :      1.63565
Magnitude (Debye)      :      4.15749

Rotational constants in cm-1:     0.276196     0.132056     0.105465
Rotational constants in MHz :  8280.156449  3958.940601  3161.775929

                             ****ORCA TERMINATED NORMALLY****
TOTAL RUN TIME: 0 days 0 hours 0 minutes 8 seconds 808 msec
