                         Program Version 5.0.0 -  RELEASE  -
|  1> !wB97X-D3 RIJCOSX def2-SVPD def2/J TightSCF CPCM(Water)
|  2>
|  3> *xyz 0 1
|  4> C          3.34350        3.35457       -3.59200
|  5> C          2.95263        1.86308       -3.57485
|  6> C          4.25587        3.70385       -4.72605
|  7> C          3.73403        4.29378       -5.80077
|  8> N          5.51504        3.40725       -4.63718
|  9> H          6.14919        3.60120       -5.39905
| 10> H          5.81358        2.89950       -3.80879
| 11> H          2.74138        4.51311       -5.82470
| 12> H          4.28755        4.52126       -6.61434
| 13> H          3.86125        3.59725       -2.66298
| 14> H          2.44649        3.97346       -3.65656
| 15> H          2.44395        1.61721       -4.48352
| 16> H          2.30781        1.67290       -2.74242
| 17> H          3.83491        1.26414       -3.48670
| 18> *
| 19> %MaxCore 64000
| 20>
| 21> %pal nprocs 18
| 22> end
| 23>
| 24> %scf
| 25>   MaxIter 150
| 26> end
| 27>
| 28>
| 29>                          ****END OF INPUT****

CARTESIAN COORDINATES (ANGSTROEM)
---------------------------------
  C      3.343500    3.354570   -3.592000
  C      2.952630    1.863080   -3.574850
  C      4.255870    3.703850   -4.726050
  C      3.734030    4.293780   -5.800770
  N      5.515040    3.407250   -4.637180
  H      6.149190    3.601200   -5.399050
  H      5.813580    2.899500   -3.808790
  H      2.741380    4.513110   -5.824700
  H      4.287550    4.521260   -6.614340
  H      3.861250    3.597250   -2.662980
  H      2.446490    3.973460   -3.656560
  H      2.443950    1.617210   -4.483520
  H      2.307810    1.672900   -2.742420
  H      3.834910    1.264140   -3.486700

 Total Charge           Charge          ....    0
 Multiplicity           Mult            ....    1
 Number of Electrons    NEL             ....   40
 Basis Dimension        Dim             ....  172

ORBITAL ENERGIES
----------------

  NO   OCC          E(Eh)            E(eV)
   0   2.0000     -14.434215      -392.7750
   1   2.0000     -10.314694      -280.6771
   2   2.0000     -10.285384      -279.8795
   3   2.0000     -10.271968      -279.5145
   4   2.0000     -10.223241      -278.1885
   5   2.0000      -1.043457       -28.3939
   6   2.0000      -0.885292       -24.0900
   7   2.0000      -0.823246       -22.4017
   8   2.0000      -0.740443       -20.1485
   9   2.0000      -0.669572       -18.2200
  10   2.0000      -0.628509       -17.1026
  11   2.0000      -0.581661       -15.8278
  12   2.0000      -0.532605       -14.4929
  13   2.0000      -0.520451       -14.1622
  14   2.0000      -0.493007       -13.4154
  15   2.0000      -0.480459       -13.0739
  16   2.0000      -0.444330       -12.0908
  17   2.0000      -0.427844       -11.6422
  18   2.0000      -0.424649       -11.5553
  19   2.0000      -0.280223        -7.6253
  20   0.0000       0.094601         2.5742
  21   0.0000       0.117890         3.2080
  22   0.0000       0.126135         3.4323
  23   0.0000       0.134671         3.6646
  24   0.0000       0.142902         3.8886

MULLIKEN ATOMIC CHARGES
-----------------------
   0 C :   -0.221386
   1 C :    0.544246
   2 C :   -0.264158
   3 C :    0.431770
   4 N :    0.203510
   5 H :   -0.130048
   6 H :   -0.023720
   7 H :   -0.122386
   8 H :   -0.437503
   9 H :   -0.009304
  10 H :    0.084565
  11 H :   -0.061519
  12 H :    0.025734
  13 H :   -0.019803
Sum of atomic charges:    0.0000000

LOEWDIN ATOMIC CHARGES
----------------------
   0 C :   -0.032655
   1 C :    0.132787
   2 C :   -0.283554
   3 C :    0.147791
   4 N :    0.177497
   5 H :    0.027402
   6 H :    0.024941
   7 H :   -0.092695
   8 H :   -0.096016
   9 H :    0.024466
  10 H :    0.022940
  11 H :   -0.017119
  12 H :   -0.016052
  13 H :   -0.019734

  Mayer bond orders larger than 0.100000
B(  0-C ,  1-C ) :   1.2533 B(  0-C ,  2-C ) :   1.2002 B(  0-C ,  3-C ) :   0.1536
B(  0-C ,  9-H ) :   0.8682 B(  0-C , 10-H ) :   0.8624 B(  0-C , 11-H ) :   0.1594
B(  0-C , 12-H ) :   0.1530 B(  0-C , 13-H ) :   0.1947 B(  1-C , 11-H ) :   0.8790
B(  1-C , 12-H ) :   0.8343 B(  1-C , 13-H ) :   0.8191 B(  2-C ,  3-C ) :   1.7750
B(  2-C ,  4-N ) :   1.3333 B(  2-C ,  8-H ) :   0.1710 B(  2-C ,  9-H ) :   0.1617
B(  2-C , 10-H ) :   0.1357 B(  3-C ,  4-N ) :   0.2109 B(  3-C ,  7-H ) :   0.9311
B(  3-C ,  8-H ) :   0.7641 B(  4-N ,  5-H ) :   1.2262 B(  4-N ,  6-H ) :   1.0691
B(  5-H ,  6-H ) :  -0.1237

Dispersion correction           -0.003012613
FINAL SINGLE POINT ENERGY      -212.371912314540

DIPOLE MOMENT
-------------
                                X             Y             Z
Electronic contribution:      2.56195       1.30365      -0.62371
Nuclear contribution   :     -1.79713      -1.86925       1.28073
                        -----------------------------------------
Total Dipole Moment    :      0.76482      -0.56560       0.65703
                        -----------------------------------------
Magnitude (a.u.)       :      1.15609
Magnitude (Debye)      :      2.93855

Rotational constants in cm-1:     0.269040     0.129645     0.102087
Rotational constants in MHz :  8065.609820  3886.645139  3060.489045

                             ****ORCA TERMINATED NORMALLY****
TOTAL RUN TIME: 0 days 0 hours 0 minutes 11 seconds 697 msec
