                         Program Version 5.0.0 -  RELEASE  -
|  1> !wB97X-D3 RIJCOSX def2-SVPD def2/J TightSCF CPCM(Water)
|  2>
|  3> *xyz 0 1
|  4> C          2.95263        1.86308       -3.57485
|  5> C          4.12921        0.89839       -3.41895
|  6> H          3.73369       -0.10060       -3.23763
|  7> H          4.71910        0.86256       -4.33901
|  8> C          5.01734        1.31521       -2.22130
|  9> O          4.73706        0.85411       -1.12283
| 10> F          5.92815        2.16811       -2.49136
| 11> H          2.35067        1.56005       -4.40594
| 12> H          3.32277        2.85258       -3.74453
| 13> H          2.36134        1.85149       -2.68315
| 14> *
| 15> %MaxCore 64000
| 16>
| 17> %pal nprocs 18
| 18> end
| 19>
| 20> %scf
| 21>   MaxIter 150
| 22> end
| 23>
| 24>
| 25>                          ****END OF INPUT****

CARTESIAN COORDINATES (ANGSTROEM)
---------------------------------
  C      2.952630    1.863080   -3.574850
  C      4.129210    0.898390   -3.418950
  H      3.733690   -0.100600   -3.237630
  H      4.719100    0.862560   -4.339010
  C      5.017340    1.315210   -2.221300
  O      4.737060    0.854110   -1.122830
  F      5.928150    2.168110   -2.491360
  H      2.350670    1.560050   -4.405940
  H      3.322770    2.852580   -3.744530
  H      2.361340    1.851490   -2.683150

 Total Charge           Charge          ....    0
 Multiplicity           Mult            ....    1
 Number of Electrons    NEL             ....   40
 Basis Dimension        Dim             ....  146

ORBITAL ENERGIES
----------------

  NO   OCC          E(Eh)            E(eV)
   0   2.0000     -24.869566      -676.7353
   1   2.0000     -19.268866      -524.3325
   2   2.0000     -10.478701      -285.1400
   3   2.0000     -10.309642      -280.5396
   4   2.0000     -10.283975      -279.8412
   5   2.0000      -1.411282       -38.4029
   6   2.0000      -1.171100       -31.8673
   7   2.0000      -0.901724       -24.5372
   8   2.0000      -0.785143       -21.3648
   9   2.0000      -0.740106       -20.1393
  10   2.0000      -0.651820       -17.7369
  11   2.0000      -0.637188       -17.3388
  12   2.0000      -0.615231       -16.7413
  13   2.0000      -0.556500       -15.1431
  14   2.0000      -0.535368       -14.5681
  15   2.0000      -0.502304       -13.6684
  16   2.0000      -0.477995       -13.0069
  17   2.0000      -0.461490       -12.5578
  18   2.0000      -0.451776       -12.2934
  19   2.0000      -0.401064       -10.9135
  20   0.0000       0.055484         1.5098
  21   0.0000       0.089798         2.4435
  22   0.0000       0.124518         3.3883
  23   0.0000       0.134357         3.6560
  24   0.0000       0.146643         3.9904

MULLIKEN ATOMIC CHARGES
-----------------------
   0 C :    0.415732
   1 C :   -0.441450
   2 H :    0.073454
   3 H :    0.068289
   4 C :    0.811701
   5 O :   -0.501527
   6 F :   -0.416404
   7 H :    0.008519
   8 H :   -0.012338
   9 H :   -0.005975
Sum of atomic charges:   -0.0000000

LOEWDIN ATOMIC CHARGES
----------------------
   0 C :    0.137391
   1 C :    0.011963
   2 H :    0.035509
   3 H :    0.036113
   4 C :    0.002246
   5 O :   -0.157116
   6 F :   -0.048607
   7 H :   -0.005459
   8 H :   -0.006538
   9 H :   -0.005502

  Mayer bond orders larger than 0.100000
B(  0-C ,  1-C ) :   1.3070 B(  0-C ,  7-H ) :   0.8836 B(  0-C ,  8-H ) :   0.8654
B(  0-C ,  9-H ) :   0.8627 B(  1-C ,  2-H ) :   0.9520 B(  1-C ,  3-H ) :   0.9515
B(  1-C ,  4-C ) :   1.0570 B(  1-C ,  7-H ) :   0.1196 B(  1-C ,  8-H ) :   0.1426
B(  1-C ,  9-H ) :   0.1512 B(  4-C ,  5-O ) :   1.8314 B(  4-C ,  6-F ) :   0.6976
B(  5-O ,  6-F ) :   0.1034

Dispersion correction           -0.001946743
FINAL SINGLE POINT ENERGY      -292.128171460304

DIPOLE MOMENT
-------------
                                X             Y             Z
Electronic contribution:      7.00379       1.04595       3.90930
Nuclear contribution   :     -7.35982      -0.91407      -5.31589
                        -----------------------------------------
Total Dipole Moment    :     -0.35602       0.13187      -1.40660
                        -----------------------------------------
Magnitude (a.u.)       :      1.45693
Magnitude (Debye)      :      3.70323

Rotational constants in cm-1:     0.275433     0.132201     0.105422
Rotational constants in MHz :  8257.268192  3963.279062  3160.465566

                             ****ORCA TERMINATED NORMALLY****
TOTAL RUN TIME: 0 days 0 hours 0 minutes 8 seconds 207 msec
