                         Program Version 5.0.0 -  RELEASE  -
|  1> !wB97X-D3 RIJCOSX def2-SVPD def2/J TightSCF CPCM(Water)
|  2>
|  3> *xyz 0 1
|  4> C          3.34350        3.35457       -3.59200
|  5> C          2.95263        1.86308       -3.57485
|  6> C          4.25587        3.70385       -4.72605
|  7> N          3.73403        4.29378       -5.80077
|  8> C          5.51504        3.40725       -4.63718
|  9> H          6.14919        3.60120       -5.39905
| 10> H          5.81358        2.89950       -3.80879
| 11> H          2.74138        4.51311       -5.82470
| 12> H          4.28755        4.52126       -6.61434
| 13> H          3.86125        3.59725       -2.66298
| 14> H          2.44649        3.97346       -3.65656
| 15> H          2.44395        1.61721       -4.48352
| 16> H          2.30781        1.67290       -2.74242
| 17> H          3.83491        1.26414       -3.48670
| 18> *
| 19> %MaxCore 64000
| 20>
| 21> %pal nprocs 18
| 22> end
| 23>
| 24> %scf
| 25>   MaxIter 150
| 26> end
| 27>
| 28>
| 29>                          ****END OF INPUT****

CARTESIAN COORDINATES (ANGSTROEM)
---------------------------------
  C      3.343500    3.354570   -3.592000
  C      2.952630    1.863080   -3.574850
  C      4.255870    3.703850   -4.726050
  N      3.734030    4.293780   -5.800770
  C      5.515040    3.407250   -4.637180
  H      6.149190    3.601200   -5.399050
  H      5.813580    2.899500   -3.808790
  H      2.741380    4.513110   -5.824700
  H      4.287550    4.521260   -6.614340
  H      3.861250    3.597250   -2.662980
  H      2.446490    3.973460   -3.656560
  H      2.443950    1.617210   -4.483520
  H      2.307810    1.672900   -2.742420
  H      3.834910    1.264140   -3.486700

 Total Charge           Charge          ....    0
 Multiplicity           Mult            ....    1
 Number of Electrons    NEL             ....   40
 Basis Dimension        Dim             ....  172

ORBITAL ENERGIES
----------------

  NO   OCC          E(Eh)            E(eV)
   0   2.0000     -14.431106      -392.6904
   1   2.0000     -10.311422      -280.5881
   2   2.0000     -10.284693      -279.8607
   3   2.0000     -10.271479      -279.5012
   4   2.0000     -10.221491      -278.1409
   5   2.0000      -1.029307       -28.0089
   6   2.0000      -0.888368       -24.1737
   7   2.0000      -0.826760       -22.4973
   8   2.0000      -0.741865       -20.1872
   9   2.0000      -0.664016       -18.0688
  10   2.0000      -0.616646       -16.7798
  11   2.0000      -0.585361       -15.9285
  12   2.0000      -0.536672       -14.6036
  13   2.0000      -0.513132       -13.9630
  14   2.0000      -0.492605       -13.4045
  15   2.0000      -0.480999       -13.0886
  16   2.0000      -0.440400       -11.9839
  17   2.0000      -0.430562       -11.7162
  18   2.0000      -0.423437       -11.5223
  19   2.0000      -0.284418        -7.7394
  20   0.0000       0.095232         2.5914
  21   0.0000       0.119264         3.2453
  22   0.0000       0.126911         3.4534
  23   0.0000       0.131281         3.5723
  24   0.0000       0.145052         3.9471

MULLIKEN ATOMIC CHARGES
-----------------------
   0 C :   -0.209288
   1 C :    0.515021
   2 C :   -0.079724
   3 N :    0.023916
   4 C :    0.383475
   5 H :   -0.388417
   6 H :   -0.090635
   7 H :   -0.023286
   8 H :   -0.115650
   9 H :    0.100963
  10 H :   -0.049360
  11 H :   -0.046378
  12 H :    0.030622
  13 H :   -0.051258
Sum of atomic charges:   -0.0000000

LOEWDIN ATOMIC CHARGES
----------------------
   0 C :   -0.032281
   1 C :    0.132464
   2 C :   -0.275028
   3 N :    0.172459
   4 C :    0.142165
   5 H :   -0.083245
   6 H :   -0.076384
   7 H :    0.012519
   8 H :    0.015045
   9 H :    0.025688
  10 H :    0.020099
  11 H :   -0.015284
  12 H :   -0.016737
  13 H :   -0.021480

  Mayer bond orders larger than 0.100000
B(  0-C ,  1-C ) :   1.2642 B(  0-C ,  2-C ) :   1.1275 B(  0-C ,  4-C ) :   0.1724
B(  0-C ,  9-H ) :   0.8453 B(  0-C , 10-H ) :   0.8888 B(  0-C , 11-H ) :   0.1719
B(  0-C , 12-H ) :   0.1382 B(  0-C , 13-H ) :   0.1783 B(  1-C , 11-H ) :   0.8657
B(  1-C , 12-H ) :   0.8333 B(  1-C , 13-H ) :   0.8575 B(  2-C ,  3-N ) :   1.1420
B(  2-C ,  4-C ) :   1.8862 B(  2-C ,  5-H ) :   0.2151 B(  2-C ,  6-H ) :   0.1454
B(  2-C ,  8-H ) :  -0.1093 B(  2-C ,  9-H ) :   0.1057 B(  2-C , 10-H ) :   0.1424
B(  3-N ,  4-C ) :   0.2325 B(  3-N ,  7-H ) :   1.0783 B(  3-N ,  8-H ) :   1.2763
B(  4-C ,  5-H ) :   0.7609 B(  4-C ,  6-H ) :   0.7852 B(  7-H ,  8-H ) :  -0.1567

Dispersion correction           -0.002997876
FINAL SINGLE POINT ENERGY      -212.371387121718

DIPOLE MOMENT
-------------
                                X             Y             Z
Electronic contribution:      0.51285       2.34380      -1.95700
Nuclear contribution   :     -1.38463      -2.07457       1.55023
                        -----------------------------------------
Total Dipole Moment    :     -0.87178       0.26922      -0.40677
                        -----------------------------------------
Magnitude (a.u.)       :      0.99897
Magnitude (Debye)      :      2.53918

Rotational constants in cm-1:     0.272312     0.128195     0.101724
Rotational constants in MHz :  8163.717141  3843.180148  3049.598073

                             ****ORCA TERMINATED NORMALLY****
TOTAL RUN TIME: 0 days 0 hours 0 minutes 10 seconds 905 msec
