                         Program Version 5.0.0 -  RELEASE  -
|  1> !TPSS D3BJ RIJCOSX def2-SVPD def2/J TightSCF
|  2> *xyz -1 1
|  3> C          4.93020       -7.37532       -2.64962
|  4> C          3.84189       -6.95161       -3.63283
|  5> H          3.45814       -5.95442       -3.40712
|  6> H          2.98848       -7.64361       -3.56708
|  7> S          4.31812       -6.91593       -5.36869
|  8> O          5.40615       -5.89948       -5.51297
|  9> O          3.11191       -6.44508       -6.04379
| 10> O          4.76340       -8.23942       -5.69863
| 11> H          5.27901       -8.35440       -2.90385
| 12> H          4.53000       -7.38577       -1.65734
| 13> H          5.74437       -6.68276       -2.69856
| 14> *
| 15>
| 16> %MaxCore 64000
| 17>
| 18> %pal nprocs 4
| 19> end
| 20>
| 21> %scf
| 22>   MaxIter 150
| 23> end
| 24>
| 25>
| 26>                          ****END OF INPUT****

CARTESIAN COORDINATES (ANGSTROEM)
---------------------------------
  C      4.930200   -7.375320   -2.649620
  C      3.841890   -6.951610   -3.632830
  H      3.458140   -5.954420   -3.407120
  H      2.988480   -7.643610   -3.567080
  S      4.318120   -6.915930   -5.368690
  O      5.406150   -5.899480   -5.512970
  O      3.111910   -6.445080   -6.043790
  O      4.763400   -8.239420   -5.698630
  H      5.279010   -8.354400   -2.903850
  H      4.530000   -7.385770   -1.657340
  H      5.744370   -6.682760   -2.698560

 Total Charge           Charge          ....   -1
 Multiplicity           Mult            ....    1
 Number of Electrons    NEL             ....   58
 Basis Dimension        Dim             ....  176

ORBITAL ENERGIES
----------------

  NO   OCC          E(Eh)            E(eV)
   0   2.0000     -88.365915     -2404.5588
   1   2.0000     -18.683531      -508.4047
   2   2.0000     -18.674992      -508.1724
   3   2.0000     -18.667844      -507.9779
   4   2.0000      -9.865438      -268.4522
   5   2.0000      -9.861673      -268.3498
   6   2.0000      -7.725790      -210.2294
   7   2.0000      -5.711865      -155.4278
   8   2.0000      -5.711632      -155.4214
   9   2.0000      -5.710856      -155.4003
  10   2.0000      -0.851066       -23.1587
  11   2.0000      -0.721343       -19.6287
  12   2.0000      -0.692203       -18.8358
  13   2.0000      -0.572515       -15.5789
  14   2.0000      -0.453941       -12.3524
  15   2.0000      -0.333635        -9.0787
  16   2.0000      -0.278227        -7.5709
  17   2.0000      -0.268900        -7.3171
  18   2.0000      -0.234089        -6.3699
  19   2.0000      -0.217505        -5.9186
  20   2.0000      -0.213599        -5.8123
  21   2.0000      -0.192113        -5.2277
  22   2.0000      -0.178089        -4.8461
  23   2.0000      -0.104828        -2.8525
  24   2.0000      -0.103748        -2.8231
  25   2.0000      -0.074008        -2.0139
  26   2.0000      -0.067047        -1.8244
  27   2.0000      -0.056513        -1.5378
  28   2.0000      -0.019883        -0.5411
  29   0.0000       0.131755         3.5852
  30   0.0000       0.160052         4.3552
  31   0.0000       0.168091         4.5740
  32   0.0000       0.173228         4.7138
  33   0.0000       0.195527         5.3206

MULLIKEN ATOMIC CHARGES
-----------------------
   0 C :    0.681024
   1 C :   -0.407571
   2 H :   -0.033604
   3 H :    0.019827
   4 S :    1.255122
   5 O :   -0.816387
   6 O :   -0.782981
   7 O :   -0.765495
   8 H :   -0.035711
   9 H :   -0.074861
  10 H :   -0.039364
Sum of atomic charges:   -1.0000000

LOEWDIN ATOMIC CHARGES
----------------------
   0 C :    0.109277
   1 C :   -0.135832
   2 H :   -0.002197
   3 H :    0.002486
   4 S :    0.840784
   5 O :   -0.588520
   6 O :   -0.577979
   7 O :   -0.561578
   8 H :   -0.024544
   9 H :   -0.038487
  10 H :   -0.023410

  Mayer bond orders larger than 0.100000
B(  0-C ,  1-C ) :   1.2779 B(  0-C ,  8-H ) :   0.8287 B(  0-C ,  9-H ) :   0.7586
B(  0-C , 10-H ) :   0.8384 B(  1-C ,  2-H ) :   1.0106 B(  1-C ,  3-H ) :   0.9809
B(  1-C ,  4-S ) :   0.8989 B(  1-C ,  8-H ) :   0.1970 B(  1-C ,  9-H ) :   0.2145
B(  1-C , 10-H ) :   0.1906 B(  4-S ,  5-O ) :   1.2864 B(  4-S ,  6-O ) :   1.3367
B(  4-S ,  7-O ) :   1.3260

Dispersion correction           -0.012037070
FINAL SINGLE POINT ENERGY      -702.851624673219

DIPOLE MOMENT
-------------
                                X             Y             Z
Electronic contribution:     -0.35644       0.80948      -7.82602
Nuclear contribution   :      0.07504      -1.14369       9.75001
                        -----------------------------------------
Total Dipole Moment    :     -0.28139      -0.33421       1.92398
                        -----------------------------------------
Magnitude (a.u.)       :      1.97296
Magnitude (Debye)      :      5.01488

Rotational constants in cm-1:     0.160553     0.082191     0.080550
Rotational constants in MHz :  4813.250478  2464.013016  2414.833054

                             ****ORCA TERMINATED NORMALLY****
TOTAL RUN TIME: 0 days 0 hours 0 minutes 14 seconds 280 msec
