                         Program Version 5.0.0 -  RELEASE  -
|  1> !TPSS D3BJ RIJCOSX def2-SVPD def2/J TightSCF
|  2> *xyz 1 1
|  3> C          5.55821       -1.99291       -6.21505
|  4> C          4.18188       -2.58967       -6.29891
|  5> N          3.14587       -1.76843       -6.48675
|  6> N          4.01910       -3.86431       -6.22743
|  7> H          4.76849       -4.59115       -5.99077
|  8> H          3.12241       -4.33339       -6.31462
|  9> H          3.28164       -0.77779       -6.56655
| 10> H          2.21255       -2.13419       -6.56225
| 11> C          6.41926       -2.54294       -5.07763
| 12> H          6.03683       -2.19819       -7.17685
| 13> H          5.46761       -0.90737       -6.12797
| 14> H          6.50056       -3.60553       -5.17358
| 15> H          5.96544       -2.30329       -4.13874
| 16> H          7.39438       -2.10494       -5.12457
| 17> *
| 18>
| 19> %MaxCore 64000
| 20>
| 21> %pal nprocs 4
| 22> end
| 23>
| 24> %scf
| 25>   MaxIter 150
| 26> end
| 27>
| 28>
| 29>                          ****END OF INPUT****

CARTESIAN COORDINATES (ANGSTROEM)
---------------------------------
  C      5.558210   -1.992910   -6.215050
  C      4.181880   -2.589670   -6.298910
  N      3.145870   -1.768430   -6.486750
  N      4.019100   -3.864310   -6.227430
  H      4.768490   -4.591150   -5.990770
  H      3.122410   -4.333390   -6.314620
  H      3.281640   -0.777790   -6.566550
  H      2.212550   -2.134190   -6.562250
  C      6.419260   -2.542940   -5.077630
  H      6.036830   -2.198190   -7.176850
  H      5.467610   -0.907370   -6.127970
  H      6.500560   -3.605530   -5.173580
  H      5.965440   -2.303290   -4.138740
  H      7.394380   -2.104940   -5.124570

 Total Charge           Charge          ....    1
 Multiplicity           Mult            ....    1
 Number of Electrons    NEL             ....   40
 Basis Dimension        Dim             ....  172

ORBITAL ENERGIES
----------------

  NO   OCC          E(Eh)            E(eV)
   0   2.0000     -14.369896      -391.0247
   1   2.0000     -14.359490      -390.7416
   2   2.0000     -10.314142      -280.6621
   3   2.0000     -10.199558      -277.5441
   4   2.0000     -10.158748      -276.4336
   5   2.0000      -1.129614       -30.7384
   6   2.0000      -1.038173       -28.2501
   7   2.0000      -0.906120       -24.6568
   8   2.0000      -0.812085       -22.0980
   9   2.0000      -0.764544       -20.8043
  10   2.0000      -0.728185       -19.8149
  11   2.0000      -0.700475       -19.0609
  12   2.0000      -0.656671       -17.8689
  13   2.0000      -0.610714       -16.6184
  14   2.0000      -0.583601       -15.8806
  15   2.0000      -0.562598       -15.3091
  16   2.0000      -0.511646       -13.9226
  17   2.0000      -0.503544       -13.7021
  18   2.0000      -0.489438       -13.3183
  19   2.0000      -0.456284       -12.4161
  20   0.0000      -0.236551        -6.4369
  21   0.0000      -0.172788        -4.7018
  22   0.0000      -0.139341        -3.7917
  23   0.0000      -0.128448        -3.4952
  24   0.0000      -0.107576        -2.9273

MULLIKEN ATOMIC CHARGES
-----------------------
   0 C :   -0.397224
   1 C :    0.933158
   2 N :   -0.008912
   3 N :    0.028734
   4 H :    0.069095
   5 H :   -0.153486
   6 H :    0.015898
   7 H :   -0.137913
   8 C :    0.673616
   9 H :    0.030114
  10 H :    0.070242
  11 H :   -0.119405
  12 H :   -0.024465
  13 H :    0.020549
Sum of atomic charges:    1.0000000

LOEWDIN ATOMIC CHARGES
----------------------
   0 C :    0.020673
   1 C :   -0.044586
   2 N :    0.289158
   3 N :    0.264078
   4 H :    0.096489
   5 H :    0.049488
   6 H :    0.040399
   7 H :    0.038969
   8 C :    0.174547
   9 H :    0.053168
  10 H :    0.035009
  11 H :   -0.024981
  12 H :    0.000795
  13 H :    0.006794

  Mayer bond orders larger than 0.100000
B(  0-C ,  1-C ) :   1.0460 B(  0-C ,  8-C ) :   1.3315 B(  0-C ,  9-H ) :   0.9041
B(  0-C , 10-H ) :   0.8986 B(  0-C , 11-H ) :   0.1825 B(  0-C , 12-H ) :   0.1969
B(  0-C , 13-H ) :   0.1675 B(  1-C ,  2-N ) :   0.9361 B(  1-C ,  3-N ) :   1.0639
B(  1-C ,  5-H ) :  -0.2547 B(  1-C ,  7-H ) :  -0.2428 B(  1-C , 10-H ) :   0.1012
B(  2-N ,  3-N ) :   0.1799 B(  2-N ,  6-H ) :   1.1156 B(  2-N ,  7-H ) :   1.3623
B(  3-N ,  4-H ) :   1.1167 B(  3-N ,  5-H ) :   1.3309 B(  4-H ,  5-H ) :  -0.1724
B(  6-H ,  7-H ) :  -0.1820 B(  8-C , 10-H ) :   0.1067 B(  8-C , 11-H ) :   0.8453
B(  8-C , 12-H ) :   0.7766 B(  8-C , 13-H ) :   0.8178

Dispersion correction           -0.012359601
FINAL SINGLE POINT ENERGY      -228.924168986922

DIPOLE MOMENT
-------------
                                X             Y             Z
Electronic contribution:     -3.79399      -0.47464      -1.56850
Nuclear contribution   :      2.76041       0.12669       1.26265
                        -----------------------------------------
Total Dipole Moment    :     -1.03358      -0.34795      -0.30585
                        -----------------------------------------
Magnitude (a.u.)       :      1.13265
Magnitude (Debye)      :      2.87897

Rotational constants in cm-1:     0.280918     0.124524     0.094121
Rotational constants in MHz :  8421.697738  3733.133254  2821.684112

                             ****ORCA TERMINATED NORMALLY****
TOTAL RUN TIME: 0 days 0 hours 0 minutes 13 seconds 843 msec
