                         Program Version 5.0.0 -  RELEASE  -
|  1> !TPSS D3BJ RIJCOSX def2-SVPD def2/J TightSCF xyzfile
|  2>
|  3> *xyzfile 0 1 B.xyz
|  4>
|  5> %MaxCore 64000
|  6>
|  7> %pal nprocs 4
|  8> end
|  9>
| 10> %scf
| 11>   MaxIter 150
| 12> end
| 13>
| 14>
| 15>                          ****END OF INPUT****

CARTESIAN COORDINATES (ANGSTROEM)
---------------------------------
  C      5.558206   -1.992914   -6.215054
  C      4.930199   -7.375319   -2.649623
  C      3.841892   -6.951611   -3.632829
  H      3.458144   -5.954425   -3.407121
  H      2.988484   -7.643606   -3.567078
  S      4.318115   -6.915930   -5.368692
  C      4.181880   -2.589671   -6.298911
  N      3.145873   -1.768431   -6.486753
  N      4.019102   -3.864307   -6.227427
  H      4.768490   -4.591153   -5.990773
  H      3.122405   -4.333392   -6.314620
  H      3.281635   -0.777786   -6.566549
  H      2.212549   -2.134193   -6.562246
  O      5.406154   -5.899480   -5.512972
  O      3.111910   -6.445079   -6.043792
  C      6.419260   -2.542944   -5.077630
  C      5.872267   -5.002756   -2.427819
  C      6.173994   -6.485522   -2.606315
  H      6.734852   -6.613767   -3.534015
  H      6.821463   -6.831018   -1.793617
  H      4.469612   -7.406168   -1.655876
  H      5.230134   -8.398678   -2.885906
  C      5.896512   -2.169314   -3.694552
  H      7.428880   -2.143665   -5.208078
  H      6.505894   -3.627541   -5.175502
  C      6.807804   -2.623428   -2.551019
  H      4.894708   -2.589732   -3.557501
  H      5.778823   -1.081255   -3.635790
  C      7.111544   -4.122463   -2.520363
  H      7.751615   -2.071393   -2.614406
  H      6.345837   -2.326401   -1.604086
  H      5.362882   -4.828697   -1.471335
  H      5.174429   -4.702577   -3.211298
  H      7.778329   -4.329347   -1.677651
  H      7.673189   -4.402845   -3.417586
  O      4.763396   -8.239424   -5.698629
  H      6.036826   -2.198189   -7.176852
  H      5.467610   -0.907371   -6.127968

 Total Charge           Charge          ....    0
 Multiplicity           Mult            ....    1
 Number of Electrons    NEL             ....  136
 Basis Dimension        Dim             ....  512

ORBITAL ENERGIES
----------------

  NO   OCC          E(Eh)            E(eV)
   0   2.0000     -88.522611     -2408.8227
   1   2.0000     -18.844315      -512.7799
   2   2.0000     -18.833249      -512.4788
   3   2.0000     -18.827081      -512.3109
   4   2.0000     -14.209011      -386.6468
   5   2.0000     -14.168396      -385.5417
   6   2.0000     -10.148012      -276.1414
   7   2.0000     -10.058207      -273.6977
   8   2.0000     -10.026342      -272.8306
   9   2.0000     -10.014755      -272.5153
  10   2.0000     -10.003280      -272.2031
  11   2.0000      -9.995230      -271.9840
  12   2.0000      -9.991375      -271.8791
  13   2.0000      -9.984497      -271.6920
  14   2.0000      -9.983338      -271.6604
  15   2.0000      -9.976039      -271.4618
  16   2.0000      -7.881472      -214.4657
  17   2.0000      -5.868395      -159.6871
  18   2.0000      -5.867295      -159.6572
  19   2.0000      -5.865814      -159.6169
  20   2.0000      -1.009909       -27.4810
  21   2.0000      -0.964147       -26.2358
  22   2.0000      -0.878504       -23.9053
  23   2.0000      -0.869366       -23.6566
  24   2.0000      -0.863194       -23.4887
  25   2.0000      -0.776416       -21.1274
  26   2.0000      -0.741898       -20.1881
  27   2.0000      -0.719676       -19.5834
  28   2.0000      -0.682620       -18.5750
  29   2.0000      -0.650890       -17.7116
  30   2.0000      -0.621331       -16.9073
  31   2.0000      -0.601523       -16.3683
  32   2.0000      -0.576278       -15.6813
  33   2.0000      -0.560889       -15.2626
  34   2.0000      -0.549865       -14.9626
  35   2.0000      -0.526405       -14.3242
  36   2.0000      -0.511726       -13.9248
  37   2.0000      -0.494525       -13.4567
  38   2.0000      -0.466099       -12.6832
  39   2.0000      -0.460080       -12.5194
  40   2.0000      -0.445169       -12.1137
  41   2.0000      -0.431481       -11.7412
  42   2.0000      -0.423984       -11.5372
  43   2.0000      -0.410841       -11.1795
  44   2.0000      -0.405796       -11.0423
  45   2.0000      -0.397416       -10.8142
  46   2.0000      -0.389407       -10.5963
  47   2.0000      -0.382522       -10.4089
  48   2.0000      -0.368458       -10.0263
  49   2.0000      -0.362038        -9.8516
  50   2.0000      -0.357677        -9.7329
  51   2.0000      -0.354257        -9.6398
  52   2.0000      -0.336795        -9.1647
  53   2.0000      -0.331688        -9.0257
  54   2.0000      -0.325495        -8.8572
  55   2.0000      -0.310450        -8.4478
  56   2.0000      -0.300381        -8.1738
  57   2.0000      -0.294441        -8.0121
  58   2.0000      -0.290879        -7.9152
  59   2.0000      -0.281397        -7.6572
  60   2.0000      -0.277510        -7.5514
  61   2.0000      -0.268071        -7.2946
  62   2.0000      -0.264778        -7.2050
  63   2.0000      -0.257770        -7.0143
  64   2.0000      -0.224372        -6.1055
  65   2.0000      -0.220875        -6.0103
  66   2.0000      -0.213702        -5.8151
  67   2.0000      -0.189021        -5.1435
  68   0.0000      -0.076713        -2.0875
  69   0.0000      -0.037062        -1.0085
  70   0.0000      -0.002716        -0.0739
  71   0.0000       0.007543         0.2053
  72   0.0000       0.014509         0.3948

MULLIKEN ATOMIC CHARGES
-----------------------
   0 C :    0.410557
   1 C :    0.441590
   2 C :   -0.043365
   3 H :    0.230946
   4 H :   -0.208069
   5 S :    1.344205
   6 C :    0.774774
   7 N :    0.052396
   8 N :    0.466047
   9 H :    0.036077
  10 H :   -0.247319
  11 H :   -0.087976
  12 H :   -0.164884
  13 O :   -0.999466
  14 O :   -0.845474
  15 C :    0.301143
  16 C :   -0.037945
  17 C :    0.134820
  18 H :    0.127591
  19 H :   -0.311942
  20 H :    0.077608
  21 H :    0.024154
  22 C :   -0.137130
  23 H :   -0.095323
  24 H :   -0.498317
  25 C :    0.538625
  26 H :    0.177829
  27 H :   -0.316252
  28 C :    0.037786
  29 H :    0.049800
  30 H :   -0.018985
  31 H :    0.028751
  32 H :   -0.299027
  33 H :   -0.284284
  34 H :    0.128841
  35 O :   -0.830729
  36 H :   -0.068279
  37 H :    0.111225
Sum of atomic charges:   -0.0000000

LOEWDIN ATOMIC CHARGES
----------------------
   0 C :    0.050881
   1 C :   -0.024357
   2 C :   -0.067754
   3 H :   -0.003348
   4 H :    0.020263
   5 S :    0.937049
   6 C :   -0.052401
   7 N :    0.253829
   8 N :    0.300903
   9 H :   -0.087018
  10 H :   -0.000071
  11 H :    0.014606
  12 H :    0.022730
  13 O :   -0.506613
  14 O :   -0.531683
  15 C :   -0.000024
  16 C :   -0.028122
  17 C :   -0.021128
  18 H :    0.011514
  19 H :    0.020536
  20 H :    0.020134
  21 H :    0.023822
  22 C :   -0.026645
  23 H :    0.033508
  24 H :   -0.000511
  25 C :   -0.021182
  26 H :    0.009842
  27 H :    0.016734
  28 C :   -0.022797
  29 H :    0.017787
  30 H :    0.019348
  31 H :    0.030887
  32 H :   -0.022462
  33 H :    0.021044
  34 H :    0.017521
  35 O :   -0.489766
  36 H :    0.042990
  37 H :    0.019954

  Mayer bond orders larger than 0.100000
B(  0-C ,  6-C ) :   0.9589 B(  0-C , 15-C ) :   1.2326 B(  0-C , 24-H ) :   0.1427
B(  0-C , 36-H ) :   0.6558 B(  0-C , 37-H ) :   0.7581 B(  1-C ,  2-C ) :   1.2286
B(  1-C ,  4-H ) :   0.1508 B(  1-C , 17-C ) :   1.2426 B(  1-C , 20-H ) :   0.7113
B(  1-C , 21-H ) :   0.6861 B(  2-C ,  3-H ) :   0.7857 B(  2-C ,  4-H ) :   0.9063
B(  2-C ,  5-S ) :   0.9402 B(  2-C , 20-H ) :   0.1748 B(  2-C , 21-H ) :   0.1214
B(  2-C , 35-O ) :   0.1618 B(  4-H ,  5-S ) :   0.1198 B(  5-S , 13-O ) :   0.9949
B(  5-S , 14-O ) :   1.2727 B(  5-S , 35-O ) :   1.3094 B(  6-C ,  7-N ) :   0.8812
B(  6-C ,  8-N ) :   1.2439 B(  6-C ,  9-H ) :  -0.2095 B(  6-C , 10-H ) :  -0.3682
B(  6-C , 11-H ) :  -0.1035 B(  6-C , 12-H ) :  -0.2152 B(  6-C , 36-H ) :   0.1868
B(  6-C , 37-H ) :   0.1266 B(  7-N ,  8-N ) :   0.1984 B(  7-N , 11-H ) :   1.2020
B(  7-N , 12-H ) :   1.3580 B(  8-N ,  9-H ) :   0.8711 B(  8-N , 10-H ) :   1.2328
B(  8-N , 24-H ) :   0.1056 B(  9-H , 10-H ) :  -0.2571 B(  9-H , 13-O ) :   0.1426
B( 10-H , 14-O ) :   0.1625 B( 11-H , 12-H ) :  -0.1768 B( 13-O , 14-O ) :   0.1278
B( 13-O , 18-H ) :   0.1046 B( 13-O , 24-H ) :   0.1926 B( 13-O , 35-O ) :   0.1329
B( 15-C , 22-C ) :   1.2131 B( 15-C , 23-H ) :   0.7928 B( 15-C , 24-H ) :   0.7080
B( 15-C , 26-H ) :   0.1218 B( 15-C , 27-H ) :   0.1642 B( 15-C , 36-H ) :   0.2693
B( 15-C , 37-H ) :   0.1576 B( 16-C , 17-C ) :   1.2237 B( 16-C , 18-H ) :   0.1169
B( 16-C , 19-H ) :   0.1643 B( 16-C , 28-C ) :   1.2234 B( 16-C , 31-H ) :   0.7881
B( 16-C , 32-H ) :   1.0188 B( 16-C , 33-H ) :   0.1986 B( 16-C , 34-H ) :   0.1239
B( 17-C , 18-H ) :   0.8253 B( 17-C , 19-H ) :   0.8992 B( 17-C , 20-H ) :   0.1104
B( 17-C , 21-H ) :   0.2235 B( 17-C , 28-C ) :   0.1341 B( 22-C , 23-H ) :   0.1475
B( 22-C , 24-H ) :   0.1964 B( 22-C , 25-C ) :   1.0995 B( 22-C , 26-H ) :   0.8082
B( 22-C , 27-H ) :   1.0738 B( 22-C , 28-C ) :   0.1172 B( 22-C , 29-H ) :   0.1364
B( 22-C , 30-H ) :   0.2184 B( 25-C , 28-C ) :   1.1345 B( 25-C , 29-H ) :   0.6936
B( 25-C , 30-H ) :   0.7236 B( 26-H , 32-H ) :   0.1341 B( 28-C , 29-H ) :   0.1970
B( 28-C , 30-H ) :   0.1364 B( 28-C , 31-H ) :   0.1020 B( 28-C , 33-H ) :   0.9896
B( 28-C , 34-H ) :   0.8217 B( 31-H , 32-H ) :   0.1118

Dispersion correction           -0.057946376
FINAL SINGLE POINT ENERGY     -1127.243309366868

DIPOLE MOMENT
-------------
                                X             Y             Z
Electronic contribution:     -9.19836     -11.50743     -14.18792
Nuclear contribution   :      8.53517      16.50844      14.36520
                        -----------------------------------------
Total Dipole Moment    :     -0.66319       5.00101       0.17728
                        -----------------------------------------
Magnitude (a.u.)       :      5.04790
Magnitude (Debye)      :     12.83075

Rotational constants in cm-1:     0.017951     0.012436     0.008288
Rotational constants in MHz :   538.163255   372.824050   248.467077

                             ****ORCA TERMINATED NORMALLY****
TOTAL RUN TIME: 0 days 0 hours 1 minutes 37 seconds 82 msec
