                         Program Version 5.0.0 -  RELEASE  -
|  1> !TPSS D3BJ RIJCOSX def2-SVPD def2/J TightSCF
|  2> *xyz 0 1
|  3> C          4.93020       -7.37532       -2.64962
|  4> C          3.84189       -6.95161       -3.63283
|  5> H          3.45814       -5.95442       -3.40712
|  6> H          2.98848       -7.64361       -3.56708
|  7> S          4.31812       -6.91593       -5.36869
|  8> F          5.40615       -5.89948       -5.51297
|  9> O          3.11191       -6.44508       -6.04379
| 10> O          4.76340       -8.23942       -5.69863
| 11> H          5.27901       -8.35440       -2.90385
| 12> H          4.53000       -7.38577       -1.65734
| 13> H          5.74437       -6.68276       -2.69856
| 14> *
| 15>
| 16> %MaxCore 64000
| 17>
| 18> %pal nprocs 4
| 19> end
| 20>
| 21> %scf
| 22>   MaxIter 150
| 23> end
| 24>
| 25>
| 26>                          ****END OF INPUT****

CARTESIAN COORDINATES (ANGSTROEM)
---------------------------------
  C      4.930200   -7.375320   -2.649620
  C      3.841890   -6.951610   -3.632830
  H      3.458140   -5.954420   -3.407120
  H      2.988480   -7.643610   -3.567080
  S      4.318120   -6.915930   -5.368690
  F      5.406150   -5.899480   -5.512970
  O      3.111910   -6.445080   -6.043790
  O      4.763400   -8.239420   -5.698630
  H      5.279010   -8.354400   -2.903850
  H      4.530000   -7.385770   -1.657340
  H      5.744370   -6.682760   -2.698560

 Total Charge           Charge          ....    0
 Multiplicity           Mult            ....    1
 Number of Electrons    NEL             ....   58
 Basis Dimension        Dim             ....  176

ORBITAL ENERGIES
----------------

  NO   OCC          E(Eh)            E(eV)
   0   2.0000     -88.619128     -2411.4491
   1   2.0000     -24.519265      -667.2031
   2   2.0000     -18.916628      -514.7476
   3   2.0000     -18.907367      -514.4956
   4   2.0000     -10.066209      -273.9155
   5   2.0000     -10.026818      -272.8436
   6   2.0000      -7.980245      -217.1535
   7   2.0000      -5.970258      -162.4590
   8   2.0000      -5.964216      -162.2946
   9   2.0000      -5.962425      -162.2458
  10   2.0000      -1.251382       -34.0518
  11   2.0000      -1.041378       -28.3373
  12   2.0000      -0.949642       -25.8411
  13   2.0000      -0.763374       -20.7725
  14   2.0000      -0.662926       -18.0391
  15   2.0000      -0.618552       -16.8317
  16   2.0000      -0.527081       -14.3426
  17   2.0000      -0.501045       -13.6341
  18   2.0000      -0.494633       -13.4596
  19   2.0000      -0.453407       -12.3378
  20   2.0000      -0.433948       -11.8083
  21   2.0000      -0.411938       -11.2094
  22   2.0000      -0.395204       -10.7541
  23   2.0000      -0.372494       -10.1361
  24   2.0000      -0.366648        -9.9770
  25   2.0000      -0.341117        -9.2823
  26   2.0000      -0.300546        -8.1783
  27   2.0000      -0.290196        -7.8966
  28   2.0000      -0.276734        -7.5303
  29   0.0000      -0.029151        -0.7932
  30   0.0000       0.009391         0.2555
  31   0.0000       0.017769         0.4835
  32   0.0000       0.025967         0.7066
  33   0.0000       0.030824         0.8388

MULLIKEN ATOMIC CHARGES
-----------------------
   0 C :    0.701997
   1 C :   -0.422028
   2 H :    0.011671
   3 H :    0.074047
   4 S :    1.434229
   5 F :   -0.407421
   6 O :   -0.656080
   7 O :   -0.647536
   8 H :   -0.010011
   9 H :   -0.040516
  10 H :   -0.038351
Sum of atomic charges:   -0.0000000

LOEWDIN ATOMIC CHARGES
----------------------
   0 C :    0.140313
   1 C :   -0.087503
   2 H :    0.017560
   3 H :    0.036636
   4 S :    1.103513
   5 F :   -0.270801
   6 O :   -0.462250
   7 O :   -0.446876
   8 H :   -0.009217
   9 H :   -0.008884
  10 H :   -0.012491

  Mayer bond orders larger than 0.100000
B(  0-C ,  1-C ) :   1.3122 B(  0-C ,  8-H ) :   0.8325 B(  0-C ,  9-H ) :   0.7546
B(  0-C , 10-H ) :   0.8336 B(  1-C ,  2-H ) :   0.9987 B(  1-C ,  3-H ) :   0.9675
B(  1-C ,  4-S ) :   0.9697 B(  1-C ,  8-H ) :   0.1904 B(  1-C ,  9-H ) :   0.2018
B(  1-C , 10-H ) :   0.1808 B(  4-S ,  5-F ) :   0.6143 B(  4-S ,  6-O ) :   1.5414
B(  4-S ,  7-O ) :   1.5324

Dispersion correction           -0.011463517
FINAL SINGLE POINT ENERGY      -727.360061877899

DIPOLE MOMENT
-------------
                                X             Y             Z
Electronic contribution:      1.28287       2.60466      -8.77324
Nuclear contribution   :     -0.98922      -2.24849      10.35711
                        -----------------------------------------
Total Dipole Moment    :      0.29365       0.35616       1.58387
                        -----------------------------------------
Magnitude (a.u.)       :      1.64977
Magnitude (Debye)      :      4.19337

Rotational constants in cm-1:     0.151436     0.080885     0.078670
Rotational constants in MHz :  4539.936009  2424.868817  2358.476812

                             ****ORCA TERMINATED NORMALLY****
TOTAL RUN TIME: 0 days 0 hours 0 minutes 13 seconds 719 msec
