                         Program Version 5.0.0 -  RELEASE  -
|  1> !TPSS D3BJ RIJCOSX def2-SVPD def2/J TightSCF
|  2> *xyz 0 1
|  3> C          5.55821       -1.99291       -6.21505
|  4> C          4.18188       -2.58967       -6.29891
|  5> C          3.14587       -1.76843       -6.48675
|  6> N          4.01910       -3.86431       -6.22743
|  7> H          4.76849       -4.59115       -5.99077
|  8> H          3.12241       -4.33339       -6.31462
|  9> H          3.28164       -0.77779       -6.56655
| 10> H          2.21255       -2.13419       -6.56225
| 11> C          6.41926       -2.54294       -5.07763
| 12> H          6.03683       -2.19819       -7.17685
| 13> H          5.46761       -0.90737       -6.12797
| 14> H          6.50056       -3.60553       -5.17358
| 15> H          5.96544       -2.30329       -4.13874
| 16> H          7.39438       -2.10494       -5.12457
| 17> *
| 18>
| 19> %MaxCore 64000
| 20>
| 21> %pal nprocs 4
| 22> end
| 23>
| 24> %scf
| 25>   MaxIter 150
| 26> end
| 27>
| 28>
| 29>                          ****END OF INPUT****

CARTESIAN COORDINATES (ANGSTROEM)
---------------------------------
  C      5.558210   -1.992910   -6.215050
  C      4.181880   -2.589670   -6.298910
  C      3.145870   -1.768430   -6.486750
  N      4.019100   -3.864310   -6.227430
  H      4.768490   -4.591150   -5.990770
  H      3.122410   -4.333390   -6.314620
  H      3.281640   -0.777790   -6.566550
  H      2.212550   -2.134190   -6.562250
  C      6.419260   -2.542940   -5.077630
  H      6.036830   -2.198190   -7.176850
  H      5.467610   -0.907370   -6.127970
  H      6.500560   -3.605530   -5.173580
  H      5.965440   -2.303290   -4.138740
  H      7.394380   -2.104940   -5.124570

 Total Charge           Charge          ....    0
 Multiplicity           Mult            ....    1
 Number of Electrons    NEL             ....   40
 Basis Dimension        Dim             ....  172

ORBITAL ENERGIES
----------------

  NO   OCC          E(Eh)            E(eV)
   0   2.0000     -14.127481      -384.4283
   1   2.0000     -10.015025      -272.5227
   2   2.0000      -9.999605      -272.1031
   3   2.0000      -9.991505      -271.8827
   4   2.0000      -9.929330      -270.1908
   5   2.0000      -0.861798       -23.4507
   6   2.0000      -0.714115       -19.4320
   7   2.0000      -0.655880       -17.8474
   8   2.0000      -0.575815       -15.6687
   9   2.0000      -0.533058       -14.5052
  10   2.0000      -0.472923       -12.8689
  11   2.0000      -0.428376       -11.6567
  12   2.0000      -0.401711       -10.9311
  13   2.0000      -0.382127       -10.3982
  14   2.0000      -0.352350        -9.5879
  15   2.0000      -0.342893        -9.3306
  16   2.0000      -0.321792        -8.7564
  17   2.0000      -0.295969        -8.0537
  18   2.0000      -0.291867        -7.9421
  19   2.0000      -0.154690        -4.2093
  20   0.0000       0.000830         0.0226
  21   0.0000       0.022208         0.6043
  22   0.0000       0.039127         1.0647
  23   0.0000       0.042533         1.1574
  24   0.0000       0.062629         1.7042

MULLIKEN ATOMIC CHARGES
-----------------------
   0 C :   -0.163583
   1 C :   -0.032696
   2 C :    0.451763
   3 N :    0.144514
   4 H :   -0.090490
   5 H :   -0.245011
   6 H :   -0.148747
   7 H :   -0.429049
   8 C :    0.656809
   9 H :   -0.056853
  10 H :    0.122879
  11 H :   -0.149393
  12 H :   -0.038679
  13 H :   -0.021464
Sum of atomic charges:   -0.0000000

LOEWDIN ATOMIC CHARGES
----------------------
   0 C :   -0.021363
   1 C :   -0.266579
   2 C :    0.182263
   3 N :    0.148709
   4 H :    0.038707
   5 H :    0.008912
   6 H :   -0.095538
   7 H :   -0.095369
   8 C :    0.134479
   9 H :    0.022857
  10 H :    0.020295
  11 H :   -0.041833
  12 H :   -0.014499
  13 H :   -0.021043

  Mayer bond orders larger than 0.100000
B(  0-C ,  1-C ) :   1.0909 B(  0-C ,  8-C ) :   1.2738 B(  0-C ,  9-H ) :   0.8469
B(  0-C , 10-H ) :   0.8785 B(  0-C , 11-H ) :   0.1982 B(  0-C , 12-H ) :   0.1933
B(  0-C , 13-H ) :   0.1945 B(  1-C ,  2-C ) :   1.5687 B(  1-C ,  3-N ) :   1.2478
B(  1-C ,  5-H ) :  -0.1234 B(  1-C ,  7-H ) :   0.2238 B(  1-C ,  9-H ) :   0.2067
B(  2-C ,  3-N ) :   0.2680 B(  2-C ,  6-H ) :   1.0586 B(  2-C ,  7-H ) :   0.6843
B(  3-N ,  4-H ) :   1.1953 B(  3-N ,  5-H ) :   1.2833 B(  4-H ,  5-H ) :  -0.1485
B(  8-C , 10-H ) :   0.1111 B(  8-C , 11-H ) :   0.8393 B(  8-C , 12-H ) :   0.7901
B(  8-C , 13-H ) :   0.7963

Dispersion correction           -0.012840611
FINAL SINGLE POINT ENERGY      -212.459018920937

DIPOLE MOMENT
-------------
                                X             Y             Z
Electronic contribution:     -2.06365      -1.05742      -1.03231
Nuclear contribution   :      2.41345       0.31141       1.16343
                        -----------------------------------------
Total Dipole Moment    :      0.34980      -0.74601       0.13112
                        -----------------------------------------
Magnitude (a.u.)       :      0.83431
Magnitude (Debye)      :      2.12065

Rotational constants in cm-1:     0.287957     0.129204     0.097498
Rotational constants in MHz :  8632.737925  3873.424745  2922.919500

                             ****ORCA TERMINATED NORMALLY****
TOTAL RUN TIME: 0 days 0 hours 0 minutes 15 seconds 276 msec
