                         Program Version 5.0.0 -  RELEASE  -
|  1> !TPSS D3BJ RIJCOSX def2-SVPD def2/J TightSCF
|  2> *xyz 0 1
|  3> C          4.93020       -7.37532       -2.64962
|  4> C          3.84189       -6.95161       -3.63283
|  5> H          3.45814       -5.95442       -3.40712
|  6> H          2.98848       -7.64361       -3.56708
|  7> S          4.31812       -6.91593       -5.36869
|  8> O          5.40615       -5.89948       -5.51297
|  9> F          3.11191       -6.44508       -6.04379
| 10> O          4.76340       -8.23942       -5.69863
| 11> H          5.27901       -8.35440       -2.90385
| 12> H          4.53000       -7.38577       -1.65734
| 13> H          5.74437       -6.68276       -2.69856
| 14> *
| 15>
| 16> %MaxCore 64000
| 17>
| 18> %pal nprocs 4
| 19> end
| 20>
| 21> %scf
| 22>   MaxIter 150
| 23> end
| 24>
| 25>
| 26>                          ****END OF INPUT****

CARTESIAN COORDINATES (ANGSTROEM)
---------------------------------
  C      4.930200   -7.375320   -2.649620
  C      3.841890   -6.951610   -3.632830
  H      3.458140   -5.954420   -3.407120
  H      2.988480   -7.643610   -3.567080
  S      4.318120   -6.915930   -5.368690
  O      5.406150   -5.899480   -5.512970
  F      3.111910   -6.445080   -6.043790
  O      4.763400   -8.239420   -5.698630
  H      5.279010   -8.354400   -2.903850
  H      4.530000   -7.385770   -1.657340
  H      5.744370   -6.682760   -2.698560

 Total Charge           Charge          ....    0
 Multiplicity           Mult            ....    1
 Number of Electrons    NEL             ....   58
 Basis Dimension        Dim             ....  176

ORBITAL ENERGIES
----------------

  NO   OCC          E(Eh)            E(eV)
   0   2.0000     -88.620953     -2411.4987
   1   2.0000     -24.533320      -667.5856
   2   2.0000     -18.915971      -514.7297
   3   2.0000     -18.899855      -514.2912
   4   2.0000     -10.067154      -273.9412
   5   2.0000     -10.025912      -272.8189
   6   2.0000      -7.982023      -217.2019
   7   2.0000      -5.972234      -162.5128
   8   2.0000      -5.965847      -162.3389
   9   2.0000      -5.964027      -162.2894
  10   2.0000      -1.278056       -34.7777
  11   2.0000      -1.035209       -28.1695
  12   2.0000      -0.931229       -25.3400
  13   2.0000      -0.763412       -20.7735
  14   2.0000      -0.675938       -18.3932
  15   2.0000      -0.618746       -16.8369
  16   2.0000      -0.529737       -14.4149
  17   2.0000      -0.519418       -14.1341
  18   2.0000      -0.503696       -13.7063
  19   2.0000      -0.454900       -12.3784
  20   2.0000      -0.437900       -11.9159
  21   2.0000      -0.399911       -10.8821
  22   2.0000      -0.393443       -10.7061
  23   2.0000      -0.375782       -10.2255
  24   2.0000      -0.356368        -9.6973
  25   2.0000      -0.343192        -9.3387
  26   2.0000      -0.297545        -8.0966
  27   2.0000      -0.282510        -7.6875
  28   2.0000      -0.263420        -7.1680
  29   0.0000      -0.019827        -0.5395
  30   0.0000      -0.001881        -0.0512
  31   0.0000       0.022901         0.6232
  32   0.0000       0.028967         0.7882
  33   0.0000       0.032744         0.8910

MULLIKEN ATOMIC CHARGES
-----------------------
   0 C :    0.676189
   1 C :   -0.441101
   2 H :    0.020294
   3 H :    0.076822
   4 S :    1.453013
   5 O :   -0.684410
   6 F :   -0.393193
   7 O :   -0.637299
   8 H :   -0.014413
   9 H :   -0.037612
  10 H :   -0.018290
Sum of atomic charges:   -0.0000000

LOEWDIN ATOMIC CHARGES
----------------------
   0 C :    0.155911
   1 C :   -0.099452
   2 H :    0.016437
   3 H :    0.022017
   4 S :    1.105659
   5 O :   -0.472583
   6 F :   -0.261924
   7 O :   -0.448852
   8 H :   -0.006209
   9 H :   -0.006042
  10 H :   -0.004961

  Mayer bond orders larger than 0.100000
B(  0-C ,  1-C ) :   1.3577 B(  0-C ,  8-H ) :   0.8250 B(  0-C ,  9-H ) :   0.7613
B(  0-C , 10-H ) :   0.8362 B(  1-C ,  2-H ) :   0.9852 B(  1-C ,  3-H ) :   0.9513
B(  1-C ,  4-S ) :   0.9410 B(  1-C ,  8-H ) :   0.1888 B(  1-C ,  9-H ) :   0.2002
B(  1-C , 10-H ) :   0.1843 B(  4-S ,  5-O ) :   1.4823 B(  4-S ,  6-F ) :   0.6697
B(  4-S ,  7-O ) :   1.5282

Dispersion correction           -0.011510652
FINAL SINGLE POINT ENERGY      -727.348695054145

DIPOLE MOMENT
-------------
                                X             Y             Z
Electronic contribution:     -2.53751       1.68894      -9.66303
Nuclear contribution   :      1.40145      -1.67996      10.91024
                        -----------------------------------------
Total Dipole Moment    :     -1.13606       0.00897       1.24721
                        -----------------------------------------
Magnitude (a.u.)       :      1.68708
Magnitude (Debye)      :      4.28822

Rotational constants in cm-1:     0.155875     0.079864     0.077188
Rotational constants in MHz :  4673.017506  2394.277415  2314.027118

                             ****ORCA TERMINATED NORMALLY****
TOTAL RUN TIME: 0 days 0 hours 0 minutes 13 seconds 487 msec
