                         Program Version 5.0.0 -  RELEASE  -
|  1> !TPSS D3BJ RIJCOSX def2-SVPD def2/J TightSCF
|  2> *xyz 0 1
|  3> C          5.55821       -1.99291       -6.21505
|  4> C          4.18188       -2.58967       -6.29891
|  5> N          3.14587       -1.76843       -6.48675
|  6> C          4.01910       -3.86431       -6.22743
|  7> H          4.76849       -4.59115       -5.99077
|  8> H          3.12241       -4.33339       -6.31462
|  9> H          3.28164       -0.77779       -6.56655
| 10> H          2.21255       -2.13419       -6.56225
| 11> C          6.41926       -2.54294       -5.07763
| 12> H          6.03683       -2.19819       -7.17685
| 13> H          5.46761       -0.90737       -6.12797
| 14> H          6.50056       -3.60553       -5.17358
| 15> H          5.96544       -2.30329       -4.13874
| 16> H          7.39438       -2.10494       -5.12457
| 17> *
| 18>
| 19> %MaxCore 64000
| 20>
| 21> %pal nprocs 4
| 22> end
| 23>
| 24> %scf
| 25>   MaxIter 150
| 26> end
| 27>
| 28>
| 29>                          ****END OF INPUT****

CARTESIAN COORDINATES (ANGSTROEM)
---------------------------------
  C      5.558210   -1.992910   -6.215050
  C      4.181880   -2.589670   -6.298910
  N      3.145870   -1.768430   -6.486750
  C      4.019100   -3.864310   -6.227430
  H      4.768490   -4.591150   -5.990770
  H      3.122410   -4.333390   -6.314620
  H      3.281640   -0.777790   -6.566550
  H      2.212550   -2.134190   -6.562250
  C      6.419260   -2.542940   -5.077630
  H      6.036830   -2.198190   -7.176850
  H      5.467610   -0.907370   -6.127970
  H      6.500560   -3.605530   -5.173580
  H      5.965440   -2.303290   -4.138740
  H      7.394380   -2.104940   -5.124570

 Total Charge           Charge          ....    0
 Multiplicity           Mult            ....    1
 Number of Electrons    NEL             ....   40
 Basis Dimension        Dim             ....  172

ORBITAL ENERGIES
----------------

  NO   OCC          E(Eh)            E(eV)
   0   2.0000     -14.117279      -384.1507
   1   2.0000     -10.013036      -272.4686
   2   2.0000     -10.000735      -272.1338
   3   2.0000      -9.985689      -271.7244
   4   2.0000      -9.936186      -270.3774
   5   2.0000      -0.852375       -23.1943
   6   2.0000      -0.717212       -19.5163
   7   2.0000      -0.652072       -17.7438
   8   2.0000      -0.585677       -15.9371
   9   2.0000      -0.508807       -13.8454
  10   2.0000      -0.478907       -13.0317
  11   2.0000      -0.441535       -12.0148
  12   2.0000      -0.406022       -11.0484
  13   2.0000      -0.376974       -10.2580
  14   2.0000      -0.344649        -9.3784
  15   2.0000      -0.334844        -9.1116
  16   2.0000      -0.314512        -8.5583
  17   2.0000      -0.299517        -8.1503
  18   2.0000      -0.287491        -7.8230
  19   2.0000      -0.161527        -4.3954
  20   0.0000       0.009418         0.2563
  21   0.0000       0.022066         0.6004
  22   0.0000       0.039185         1.0663
  23   0.0000       0.045164         1.2290
  24   0.0000       0.066941         1.8216

MULLIKEN ATOMIC CHARGES
-----------------------
   0 C :   -0.115148
   1 C :    0.377593
   2 N :    0.135370
   3 C :    0.007447
   4 H :    0.034596
   5 H :   -0.484642
   6 H :   -0.154515
   7 H :   -0.201546
   8 C :    0.684709
   9 H :   -0.059643
  10 H :   -0.042588
  11 H :   -0.120310
  12 H :   -0.043085
  13 H :   -0.018238
Sum of atomic charges:   -0.0000000

LOEWDIN ATOMIC CHARGES
----------------------
   0 C :   -0.025597
   1 C :   -0.254266
   2 N :    0.176640
   3 C :    0.155626
   4 H :   -0.049476
   5 H :   -0.088137
   6 H :   -0.015476
   7 H :   -0.000557
   8 C :    0.140301
   9 H :    0.025272
  10 H :    0.006940
  11 H :   -0.033926
  12 H :   -0.014748
  13 H :   -0.022596

  Mayer bond orders larger than 0.100000
B(  0-C ,  1-C ) :   0.9804 B(  0-C ,  2-N ) :   0.1267 B(  0-C ,  8-C ) :   1.3096
B(  0-C ,  9-H ) :   0.8969 B(  0-C , 10-H ) :   0.8330 B(  0-C , 11-H ) :   0.1861
B(  0-C , 12-H ) :   0.2023 B(  0-C , 13-H ) :   0.1718 B(  1-C ,  2-N ) :   1.0122
B(  1-C ,  3-C ) :   1.4328 B(  1-C ,  7-H ) :  -0.1471 B(  1-C ,  9-H ) :   0.1310
B(  1-C , 10-H ) :   0.1210 B(  2-N ,  3-C ) :   0.3266 B(  2-N ,  6-H ) :   1.1417
B(  2-N ,  7-H ) :   1.3195 B(  3-C ,  4-H ) :   0.8880 B(  3-C ,  5-H ) :   0.9083
B(  6-H ,  7-H ) :  -0.1555 B(  8-C , 11-H ) :   0.8404 B(  8-C , 12-H ) :   0.7993
B(  8-C , 13-H ) :   0.7991

Dispersion correction           -0.012885411
FINAL SINGLE POINT ENERGY      -212.467976088458

DIPOLE MOMENT
-------------
                                X             Y             Z
Electronic contribution:     -2.82714       0.79944      -1.29001
Nuclear contribution   :      2.61570      -0.17401       1.22349
                        -----------------------------------------
Total Dipole Moment    :     -0.21144       0.62542      -0.06652
                        -----------------------------------------
Magnitude (a.u.)       :      0.66354
Magnitude (Debye)      :      1.68659

Rotational constants in cm-1:     0.298189     0.125314     0.096441
Rotational constants in MHz :  8939.495008  3756.825352  2891.223400

                             ****ORCA TERMINATED NORMALLY****
TOTAL RUN TIME: 0 days 0 hours 0 minutes 14 seconds 115 msec
