                         Program Version 5.0.0 -  RELEASE  -
|  1> !TPSS D3BJ RIJCOSX def2-SVPD def2/J TightSCF
|  2> *xyz 0 1
|  3> C          4.93020       -7.37532       -2.64962
|  4> C          3.84189       -6.95161       -3.63283
|  5> H          3.45814       -5.95442       -3.40712
|  6> H          2.98848       -7.64361       -3.56708
|  7> S          4.31812       -6.91593       -5.36869
|  8> O          5.40615       -5.89948       -5.51297
|  9> O          3.11191       -6.44508       -6.04379
| 10> F          4.76340       -8.23942       -5.69863
| 11> H          5.27901       -8.35440       -2.90385
| 12> H          4.53000       -7.38577       -1.65734
| 13> H          5.74437       -6.68276       -2.69856
| 14> *
| 15>
| 16> %MaxCore 64000
| 17>
| 18> %pal nprocs 4
| 19> end
| 20>
| 21> %scf
| 22>   MaxIter 150
| 23> end
| 24>
| 25>
| 26>                          ****END OF INPUT****

CARTESIAN COORDINATES (ANGSTROEM)
---------------------------------
  C      4.930200   -7.375320   -2.649620
  C      3.841890   -6.951610   -3.632830
  H      3.458140   -5.954420   -3.407120
  H      2.988480   -7.643610   -3.567080
  S      4.318120   -6.915930   -5.368690
  O      5.406150   -5.899480   -5.512970
  O      3.111910   -6.445080   -6.043790
  F      4.763400   -8.239420   -5.698630
  H      5.279010   -8.354400   -2.903850
  H      4.530000   -7.385770   -1.657340
  H      5.744370   -6.682760   -2.698560

 Total Charge           Charge          ....    0
 Multiplicity           Mult            ....    1
 Number of Electrons    NEL             ....   58
 Basis Dimension        Dim             ....  176

ORBITAL ENERGIES
----------------

  NO   OCC          E(Eh)            E(eV)
   0   2.0000     -88.622543     -2411.5420
   1   2.0000     -24.546320      -667.9393
   2   2.0000     -18.907702      -514.5047
   3   2.0000     -18.900840      -514.3180
   4   2.0000     -10.067517      -273.9511
   5   2.0000     -10.027871      -272.8722
   6   2.0000      -7.983566      -217.2439
   7   2.0000      -5.974067      -162.5626
   8   2.0000      -5.967149      -162.3744
   9   2.0000      -5.965426      -162.3275
  10   2.0000      -1.300063       -35.3765
  11   2.0000      -1.024340       -27.8737
  12   2.0000      -0.924103       -25.1461
  13   2.0000      -0.765800       -20.8385
  14   2.0000      -0.679081       -18.4787
  15   2.0000      -0.628928       -17.1140
  16   2.0000      -0.547030       -14.8854
  17   2.0000      -0.533327       -14.5126
  18   2.0000      -0.501133       -13.6365
  19   2.0000      -0.454315       -12.3625
  20   2.0000      -0.435026       -11.8377
  21   2.0000      -0.409554       -11.1445
  22   2.0000      -0.391589       -10.6557
  23   2.0000      -0.373517       -10.1639
  24   2.0000      -0.362588        -9.8665
  25   2.0000      -0.333960        -9.0875
  26   2.0000      -0.289184        -7.8691
  27   2.0000      -0.281707        -7.6656
  28   2.0000      -0.257980        -7.0200
  29   0.0000      -0.026622        -0.7244
  30   0.0000       0.007384         0.2009
  31   0.0000       0.019375         0.5272
  32   0.0000       0.025197         0.6856
  33   0.0000       0.030326         0.8252

MULLIKEN ATOMIC CHARGES
-----------------------
   0 C :    0.700841
   1 C :   -0.418968
   2 H :    0.017309
   3 H :    0.068910
   4 S :    1.417717
   5 O :   -0.677181
   6 O :   -0.639164
   7 F :   -0.380980
   8 H :   -0.034480
   9 H :   -0.039752
  10 H :   -0.014252
Sum of atomic charges:    0.0000000

LOEWDIN ATOMIC CHARGES
----------------------
   0 C :    0.140080
   1 C :   -0.088201
   2 H :    0.031011
   3 H :    0.023075
   4 S :    1.105270
   5 O :   -0.470289
   6 O :   -0.461840
   7 F :   -0.248728
   8 H :   -0.013916
   9 H :   -0.008665
  10 H :   -0.007798

  Mayer bond orders larger than 0.100000
B(  0-C ,  1-C ) :   1.3099 B(  0-C ,  8-H ) :   0.8233 B(  0-C ,  9-H ) :   0.7550
B(  0-C , 10-H ) :   0.8433 B(  1-C ,  2-H ) :   1.0020 B(  1-C ,  3-H ) :   0.9652
B(  1-C ,  4-S ) :   0.9667 B(  1-C ,  8-H ) :   0.1851 B(  1-C ,  9-H ) :   0.2021
B(  1-C , 10-H ) :   0.1853 B(  4-S ,  5-O ) :   1.4951 B(  4-S ,  6-O ) :   1.5467
B(  4-S ,  7-F ) :   0.6811

Dispersion correction           -0.011453405
FINAL SINGLE POINT ENERGY      -727.337285463410

DIPOLE MOMENT
-------------
                                X             Y             Z
Electronic contribution:      0.20257      -1.27329      -9.08478
Nuclear contribution   :     -0.31946       0.18980      10.55057
                        -----------------------------------------
Total Dipole Moment    :     -0.11688      -1.08349       1.46579
                        -----------------------------------------
Magnitude (a.u.)       :      1.82651
Magnitude (Debye)      :      4.64263

Rotational constants in cm-1:     0.151421     0.081183     0.078684
Rotational constants in MHz :  4539.489207  2433.790160  2358.892966

                             ****ORCA TERMINATED NORMALLY****
TOTAL RUN TIME: 0 days 0 hours 0 minutes 15 seconds 867 msec
