                         Program Version 5.0.0 -  RELEASE  -
|  1> !TPSS D3BJ RIJCOSX def2-SVPD def2/J TightSCF xyzfile
|  2>
|  3> *xyzfile 0 1 D2.xyz
|  4>
|  5> %MaxCore 64000
|  6>
|  7> %pal nprocs 4
|  8> end
|  9>
| 10> %scf
| 11>   MaxIter 150
| 12> end
| 13>
| 14>
| 15>                          ****END OF INPUT****

CARTESIAN COORDINATES (ANGSTROEM)
---------------------------------
  C      5.558206   -1.992914   -6.215054
  C      4.930199   -7.375319   -2.649623
  C      3.841892   -6.951611   -3.632829
  H      3.458144   -5.954425   -3.407121
  H      2.988484   -7.643606   -3.567078
  S      4.318115   -6.915930   -5.368692
  C      4.181880   -2.589671   -6.298911
  N      3.145873   -1.768431   -6.486753
  C      4.019102   -3.864307   -6.227427
  H      4.768490   -4.591153   -5.990773
  H      3.122405   -4.333392   -6.314620
  H      3.281635   -0.777786   -6.566549
  H      2.212549   -2.134193   -6.562246
  F      5.406154   -5.899480   -5.512972
  O      3.111910   -6.445079   -6.043792
  C      6.419260   -2.542944   -5.077630
  C      5.872267   -5.002756   -2.427819
  C      6.173994   -6.485522   -2.606315
  H      6.734852   -6.613767   -3.534015
  H      6.821463   -6.831018   -1.793617
  H      4.469612   -7.406168   -1.655876
  H      5.230134   -8.398678   -2.885906
  C      5.896512   -2.169314   -3.694552
  H      7.428880   -2.143665   -5.208078
  H      6.505894   -3.627541   -5.175502
  C      6.807804   -2.623428   -2.551019
  H      4.894708   -2.589732   -3.557501
  H      5.778823   -1.081255   -3.635790
  C      7.111544   -4.122463   -2.520363
  H      7.751615   -2.071393   -2.614406
  H      6.345837   -2.326401   -1.604086
  H      5.362882   -4.828697   -1.471335
  H      5.174429   -4.702577   -3.211298
  H      7.778329   -4.329347   -1.677651
  H      7.673189   -4.402845   -3.417586
  O      4.763396   -8.239424   -5.698629
  H      6.036826   -2.198189   -7.176852
  H      5.467610   -0.907371   -6.127968

 Total Charge           Charge          ....    0
 Multiplicity           Mult            ....    1
 Number of Electrons    NEL             ....  136
 Basis Dimension        Dim             ....  512

ORBITAL ENERGIES
----------------

  NO   OCC          E(Eh)            E(eV)
   0   2.0000     -88.617262     -2411.3983
   1   2.0000     -24.518752      -667.1892
   2   2.0000     -18.913408      -514.6600
   3   2.0000     -18.901687      -514.3411
   4   2.0000     -14.111447      -383.9920
   5   2.0000     -10.057699      -273.6839
   6   2.0000     -10.026291      -272.8293
   7   2.0000     -10.011512      -272.4271
   8   2.0000     -10.004132      -272.2263
   9   2.0000     -10.003820      -272.2178
  10   2.0000      -9.999573      -272.1022
  11   2.0000      -9.996562      -272.0203
  12   2.0000      -9.996512      -272.0189
  13   2.0000      -9.995704      -271.9969
  14   2.0000      -9.992324      -271.9050
  15   2.0000      -9.915005      -269.8010
  16   2.0000      -7.976860      -217.0614
  17   2.0000      -5.967151      -162.3744
  18   2.0000      -5.960828      -162.2024
  19   2.0000      -5.959000      -162.1526
  20   2.0000      -1.255801       -34.1721
  21   2.0000      -1.037887       -28.2423
  22   2.0000      -0.945618       -25.7316
  23   2.0000      -0.845805       -23.0155
  24   2.0000      -0.775825       -21.1113
  25   2.0000      -0.750417       -20.4199
  26   2.0000      -0.723269       -19.6812
  27   2.0000      -0.696568       -18.9546
  28   2.0000      -0.661650       -18.0044
  29   2.0000      -0.651603       -17.7310
  30   2.0000      -0.626384       -17.0448
  31   2.0000      -0.603051       -16.4098
  32   2.0000      -0.568882       -15.4801
  33   2.0000      -0.553313       -15.0564
  34   2.0000      -0.532836       -14.4992
  35   2.0000      -0.512454       -13.9446
  36   2.0000      -0.511916       -13.9299
  37   2.0000      -0.495148       -13.4737
  38   2.0000      -0.489974       -13.3329
  39   2.0000      -0.469739       -12.7822
  40   2.0000      -0.451999       -12.2995
  41   2.0000      -0.445825       -12.1315
  42   2.0000      -0.441459       -12.0127
  43   2.0000      -0.426024       -11.5927
  44   2.0000      -0.414744       -11.2858
  45   2.0000      -0.411749       -11.2043
  46   2.0000      -0.405362       -11.0305
  47   2.0000      -0.393932       -10.7194
  48   2.0000      -0.378527       -10.3002
  49   2.0000      -0.373996       -10.1769
  50   2.0000      -0.365706        -9.9514
  51   2.0000      -0.362900        -9.8750
  52   2.0000      -0.338645        -9.2150
  53   2.0000      -0.335089        -9.1182
  54   2.0000      -0.329945        -8.9782
  55   2.0000      -0.324471        -8.8293
  56   2.0000      -0.314473        -8.5572
  57   2.0000      -0.312155        -8.4942
  58   2.0000      -0.303125        -8.2484
  59   2.0000      -0.299166        -8.1407
  60   2.0000      -0.295079        -8.0295
  61   2.0000      -0.289044        -7.8653
  62   2.0000      -0.282847        -7.6967
  63   2.0000      -0.281790        -7.6679
  64   2.0000      -0.279511        -7.6059
  65   2.0000      -0.272349        -7.4110
  66   2.0000      -0.263149        -7.1607
  67   2.0000      -0.153857        -4.1867
  68   0.0000      -0.020531        -0.5587
  69   0.0000       0.005780         0.1573
  70   0.0000       0.009023         0.2455
  71   0.0000       0.011925         0.3245
  72   0.0000       0.020974         0.5707

MULLIKEN ATOMIC CHARGES
-----------------------
   0 C :    0.762074
   1 C :    0.463856
   2 C :   -0.072208
   3 H :    0.306127
   4 H :   -0.197516
   5 S :    1.477415
   6 C :    0.280111
   7 N :    0.090119
   8 C :    1.031655
   9 H :   -0.168873
  10 H :   -0.990622
  11 H :   -0.157412
  12 H :   -0.209100
  13 F :   -0.591720
  14 O :   -0.711175
  15 C :    0.211988
  16 C :   -0.021260
  17 C :    0.114101
  18 H :    0.072795
  19 H :   -0.277957
  20 H :    0.096004
  21 H :    0.020589
  22 C :   -0.164523
  23 H :   -0.106147
  24 H :   -0.492765
  25 C :    0.557348
  26 H :    0.206622
  27 H :   -0.300311
  28 C :    0.051113
  29 H :    0.050160
  30 H :   -0.017717
  31 H :    0.030524
  32 H :   -0.330931
  33 H :   -0.285487
  34 H :    0.112134
  35 O :   -0.780208
  36 H :   -0.104677
  37 H :    0.045873
Sum of atomic charges:    0.0000000

LOEWDIN ATOMIC CHARGES
----------------------
   0 C :    0.022323
   1 C :   -0.023308
   2 C :   -0.033428
   3 H :    0.013561
   4 H :    0.037526
   5 S :    1.120382
   6 C :   -0.231800
   7 N :    0.182250
   8 C :    0.183850
   9 H :   -0.126710
  10 H :   -0.098145
  11 H :   -0.017485
  12 H :    0.000673
  13 F :   -0.284406
  14 O :   -0.441237
  15 C :   -0.014938
  16 C :   -0.025691
  17 C :   -0.022024
  18 H :    0.012059
  19 H :    0.027451
  20 H :    0.030906
  21 H :    0.025646
  22 C :   -0.023590
  23 H :    0.024345
  24 H :   -0.008825
  25 C :   -0.023761
  26 H :    0.010158
  27 H :    0.019203
  28 C :   -0.025360
  29 H :    0.017748
  30 H :    0.017292
  31 H :    0.035611
  32 H :   -0.018266
  33 H :    0.020354
  34 H :    0.013800
  35 O :   -0.432638
  36 H :    0.027158
  37 H :    0.009314

  Mayer bond orders larger than 0.100000
B(  0-C ,  6-C ) :   0.8814 B(  0-C ,  8-C ) :   0.1649 B(  0-C ,  9-H ) :  -0.1255
B(  0-C , 15-C ) :   1.2339 B(  0-C , 24-H ) :   0.1239 B(  0-C , 36-H ) :   0.5932
B(  0-C , 37-H ) :   0.7060 B(  1-C ,  2-C ) :   1.2391 B(  1-C ,  4-H ) :   0.1587
B(  1-C , 17-C ) :   1.2332 B(  1-C , 20-H ) :   0.7046 B(  1-C , 21-H ) :   0.6911
B(  2-C ,  3-H ) :   0.7918 B(  2-C ,  4-H ) :   0.8575 B(  2-C ,  5-S ) :   0.9904
B(  2-C , 20-H ) :   0.1674 B(  2-C , 21-H ) :   0.1244 B(  2-C , 35-O ) :   0.1377
B(  4-H ,  5-S ) :   0.1147 B(  5-S , 13-F ) :   0.5763 B(  5-S , 14-O ) :   1.5253
B(  5-S , 35-O ) :   1.4327 B(  6-C ,  7-N ) :   0.7943 B(  6-C ,  8-C ) :   1.7636
B(  6-C , 10-H ) :   0.1178 B(  6-C , 12-H ) :  -0.1753 B(  6-C , 36-H ) :   0.2298
B(  7-N ,  8-C ) :   0.5293 B(  7-N , 11-H ) :   1.1589 B(  7-N , 12-H ) :   1.3571
B(  8-C ,  9-H ) :   0.2961 B(  8-C , 14-O ) :  -0.2521 B(  8-C , 24-H ) :   0.1306
B(  9-H , 10-H ) :  -0.1249 B(  9-H , 14-O ) :   0.1167 B(  9-H , 15-C ) :   0.1019
B(  9-H , 24-H ) :   0.1579 B( 10-H , 14-O ) :   0.2762 B( 10-H , 24-H ) :  -0.1214
B( 11-H , 12-H ) :  -0.1523 B( 13-F , 24-H ) :   0.1279 B( 13-F , 35-O ) :   0.1305
B( 15-C , 22-C ) :   1.2187 B( 15-C , 23-H ) :   0.7954 B( 15-C , 24-H ) :   0.7647
B( 15-C , 26-H ) :   0.1244 B( 15-C , 27-H ) :   0.1670 B( 15-C , 36-H ) :   0.2975
B( 15-C , 37-H ) :   0.1423 B( 16-C , 17-C ) :   1.2106 B( 16-C , 18-H ) :   0.1141
B( 16-C , 19-H ) :   0.1732 B( 16-C , 28-C ) :   1.2243 B( 16-C , 31-H ) :   0.7792
B( 16-C , 32-H ) :   1.0430 B( 16-C , 33-H ) :   0.1974 B( 16-C , 34-H ) :   0.1273
B( 17-C , 18-H ) :   0.8695 B( 17-C , 19-H ) :   0.8993 B( 17-C , 20-H ) :   0.1063
B( 17-C , 21-H ) :   0.2279 B( 17-C , 28-C ) :   0.1248 B( 22-C , 23-H ) :   0.1505
B( 22-C , 24-H ) :   0.1827 B( 22-C , 25-C ) :   1.0983 B( 22-C , 26-H ) :   0.8106
B( 22-C , 27-H ) :   1.0939 B( 22-C , 28-C ) :   0.1243 B( 22-C , 29-H ) :   0.1550
B( 22-C , 30-H ) :   0.2273 B( 25-C , 28-C ) :   1.1355 B( 25-C , 29-H ) :   0.6790
B( 25-C , 30-H ) :   0.7130 B( 26-H , 32-H ) :   0.1410 B( 28-C , 29-H ) :   0.2018
B( 28-C , 30-H ) :   0.1261 B( 28-C , 31-H ) :   0.1047 B( 28-C , 33-H ) :   0.9888
B( 28-C , 34-H ) :   0.8277 B( 36-H , 37-H ) :  -0.1131

Dispersion correction           -0.057685356
FINAL SINGLE POINT ENERGY     -1135.096676167076

DIPOLE MOMENT
-------------
                                X             Y             Z
Electronic contribution:     -7.77595     -16.95282     -13.65728
Nuclear contribution   :      7.91684      17.85507      15.13212
                        -----------------------------------------
Total Dipole Moment    :      0.14090       0.90225       1.47483
                        -----------------------------------------
Magnitude (a.u.)       :      1.73465
Magnitude (Debye)      :      4.40914

Rotational constants in cm-1:     0.018015     0.012410     0.008313
Rotational constants in MHz :   540.084467   372.038374   249.228144

                             ****ORCA TERMINATED NORMALLY****
TOTAL RUN TIME: 0 days 0 hours 1 minutes 35 seconds 820 msec
