                         Program Version 5.0.0 -  RELEASE  -
|  1> !TPSS D3BJ RIJCOSX def2-TZVPD def2/J TightSCF
|  2> *xyz -1 1
|  3> C          0.61188        1.65763       -4.50029
|  4> C          1.69499        1.54179       -5.57045
|  5> H          2.69733        1.73466       -5.18400
|  6> H          1.50666        2.27224       -6.35808
|  7> S          1.78029       -0.03313       -6.42874
|  8> O          2.56929        0.21366       -7.60736
|  9> O          0.41688       -0.46297       -6.61859
| 10> O          2.50513       -0.93326       -5.48257
| 11> H         -0.34424        1.45871       -4.93752
| 12> H          0.61845        2.64655       -4.09174
| 13> H          0.80247        0.94882       -3.72173
| 14> *
| 15> %MaxCore 64000
| 16>
| 17> %pal nprocs 4
| 18> end
| 19>
| 20> %scf
| 21>   MaxIter 150
| 22> end
| 23>
| 24>
| 25>                          ****END OF INPUT****

CARTESIAN COORDINATES (ANGSTROEM)
---------------------------------
  C      0.611880    1.657630   -4.500290
  C      1.694990    1.541790   -5.570450
  H      2.697330    1.734660   -5.184000
  H      1.506660    2.272240   -6.358080
  S      1.780290   -0.033130   -6.428740
  O      2.569290    0.213660   -7.607360
  O      0.416880   -0.462970   -6.618590
  O      2.505130   -0.933260   -5.482570
  H     -0.344240    1.458710   -4.937520
  H      0.618450    2.646550   -4.091740
  H      0.802470    0.948820   -3.721730

 Total Charge           Charge          ....   -1
 Multiplicity           Mult            ....    1
 Number of Electrons    NEL             ....   58
 Basis Dimension        Dim             ....  285

ORBITAL ENERGIES
----------------

  NO   OCC          E(Eh)            E(eV)
   0   2.0000     -88.324859     -2403.4416
   1   2.0000     -18.664136      -507.8770
   2   2.0000     -18.663508      -507.8599
   3   2.0000     -18.645726      -507.3760
   4   2.0000      -9.843040      -267.8427
   5   2.0000      -9.839825      -267.7552
   6   2.0000      -7.673916      -208.8179
   7   2.0000      -5.653346      -153.8354
   8   2.0000      -5.652658      -153.8167
   9   2.0000      -5.652379      -153.8091
  10   2.0000      -0.847603       -23.0645
  11   2.0000      -0.728784       -19.8312
  12   2.0000      -0.696610       -18.9557
  13   2.0000      -0.574055       -15.6208
  14   2.0000      -0.454925       -12.3791
  15   2.0000      -0.330181        -8.9847
  16   2.0000      -0.274688        -7.4746
  17   2.0000      -0.265909        -7.2358
  18   2.0000      -0.228650        -6.2219
  19   2.0000      -0.212452        -5.7811
  20   2.0000      -0.209039        -5.6882
  21   2.0000      -0.187003        -5.0886
  22   2.0000      -0.175326        -4.7709
  23   2.0000      -0.104859        -2.8534
  24   2.0000      -0.104449        -2.8422
  25   2.0000      -0.074502        -2.0273
  26   2.0000      -0.069743        -1.8978
  27   2.0000      -0.051857        -1.4111
  28   2.0000      -0.018988        -0.5167
  29   0.0000       0.114793         3.1237
  30   0.0000       0.137823         3.7504
  31   0.0000       0.143363         3.9011
  32   0.0000       0.152025         4.1368
  33   0.0000       0.169102         4.6015

MULLIKEN ATOMIC CHARGES
-----------------------
   0 C :   -0.939069
   1 C :   -0.328147
   2 H :    0.208228
   3 H :    0.225548
   4 S :    1.338052
   5 O :   -0.733583
   6 O :   -0.749623
   7 O :   -0.798473
   8 H :    0.277285
   9 H :    0.230654
  10 H :    0.269126
Sum of atomic charges:   -1.0000000

LOEWDIN ATOMIC CHARGES
----------------------
   0 C :   -0.141721
   1 C :   -0.328361
   2 H :    0.079294
   3 H :    0.073547
   4 S :    0.323950
   5 O :   -0.375692
   6 O :   -0.369864
   7 O :   -0.417241
   8 H :    0.052947
   9 H :    0.044280
  10 H :    0.058861

  Mayer bond orders larger than 0.100000
B(  0-C ,  1-C ) :   0.9438 B(  0-C ,  8-H ) :   0.9418 B(  0-C ,  9-H ) :   0.9449
B(  0-C , 10-H ) :   0.9485 B(  1-C ,  2-H ) :   0.9406 B(  1-C ,  3-H ) :   0.9376
B(  1-C ,  4-S ) :   0.8602 B(  1-C ,  5-O ) :   0.1696 B(  1-C ,  6-O ) :   0.1366
B(  1-C ,  7-O ) :   0.1461 B(  4-S ,  5-O ) :   1.4139 B(  4-S ,  6-O ) :   1.4071
B(  4-S ,  7-O ) :   1.3610

Dispersion correction           -0.012084866
FINAL SINGLE POINT ENERGY      -703.377585336600

DIPOLE MOMENT
-------------
                                X             Y             Z
Electronic contribution:      2.24794      -5.70493      -5.03787
Nuclear contribution   :     -2.69163       7.29476       5.86550
                        -----------------------------------------
Total Dipole Moment    :     -0.44369       1.58983       0.82763
                        -----------------------------------------
Magnitude (a.u.)       :      1.84645
Magnitude (Debye)      :      4.69331

Rotational constants in cm-1:     0.163060     0.082831     0.081111
Rotational constants in MHz :  4888.419330  2483.225008  2431.646841

                             ****ORCA TERMINATED NORMALLY****
TOTAL RUN TIME: 0 days 0 hours 0 minutes 19 seconds 625 msec
