                         Program Version 5.0.0 -  RELEASE  -
|  1> !TPSS D3BJ RIJCOSX def2-TZVPD def2/J TightSCF
|  2> *xyz 1 1
|  3> C          1.96337       -1.74915       -1.89689
|  4> N          2.73849       -2.01517       -3.09711
|  5> C          4.04974       -2.15472       -3.15204
|  6> N          4.65821       -1.98629       -4.31866
|  7> N          4.76423       -2.45444       -2.05049
|  8> H          4.28736       -2.77626       -1.21750
|  9> H          5.75082       -2.65835       -2.12599
| 10> H          2.34518       -1.69027       -3.97145
| 11> H          4.10900       -1.59268       -5.07176
| 12> H          5.64910       -2.15646       -4.42724
| 13> C          2.08852       -0.30091       -1.41520
| 14> H          2.23127       -2.45162       -1.10264
| 15> H          0.93025       -1.97780       -2.15544
| 16> H          1.82118        0.36368       -2.21003
| 17> H          3.09792       -0.11068       -1.11551
| 18> H          1.43391       -0.14382       -0.58352
| 19> *
| 20> %MaxCore 64000
| 21>
| 22> %pal nprocs 4
| 23> end
| 24>
| 25> %scf
| 26>   MaxIter 150
| 27> end
| 28>
| 29>
| 30>                          ****END OF INPUT****

CARTESIAN COORDINATES (ANGSTROEM)
---------------------------------
  C      1.963370   -1.749150   -1.896890
  N      2.738490   -2.015170   -3.097110
  C      4.049740   -2.154720   -3.152040
  N      4.658210   -1.986290   -4.318660
  N      4.764230   -2.454440   -2.050490
  H      4.287360   -2.776260   -1.217500
  H      5.750820   -2.658350   -2.125990
  H      2.345180   -1.690270   -3.971450
  H      4.109000   -1.592680   -5.071760
  H      5.649100   -2.156460   -4.427240
  C      2.088520   -0.300910   -1.415200
  H      2.231270   -2.451620   -1.102640
  H      0.930250   -1.977800   -2.155440
  H      1.821180    0.363680   -2.210030
  H      3.097920   -0.110680   -1.115510
  H      1.433910   -0.143820   -0.583520

 Total Charge           Charge          ....    1
 Multiplicity           Mult            ....    1
 Number of Electrons    NEL             ....   48
 Basis Dimension        Dim             ....  312

ORBITAL ENERGIES
----------------

  NO   OCC          E(Eh)            E(eV)
   0   2.0000     -14.325099      -389.8058
   1   2.0000     -14.323058      -389.7502
   2   2.0000     -14.322935      -389.7469
   3   2.0000     -10.307606      -280.4842
   4   2.0000     -10.193117      -277.3688
   5   2.0000     -10.122107      -275.4365
   6   2.0000      -1.149014       -31.2662
   7   2.0000      -1.044096       -28.4113
   8   2.0000      -1.032834       -28.1048
   9   2.0000      -0.875222       -23.8160
  10   2.0000      -0.791746       -21.5445
  11   2.0000      -0.755864       -20.5681
  12   2.0000      -0.734816       -19.9954
  13   2.0000      -0.699695       -19.0397
  14   2.0000      -0.649482       -17.6733
  15   2.0000      -0.643831       -17.5195
  16   2.0000      -0.612162       -16.6578
  17   2.0000      -0.583140       -15.8681
  18   2.0000      -0.561463       -15.2782
  19   2.0000      -0.523551       -14.2465
  20   2.0000      -0.495956       -13.4956
  21   2.0000      -0.478426       -13.0186
  22   2.0000      -0.438353       -11.9282
  23   2.0000      -0.413994       -11.2654
  24   0.0000      -0.195748        -5.3266
  25   0.0000      -0.177017        -4.8169
  26   0.0000      -0.144531        -3.9329
  27   0.0000      -0.134865        -3.6699
  28   0.0000      -0.111859        -3.0438

MULLIKEN ATOMIC CHARGES
-----------------------
   0 C :   -0.373118
   1 N :   -0.191364
   2 C :    0.910379
   3 N :   -0.359673
   4 N :   -0.347307
   5 H :    0.187409
   6 H :    0.169346
   7 H :    0.172832
   8 H :    0.175016
   9 H :    0.175977
  10 C :   -0.786277
  11 H :    0.260162
  12 H :    0.201091
  13 H :    0.278602
  14 H :    0.282087
  15 H :    0.244838
Sum of atomic charges:    1.0000000

LOEWDIN ATOMIC CHARGES
----------------------
   0 C :   -0.195343
   1 N :    0.084145
   2 C :   -0.446438
   3 N :    0.213323
   4 N :    0.221688
   5 H :    0.126824
   6 H :    0.135443
   7 H :    0.163287
   8 H :    0.138305
   9 H :    0.140639
  10 C :   -0.047686
  11 H :    0.116095
  12 H :    0.127117
  13 H :    0.074793
  14 H :    0.067688
  15 H :    0.080120

  Mayer bond orders larger than 0.100000
B(  0-C ,  1-N ) :   0.9108 B(  0-C , 10-C ) :   0.9308 B(  0-C , 11-H ) :   0.8803
B(  0-C , 12-H ) :   0.9578 B(  1-N ,  2-C ) :   1.1866 B(  1-N ,  3-N ) :   0.1258
B(  1-N ,  7-H ) :   0.9951 B(  2-C ,  3-N ) :   0.9820 B(  2-C ,  4-N ) :   1.0649
B(  3-N ,  8-H ) :   1.0120 B(  3-N ,  9-H ) :   1.0372 B(  4-N ,  5-H ) :   0.9621
B(  4-N ,  6-H ) :   1.0413 B( 10-C , 13-H ) :   0.9418 B( 10-C , 14-H ) :   0.9425
B( 10-C , 15-H ) :   0.9789

Dispersion correction           -0.015271191
FINAL SINGLE POINT ENERGY      -284.559492863285

DIPOLE MOMENT
-------------
                                X             Y             Z
Electronic contribution:      2.99899      -2.69638      -3.07184
Nuclear contribution   :     -2.17768       2.37118       2.44574
                        -----------------------------------------
Total Dipole Moment    :      0.82131      -0.32520      -0.62610
                        -----------------------------------------
Magnitude (a.u.)       :      1.08273
Magnitude (Debye)      :      2.75209

Rotational constants in cm-1:     0.215650     0.075183     0.066454
Rotational constants in MHz :  6465.033740  2253.919004  1992.232519

                             ****ORCA TERMINATED NORMALLY****
TOTAL RUN TIME: 0 days 0 hours 0 minutes 21 seconds 44 msec
