                         Program Version 5.0.0 -  RELEASE  -
|  1> !TPSS D3BJ RIJCOSX def2-TZVPD def2/J TightSCF xyzfile
|  2>
|  3> *xyzfile 0 1 B.xyz
|  4>
|  5> %MaxCore 64000
|  6>
|  7> %pal nprocs 4
|  8> end
|  9>
| 10> %scf
| 11>   MaxIter 150
| 12> end
| 13>
| 14>
| 15>                          ****END OF INPUT****

CARTESIAN COORDINATES (ANGSTROEM)
---------------------------------
  C      1.963365   -1.749150   -1.896887
  N      2.738490   -2.015170   -3.097113
  C      0.611877    1.657634   -4.500288
  C      1.694991    1.541794   -5.570447
  H      2.697326    1.734659   -5.183996
  H      1.506656    2.272239   -6.358076
  S      1.780287   -0.033128   -6.428739
  C      4.049736   -2.154717   -3.152044
  N      4.658206   -1.986293   -4.318655
  N      4.764231   -2.454435   -2.050491
  H      4.287363   -2.776259   -1.217496
  H      5.750825   -2.658351   -2.125988
  H      2.345176   -1.690274   -3.971447
  H      4.109004   -1.592677   -5.071760
  H      5.649095   -2.156462   -4.427237
  O      2.569287    0.213657   -7.607360
  O      0.416880   -0.462969   -6.618595
  C      2.088520   -0.300912   -1.415204
  H      2.231272   -2.451616   -1.102643
  H      0.930249   -1.977801   -2.155438
  C      0.680356    0.655418   -3.348038
  H     -0.356865    1.549231   -4.991128
  H      0.650228    2.675438   -4.096000
  C      1.968993    0.733582   -2.535654
  H      3.051356   -0.168602   -0.911868
  H      1.316501   -0.136231   -0.657252
  O      2.505129   -0.933263   -5.482570
  H      2.824195    0.624726   -3.208464
  H      2.058919    1.730331   -2.093112
  H      0.542252   -0.344731   -3.766662
  H     -0.174219    0.829692   -2.685182

 Total Charge           Charge          ....    0
 Multiplicity           Mult            ....    1
 Number of Electrons    NEL             ....  120
 Basis Dimension        Dim             ....  689

ORBITAL ENERGIES
----------------

  NO   OCC          E(Eh)            E(eV)
   0   2.0000     -88.473622     -2407.4896
   1   2.0000     -18.823511      -512.2138
   2   2.0000     -18.803113      -511.6587
   3   2.0000     -18.801877      -511.6251
   4   2.0000     -14.187027      -386.0486
   5   2.0000     -14.159009      -385.2862
   6   2.0000     -14.154201      -385.1554
   7   2.0000     -10.155315      -276.3402
   8   2.0000     -10.058043      -273.6933
   9   2.0000     -10.008300      -272.3397
  10   2.0000      -9.988966      -271.8136
  11   2.0000      -9.977049      -271.4893
  12   2.0000      -9.972621      -271.3688
  13   2.0000      -9.972030      -271.3527
  14   2.0000      -7.822962      -212.8736
  15   2.0000      -5.803150      -157.9117
  16   2.0000      -5.801542      -157.8680
  17   2.0000      -5.800748      -157.8464
  18   2.0000      -0.999241       -27.1907
  19   2.0000      -0.994499       -27.0617
  20   2.0000      -0.895266       -24.3614
  21   2.0000      -0.881632       -23.9904
  22   2.0000      -0.867535       -23.6068
  23   2.0000      -0.867102       -23.5950
  24   2.0000      -0.763693       -20.7811
  25   2.0000      -0.725391       -19.7389
  26   2.0000      -0.680385       -18.5142
  27   2.0000      -0.644377       -17.5344
  28   2.0000      -0.618916       -16.8416
  29   2.0000      -0.586232       -15.9522
  30   2.0000      -0.579215       -15.7613
  31   2.0000      -0.548018       -14.9123
  32   2.0000      -0.526866       -14.3368
  33   2.0000      -0.507940       -13.8217
  34   2.0000      -0.497555       -13.5391
  35   2.0000      -0.474506       -12.9120
  36   2.0000      -0.458317       -12.4714
  37   2.0000      -0.438961       -11.9447
  38   2.0000      -0.434554       -11.8248
  39   2.0000      -0.425505       -11.5786
  40   2.0000      -0.410182       -11.1616
  41   2.0000      -0.395258       -10.7555
  42   2.0000      -0.382573       -10.4103
  43   2.0000      -0.375528       -10.2186
  44   2.0000      -0.357193        -9.7197
  45   2.0000      -0.350762        -9.5447
  46   2.0000      -0.339761        -9.2454
  47   2.0000      -0.332075        -9.0362
  48   2.0000      -0.326560        -8.8861
  49   2.0000      -0.299690        -8.1550
  50   2.0000      -0.296153        -8.0587
  51   2.0000      -0.291576        -7.9342
  52   2.0000      -0.279249        -7.5987
  53   2.0000      -0.263037        -7.1576
  54   2.0000      -0.259556        -7.0629
  55   2.0000      -0.252576        -6.8729
  56   2.0000      -0.221748        -6.0341
  57   2.0000      -0.211240        -5.7481
  58   2.0000      -0.207708        -5.6520
  59   2.0000      -0.177933        -4.8418
  60   0.0000      -0.054587        -1.4854
  61   0.0000      -0.048336        -1.3153
  62   0.0000      -0.024261        -0.6602
  63   0.0000      -0.000435        -0.0118
  64   0.0000       0.004040         0.1099

MULLIKEN ATOMIC CHARGES
-----------------------
   0 C :   -0.754922
   1 N :   -0.144806
   2 C :   -0.377723
   3 C :   -0.546230
   4 H :    0.295655
   5 H :    0.177210
   6 S :    1.276715
   7 C :    0.865099
   8 N :   -0.315569
   9 N :   -0.394937
  10 H :    0.179100
  11 H :    0.143069
  12 H :    0.574024
  13 H :    0.348058
  14 H :    0.092012
  15 O :   -0.768078
  16 O :   -0.761192
  17 C :   -0.004014
  18 H :    0.224928
  19 H :    0.247473
  20 C :   -0.431646
  21 H :    0.177195
  22 H :    0.114908
  23 C :   -0.316294
  24 H :    0.154175
  25 H :    0.144127
  26 O :   -1.022523
  27 H :    0.282999
  28 H :    0.105663
  29 H :    0.351905
  30 H :    0.083620
Sum of atomic charges:   -0.0000000

LOEWDIN ATOMIC CHARGES
----------------------
   0 C :   -0.162292
   1 N :    0.096303
   2 C :   -0.221506
   3 C :   -0.250027
   4 H :    0.088935
   5 H :    0.095027
   6 S :    0.419169
   7 C :   -0.451965
   8 N :    0.209047
   9 N :    0.190894
  10 H :    0.111252
  11 H :    0.118762
  12 H :    0.084176
  13 H :    0.079308
  14 H :    0.127708
  15 O :   -0.319360
  16 O :   -0.309736
  17 C :   -0.174100
  18 H :    0.106590
  19 H :    0.123242
  20 C :   -0.208421
  21 H :    0.107204
  22 H :    0.107658
  23 C :   -0.201274
  24 H :    0.101551
  25 H :    0.111644
  26 O :   -0.404475
  27 H :    0.098876
  28 H :    0.115716
  29 H :    0.095221
  30 H :    0.114871

  Mayer bond orders larger than 0.100000
B(  0-C ,  1-N ) :   1.0473 B(  0-C ,  7-C ) :  -0.1317 B(  0-C ,  9-N ) :   0.1041
B(  0-C , 17-C ) :   0.8155 B(  0-C , 18-H ) :   0.8670 B(  0-C , 19-H ) :   0.9130
B(  0-C , 20-C ) :   0.2308 B(  1-N ,  7-C ) :   1.2080 B(  1-N , 12-H ) :   0.6892
B(  2-C ,  3-C ) :   1.0953 B(  2-C ,  6-S ) :   0.1100 B(  2-C , 20-C ) :   1.2749
B(  2-C , 21-H ) :   0.8468 B(  2-C , 22-H ) :   0.9189 B(  2-C , 23-C ) :   0.1900
B(  3-C ,  4-H ) :   0.8155 B(  3-C ,  5-H ) :   0.9087 B(  3-C ,  6-S ) :   0.7947
B(  3-C , 15-O ) :   0.2007 B(  3-C , 16-O ) :   0.1518 B(  3-C , 23-C ) :   0.1328
B(  3-C , 26-O ) :   0.1312 B(  6-S , 15-O ) :   1.2608 B(  6-S , 16-O ) :   1.3618
B(  6-S , 26-O ) :   1.5500 B(  7-C ,  8-N ) :   1.0113 B(  7-C ,  9-N ) :   0.9649
B(  8-N , 13-H ) :   0.8605 B(  8-N , 14-H ) :   1.1070 B(  9-N , 10-H ) :   0.9712
B(  9-N , 11-H ) :   1.0683 B( 12-H , 26-O ) :  -0.1853 B( 17-C , 23-C ) :   1.1728
B( 17-C , 24-H ) :   0.8882 B( 17-C , 25-H ) :   0.9459 B( 20-C , 23-C ) :   0.6226
B( 20-C , 29-H ) :   0.7972 B( 20-C , 30-H ) :   0.8610 B( 23-C , 27-H ) :   0.8968
B( 23-C , 28-H ) :   0.8850 B( 23-C , 29-H ) :  -0.1089

Dispersion correction           -0.047080020
FINAL SINGLE POINT ENERGY     -1065.570128541927

DIPOLE MOMENT
-------------
                                X             Y             Z
Electronic contribution:      2.20241      -4.98538     -14.32612
Nuclear contribution   :      0.44641       3.59123      19.13564
                        -----------------------------------------
Total Dipole Moment    :      2.64882      -1.39415       4.80951
                        -----------------------------------------
Magnitude (a.u.)       :      5.66492
Magnitude (Debye)      :     14.39909

Rotational constants in cm-1:     0.029186     0.014646     0.011115
Rotational constants in MHz :   874.975540   439.070287   333.231642

                             ****ORCA TERMINATED NORMALLY****
TOTAL RUN TIME: 0 days 0 hours 2 minutes 20 seconds 253 msec
