                         Program Version 5.0.0 -  RELEASE  -
|  1> !TPSS D3BJ RIJCOSX def2-TZVPD def2/J TightSCF
|  2> *xyz 0 1
|  3> C          0.61188        1.65763       -4.50029
|  4> C          1.69499        1.54179       -5.57045
|  5> H          2.69733        1.73466       -5.18400
|  6> H          1.50666        2.27224       -6.35808
|  7> S          1.78029       -0.03313       -6.42874
|  8> F          2.56929        0.21366       -7.60736
|  9> O          0.41688       -0.46297       -6.61859
| 10> O          2.50513       -0.93326       -5.48257
| 11> H         -0.34424        1.45871       -4.93752
| 12> H          0.61845        2.64655       -4.09174
| 13> H          0.80247        0.94882       -3.72173
| 14> *
| 15> %MaxCore 64000
| 16>
| 17> %pal nprocs 4
| 18> end
| 19>
| 20> %scf
| 21>   MaxIter 150
| 22> end
| 23>
| 24>
| 25>                          ****END OF INPUT****

CARTESIAN COORDINATES (ANGSTROEM)
---------------------------------
  C      0.611880    1.657630   -4.500290
  C      1.694990    1.541790   -5.570450
  H      2.697330    1.734660   -5.184000
  H      1.506660    2.272240   -6.358080
  S      1.780290   -0.033130   -6.428740
  F      2.569290    0.213660   -7.607360
  O      0.416880   -0.462970   -6.618590
  O      2.505130   -0.933260   -5.482570
  H     -0.344240    1.458710   -4.937520
  H      0.618450    2.646550   -4.091740
  H      0.802470    0.948820   -3.721730

 Total Charge           Charge          ....    0
 Multiplicity           Mult            ....    1
 Number of Electrons    NEL             ....   58
 Basis Dimension        Dim             ....  285

ORBITAL ENERGIES
----------------

  NO   OCC          E(Eh)            E(eV)
   0   2.0000     -88.584015     -2410.4936
   1   2.0000     -24.527601      -667.4299
   2   2.0000     -18.897342      -514.2228
   3   2.0000     -18.878948      -513.7223
   4   2.0000     -10.044723      -273.3308
   5   2.0000     -10.004355      -272.2323
   6   2.0000      -7.933734      -215.8879
   7   2.0000      -5.916945      -161.0083
   8   2.0000      -5.910207      -160.8249
   9   2.0000      -5.909904      -160.8167
  10   2.0000      -1.302628       -35.4463
  11   2.0000      -1.029419       -28.0119
  12   2.0000      -0.930880       -25.3305
  13   2.0000      -0.763957       -20.7883
  14   2.0000      -0.679374       -18.4867
  15   2.0000      -0.622339       -16.9347
  16   2.0000      -0.531661       -14.4672
  17   2.0000      -0.527408       -14.3515
  18   2.0000      -0.504420       -13.7260
  19   2.0000      -0.451718       -12.2919
  20   2.0000      -0.434465       -11.8224
  21   2.0000      -0.395374       -10.7587
  22   2.0000      -0.388931       -10.5834
  23   2.0000      -0.370311       -10.0767
  24   2.0000      -0.353495        -9.6191
  25   2.0000      -0.338681        -9.2160
  26   2.0000      -0.294129        -8.0037
  27   2.0000      -0.275787        -7.5045
  28   2.0000      -0.259105        -7.0506
  29   0.0000      -0.023540        -0.6406
  30   0.0000      -0.006412        -0.1745
  31   0.0000       0.012020         0.3271
  32   0.0000       0.017510         0.4765
  33   0.0000       0.025481         0.6934

MULLIKEN ATOMIC CHARGES
-----------------------
   0 C :   -0.929445
   1 C :   -0.248842
   2 H :    0.240434
   3 H :    0.258426
   4 S :    1.180648
   5 F :   -0.112754
   6 O :   -0.585622
   7 O :   -0.618760
   8 H :    0.304448
   9 H :    0.219432
  10 H :    0.292034
Sum of atomic charges:   -0.0000000

LOEWDIN ATOMIC CHARGES
----------------------
   0 C :   -0.094377
   1 C :   -0.284607
   2 H :    0.098344
   3 H :    0.091086
   4 S :    0.567772
   5 F :   -0.043043
   6 O :   -0.256095
   7 O :   -0.296207
   8 H :    0.069245
   9 H :    0.072201
  10 H :    0.075682

  Mayer bond orders larger than 0.100000
B(  0-C ,  1-C ) :   1.0242 B(  0-C ,  8-H ) :   0.9109 B(  0-C ,  9-H ) :   0.9547
B(  0-C , 10-H ) :   0.9251 B(  1-C ,  2-H ) :   0.9078 B(  1-C ,  3-H ) :   0.8768
B(  1-C ,  4-S ) :   0.8529 B(  1-C ,  6-O ) :   0.1130 B(  1-C ,  7-O ) :   0.1067
B(  4-S ,  5-F ) :   1.0183 B(  4-S ,  6-O ) :   1.6437 B(  4-S ,  7-O ) :   1.5901
B(  6-O ,  7-O ) :   0.1241

Dispersion correction           -0.011558247
FINAL SINGLE POINT ENERGY      -727.899477269785

DIPOLE MOMENT
-------------
                                X             Y             Z
Electronic contribution:      3.84788      -5.71301      -7.52317
Nuclear contribution   :     -3.66946       7.33549       7.42434
                        -----------------------------------------
Total Dipole Moment    :      0.17842       1.62248      -0.09883
                        -----------------------------------------
Magnitude (a.u.)       :      1.63526
Magnitude (Debye)      :      4.15649

Rotational constants in cm-1:     0.158379     0.080294     0.077843
Rotational constants in MHz :  4748.076444  2407.152850  2333.668303

                             ****ORCA TERMINATED NORMALLY****
TOTAL RUN TIME: 0 days 0 hours 0 minutes 16 seconds 968 msec
