                         Program Version 5.0.0 -  RELEASE  -
|  1> !TPSS D3BJ RIJCOSX def2-TZVPD def2/J TightSCF
|  2> *xyz 0 1
|  3> C          1.96337       -1.74915       -1.89689
|  4> C          2.73849       -2.01517       -3.09711
|  5> C          4.04974       -2.15472       -3.15204
|  6> N          4.65821       -1.98629       -4.31866
|  7> N          4.76423       -2.45444       -2.05049
|  8> H          4.28736       -2.77626       -1.21750
|  9> H          5.75082       -2.65835       -2.12599
| 10> H          2.34518       -1.69027       -3.97145
| 11> H          4.10900       -1.59268       -5.07176
| 12> H          5.64910       -2.15646       -4.42724
| 13> C          2.08852       -0.30091       -1.41520
| 14> H          2.23127       -2.45162       -1.10264
| 15> H          0.93025       -1.97780       -2.15544
| 16> H          1.82118        0.36368       -2.21003
| 17> H          3.09792       -0.11068       -1.11551
| 18> H          1.43391       -0.14382       -0.58352
| 19> *
| 20> %MaxCore 64000
| 21>
| 22> %pal nprocs 4
| 23> end
| 24>
| 25> %scf
| 26>   MaxIter 150
| 27> end
| 28>
| 29>
| 30>                          ****END OF INPUT****

CARTESIAN COORDINATES (ANGSTROEM)
---------------------------------
  C      1.963370   -1.749150   -1.896890
  C      2.738490   -2.015170   -3.097110
  C      4.049740   -2.154720   -3.152040
  N      4.658210   -1.986290   -4.318660
  N      4.764230   -2.454440   -2.050490
  H      4.287360   -2.776260   -1.217500
  H      5.750820   -2.658350   -2.125990
  H      2.345180   -1.690270   -3.971450
  H      4.109000   -1.592680   -5.071760
  H      5.649100   -2.156460   -4.427240
  C      2.088520   -0.300910   -1.415200
  H      2.231270   -2.451620   -1.102640
  H      0.930250   -1.977800   -2.155440
  H      1.821180    0.363680   -2.210030
  H      3.097920   -0.110680   -1.115510
  H      1.433910   -0.143820   -0.583520

 Total Charge           Charge          ....    0
 Multiplicity           Mult            ....    1
 Number of Electrons    NEL             ....   48
 Basis Dimension        Dim             ....  312

ORBITAL ENERGIES
----------------

  NO   OCC          E(Eh)            E(eV)
   0   2.0000     -14.104046      -383.7906
   1   2.0000     -14.101918      -383.7327
   2   2.0000     -10.020998      -272.6852
   3   2.0000      -9.959406      -271.0092
   4   2.0000      -9.948513      -270.7128
   5   2.0000      -9.903576      -269.4900
   6   2.0000      -0.895470       -24.3670
   7   2.0000      -0.812767       -22.1165
   8   2.0000      -0.715081       -19.4583
   9   2.0000      -0.639613       -17.4047
  10   2.0000      -0.567541       -15.4436
  11   2.0000      -0.531655       -14.4671
  12   2.0000      -0.496309       -13.5053
  13   2.0000      -0.466244       -12.6872
  14   2.0000      -0.431033       -11.7290
  15   2.0000      -0.397233       -10.8093
  16   2.0000      -0.376828       -10.2540
  17   2.0000      -0.344489        -9.3740
  18   2.0000      -0.339645        -9.2422
  19   2.0000      -0.315198        -8.5770
  20   2.0000      -0.290492        -7.9047
  21   2.0000      -0.283603        -7.7172
  22   2.0000      -0.225904        -6.1472
  23   2.0000      -0.130265        -3.5447
  24   0.0000      -0.013638        -0.3711
  25   0.0000       0.013518         0.3679
  26   0.0000       0.019682         0.5356
  27   0.0000       0.029805         0.8110
  28   0.0000       0.047176         1.2837

MULLIKEN ATOMIC CHARGES
-----------------------
   0 C :   -0.243117
   1 C :   -0.769417
   2 C :    0.843747
   3 N :   -0.474072
   4 N :   -0.468457
   5 H :    0.161165
   6 H :    0.117723
   7 H :    0.273844
   8 H :    0.154656
   9 H :    0.134330
  10 C :   -0.879656
  11 H :    0.293187
  12 H :    0.092552
  13 H :    0.285686
  14 H :    0.262616
  15 H :    0.215212
Sum of atomic charges:    0.0000000

LOEWDIN ATOMIC CHARGES
----------------------
   0 C :   -0.276774
   1 C :   -0.153965
   2 C :   -0.547469
   3 N :    0.113426
   4 N :    0.133167
   5 H :    0.100399
   6 H :    0.094563
   7 H :    0.063738
   8 H :    0.109748
   9 H :    0.098396
  10 C :   -0.095392
  11 H :    0.090162
  12 H :    0.096505
  13 H :    0.062668
  14 H :    0.057973
  15 H :    0.052856

  Mayer bond orders larger than 0.100000
B(  0-C ,  1-C ) :   0.9232 B(  0-C ,  2-C ) :   0.1003 B(  0-C , 10-C ) :   0.7337
B(  0-C , 11-H ) :   0.8938 B(  0-C , 12-H ) :   1.0671 B(  1-C ,  2-C ) :   1.4169
B(  1-C ,  7-H ) :   1.0253 B(  1-C , 10-C ) :   0.1770 B(  2-C ,  3-N ) :   0.9193
B(  2-C ,  4-N ) :   0.8592 B(  2-C ,  7-H ) :  -0.1846 B(  3-N ,  8-H ) :   1.0227
B(  3-N ,  9-H ) :   1.0875 B(  4-N ,  5-H ) :   0.9886 B(  4-N ,  6-H ) :   1.1001
B( 10-C , 13-H ) :   0.9576 B( 10-C , 14-H ) :   0.9578 B( 10-C , 15-H ) :   0.9739

Dispersion correction           -0.015887275
FINAL SINGLE POINT ENERGY      -268.066920684944

DIPOLE MOMENT
-------------
                                X             Y             Z
Electronic contribution:      3.29637      -2.43676      -2.53831
Nuclear contribution   :     -2.31778       2.31977       2.35294
                        -----------------------------------------
Total Dipole Moment    :      0.97860      -0.11699      -0.18537
                        -----------------------------------------
Magnitude (a.u.)       :      1.00285
Magnitude (Debye)      :      2.54903

Rotational constants in cm-1:     0.219415     0.075373     0.066689
Rotational constants in MHz :  6577.897266  2259.621393  1999.290981

                             ****ORCA TERMINATED NORMALLY****
TOTAL RUN TIME: 0 days 0 hours 0 minutes 23 seconds 500 msec
