                         Program Version 5.0.0 -  RELEASE  -
|  1> !TPSS D3BJ RIJCOSX def2-TZVPD def2/J TightSCF
|  2> *xyz 0 1
|  3> C          0.61188        1.65763       -4.50029
|  4> C          1.69499        1.54179       -5.57045
|  5> H          2.69733        1.73466       -5.18400
|  6> H          1.50666        2.27224       -6.35808
|  7> S          1.78029       -0.03313       -6.42874
|  8> O          2.56929        0.21366       -7.60736
|  9> F          0.41688       -0.46297       -6.61859
| 10> O          2.50513       -0.93326       -5.48257
| 11> H         -0.34424        1.45871       -4.93752
| 12> H          0.61845        2.64655       -4.09174
| 13> H          0.80247        0.94882       -3.72173
| 14> *
| 15> %MaxCore 64000
| 16>
| 17> %pal nprocs 4
| 18> end
| 19>
| 20> %scf
| 21>   MaxIter 150
| 22> end
| 23>
| 24>
| 25>                          ****END OF INPUT****

CARTESIAN COORDINATES (ANGSTROEM)
---------------------------------
  C      0.611880    1.657630   -4.500290
  C      1.694990    1.541790   -5.570450
  H      2.697330    1.734660   -5.184000
  H      1.506660    2.272240   -6.358080
  S      1.780290   -0.033130   -6.428740
  O      2.569290    0.213660   -7.607360
  F      0.416880   -0.462970   -6.618590
  O      2.505130   -0.933260   -5.482570
  H     -0.344240    1.458710   -4.937520
  H      0.618450    2.646550   -4.091740
  H      0.802470    0.948820   -3.721730

 Total Charge           Charge          ....    0
 Multiplicity           Mult            ....    1
 Number of Electrons    NEL             ....   58
 Basis Dimension        Dim             ....  285

ORBITAL ENERGIES
----------------

  NO   OCC          E(Eh)            E(eV)
   0   2.0000     -88.583892     -2410.4902
   1   2.0000     -24.527319      -667.4223
   2   2.0000     -18.897104      -514.2163
   3   2.0000     -18.879226      -513.7299
   4   2.0000     -10.044634      -273.3284
   5   2.0000     -10.008878      -272.3554
   6   2.0000      -7.933633      -215.8851
   7   2.0000      -5.917001      -161.0098
   8   2.0000      -5.910043      -160.8205
   9   2.0000      -5.909722      -160.8117
  10   2.0000      -1.301392       -35.4127
  11   2.0000      -1.030462       -28.0403
  12   2.0000      -0.930798       -25.3283
  13   2.0000      -0.767507       -20.8849
  14   2.0000      -0.675621       -18.3846
  15   2.0000      -0.627690       -17.0803
  16   2.0000      -0.541427       -14.7330
  17   2.0000      -0.526121       -14.3165
  18   2.0000      -0.496020       -13.4974
  19   2.0000      -0.453007       -12.3269
  20   2.0000      -0.430065       -11.7027
  21   2.0000      -0.405684       -11.0392
  22   2.0000      -0.392890       -10.6911
  23   2.0000      -0.373712       -10.1692
  24   2.0000      -0.358436        -9.7535
  25   2.0000      -0.337992        -9.1972
  26   2.0000      -0.293600        -7.9893
  27   2.0000      -0.275632        -7.5003
  28   2.0000      -0.259272        -7.0551
  29   0.0000      -0.029856        -0.8124
  30   0.0000       0.001599         0.0435
  31   0.0000       0.012335         0.3357
  32   0.0000       0.015254         0.4151
  33   0.0000       0.023415         0.6372

MULLIKEN ATOMIC CHARGES
-----------------------
   0 C :   -0.957752
   1 C :   -0.189190
   2 H :    0.222414
   3 H :    0.256643
   4 S :    1.167979
   5 O :   -0.568007
   6 F :   -0.135503
   7 O :   -0.620704
   8 H :    0.310578
   9 H :    0.215353
  10 H :    0.298190
Sum of atomic charges:   -0.0000000

LOEWDIN ATOMIC CHARGES
----------------------
   0 C :   -0.106084
   1 C :   -0.275741
   2 H :    0.108632
   3 H :    0.094491
   4 S :    0.565769
   5 O :   -0.257004
   6 F :   -0.042043
   7 O :   -0.295260
   8 H :    0.064219
   9 H :    0.070635
  10 H :    0.072386

  Mayer bond orders larger than 0.100000
B(  0-C ,  1-C ) :   0.9588 B(  0-C ,  8-H ) :   0.8916 B(  0-C ,  9-H ) :   0.9704
B(  0-C , 10-H ) :   0.9407 B(  1-C ,  2-H ) :   0.9197 B(  1-C ,  3-H ) :   0.9128
B(  1-C ,  4-S ) :   0.8354 B(  1-C ,  5-O ) :   0.1280 B(  4-S ,  5-O ) :   1.6552
B(  4-S ,  6-F ) :   1.0206 B(  4-S ,  7-O ) :   1.5970 B(  5-O ,  7-O ) :   0.1135

Dispersion correction           -0.011486416
FINAL SINGLE POINT ENERGY      -727.899261506801

DIPOLE MOMENT
-------------
                                X             Y             Z
Electronic contribution:      0.29589      -6.82139      -5.87031
Nuclear contribution   :     -1.42658       8.04056       6.39401
                        -----------------------------------------
Total Dipole Moment    :     -1.13069       1.21917       0.52370
                        -----------------------------------------
Magnitude (a.u.)       :      1.74330
Magnitude (Debye)      :      4.43112

Rotational constants in cm-1:     0.153659     0.082363     0.078978
Rotational constants in MHz :  4606.587369  2469.179541  2367.702074

                             ****ORCA TERMINATED NORMALLY****
TOTAL RUN TIME: 0 days 0 hours 0 minutes 16 seconds 984 msec
