                         Program Version 5.0.0 -  RELEASE  -
|  1> !TPSS D3BJ RIJCOSX def2-TZVPD def2/J TightSCF
|  2> *xyz 0 1
|  3> C          1.96337       -1.74915       -1.89689
|  4> N          2.73849       -2.01517       -3.09711
|  5> C          4.04974       -2.15472       -3.15204
|  6> C          4.65821       -1.98629       -4.31866
|  7> N          4.76423       -2.45444       -2.05049
|  8> H          4.28736       -2.77626       -1.21750
|  9> H          5.75082       -2.65835       -2.12599
| 10> H          2.34518       -1.69027       -3.97145
| 11> H          4.10900       -1.59268       -5.07176
| 12> H          5.64910       -2.15646       -4.42724
| 13> C          2.08852       -0.30091       -1.41520
| 14> H          2.23127       -2.45162       -1.10264
| 15> H          0.93025       -1.97780       -2.15544
| 16> H          1.82118        0.36368       -2.21003
| 17> H          3.09792       -0.11068       -1.11551
| 18> H          1.43391       -0.14382       -0.58352
| 19> *
| 20> %MaxCore 64000
| 21>
| 22> %pal nprocs 4
| 23> end
| 24>
| 25> %scf
| 26>   MaxIter 150
| 27> end
| 28>
| 29>
| 30>                          ****END OF INPUT****

CARTESIAN COORDINATES (ANGSTROEM)
---------------------------------
  C      1.963370   -1.749150   -1.896890
  N      2.738490   -2.015170   -3.097110
  C      4.049740   -2.154720   -3.152040
  C      4.658210   -1.986290   -4.318660
  N      4.764230   -2.454440   -2.050490
  H      4.287360   -2.776260   -1.217500
  H      5.750820   -2.658350   -2.125990
  H      2.345180   -1.690270   -3.971450
  H      4.109000   -1.592680   -5.071760
  H      5.649100   -2.156460   -4.427240
  C      2.088520   -0.300910   -1.415200
  H      2.231270   -2.451620   -1.102640
  H      0.930250   -1.977800   -2.155440
  H      1.821180    0.363680   -2.210030
  H      3.097920   -0.110680   -1.115510
  H      1.433910   -0.143820   -0.583520

 Total Charge           Charge          ....    0
 Multiplicity           Mult            ....    1
 Number of Electrons    NEL             ....   48
 Basis Dimension        Dim             ....  312

ORBITAL ENERGIES
----------------

  NO   OCC          E(Eh)            E(eV)
   0   2.0000     -14.101943      -383.7334
   1   2.0000     -14.100158      -383.6848
   2   2.0000     -10.024847      -272.7899
   3   2.0000     -10.021289      -272.6931
   4   2.0000      -9.973676      -271.3975
   5   2.0000      -9.897018      -269.3116
   6   2.0000      -0.902756       -24.5652
   7   2.0000      -0.823342       -22.4043
   8   2.0000      -0.714236       -19.4353
   9   2.0000      -0.647315       -17.6143
  10   2.0000      -0.580638       -15.8000
  11   2.0000      -0.550383       -14.9767
  12   2.0000      -0.489602       -13.3228
  13   2.0000      -0.452336       -12.3087
  14   2.0000      -0.437231       -11.8977
  15   2.0000      -0.397262       -10.8101
  16   2.0000      -0.390053       -10.6139
  17   2.0000      -0.360715        -9.8155
  18   2.0000      -0.344543        -9.3755
  19   2.0000      -0.335473        -9.1287
  20   2.0000      -0.323397        -8.8001
  21   2.0000      -0.317958        -8.6521
  22   2.0000      -0.215465        -5.8631
  23   2.0000      -0.133056        -3.6206
  24   0.0000      -0.012150        -0.3306
  25   0.0000       0.013073         0.3557
  26   0.0000       0.018559         0.5050
  27   0.0000       0.022124         0.6020
  28   0.0000       0.049206         1.3390

MULLIKEN ATOMIC CHARGES
-----------------------
   0 C :   -0.309315
   1 N :   -0.269705
   2 C :    1.089043
   3 C :   -1.322419
   4 N :   -0.461117
   5 H :    0.147660
   6 H :    0.127657
   7 H :    0.131914
   8 H :    0.280607
   9 H :    0.225628
  10 C :   -0.820770
  11 H :    0.237211
  12 H :    0.170844
  13 H :    0.241338
  14 H :    0.263872
  15 H :    0.267552
Sum of atomic charges:   -0.0000000

LOEWDIN ATOMIC CHARGES
----------------------
   0 C :   -0.233924
   1 N :    0.014276
   2 C :   -0.571859
   3 C :    0.002527
   4 N :    0.127731
   5 H :    0.088794
   6 H :    0.107042
   7 H :    0.140353
   8 H :    0.006790
   9 H :    0.005036
  10 C :   -0.076544
  11 H :    0.099920
  12 H :    0.106821
  13 H :    0.064010
  14 H :    0.060426
  15 H :    0.058602

  Mayer bond orders larger than 0.100000
B(  0-C ,  1-N ) :   0.8717 B(  0-C , 10-C ) :   0.8822 B(  0-C , 11-H ) :   0.8948
B(  0-C , 12-H ) :   0.9802 B(  1-N ,  2-C ) :   1.0199 B(  1-N ,  3-C ) :   0.1319
B(  1-N ,  7-H ) :   0.9667 B(  2-C ,  3-C ) :   0.9749 B(  2-C ,  4-N ) :   0.8040
B(  3-C ,  8-H ) :   0.9552 B(  3-C ,  9-H ) :   1.0926 B(  4-N ,  5-H ) :   1.0250
B(  4-N ,  6-H ) :   1.0607 B( 10-C , 13-H ) :   0.9663 B( 10-C , 14-H ) :   0.9743
B( 10-C , 15-H ) :   0.9629

Dispersion correction           -0.015752595
FINAL SINGLE POINT ENERGY      -268.064105843881

DIPOLE MOMENT
-------------
                                X             Y             Z
Electronic contribution:      1.40886      -2.33775      -1.22119
Nuclear contribution   :     -1.91052       2.32590       2.09379
                        -----------------------------------------
Total Dipole Moment    :     -0.50166      -0.01186       0.87261
                        -----------------------------------------
Magnitude (a.u.)       :      1.00660
Magnitude (Debye)      :      2.55858

Rotational constants in cm-1:     0.219448     0.077923     0.068804
Rotational constants in MHz :  6578.886179  2336.083179  2062.700476

                             ****ORCA TERMINATED NORMALLY****
TOTAL RUN TIME: 0 days 0 hours 0 minutes 22 seconds 922 msec
