                         Program Version 5.0.0 -  RELEASE  -
|  1> !TPSS D3BJ RIJCOSX def2-TZVPD def2/J TightSCF
|  2> *xyz 0 1
|  3> C          0.61188        1.65763       -4.50029
|  4> C          1.69499        1.54179       -5.57045
|  5> H          2.69733        1.73466       -5.18400
|  6> H          1.50666        2.27224       -6.35808
|  7> S          1.78029       -0.03313       -6.42874
|  8> O          2.56929        0.21366       -7.60736
|  9> O          0.41688       -0.46297       -6.61859
| 10> F          2.50513       -0.93326       -5.48257
| 11> H         -0.34424        1.45871       -4.93752
| 12> H          0.61845        2.64655       -4.09174
| 13> H          0.80247        0.94882       -3.72173
| 14> *
| 15> %MaxCore 64000
| 16>
| 17> %pal nprocs 4
| 18> end
| 19>
| 20> %scf
| 21>   MaxIter 150
| 22> end
| 23>
| 24>
| 25>                          ****END OF INPUT****

CARTESIAN COORDINATES (ANGSTROEM)
---------------------------------
  C      0.611880    1.657630   -4.500290
  C      1.694990    1.541790   -5.570450
  H      2.697330    1.734660   -5.184000
  H      1.506660    2.272240   -6.358080
  S      1.780290   -0.033130   -6.428740
  O      2.569290    0.213660   -7.607360
  O      0.416880   -0.462970   -6.618590
  F      2.505130   -0.933260   -5.482570
  H     -0.344240    1.458710   -4.937520
  H      0.618450    2.646550   -4.091740
  H      0.802470    0.948820   -3.721730

 Total Charge           Charge          ....    0
 Multiplicity           Mult            ....    1
 Number of Electrons    NEL             ....   58
 Basis Dimension        Dim             ....  285

ORBITAL ENERGIES
----------------

  NO   OCC          E(Eh)            E(eV)
   0   2.0000     -88.581077     -2410.4136
   1   2.0000     -24.500310      -666.6873
   2   2.0000     -18.897230      -514.2198
   3   2.0000     -18.896510      -514.2002
   4   2.0000     -10.043486      -273.2972
   5   2.0000     -10.004186      -272.2277
   6   2.0000      -7.930918      -215.8113
   7   2.0000      -5.914240      -160.9346
   8   2.0000      -5.907411      -160.7488
   9   2.0000      -5.907111      -160.7407
  10   2.0000      -1.258947       -34.2577
  11   2.0000      -1.041829       -28.3496
  12   2.0000      -0.957531       -26.0557
  13   2.0000      -0.764231       -20.7958
  14   2.0000      -0.662960       -18.0400
  15   2.0000      -0.614397       -16.7186
  16   2.0000      -0.519698       -14.1417
  17   2.0000      -0.497562       -13.5393
  18   2.0000      -0.493660       -13.4332
  19   2.0000      -0.449926       -12.2431
  20   2.0000      -0.430567       -11.7163
  21   2.0000      -0.408898       -11.1267
  22   2.0000      -0.389984       -10.6120
  23   2.0000      -0.366340        -9.9686
  24   2.0000      -0.363091        -9.8802
  25   2.0000      -0.341554        -9.2942
  26   2.0000      -0.298941        -8.1346
  27   2.0000      -0.294389        -8.0107
  28   2.0000      -0.279844        -7.6149
  29   0.0000      -0.024197        -0.6584
  30   0.0000       0.002921         0.0795
  31   0.0000       0.012174         0.3313
  32   0.0000       0.015275         0.4156
  33   0.0000       0.024868         0.6767

MULLIKEN ATOMIC CHARGES
-----------------------
   0 C :   -0.918875
   1 C :   -0.240127
   2 H :    0.262386
   3 H :    0.236151
   4 S :    1.191775
   5 O :   -0.577431
   6 O :   -0.589826
   7 F :   -0.177663
   8 H :    0.301764
   9 H :    0.217539
  10 H :    0.294307
Sum of atomic charges:    0.0000000

LOEWDIN ATOMIC CHARGES
----------------------
   0 C :   -0.104924
   1 C :   -0.276310
   2 H :    0.097373
   3 H :    0.103225
   4 S :    0.568830
   5 O :   -0.258446
   6 O :   -0.254199
   7 F :   -0.083634
   8 H :    0.068233
   9 H :    0.070028
  10 H :    0.069824

  Mayer bond orders larger than 0.100000
B(  0-C ,  1-C ) :   0.9923 B(  0-C ,  8-H ) :   0.9323 B(  0-C ,  9-H ) :   0.9665
B(  0-C , 10-H ) :   0.9074 B(  1-C ,  2-H ) :   0.8863 B(  1-C ,  3-H ) :   0.9162
B(  1-C ,  4-S ) :   0.8516 B(  1-C ,  5-O ) :   0.1318 B(  4-S ,  5-O ) :   1.6438
B(  4-S ,  6-O ) :   1.6424 B(  4-S ,  7-F ) :   0.9504 B(  5-O ,  6-O ) :   0.1197

Dispersion correction           -0.011516480
FINAL SINGLE POINT ENERGY      -727.922180239370

DIPOLE MOMENT
-------------
                                X             Y             Z
Electronic contribution:      3.76393      -7.63658      -3.97611
Nuclear contribution   :     -3.60260       8.53062       5.21025
                        -----------------------------------------
Total Dipole Moment    :      0.16132       0.89404       1.23413
                        -----------------------------------------
Magnitude (a.u.)       :      1.53245
Magnitude (Debye)      :      3.89518

Rotational constants in cm-1:     0.154011     0.080858     0.079602
Rotational constants in MHz :  4617.134198  2424.070332  2386.404775

                             ****ORCA TERMINATED NORMALLY****
TOTAL RUN TIME: 0 days 0 hours 0 minutes 16 seconds 817 msec
