                         Program Version 5.0.0 -  RELEASE  -
|  1> !TPSS D3BJ RIJCOSX def2-TZVPD def2/J TightSCF
|  2> *xyz 0 1
|  3> C          1.96337       -1.74915       -1.89689
|  4> N          2.73849       -2.01517       -3.09711
|  5> C          4.04974       -2.15472       -3.15204
|  6> N          4.65821       -1.98629       -4.31866
|  7> C          4.76423       -2.45444       -2.05049
|  8> H          4.28736       -2.77626       -1.21750
|  9> H          5.75082       -2.65835       -2.12599
| 10> H          2.34518       -1.69027       -3.97145
| 11> H          4.10900       -1.59268       -5.07176
| 12> H          5.64910       -2.15646       -4.42724
| 13> C          2.08852       -0.30091       -1.41520
| 14> H          2.23127       -2.45162       -1.10264
| 15> H          0.93025       -1.97780       -2.15544
| 16> H          1.82118        0.36368       -2.21003
| 17> H          3.09792       -0.11068       -1.11551
| 18> H          1.43391       -0.14382       -0.58352
| 19> *
| 20> %MaxCore 64000
| 21>
| 22> %pal nprocs 4
| 23> end
| 24>
| 25> %scf
| 26>   MaxIter 150
| 27> end
| 28>
| 29>
| 30>                          ****END OF INPUT****

CARTESIAN COORDINATES (ANGSTROEM)
---------------------------------
  C      1.963370   -1.749150   -1.896890
  N      2.738490   -2.015170   -3.097110
  C      4.049740   -2.154720   -3.152040
  N      4.658210   -1.986290   -4.318660
  C      4.764230   -2.454440   -2.050490
  H      4.287360   -2.776260   -1.217500
  H      5.750820   -2.658350   -2.125990
  H      2.345180   -1.690270   -3.971450
  H      4.109000   -1.592680   -5.071760
  H      5.649100   -2.156460   -4.427240
  C      2.088520   -0.300910   -1.415200
  H      2.231270   -2.451620   -1.102640
  H      0.930250   -1.977800   -2.155440
  H      1.821180    0.363680   -2.210030
  H      3.097920   -0.110680   -1.115510
  H      1.433910   -0.143820   -0.583520

 Total Charge           Charge          ....    0
 Multiplicity           Mult            ....    1
 Number of Electrons    NEL             ....   48
 Basis Dimension        Dim             ....  312

ORBITAL ENERGIES
----------------

  NO   OCC          E(Eh)            E(eV)
   0   2.0000     -14.104102      -383.7921
   1   2.0000     -14.104047      -383.7906
   2   2.0000     -10.022843      -272.7354
   3   2.0000     -10.019044      -272.6321
   4   2.0000      -9.967376      -271.2261
   5   2.0000      -9.897336      -269.3202
   6   2.0000      -0.908387       -24.7185
   7   2.0000      -0.826990       -22.5035
   8   2.0000      -0.699023       -19.0214
   9   2.0000      -0.651607       -17.7311
  10   2.0000      -0.593029       -16.1371
  11   2.0000      -0.516351       -14.0506
  12   2.0000      -0.499356       -13.5882
  13   2.0000      -0.481385       -13.0991
  14   2.0000      -0.424680       -11.5561
  15   2.0000      -0.399331       -10.8663
  16   2.0000      -0.374321       -10.1858
  17   2.0000      -0.357113        -9.7175
  18   2.0000      -0.342835        -9.3290
  19   2.0000      -0.330822        -9.0021
  20   2.0000      -0.322038        -8.7631
  21   2.0000      -0.312177        -8.4948
  22   2.0000      -0.213315        -5.8046
  23   2.0000      -0.134805        -3.6682
  24   0.0000      -0.013112        -0.3568
  25   0.0000       0.010749         0.2925
  26   0.0000       0.022038         0.5997
  27   0.0000       0.024694         0.6720
  28   0.0000       0.051004         1.3879

MULLIKEN ATOMIC CHARGES
-----------------------
   0 C :   -0.283508
   1 N :   -0.311092
   2 C :    1.088022
   3 N :   -0.439987
   4 C :   -1.386837
   5 H :    0.274075
   6 H :    0.264494
   7 H :    0.148035
   8 H :    0.139701
   9 H :    0.141608
  10 C :   -0.856548
  11 H :    0.243498
  12 H :    0.179628
  13 H :    0.249593
  14 H :    0.293997
  15 H :    0.255320
Sum of atomic charges:    0.0000000

LOEWDIN ATOMIC CHARGES
----------------------
   0 C :   -0.228359
   1 N :    0.011401
   2 C :   -0.574273
   3 N :    0.119474
   4 C :    0.009677
   5 H :   -0.000128
   6 H :    0.002087
   7 H :    0.131619
   8 H :    0.097618
   9 H :    0.112377
  10 C :   -0.075121
  11 H :    0.106318
  12 H :    0.106542
  13 H :    0.060758
  14 H :    0.059936
  15 H :    0.060075

  Mayer bond orders larger than 0.100000
B(  0-C ,  1-N ) :   0.8380 B(  0-C ,  4-C ) :   0.1151 B(  0-C , 10-C ) :   0.8874
B(  0-C , 11-H ) :   0.8795 B(  0-C , 12-H ) :   0.9360 B(  1-N ,  2-C ) :   0.9469
B(  1-N ,  7-H ) :   1.0188 B(  2-C ,  3-N ) :   0.7900 B(  2-C ,  4-C ) :   1.0573
B(  3-N ,  4-C ) :   0.1249 B(  3-N ,  8-H ) :   1.0618 B(  3-N ,  9-H ) :   1.0506
B(  4-C ,  5-H ) :   0.9764 B(  4-C ,  6-H ) :   1.0102 B( 10-C , 13-H ) :   0.9567
B( 10-C , 14-H ) :   0.9787 B( 10-C , 15-H ) :   0.9496

Dispersion correction           -0.015840476
FINAL SINGLE POINT ENERGY      -268.063539331655

DIPOLE MOMENT
-------------
                                X             Y             Z
Electronic contribution:      1.34151      -1.83415      -3.40905
Nuclear contribution   :     -1.88803       2.22658       2.57497
                        -----------------------------------------
Total Dipole Moment    :     -0.54652       0.39243      -0.83408
                        -----------------------------------------
Magnitude (a.u.)       :      1.07162
Magnitude (Debye)      :      2.72385

Rotational constants in cm-1:     0.226509     0.075782     0.067928
Rotational constants in MHz :  6790.555051  2271.890226  2036.439218

                             ****ORCA TERMINATED NORMALLY****
TOTAL RUN TIME: 0 days 0 hours 0 minutes 24 seconds 423 msec
