                         Program Version 5.0.0 -  RELEASE  -
|  1> !TPSS D3BJ RIJCOSX def2-TZVPD def2/J TightSCF xyzfile
|  2>
|  3> *xyzfile 0 1 D1.xyz
|  4>
|  5> %MaxCore 64000
|  6>
|  7> %pal nprocs 4
|  8> end
|  9>
| 10> %scf
| 11>   MaxIter 150
| 12> end
| 13>
| 14>
| 15>                          ****END OF INPUT****

CARTESIAN COORDINATES (ANGSTROEM)
---------------------------------
  C      1.963365   -1.749150   -1.896887
  C      2.738490   -2.015170   -3.097113
  C      0.611877    1.657634   -4.500288
  C      1.694991    1.541794   -5.570447
  H      2.697326    1.734659   -5.183996
  H      1.506656    2.272239   -6.358076
  S      1.780287   -0.033128   -6.428739
  C      4.049736   -2.154717   -3.152044
  N      4.658206   -1.986293   -4.318655
  N      4.764231   -2.454435   -2.050491
  H      4.287363   -2.776259   -1.217496
  H      5.750825   -2.658351   -2.125988
  H      2.345176   -1.690274   -3.971447
  H      4.109004   -1.592677   -5.071760
  H      5.649095   -2.156462   -4.427237
  F      2.569287    0.213657   -7.607360
  O      0.416880   -0.462969   -6.618595
  C      2.088520   -0.300912   -1.415204
  H      2.231272   -2.451616   -1.102643
  H      0.930249   -1.977801   -2.155438
  C      0.680356    0.655418   -3.348038
  H     -0.356865    1.549231   -4.991128
  H      0.650228    2.675438   -4.096000
  C      1.968993    0.733582   -2.535654
  H      3.051356   -0.168602   -0.911868
  H      1.316501   -0.136231   -0.657252
  O      2.505129   -0.933263   -5.482570
  H      2.824195    0.624726   -3.208464
  H      2.058919    1.730331   -2.093112
  H      0.542252   -0.344731   -3.766662
  H     -0.174219    0.829692   -2.685182

 Total Charge           Charge          ....    0
 Multiplicity           Mult            ....    1
 Number of Electrons    NEL             ....  120
 Basis Dimension        Dim             ....  689

ORBITAL ENERGIES
----------------

  NO   OCC          E(Eh)            E(eV)
   0   2.0000     -88.592760     -2410.7316
   1   2.0000     -24.534537      -667.6187
   2   2.0000     -18.905655      -514.4490
   3   2.0000     -18.893395      -514.1154
   4   2.0000     -14.087326      -383.3356
   5   2.0000     -14.073035      -382.9468
   6   2.0000     -10.045337      -273.3475
   7   2.0000     -10.009068      -272.3606
   8   2.0000     -10.000320      -272.1225
   9   2.0000      -9.978737      -271.5352
  10   2.0000      -9.967777      -271.2370
  11   2.0000      -9.957617      -270.9605
  12   2.0000      -9.947200      -270.6771
  13   2.0000      -9.875115      -268.7155
  14   2.0000      -7.942970      -216.1392
  15   2.0000      -5.926239      -161.2612
  16   2.0000      -5.919555      -161.0793
  17   2.0000      -5.918924      -161.0621
  18   2.0000      -1.310138       -35.6507
  19   2.0000      -1.040861       -28.3233
  20   2.0000      -0.948609       -25.8129
  21   2.0000      -0.874595       -23.7990
  22   2.0000      -0.792195       -21.5567
  23   2.0000      -0.775908       -21.1135
  24   2.0000      -0.732566       -19.9341
  25   2.0000      -0.696762       -18.9599
  26   2.0000      -0.667870       -18.1737
  27   2.0000      -0.636318       -17.3151
  28   2.0000      -0.600675       -16.3452
  29   2.0000      -0.567306       -15.4372
  30   2.0000      -0.545496       -14.8437
  31   2.0000      -0.535037       -14.5591
  32   2.0000      -0.529002       -14.3949
  33   2.0000      -0.504390       -13.7252
  34   2.0000      -0.500520       -13.6198
  35   2.0000      -0.479403       -13.0452
  36   2.0000      -0.453052       -12.3282
  37   2.0000      -0.447811       -12.1856
  38   2.0000      -0.441403       -12.0112
  39   2.0000      -0.421239       -11.4625
  40   2.0000      -0.418102       -11.3771
  41   2.0000      -0.401623       -10.9287
  42   2.0000      -0.392063       -10.6686
  43   2.0000      -0.384456       -10.4616
  44   2.0000      -0.372623       -10.1396
  45   2.0000      -0.355507        -9.6738
  46   2.0000      -0.344628        -9.3778
  47   2.0000      -0.338494        -9.2109
  48   2.0000      -0.328827        -8.9478
  49   2.0000      -0.319522        -8.6946
  50   2.0000      -0.307455        -8.3663
  51   2.0000      -0.299528        -8.1506
  52   2.0000      -0.291106        -7.9214
  53   2.0000      -0.285659        -7.7732
  54   2.0000      -0.278342        -7.5741
  55   2.0000      -0.275803        -7.5050
  56   2.0000      -0.264369        -7.1938
  57   2.0000      -0.250783        -6.8242
  58   2.0000      -0.205732        -5.5983
  59   2.0000      -0.110732        -3.0132
  60   0.0000      -0.027458        -0.7472
  61   0.0000      -0.011495        -0.3128
  62   0.0000      -0.003013        -0.0820
  63   0.0000       0.006135         0.1669
  64   0.0000       0.014135         0.3846

MULLIKEN ATOMIC CHARGES
-----------------------
   0 C :   -0.253904
   1 C :   -1.397622
   2 C :   -0.360015
   3 C :   -0.474655
   4 H :    0.343417
   5 H :    0.227508
   6 S :    1.066206
   7 C :    0.433491
   8 N :   -0.457686
   9 N :   -0.488443
  10 H :    0.174253
  11 H :    0.104539
  12 H :    1.353189
  13 H :    0.321254
  14 H :    0.064710
  15 F :   -0.128286
  16 O :   -0.642099
  17 C :   -0.166675
  18 H :    0.248280
  19 H :    0.143662
  20 C :   -0.313380
  21 H :    0.178305
  22 H :    0.125991
  23 C :   -0.465818
  24 H :    0.164854
  25 H :    0.107131
  26 O :   -0.789091
  27 H :    0.374642
  28 H :    0.101392
  29 H :    0.281376
  30 H :    0.123473
Sum of atomic charges:    0.0000000

LOEWDIN ATOMIC CHARGES
----------------------
   0 C :   -0.220452
   1 C :   -0.146541
   2 C :   -0.207810
   3 C :   -0.223875
   4 H :    0.102501
   5 H :    0.097285
   6 S :    0.626977
   7 C :   -0.530124
   8 N :    0.121400
   9 N :    0.130515
  10 H :    0.096820
  11 H :    0.090610
  12 H :    0.020767
  13 H :    0.060142
  14 H :    0.096857
  15 F :   -0.032862
  16 O :   -0.230310
  17 C :   -0.190052
  18 H :    0.093141
  19 H :    0.100401
  20 C :   -0.198927
  21 H :    0.108902
  22 H :    0.118485
  23 C :   -0.203582
  24 H :    0.103012
  25 H :    0.099589
  26 O :   -0.313156
  27 H :    0.100257
  28 H :    0.109074
  29 H :    0.101857
  30 H :    0.119099

  Mayer bond orders larger than 0.100000
B(  0-C ,  1-C ) :   0.6233 B(  0-C ,  7-C ) :   0.2800 B(  0-C , 17-C ) :   0.8322
B(  0-C , 18-H ) :   0.9053 B(  0-C , 19-H ) :   0.8747 B(  0-C , 20-C ) :   0.1625
B(  0-C , 25-H ) :   0.1111 B(  1-C ,  7-C ) :   1.8568 B(  1-C , 12-H ) :  -0.1733
B(  1-C , 23-C ) :   0.2838 B(  1-C , 26-O ) :   0.3800 B(  2-C ,  3-C ) :   1.1617
B(  2-C ,  6-S ) :   0.1177 B(  2-C , 20-C ) :   1.1969 B(  2-C , 21-H ) :   0.8548
B(  2-C , 22-H ) :   0.9031 B(  2-C , 23-C ) :   0.1797 B(  3-C ,  4-H ) :   0.8010
B(  3-C ,  5-H ) :   0.8308 B(  3-C ,  6-S ) :   0.7924 B(  3-C , 15-F ) :   0.1071
B(  3-C , 16-O ) :   0.1444 B(  3-C , 23-C ) :   0.1559 B(  3-C , 26-O ) :   0.1160
B(  6-S , 15-F ) :   0.9226 B(  6-S , 16-O ) :   1.5871 B(  6-S , 26-O ) :   1.8056
B(  7-C ,  8-N ) :   0.9216 B(  7-C ,  9-N ) :   0.8647 B(  7-C , 12-H ) :  -0.2405
B(  7-C , 17-C ) :   0.1493 B(  8-N , 13-H ) :   0.8874 B(  8-N , 14-H ) :   1.1579
B(  9-N , 10-H ) :   0.9924 B(  9-N , 11-H ) :   1.1138 B( 12-H , 26-O ) :  -0.5697
B( 17-C , 20-C ) :   0.1360 B( 17-C , 23-C ) :   1.2191 B( 17-C , 24-H ) :   0.8751
B( 17-C , 25-H ) :   0.8709 B( 20-C , 23-C ) :   0.6368 B( 20-C , 29-H ) :   0.8745
B( 20-C , 30-H ) :   0.8355 B( 23-C , 27-H ) :   0.8435 B( 23-C , 28-H ) :   0.9196

Dispersion correction           -0.047426807
FINAL SINGLE POINT ENERGY     -1073.427788844289

DIPOLE MOMENT
-------------
                                X             Y             Z
Electronic contribution:      0.72254      -1.09367     -23.52234
Nuclear contribution   :      0.18720       2.58739      22.98820
                        -----------------------------------------
Total Dipole Moment    :      0.90974       1.49372      -0.53414
                        -----------------------------------------
Magnitude (a.u.)       :      1.82870
Magnitude (Debye)      :      4.64818

Rotational constants in cm-1:     0.028798     0.014448     0.010940
Rotational constants in MHz :   863.355869   433.126694   327.985023

                             ****ORCA TERMINATED NORMALLY****
TOTAL RUN TIME: 0 days 0 hours 2 minutes 22 seconds 103 msec
