                         Program Version 5.0.0 -  RELEASE  -
|  1> !TPSS D3BJ RIJCOSX def2-TZVPD def2/J TightSCF xyzfile
|  2>
|  3> *xyzfile 0 1 D2.xyz
|  4>
|  5> %MaxCore 64000
|  6>
|  7> %pal nprocs 4
|  8> end
|  9>
| 10> %scf
| 11>   MaxIter 150
| 12> end
| 13>
| 14>
| 15>                          ****END OF INPUT****

CARTESIAN COORDINATES (ANGSTROEM)
---------------------------------
  C      1.963365   -1.749150   -1.896887
  N      2.738490   -2.015170   -3.097113
  C      0.611877    1.657634   -4.500288
  C      1.694991    1.541794   -5.570447
  H      2.697326    1.734659   -5.183996
  H      1.506656    2.272239   -6.358076
  S      1.780287   -0.033128   -6.428739
  C      4.049736   -2.154717   -3.152044
  C      4.658206   -1.986293   -4.318655
  N      4.764231   -2.454435   -2.050491
  H      4.287363   -2.776259   -1.217496
  H      5.750825   -2.658351   -2.125988
  H      2.345176   -1.690274   -3.971447
  H      4.109004   -1.592677   -5.071760
  H      5.649095   -2.156462   -4.427237
  F      2.569287    0.213657   -7.607360
  O      0.416880   -0.462969   -6.618595
  C      2.088520   -0.300912   -1.415204
  H      2.231272   -2.451616   -1.102643
  H      0.930249   -1.977801   -2.155438
  C      0.680356    0.655418   -3.348038
  H     -0.356865    1.549231   -4.991128
  H      0.650228    2.675438   -4.096000
  C      1.968993    0.733582   -2.535654
  H      3.051356   -0.168602   -0.911868
  H      1.316501   -0.136231   -0.657252
  O      2.505129   -0.933263   -5.482570
  H      2.824195    0.624726   -3.208464
  H      2.058919    1.730331   -2.093112
  H      0.542252   -0.344731   -3.766662
  H     -0.174219    0.829692   -2.685182

 Total Charge           Charge          ....    0
 Multiplicity           Mult            ....    1
 Number of Electrons    NEL             ....  120
 Basis Dimension        Dim             ....  689

ORBITAL ENERGIES
----------------

  NO   OCC          E(Eh)            E(eV)
   0   2.0000     -88.595752     -2410.8130
   1   2.0000     -24.536669      -667.6767
   2   2.0000     -18.907462      -514.4982
   3   2.0000     -18.893113      -514.1078
   4   2.0000     -14.084058      -383.2467
   5   2.0000     -14.069993      -382.8640
   6   2.0000     -10.048806      -273.4419
   7   2.0000     -10.016911      -272.5740
   8   2.0000     -10.008923      -272.3567
   9   2.0000      -9.999437      -272.0985
  10   2.0000      -9.992436      -271.9080
  11   2.0000      -9.982950      -271.6499
  12   2.0000      -9.978034      -271.5161
  13   2.0000      -9.868827      -268.5444
  14   2.0000      -7.945744      -216.2147
  15   2.0000      -5.928768      -161.3300
  16   2.0000      -5.922490      -161.1591
  17   2.0000      -5.921793      -161.1402
  18   2.0000      -1.311678       -35.6926
  19   2.0000      -1.042671       -28.3725
  20   2.0000      -0.949608       -25.8402
  21   2.0000      -0.881221       -23.9792
  22   2.0000      -0.805161       -21.9096
  23   2.0000      -0.782446       -21.2914
  24   2.0000      -0.735648       -20.0180
  25   2.0000      -0.702411       -19.1136
  26   2.0000      -0.666068       -18.1246
  27   2.0000      -0.642555       -17.4848
  28   2.0000      -0.607867       -16.5409
  29   2.0000      -0.575752       -15.6670
  30   2.0000      -0.549061       -14.9407
  31   2.0000      -0.541128       -14.7248
  32   2.0000      -0.531218       -14.4552
  33   2.0000      -0.517087       -14.0707
  34   2.0000      -0.509017       -13.8511
  35   2.0000      -0.471233       -12.8229
  36   2.0000      -0.455935       -12.4066
  37   2.0000      -0.454985       -12.3808
  38   2.0000      -0.434320       -11.8185
  39   2.0000      -0.427769       -11.6402
  40   2.0000      -0.421469       -11.4688
  41   2.0000      -0.414762       -11.2862
  42   2.0000      -0.397990       -10.8299
  43   2.0000      -0.390810       -10.6345
  44   2.0000      -0.375830       -10.2268
  45   2.0000      -0.358515        -9.7557
  46   2.0000      -0.348061        -9.4712
  47   2.0000      -0.344604        -9.3771
  48   2.0000      -0.334511        -9.1025
  49   2.0000      -0.322629        -8.7792
  50   2.0000      -0.318002        -8.6533
  51   2.0000      -0.314385        -8.5549
  52   2.0000      -0.305841        -8.3223
  53   2.0000      -0.296329        -8.0635
  54   2.0000      -0.292015        -7.9461
  55   2.0000      -0.286331        -7.7915
  56   2.0000      -0.284221        -7.7341
  57   2.0000      -0.262765        -7.1502
  58   2.0000      -0.194997        -5.3062
  59   2.0000      -0.112004        -3.0478
  60   0.0000      -0.028216        -0.7678
  61   0.0000      -0.015547        -0.4230
  62   0.0000      -0.001929        -0.0525
  63   0.0000       0.003286         0.0894
  64   0.0000       0.013151         0.3579

MULLIKEN ATOMIC CHARGES
-----------------------
   0 C :   -0.712110
   1 N :   -0.247424
   2 C :   -0.351738
   3 C :   -0.490741
   4 H :    0.351679
   5 H :    0.224611
   6 S :    1.083486
   7 C :    1.020771
   8 C :   -1.732550
   9 N :   -0.480658
  10 H :    0.151076
  11 H :    0.121563
  12 H :    0.502390
  13 H :    0.807164
  14 H :    0.253433
  15 F :   -0.124854
  16 O :   -0.653480
  17 C :   -0.108181
  18 H :    0.215366
  19 H :    0.213654
  20 C :   -0.406681
  21 H :    0.178680
  22 H :    0.121555
  23 C :   -0.415674
  24 H :    0.186142
  25 H :    0.147147
  26 O :   -0.768406
  27 H :    0.393838
  28 H :    0.094330
  29 H :    0.325334
  30 H :    0.100277
Sum of atomic charges:   -0.0000000

LOEWDIN ATOMIC CHARGES
----------------------
   0 C :   -0.184305
   1 N :    0.031788
   2 C :   -0.206618
   3 C :   -0.222526
   4 H :    0.104235
   5 H :    0.098119
   6 S :    0.628961
   7 C :   -0.555421
   8 C :    0.006865
   9 N :    0.124701
  10 H :    0.084964
  11 H :    0.103344
  12 H :    0.077614
  13 H :   -0.026623
  14 H :    0.006959
  15 F :   -0.023710
  16 O :   -0.234548
  17 C :   -0.177760
  18 H :    0.102606
  19 H :    0.109876
  20 C :   -0.203391
  21 H :    0.109688
  22 H :    0.119586
  23 C :   -0.199456
  24 H :    0.103685
  25 H :    0.103352
  26 O :   -0.313025
  27 H :    0.101563
  28 H :    0.112483
  29 H :    0.097916
  30 H :    0.119079

  Mayer bond orders larger than 0.100000
B(  0-C ,  1-N ) :   1.0580 B(  0-C ,  7-C ) :  -0.1025 B(  0-C ,  9-N ) :   0.1106
B(  0-C , 17-C ) :   0.7747 B(  0-C , 18-H ) :   0.8889 B(  0-C , 19-H ) :   0.9373
B(  0-C , 20-C ) :   0.1804 B(  1-N ,  7-C ) :   0.9782 B(  1-N , 12-H ) :   0.6356
B(  2-C ,  3-C ) :   1.1449 B(  2-C ,  6-S ) :   0.1199 B(  2-C , 20-C ) :   1.2184
B(  2-C , 21-H ) :   0.8528 B(  2-C , 22-H ) :   0.9013 B(  2-C , 23-C ) :   0.1676
B(  3-C ,  4-H ) :   0.8029 B(  3-C ,  5-H ) :   0.8414 B(  3-C ,  6-S ) :   0.7867
B(  3-C , 15-F ) :   0.1140 B(  3-C , 16-O ) :   0.1321 B(  3-C , 23-C ) :   0.1685
B(  6-S , 15-F ) :   0.9341 B(  6-S , 16-O ) :   1.5733 B(  6-S , 26-O ) :   1.8122
B(  7-C ,  8-C ) :   1.0003 B(  7-C ,  9-N ) :   0.8030 B(  7-C , 14-H ) :  -0.1332
B(  8-C , 13-H ) :   0.5228 B(  8-C , 14-H ) :   1.0661 B(  8-C , 26-O ) :   0.2581
B(  9-N , 10-H ) :   1.0302 B(  9-N , 11-H ) :   1.0740 B( 12-H , 26-O ) :  -0.1207
B( 13-H , 26-O ) :  -0.3382 B( 16-O , 26-O ) :   0.1016 B( 17-C , 20-C ) :   0.1183
B( 17-C , 23-C ) :   1.2623 B( 17-C , 24-H ) :   0.8805 B( 17-C , 25-H ) :   0.9774
B( 20-C , 23-C ) :   0.6184 B( 20-C , 29-H ) :   0.8420 B( 20-C , 30-H ) :   0.8644
B( 23-C , 27-H ) :   0.8374 B( 23-C , 28-H ) :   0.8923 B( 23-C , 29-H ) :  -0.1058

Dispersion correction           -0.047177450
FINAL SINGLE POINT ENERGY     -1073.425352505065

DIPOLE MOMENT
-------------
                                X             Y             Z
Electronic contribution:     -0.88943      -0.89958     -22.50257
Nuclear contribution   :      0.43347       2.59110      22.83150
                        -----------------------------------------
Total Dipole Moment    :     -0.45596       1.69152       0.32893
                        -----------------------------------------
Magnitude (a.u.)       :      1.78251
Magnitude (Debye)      :      4.53078

Rotational constants in cm-1:     0.029257     0.014415     0.010996
Rotational constants in MHz :   877.098782   432.159206   329.643335

                             ****ORCA TERMINATED NORMALLY****
TOTAL RUN TIME: 0 days 0 hours 2 minutes 14 seconds 431 msec
