                         Program Version 5.0.0 -  RELEASE  -
|  1> !TPSS D3BJ RIJCOSX def2-TZVPD def2/J TightSCF xyzfile
|  2>
|  3> *xyzfile 0 1 D3.xyz
|  4>
|  5> %MaxCore 64000
|  6>
|  7> %pal nprocs 4
|  8> end
|  9>
| 10> %scf
| 11>   MaxIter 150
| 12> end
| 13>
| 14>
| 15>                          ****END OF INPUT****

CARTESIAN COORDINATES (ANGSTROEM)
---------------------------------
  C      1.963365   -1.749150   -1.896887
  N      2.738490   -2.015170   -3.097113
  C      0.611877    1.657634   -4.500288
  C      1.694991    1.541794   -5.570447
  H      2.697326    1.734659   -5.183996
  H      1.506656    2.272239   -6.358076
  S      1.780287   -0.033128   -6.428739
  C      4.049736   -2.154717   -3.152044
  N      4.658206   -1.986293   -4.318655
  C      4.764231   -2.454435   -2.050491
  H      4.287363   -2.776259   -1.217496
  H      5.750825   -2.658351   -2.125988
  H      2.345176   -1.690274   -3.971447
  H      4.109004   -1.592677   -5.071760
  H      5.649095   -2.156462   -4.427237
  F      2.569287    0.213657   -7.607360
  O      0.416880   -0.462969   -6.618595
  C      2.088520   -0.300912   -1.415204
  H      2.231272   -2.451616   -1.102643
  H      0.930249   -1.977801   -2.155438
  C      0.680356    0.655418   -3.348038
  H     -0.356865    1.549231   -4.991128
  H      0.650228    2.675438   -4.096000
  C      1.968993    0.733582   -2.535654
  H      3.051356   -0.168602   -0.911868
  H      1.316501   -0.136231   -0.657252
  O      2.505129   -0.933263   -5.482570
  H      2.824195    0.624726   -3.208464
  H      2.058919    1.730331   -2.093112
  H      0.542252   -0.344731   -3.766662
  H     -0.174219    0.829692   -2.685182

 Total Charge           Charge          ....    0
 Multiplicity           Mult            ....    1
 Number of Electrons    NEL             ....  120
 Basis Dimension        Dim             ....  689

ORBITAL ENERGIES
----------------

  NO   OCC          E(Eh)            E(eV)
   0   2.0000     -88.611774     -2411.2490
   1   2.0000     -24.550860      -668.0629
   2   2.0000     -18.921746      -514.8869
   3   2.0000     -18.914171      -514.6808
   4   2.0000     -14.071128      -382.8949
   5   2.0000     -14.070982      -382.8909
   6   2.0000     -10.059482      -273.7324
   7   2.0000     -10.023032      -272.7406
   8   2.0000     -10.002750      -272.1887
   9   2.0000     -10.000102      -272.1166
  10   2.0000      -9.995434      -271.9896
  11   2.0000      -9.983680      -271.6698
  12   2.0000      -9.972901      -271.3764
  13   2.0000      -9.876580      -268.7554
  14   2.0000      -7.961705      -216.6490
  15   2.0000      -5.944835      -161.7672
  16   2.0000      -5.938577      -161.5969
  17   2.0000      -5.937564      -161.5693
  18   2.0000      -1.326064       -36.0840
  19   2.0000      -1.058603       -28.8061
  20   2.0000      -0.968014       -26.3410
  21   2.0000      -0.881938       -23.9988
  22   2.0000      -0.803020       -21.8513
  23   2.0000      -0.789866       -21.4933
  24   2.0000      -0.738704       -20.1012
  25   2.0000      -0.703028       -19.1304
  26   2.0000      -0.668631       -18.1944
  27   2.0000      -0.635336       -17.2884
  28   2.0000      -0.625520       -17.0213
  29   2.0000      -0.586619       -15.9627
  30   2.0000      -0.555241       -15.1089
  31   2.0000      -0.549819       -14.9613
  32   2.0000      -0.538095       -14.6423
  33   2.0000      -0.524057       -14.2603
  34   2.0000      -0.493051       -13.4166
  35   2.0000      -0.477289       -12.9877
  36   2.0000      -0.471057       -12.8181
  37   2.0000      -0.463075       -12.6009
  38   2.0000      -0.451191       -12.2775
  39   2.0000      -0.434537       -11.8244
  40   2.0000      -0.418312       -11.3828
  41   2.0000      -0.413104       -11.2411
  42   2.0000      -0.399044       -10.8585
  43   2.0000      -0.385032       -10.4773
  44   2.0000      -0.381997       -10.3947
  45   2.0000      -0.371003       -10.0955
  46   2.0000      -0.350617        -9.5408
  47   2.0000      -0.347838        -9.4652
  48   2.0000      -0.330790        -9.0013
  49   2.0000      -0.327121        -8.9014
  50   2.0000      -0.323370        -8.7993
  51   2.0000      -0.313417        -8.5285
  52   2.0000      -0.310687        -8.4542
  53   2.0000      -0.303714        -8.2645
  54   2.0000      -0.294266        -8.0074
  55   2.0000      -0.292501        -7.9593
  56   2.0000      -0.290589        -7.9073
  57   2.0000      -0.280924        -7.6443
  58   2.0000      -0.187985        -5.1153
  59   2.0000      -0.113335        -3.0840
  60   0.0000      -0.040355        -1.0981
  61   0.0000      -0.022610        -0.6152
  62   0.0000      -0.004319        -0.1175
  63   0.0000       0.004111         0.1119
  64   0.0000       0.005744         0.1563

MULLIKEN ATOMIC CHARGES
-----------------------
   0 C :   -0.721953
   1 N :   -0.319552
   2 C :   -0.363432
   3 C :   -0.477744
   4 H :    0.349729
   5 H :    0.227731
   6 S :    1.096279
   7 C :    1.046744
   8 N :   -0.411800
   9 C :   -1.526309
  10 H :    0.306731
  11 H :    0.290251
  12 H :    0.637470
  13 H :    0.341815
  14 H :    0.056947
  15 F :   -0.121615
  16 O :   -0.628084
  17 C :   -0.130298
  18 H :    0.202864
  19 H :    0.236249
  20 C :   -0.367122
  21 H :    0.179141
  22 H :    0.124860
  23 C :   -0.436380
  24 H :    0.218661
  25 H :    0.157114
  26 O :   -0.832533
  27 H :    0.363133
  28 H :    0.096766
  29 H :    0.307830
  30 H :    0.096506
Sum of atomic charges:    0.0000000

LOEWDIN ATOMIC CHARGES
----------------------
   0 C :   -0.178718
   1 N :    0.028801
   2 C :   -0.205865
   3 C :   -0.221299
   4 H :    0.104152
   5 H :    0.099638
   6 S :    0.633097
   7 C :   -0.562271
   8 N :    0.124000
   9 C :    0.004087
  10 H :   -0.005692
  11 H :   -0.003277
  12 H :    0.072001
  13 H :    0.051369
  14 H :    0.110644
  15 F :   -0.023999
  16 O :   -0.225946
  17 C :   -0.173176
  18 H :    0.108849
  19 H :    0.109779
  20 C :   -0.203648
  21 H :    0.110179
  22 H :    0.120878
  23 C :   -0.200858
  24 H :    0.104651
  25 H :    0.105794
  26 O :   -0.313665
  27 H :    0.100215
  28 H :    0.112681
  29 H :    0.097345
  30 H :    0.120254

  Mayer bond orders larger than 0.100000
B(  0-C ,  1-N ) :   1.0258 B(  0-C ,  9-C ) :   0.1151 B(  0-C , 17-C ) :   0.8121
B(  0-C , 18-H ) :   0.9087 B(  0-C , 19-H ) :   0.8741 B(  0-C , 20-C ) :   0.1923
B(  1-N ,  7-C ) :   0.9324 B(  1-N ,  9-C ) :   0.1214 B(  1-N , 12-H ) :   0.5162
B(  2-C ,  3-C ) :   1.1489 B(  2-C ,  6-S ) :   0.1170 B(  2-C , 20-C ) :   1.2154
B(  2-C , 21-H ) :   0.8559 B(  2-C , 22-H ) :   0.9033 B(  2-C , 23-C ) :   0.1739
B(  3-C ,  4-H ) :   0.8001 B(  3-C ,  5-H ) :   0.8301 B(  3-C ,  6-S ) :   0.7872
B(  3-C , 15-F ) :   0.1072 B(  3-C , 16-O ) :   0.1367 B(  3-C , 23-C ) :   0.1614
B(  6-S , 15-F ) :   0.9381 B(  6-S , 16-O ) :   1.5970 B(  6-S , 26-O ) :   1.7771
B(  7-C ,  8-N ) :   0.8015 B(  7-C ,  9-C ) :   0.8852 B(  8-N ,  9-C ) :   0.1323
B(  8-N , 13-H ) :   0.8676 B(  8-N , 14-H ) :   1.1290 B(  9-C , 10-H ) :   0.9739
B(  9-C , 11-H ) :   1.0005 B( 12-H , 26-O ) :  -0.1370 B( 17-C , 20-C ) :   0.1157
B( 17-C , 23-C ) :   1.3075 B( 17-C , 24-H ) :   0.8692 B( 17-C , 25-H ) :   0.9421
B( 20-C , 23-C ) :   0.6105 B( 20-C , 29-H ) :   0.8555 B( 20-C , 30-H ) :   0.8571
B( 23-C , 27-H ) :   0.8594 B( 23-C , 28-H ) :   0.8877 B( 23-C , 29-H ) :  -0.1056

Dispersion correction           -0.047102718
FINAL SINGLE POINT ENERGY     -1073.436072123633

DIPOLE MOMENT
-------------
                                X             Y             Z
Electronic contribution:     -1.13445      -0.31103     -24.50490
Nuclear contribution   :      0.44707       2.53104      23.12246
                        -----------------------------------------
Total Dipole Moment    :     -0.68738       2.22001      -1.38244
                        -----------------------------------------
Magnitude (a.u.)       :      2.70409
Magnitude (Debye)      :      6.87324

Rotational constants in cm-1:     0.028906     0.014696     0.011110
Rotational constants in MHz :   866.591909   440.585554   333.081943

                             ****ORCA TERMINATED NORMALLY****
TOTAL RUN TIME: 0 days 0 hours 2 minutes 28 seconds 67 msec
