                         Program Version 5.0.0 -  RELEASE  -
|  1> !TPSS D3BJ RIJCOSX def2-TZVPD def2/J TightSCF xyzfile
|  2>
|  3> *xyzfile 0 1 D4.xyz
|  4>
|  5> %MaxCore 64000
|  6>
|  7> %pal nprocs 4
|  8> end
|  9>
| 10> %scf
| 11>   MaxIter 150
| 12> end
| 13>
| 14>
| 15>                          ****END OF INPUT****

CARTESIAN COORDINATES (ANGSTROEM)
---------------------------------
  C      1.963365   -1.749150   -1.896887
  C      2.738490   -2.015170   -3.097113
  C      0.611877    1.657634   -4.500288
  C      1.694991    1.541794   -5.570447
  H      2.697326    1.734659   -5.183996
  H      1.506656    2.272239   -6.358076
  S      1.780287   -0.033128   -6.428739
  C      4.049736   -2.154717   -3.152044
  N      4.658206   -1.986293   -4.318655
  N      4.764231   -2.454435   -2.050491
  H      4.287363   -2.776259   -1.217496
  H      5.750825   -2.658351   -2.125988
  H      2.345176   -1.690274   -3.971447
  H      4.109004   -1.592677   -5.071760
  H      5.649095   -2.156462   -4.427237
  O      2.569287    0.213657   -7.607360
  F      0.416880   -0.462969   -6.618595
  C      2.088520   -0.300912   -1.415204
  H      2.231272   -2.451616   -1.102643
  H      0.930249   -1.977801   -2.155438
  C      0.680356    0.655418   -3.348038
  H     -0.356865    1.549231   -4.991128
  H      0.650228    2.675438   -4.096000
  C      1.968993    0.733582   -2.535654
  H      3.051356   -0.168602   -0.911868
  H      1.316501   -0.136231   -0.657252
  O      2.505129   -0.933263   -5.482570
  H      2.824195    0.624726   -3.208464
  H      2.058919    1.730331   -2.093112
  H      0.542252   -0.344731   -3.766662
  H     -0.174219    0.829692   -2.685182

 Total Charge           Charge          ....    0
 Multiplicity           Mult            ....    1
 Number of Electrons    NEL             ....  120
 Basis Dimension        Dim             ....  689

ORBITAL ENERGIES
----------------

  NO   OCC          E(Eh)            E(eV)
   0   2.0000     -88.593736     -2410.7581
   1   2.0000     -24.535074      -667.6333
   2   2.0000     -18.905082      -514.4334
   3   2.0000     -18.891774      -514.0713
   4   2.0000     -14.087697      -383.3457
   5   2.0000     -14.072693      -382.9375
   6   2.0000     -10.045511      -273.3522
   7   2.0000     -10.012898      -272.4648
   8   2.0000     -10.000759      -272.1345
   9   2.0000      -9.986430      -271.7446
  10   2.0000      -9.971866      -271.3483
  11   2.0000      -9.960359      -271.0351
  12   2.0000      -9.949464      -270.7387
  13   2.0000      -9.874548      -268.7001
  14   2.0000      -7.943811      -216.1621
  15   2.0000      -5.927059      -161.2835
  16   2.0000      -5.920623      -161.1083
  17   2.0000      -5.919564      -161.0795
  18   2.0000      -1.309155       -35.6239
  19   2.0000      -1.041890       -28.3513
  20   2.0000      -0.948069       -25.7983
  21   2.0000      -0.874608       -23.7993
  22   2.0000      -0.792151       -21.5555
  23   2.0000      -0.780630       -21.2420
  24   2.0000      -0.734529       -19.9875
  25   2.0000      -0.695990       -18.9388
  26   2.0000      -0.668895       -18.2016
  27   2.0000      -0.640594       -17.4314
  28   2.0000      -0.602349       -16.3908
  29   2.0000      -0.569848       -15.5063
  30   2.0000      -0.546448       -14.8696
  31   2.0000      -0.542305       -14.7569
  32   2.0000      -0.529212       -14.4006
  33   2.0000      -0.506808       -13.7909
  34   2.0000      -0.497067       -13.5259
  35   2.0000      -0.477504       -12.9935
  36   2.0000      -0.453285       -12.3345
  37   2.0000      -0.449736       -12.2379
  38   2.0000      -0.435699       -11.8560
  39   2.0000      -0.427035       -11.6202
  40   2.0000      -0.420212       -11.4345
  41   2.0000      -0.401512       -10.9257
  42   2.0000      -0.396158       -10.7800
  43   2.0000      -0.390293       -10.6204
  44   2.0000      -0.378992       -10.3129
  45   2.0000      -0.351957        -9.5772
  46   2.0000      -0.346690        -9.4339
  47   2.0000      -0.341052        -9.2805
  48   2.0000      -0.333625        -9.0784
  49   2.0000      -0.322726        -8.7818
  50   2.0000      -0.312206        -8.4956
  51   2.0000      -0.300590        -8.1795
  52   2.0000      -0.296415        -8.0659
  53   2.0000      -0.290150        -7.8954
  54   2.0000      -0.283096        -7.7034
  55   2.0000      -0.275899        -7.5076
  56   2.0000      -0.267443        -7.2775
  57   2.0000      -0.244078        -6.6417
  58   2.0000      -0.205647        -5.5959
  59   2.0000      -0.111168        -3.0250
  60   0.0000      -0.031992        -0.8705
  61   0.0000      -0.004862        -0.1323
  62   0.0000      -0.002918        -0.0794
  63   0.0000       0.003177         0.0865
  64   0.0000       0.013219         0.3597

MULLIKEN ATOMIC CHARGES
-----------------------
   0 C :   -0.248946
   1 C :   -1.374123
   2 C :   -0.381912
   3 C :   -0.397046
   4 H :    0.330436
   5 H :    0.189740
   6 S :    1.077431
   7 C :    0.425044
   8 N :   -0.452988
   9 N :   -0.488399
  10 H :    0.173478
  11 H :    0.105585
  12 H :    1.343174
  13 H :    0.302411
  14 H :    0.068134
  15 O :   -0.646627
  16 F :   -0.168732
  17 C :   -0.165968
  18 H :    0.244633
  19 H :    0.137842
  20 C :   -0.229539
  21 H :    0.182739
  22 H :    0.129187
  23 C :   -0.457072
  24 H :    0.168147
  25 H :    0.108325
  26 O :   -0.779312
  27 H :    0.363738
  28 H :    0.103563
  29 H :    0.228408
  30 H :    0.108646
Sum of atomic charges:   -0.0000000

LOEWDIN ATOMIC CHARGES
----------------------
   0 C :   -0.222917
   1 C :   -0.151543
   2 C :   -0.218738
   3 C :   -0.213954
   4 H :    0.112603
   5 H :    0.100700
   6 S :    0.625978
   7 C :   -0.530068
   8 N :    0.126856
   9 N :    0.130803
  10 H :    0.096637
  11 H :    0.091140
  12 H :    0.016061
  13 H :    0.065868
  14 H :    0.098988
  15 O :   -0.242598
  16 F :   -0.021539
  17 C :   -0.189854
  18 H :    0.092882
  19 H :    0.098331
  20 C :   -0.204356
  21 H :    0.104384
  22 H :    0.116830
  23 C :   -0.201517
  24 H :    0.103763
  25 H :    0.099407
  26 O :   -0.312179
  27 H :    0.101696
  28 H :    0.110276
  29 H :    0.097650
  30 H :    0.118412

  Mayer bond orders larger than 0.100000
B(  0-C ,  1-C ) :   0.6137 B(  0-C ,  7-C ) :   0.2789 B(  0-C , 17-C ) :   0.8293
B(  0-C , 18-H ) :   0.9096 B(  0-C , 19-H ) :   0.8742 B(  0-C , 20-C ) :   0.1680
B(  0-C , 25-H ) :   0.1115 B(  1-C ,  7-C ) :   1.8896 B(  1-C , 23-C ) :   0.2747
B(  1-C , 26-O ) :   0.4324 B(  2-C ,  3-C ) :   1.0972 B(  2-C ,  6-S ) :   0.1191
B(  2-C , 20-C ) :   1.1320 B(  2-C , 21-H ) :   0.8845 B(  2-C , 22-H ) :   0.9106
B(  2-C , 23-C ) :   0.1856 B(  3-C ,  4-H ) :   0.8139 B(  3-C ,  5-H ) :   0.9176
B(  3-C ,  6-S ) :   0.7771 B(  3-C , 15-O ) :   0.1511 B(  3-C , 16-F ) :   0.1028
B(  3-C , 23-C ) :   0.1548 B(  3-C , 26-O ) :   0.1148 B(  6-S , 15-O ) :   1.4806
B(  6-S , 16-F ) :   0.9776 B(  6-S , 26-O ) :   1.8317 B(  7-C ,  8-N ) :   0.9186
B(  7-C ,  9-N ) :   0.8712 B(  7-C , 12-H ) :  -0.2603 B(  7-C , 17-C ) :   0.1516
B(  8-N , 13-H ) :   0.8945 B(  8-N , 14-H ) :   1.1532 B(  9-N , 10-H ) :   0.9920
B(  9-N , 11-H ) :   1.1134 B( 12-H , 26-O ) :  -0.6686 B( 17-C , 20-C ) :   0.1375
B( 17-C , 23-C ) :   1.2220 B( 17-C , 24-H ) :   0.8715 B( 17-C , 25-H ) :   0.8695
B( 20-C , 23-C ) :   0.6975 B( 20-C , 29-H ) :   0.8706 B( 20-C , 30-H ) :   0.8567
B( 23-C , 27-H ) :   0.8500 B( 23-C , 28-H ) :   0.9136

Dispersion correction           -0.047280973
FINAL SINGLE POINT ENERGY     -1073.427021702328

DIPOLE MOMENT
-------------
                                X             Y             Z
Electronic contribution:     -2.94566      -2.23862     -21.77783
Nuclear contribution   :      2.64598       3.36033      21.85869
                        -----------------------------------------
Total Dipole Moment    :     -0.29968       1.12171       0.08086
                        -----------------------------------------
Magnitude (a.u.)       :      1.16387
Magnitude (Debye)      :      2.95831

Rotational constants in cm-1:     0.028973     0.014435     0.011026
Rotational constants in MHz :   868.588266   432.748309   330.548534

                             ****ORCA TERMINATED NORMALLY****
TOTAL RUN TIME: 0 days 0 hours 2 minutes 26 seconds 805 msec
