                         Program Version 5.0.0 -  RELEASE  -
|  1> !TPSS D3BJ RIJCOSX def2-TZVPD def2/J TightSCF xyzfile
|  2>
|  3> *xyzfile 0 1 D5.xyz
|  4>
|  5> %MaxCore 64000
|  6>
|  7> %pal nprocs 4
|  8> end
|  9>
| 10> %scf
| 11>   MaxIter 150
| 12> end
| 13>
| 14>
| 15>                          ****END OF INPUT****

CARTESIAN COORDINATES (ANGSTROEM)
---------------------------------
  C      1.963365   -1.749150   -1.896887
  N      2.738490   -2.015170   -3.097113
  C      0.611877    1.657634   -4.500288
  C      1.694991    1.541794   -5.570447
  H      2.697326    1.734659   -5.183996
  H      1.506656    2.272239   -6.358076
  S      1.780287   -0.033128   -6.428739
  C      4.049736   -2.154717   -3.152044
  C      4.658206   -1.986293   -4.318655
  N      4.764231   -2.454435   -2.050491
  H      4.287363   -2.776259   -1.217496
  H      5.750825   -2.658351   -2.125988
  H      2.345176   -1.690274   -3.971447
  H      4.109004   -1.592677   -5.071760
  H      5.649095   -2.156462   -4.427237
  O      2.569287    0.213657   -7.607360
  F      0.416880   -0.462969   -6.618595
  C      2.088520   -0.300912   -1.415204
  H      2.231272   -2.451616   -1.102643
  H      0.930249   -1.977801   -2.155438
  C      0.680356    0.655418   -3.348038
  H     -0.356865    1.549231   -4.991128
  H      0.650228    2.675438   -4.096000
  C      1.968993    0.733582   -2.535654
  H      3.051356   -0.168602   -0.911868
  H      1.316501   -0.136231   -0.657252
  O      2.505129   -0.933263   -5.482570
  H      2.824195    0.624726   -3.208464
  H      2.058919    1.730331   -2.093112
  H      0.542252   -0.344731   -3.766662
  H     -0.174219    0.829692   -2.685182

 Total Charge           Charge          ....    0
 Multiplicity           Mult            ....    1
 Number of Electrons    NEL             ....  120
 Basis Dimension        Dim             ....  689

ORBITAL ENERGIES
----------------

  NO   OCC          E(Eh)            E(eV)
   0   2.0000     -88.594707     -2410.7845
   1   2.0000     -24.536056      -667.6600
   2   2.0000     -18.906630      -514.4756
   3   2.0000     -18.894263      -514.1390
   4   2.0000     -14.084155      -383.2494
   5   2.0000     -14.069888      -382.8611
   6   2.0000     -10.048164      -273.4244
   7   2.0000     -10.020381      -272.6684
   8   2.0000     -10.011321      -272.4219
   9   2.0000      -9.999864      -272.1101
  10   2.0000      -9.999192      -272.0918
  11   2.0000      -9.986956      -271.7589
  12   2.0000      -9.980803      -271.5914
  13   2.0000      -9.869005      -268.5493
  14   2.0000      -7.944800      -216.1890
  15   2.0000      -5.928182      -161.3140
  16   2.0000      -5.921382      -161.1290
  17   2.0000      -5.920676      -161.1098
  18   2.0000      -1.310479       -35.6599
  19   2.0000      -1.042857       -28.3776
  20   2.0000      -0.949617       -25.8404
  21   2.0000      -0.881608       -23.9898
  22   2.0000      -0.805765       -21.9260
  23   2.0000      -0.786966       -21.4144
  24   2.0000      -0.737531       -20.0692
  25   2.0000      -0.701351       -19.0847
  26   2.0000      -0.667286       -18.1578
  27   2.0000      -0.646064       -17.5803
  28   2.0000      -0.609460       -16.5842
  29   2.0000      -0.578227       -15.7343
  30   2.0000      -0.550542       -14.9810
  31   2.0000      -0.546770       -14.8784
  32   2.0000      -0.533587       -14.5196
  33   2.0000      -0.523030       -14.2324
  34   2.0000      -0.500612       -13.6224
  35   2.0000      -0.472124       -12.8471
  36   2.0000      -0.457854       -12.4588
  37   2.0000      -0.451770       -12.2933
  38   2.0000      -0.434479       -11.8228
  39   2.0000      -0.429591       -11.6898
  40   2.0000      -0.423712       -11.5298
  41   2.0000      -0.416954       -11.3459
  42   2.0000      -0.401610       -10.9284
  43   2.0000      -0.390736       -10.6325
  44   2.0000      -0.382864       -10.4183
  45   2.0000      -0.356772        -9.7083
  46   2.0000      -0.355710        -9.6794
  47   2.0000      -0.348300        -9.4777
  48   2.0000      -0.341071        -9.2810
  49   2.0000      -0.323946        -8.8150
  50   2.0000      -0.322046        -8.7633
  51   2.0000      -0.311912        -8.4876
  52   2.0000      -0.301849        -8.2137
  53   2.0000      -0.296018        -8.0551
  54   2.0000      -0.292635        -7.9630
  55   2.0000      -0.290527        -7.9056
  56   2.0000      -0.282593        -7.6897
  57   2.0000      -0.269754        -7.3404
  58   2.0000      -0.195577        -5.3219
  59   2.0000      -0.111866        -3.0440
  60   0.0000      -0.033370        -0.9080
  61   0.0000      -0.009461        -0.2575
  62   0.0000      -0.004454        -0.1212
  63   0.0000      -0.000705        -0.0192
  64   0.0000       0.012618         0.3433

MULLIKEN ATOMIC CHARGES
-----------------------
   0 C :   -0.711448
   1 N :   -0.252619
   2 C :   -0.377502
   3 C :   -0.416901
   4 H :    0.334874
   5 H :    0.185404
   6 S :    1.080947
   7 C :    1.041037
   8 C :   -1.778157
   9 N :   -0.481704
  10 H :    0.150034
  11 H :    0.122105
  12 H :    0.516563
  13 H :    0.847377
  14 H :    0.242125
  15 O :   -0.632712
  16 F :   -0.170357
  17 C :   -0.115055
  18 H :    0.216662
  19 H :    0.204906
  20 C :   -0.321686
  21 H :    0.182428
  22 H :    0.125446
  23 C :   -0.410637
  24 H :    0.188753
  25 H :    0.149826
  26 O :   -0.762147
  27 H :    0.390274
  28 H :    0.096029
  29 H :    0.269114
  30 H :    0.087023
Sum of atomic charges:   -0.0000000

LOEWDIN ATOMIC CHARGES
----------------------
   0 C :   -0.186353
   1 N :    0.027633
   2 C :   -0.217627
   3 C :   -0.213414
   4 H :    0.114034
   5 H :    0.101374
   6 S :    0.625889
   7 C :   -0.555795
   8 C :    0.013444
   9 N :    0.124460
  10 H :    0.084544
  11 H :    0.103613
  12 H :    0.072968
  13 H :   -0.020412
  14 H :    0.009383
  15 O :   -0.232300
  16 F :   -0.026022
  17 C :   -0.177460
  18 H :    0.102484
  19 H :    0.108000
  20 C :   -0.209108
  21 H :    0.105195
  22 H :    0.117834
  23 C :   -0.197367
  24 H :    0.104429
  25 H :    0.103184
  26 O :   -0.311019
  27 H :    0.102972
  28 H :    0.113690
  29 H :    0.093414
  30 H :    0.118332

  Mayer bond orders larger than 0.100000
B(  0-C ,  1-N ) :   1.0534 B(  0-C ,  7-C ) :  -0.1020 B(  0-C ,  9-N ) :   0.1115
B(  0-C , 17-C ) :   0.7695 B(  0-C , 18-H ) :   0.8857 B(  0-C , 19-H ) :   0.9447
B(  0-C , 20-C ) :   0.1800 B(  1-N ,  7-C ) :   0.9786 B(  1-N , 12-H ) :   0.6386
B(  2-C ,  3-C ) :   1.0798 B(  2-C ,  6-S ) :   0.1212 B(  2-C , 20-C ) :   1.1557
B(  2-C , 21-H ) :   0.8832 B(  2-C , 22-H ) :   0.9084 B(  2-C , 23-C ) :   0.1735
B(  3-C ,  4-H ) :   0.8195 B(  3-C ,  5-H ) :   0.9280 B(  3-C ,  6-S ) :   0.7787
B(  3-C , 15-O ) :   0.1590 B(  3-C , 23-C ) :   0.1631 B(  6-S , 15-O ) :   1.4910
B(  6-S , 16-F ) :   0.9548 B(  6-S , 26-O ) :   1.8145 B(  7-C ,  8-C ) :   0.9717
B(  7-C ,  9-N ) :   0.8021 B(  7-C , 14-H ) :  -0.1427 B(  8-C , 13-H ) :   0.4349
B(  8-C , 14-H ) :   1.0863 B(  8-C , 26-O ) :   0.2808 B(  9-N , 10-H ) :   1.0313
B(  9-N , 11-H ) :   1.0728 B( 12-H , 26-O ) :  -0.1459 B( 13-H , 14-H ) :   0.1099
B( 13-H , 26-O ) :  -0.2957 B( 17-C , 20-C ) :   0.1177 B( 17-C , 23-C ) :   1.2711
B( 17-C , 24-H ) :   0.8798 B( 17-C , 25-H ) :   0.9767 B( 20-C , 23-C ) :   0.6806
B( 20-C , 29-H ) :   0.8401 B( 20-C , 30-H ) :   0.8869 B( 23-C , 27-H ) :   0.8412
B( 23-C , 28-H ) :   0.8822

Dispersion correction           -0.047036664
FINAL SINGLE POINT ENERGY     -1073.424867154645

DIPOLE MOMENT
-------------
                                X             Y             Z
Electronic contribution:     -4.55004      -2.05885     -20.76131
Nuclear contribution   :      2.89225       3.36404      21.70199
                        -----------------------------------------
Total Dipole Moment    :     -1.65778       1.30519       0.94068
                        -----------------------------------------
Magnitude (a.u.)       :      2.31012
Magnitude (Debye)      :      5.87185

Rotational constants in cm-1:     0.029431     0.014408     0.011084
Rotational constants in MHz :   882.306106   431.946714   332.288152

                             ****ORCA TERMINATED NORMALLY****
TOTAL RUN TIME: 0 days 0 hours 2 minutes 45 seconds 202 msec
