                         Program Version 5.0.0 -  RELEASE  -
|  1> !TPSS D3BJ RIJCOSX def2-TZVPD def2/J TightSCF xyzfile
|  2>
|  3> *xyzfile 0 1 D6.xyz
|  4>
|  5> %MaxCore 64000
|  6>
|  7> %pal nprocs 4
|  8> end
|  9>
| 10> %scf
| 11>   MaxIter 150
| 12> end
| 13>
| 14>
| 15>                          ****END OF INPUT****

CARTESIAN COORDINATES (ANGSTROEM)
---------------------------------
  C      1.963365   -1.749150   -1.896887
  N      2.738490   -2.015170   -3.097113
  C      0.611877    1.657634   -4.500288
  C      1.694991    1.541794   -5.570447
  H      2.697326    1.734659   -5.183996
  H      1.506656    2.272239   -6.358076
  S      1.780287   -0.033128   -6.428739
  C      4.049736   -2.154717   -3.152044
  N      4.658206   -1.986293   -4.318655
  C      4.764231   -2.454435   -2.050491
  H      4.287363   -2.776259   -1.217496
  H      5.750825   -2.658351   -2.125988
  H      2.345176   -1.690274   -3.971447
  H      4.109004   -1.592677   -5.071760
  H      5.649095   -2.156462   -4.427237
  O      2.569287    0.213657   -7.607360
  F      0.416880   -0.462969   -6.618595
  C      2.088520   -0.300912   -1.415204
  H      2.231272   -2.451616   -1.102643
  H      0.930249   -1.977801   -2.155438
  C      0.680356    0.655418   -3.348038
  H     -0.356865    1.549231   -4.991128
  H      0.650228    2.675438   -4.096000
  C      1.968993    0.733582   -2.535654
  H      3.051356   -0.168602   -0.911868
  H      1.316501   -0.136231   -0.657252
  O      2.505129   -0.933263   -5.482570
  H      2.824195    0.624726   -3.208464
  H      2.058919    1.730331   -2.093112
  H      0.542252   -0.344731   -3.766662
  H     -0.174219    0.829692   -2.685182

 Total Charge           Charge          ....    0
 Multiplicity           Mult            ....    1
 Number of Electrons    NEL             ....  120
 Basis Dimension        Dim             ....  689

ORBITAL ENERGIES
----------------

  NO   OCC          E(Eh)            E(eV)
   0   2.0000     -88.611608     -2411.2445
   1   2.0000     -24.550220      -668.0454
   2   2.0000     -18.921234      -514.8729
   3   2.0000     -18.913936      -514.6744
   4   2.0000     -14.071141      -382.8952
   5   2.0000     -14.070788      -382.8856
   6   2.0000     -10.059289      -273.7272
   7   2.0000     -10.026605      -272.8378
   8   2.0000     -10.005358      -272.2596
   9   2.0000     -10.003051      -272.1969
  10   2.0000     -10.000308      -272.1222
  11   2.0000      -9.987830      -271.7827
  12   2.0000      -9.975865      -271.4571
  13   2.0000      -9.876946      -268.7654
  14   2.0000      -7.961540      -216.6445
  15   2.0000      -5.944812      -161.7665
  16   2.0000      -5.938459      -161.5937
  17   2.0000      -5.937226      -161.5601
  18   2.0000      -1.324418       -36.0392
  19   2.0000      -1.059295       -28.8249
  20   2.0000      -0.967791       -26.3349
  21   2.0000      -0.882266       -24.0077
  22   2.0000      -0.803921       -21.8758
  23   2.0000      -0.793822       -21.6010
  24   2.0000      -0.740231       -20.1427
  25   2.0000      -0.701374       -19.0854
  26   2.0000      -0.672588       -18.3021
  27   2.0000      -0.637525       -17.3479
  28   2.0000      -0.626614       -17.0510
  29   2.0000      -0.589172       -16.0322
  30   2.0000      -0.560390       -15.2490
  31   2.0000      -0.553160       -15.0523
  32   2.0000      -0.537443       -14.6246
  33   2.0000      -0.525126       -14.2894
  34   2.0000      -0.491000       -13.3608
  35   2.0000      -0.477490       -12.9932
  36   2.0000      -0.465363       -12.6632
  37   2.0000      -0.463774       -12.6199
  38   2.0000      -0.454189       -12.3591
  39   2.0000      -0.438258       -11.9256
  40   2.0000      -0.421907       -11.4807
  41   2.0000      -0.414728       -11.2853
  42   2.0000      -0.400816       -10.9068
  43   2.0000      -0.391824       -10.6621
  44   2.0000      -0.386416       -10.5149
  45   2.0000      -0.366772        -9.9804
  46   2.0000      -0.356017        -9.6877
  47   2.0000      -0.353059        -9.6072
  48   2.0000      -0.336885        -9.1671
  49   2.0000      -0.329429        -8.9642
  50   2.0000      -0.321013        -8.7352
  51   2.0000      -0.318540        -8.6679
  52   2.0000      -0.310630        -8.4527
  53   2.0000      -0.305071        -8.3014
  54   2.0000      -0.297099        -8.0845
  55   2.0000      -0.294532        -8.0146
  56   2.0000      -0.290927        -7.9165
  57   2.0000      -0.281740        -7.6665
  58   2.0000      -0.188242        -5.1223
  59   2.0000      -0.113738        -3.0950
  60   0.0000      -0.044568        -1.2127
  61   0.0000      -0.015622        -0.4251
  62   0.0000      -0.007413        -0.2017
  63   0.0000       0.002226         0.0606
  64   0.0000       0.003154         0.0858

MULLIKEN ATOMIC CHARGES
-----------------------
   0 C :   -0.721866
   1 N :   -0.329240
   2 C :   -0.390984
   3 C :   -0.405427
   4 H :    0.336854
   5 H :    0.193176
   6 S :    1.099624
   7 C :    1.055411
   8 N :   -0.409536
   9 C :   -1.524520
  10 H :    0.305767
  11 H :    0.290214
  12 H :    0.661491
  13 H :    0.325304
  14 H :    0.060044
  15 O :   -0.626711
  16 F :   -0.161793
  17 C :   -0.133258
  18 H :    0.203224
  19 H :    0.227295
  20 C :   -0.280701
  21 H :    0.184076
  22 H :    0.128391
  23 C :   -0.429967
  24 H :    0.221273
  25 H :    0.158101
  26 O :   -0.823194
  27 H :    0.357205
  28 H :    0.097590
  29 H :    0.249302
  30 H :    0.082854
Sum of atomic charges:   -0.0000000

LOEWDIN ATOMIC CHARGES
----------------------
   0 C :   -0.180665
   1 N :    0.025035
   2 C :   -0.217003
   3 C :   -0.211589
   4 H :    0.114147
   5 H :    0.103021
   6 S :    0.631062
   7 C :   -0.562549
   8 N :    0.129334
   9 C :    0.004343
  10 H :   -0.005966
  11 H :   -0.002755
  12 H :    0.067424
  13 H :    0.057031
  14 H :    0.112517
  15 O :   -0.231643
  16 F :   -0.019317
  17 C :   -0.172834
  18 H :    0.108772
  19 H :    0.107949
  20 C :   -0.209246
  21 H :    0.105652
  22 H :    0.119102
  23 C :   -0.198719
  24 H :    0.105400
  25 H :    0.105710
  26 O :   -0.312340
  27 H :    0.101697
  28 H :    0.113938
  29 H :    0.092926
  30 H :    0.119565

  Mayer bond orders larger than 0.100000
B(  0-C ,  1-N ) :   1.0211 B(  0-C ,  9-C ) :   0.1140 B(  0-C , 17-C ) :   0.8071
B(  0-C , 18-H ) :   0.9073 B(  0-C , 19-H ) :   0.8793 B(  0-C , 20-C ) :   0.1908
B(  1-N ,  7-C ) :   0.9328 B(  1-N ,  9-C ) :   0.1232 B(  1-N , 12-H ) :   0.5160
B(  2-C ,  3-C ) :   1.0821 B(  2-C ,  6-S ) :   0.1172 B(  2-C , 20-C ) :   1.1497
B(  2-C , 21-H ) :   0.8860 B(  2-C , 22-H ) :   0.9103 B(  2-C , 23-C ) :   0.1795
B(  3-C ,  4-H ) :   0.8161 B(  3-C ,  5-H ) :   0.9164 B(  3-C ,  6-S ) :   0.7743
B(  3-C , 15-O ) :   0.1493 B(  3-C , 23-C ) :   0.1591 B(  6-S , 15-O ) :   1.5066
B(  6-S , 16-F ) :   0.9810 B(  6-S , 26-O ) :   1.7954 B(  7-C ,  8-N ) :   0.7886
B(  7-C ,  9-C ) :   0.8824 B(  8-N ,  9-C ) :   0.1379 B(  8-N , 13-H ) :   0.8734
B(  8-N , 14-H ) :   1.1248 B(  9-C , 10-H ) :   0.9755 B(  9-C , 11-H ) :   1.0001
B( 12-H , 26-O ) :  -0.1686 B( 17-C , 20-C ) :   0.1147 B( 17-C , 23-C ) :   1.3139
B( 17-C , 24-H ) :   0.8692 B( 17-C , 25-H ) :   0.9418 B( 20-C , 23-C ) :   0.6708
B( 20-C , 29-H ) :   0.8551 B( 20-C , 30-H ) :   0.8797 B( 23-C , 27-H ) :   0.8654
B( 23-C , 28-H ) :   0.8802 B( 23-C , 29-H ) :  -0.1008

Dispersion correction           -0.046959302
FINAL SINGLE POINT ENERGY     -1073.435871134992

DIPOLE MOMENT
-------------
                                X             Y             Z
Electronic contribution:     -4.79703      -1.46263     -22.75445
Nuclear contribution   :      2.90585       3.30398      21.99296
                        -----------------------------------------
Total Dipole Moment    :     -1.89118       1.84135      -0.76149
                        -----------------------------------------
Magnitude (a.u.)       :      2.74718
Magnitude (Debye)      :      6.98279

Rotational constants in cm-1:     0.029065     0.014689     0.011200
Rotational constants in MHz :   871.338526   440.374927   335.770911

                             ****ORCA TERMINATED NORMALLY****
TOTAL RUN TIME: 0 days 0 hours 2 minutes 25 seconds 341 msec
