                         Program Version 5.0.0 -  RELEASE  -
|  1> !TPSS D3BJ RIJCOSX def2-TZVPD def2/J TightSCF xyzfile
|  2>
|  3> *xyzfile 0 1 D7.xyz
|  4>
|  5> %MaxCore 64000
|  6>
|  7> %pal nprocs 4
|  8> end
|  9>
| 10> %scf
| 11>   MaxIter 150
| 12> end
| 13>
| 14>
| 15>                          ****END OF INPUT****

CARTESIAN COORDINATES (ANGSTROEM)
---------------------------------
  C      1.963365   -1.749150   -1.896887
  C      2.738490   -2.015170   -3.097113
  C      0.611877    1.657634   -4.500288
  C      1.694991    1.541794   -5.570447
  H      2.697326    1.734659   -5.183996
  H      1.506656    2.272239   -6.358076
  S      1.780287   -0.033128   -6.428739
  C      4.049736   -2.154717   -3.152044
  N      4.658206   -1.986293   -4.318655
  N      4.764231   -2.454435   -2.050491
  H      4.287363   -2.776259   -1.217496
  H      5.750825   -2.658351   -2.125988
  H      2.345176   -1.690274   -3.971447
  H      4.109004   -1.592677   -5.071760
  H      5.649095   -2.156462   -4.427237
  O      2.569287    0.213657   -7.607360
  O      0.416880   -0.462969   -6.618595
  C      2.088520   -0.300912   -1.415204
  H      2.231272   -2.451616   -1.102643
  H      0.930249   -1.977801   -2.155438
  C      0.680356    0.655418   -3.348038
  H     -0.356865    1.549231   -4.991128
  H      0.650228    2.675438   -4.096000
  C      1.968993    0.733582   -2.535654
  H      3.051356   -0.168602   -0.911868
  H      1.316501   -0.136231   -0.657252
  F      2.505129   -0.933263   -5.482570
  H      2.824195    0.624726   -3.208464
  H      2.058919    1.730331   -2.093112
  H      0.542252   -0.344731   -3.766662
  H     -0.174219    0.829692   -2.685182

 Total Charge           Charge          ....    0
 Multiplicity           Mult            ....    1
 Number of Electrons    NEL             ....  120
 Basis Dimension        Dim             ....  689

ORBITAL ENERGIES
----------------

  NO   OCC          E(Eh)            E(eV)
   0   2.0000     -88.582940     -2410.4644
   1   2.0000     -24.510295      -666.9590
   2   2.0000     -18.899323      -514.2767
   3   2.0000     -18.899147      -514.2719
   4   2.0000     -14.105927      -383.8418
   5   2.0000     -14.101163      -383.7121
   6   2.0000     -10.039937      -273.2006
   7   2.0000     -10.023426      -272.7513
   8   2.0000     -10.006168      -272.2817
   9   2.0000      -9.987540      -271.7748
  10   2.0000      -9.979516      -271.5564
  11   2.0000      -9.970301      -271.3057
  12   2.0000      -9.963479      -271.1200
  13   2.0000      -9.901440      -269.4319
  14   2.0000      -7.933305      -215.8762
  15   2.0000      -5.916829      -161.0051
  16   2.0000      -5.909619      -160.8089
  17   2.0000      -5.909322      -160.8008
  18   2.0000      -1.273764       -34.6609
  19   2.0000      -1.045580       -28.4517
  20   2.0000      -0.960042       -26.1241
  21   2.0000      -0.897694       -24.4275
  22   2.0000      -0.815280       -22.1849
  23   2.0000      -0.776622       -21.1330
  24   2.0000      -0.741747       -20.1840
  25   2.0000      -0.698752       -19.0140
  26   2.0000      -0.675219       -18.3736
  27   2.0000      -0.641024       -17.4431
  28   2.0000      -0.614130       -16.7113
  29   2.0000      -0.575947       -15.6723
  30   2.0000      -0.539752       -14.6874
  31   2.0000      -0.528075       -14.3697
  32   2.0000      -0.522056       -14.2059
  33   2.0000      -0.509671       -13.8689
  34   2.0000      -0.496632       -13.5141
  35   2.0000      -0.495868       -13.4933
  36   2.0000      -0.463179       -12.6037
  37   2.0000      -0.446831       -12.1589
  38   2.0000      -0.444396       -12.0926
  39   2.0000      -0.429083       -11.6759
  40   2.0000      -0.422936       -11.5087
  41   2.0000      -0.409059       -11.1311
  42   2.0000      -0.404233       -10.9997
  43   2.0000      -0.389593       -10.6014
  44   2.0000      -0.380017       -10.3408
  45   2.0000      -0.357070        -9.7164
  46   2.0000      -0.354487        -9.6461
  47   2.0000      -0.351670        -9.5694
  48   2.0000      -0.343593        -9.3497
  49   2.0000      -0.328043        -8.9265
  50   2.0000      -0.317253        -8.6329
  51   2.0000      -0.307811        -8.3760
  52   2.0000      -0.299485        -8.1494
  53   2.0000      -0.294033        -8.0010
  54   2.0000      -0.288127        -7.8403
  55   2.0000      -0.283542        -7.7156
  56   2.0000      -0.277724        -7.5572
  57   2.0000      -0.274233        -7.4623
  58   2.0000      -0.227721        -6.1966
  59   2.0000      -0.133283        -3.6268
  60   0.0000      -0.021969        -0.5978
  61   0.0000      -0.011386        -0.3098
  62   0.0000      -0.001341        -0.0365
  63   0.0000       0.002836         0.0772
  64   0.0000       0.012475         0.3395

MULLIKEN ATOMIC CHARGES
-----------------------
   0 C :   -0.262602
   1 C :   -1.269836
   2 C :   -0.301427
   3 C :   -0.432594
   4 H :    0.352099
   5 H :    0.191740
   6 S :    1.091276
   7 C :    0.481767
   8 N :   -0.464315
   9 N :   -0.484276
  10 H :    0.177165
  11 H :    0.108602
  12 H :    1.143009
  13 H :    0.283188
  14 H :    0.070440
  15 O :   -0.644479
  16 O :   -0.644047
  17 C :   -0.167958
  18 H :    0.250631
  19 H :    0.146337
  20 C :   -0.349842
  21 H :    0.172921
  22 H :    0.134782
  23 C :   -0.400329
  24 H :    0.172752
  25 H :    0.102650
  26 F :   -0.286705
  27 H :    0.355647
  28 H :    0.096175
  29 H :    0.273894
  30 H :    0.103336
Sum of atomic charges:   -0.0000000

LOEWDIN ATOMIC CHARGES
----------------------
   0 C :   -0.218319
   1 C :   -0.146345
   2 C :   -0.215941
   3 C :   -0.219306
   4 H :    0.100864
   5 H :    0.108526
   6 S :    0.594513
   7 C :   -0.527014
   8 N :    0.128813
   9 N :    0.137925
  10 H :    0.100502
  11 H :    0.095196
  12 H :    0.035063
  13 H :    0.080232
  14 H :    0.104867
  15 O :   -0.249543
  16 O :   -0.234238
  17 C :   -0.188580
  18 H :    0.095981
  19 H :    0.102408
  20 C :   -0.202296
  21 H :    0.108958
  22 H :    0.116224
  23 C :   -0.204646
  24 H :    0.104001
  25 H :    0.102177
  26 F :   -0.137487
  27 H :    0.097608
  28 H :    0.111775
  29 H :    0.098159
  30 H :    0.119924

  Mayer bond orders larger than 0.100000
B(  0-C ,  1-C ) :   0.6402 B(  0-C ,  7-C ) :   0.2499 B(  0-C , 17-C ) :   0.8411
B(  0-C , 18-H ) :   0.9001 B(  0-C , 19-H ) :   0.8952 B(  0-C , 20-C ) :   0.1417
B(  0-C , 25-H ) :   0.1068 B(  1-C ,  7-C ) :   1.8063 B(  1-C , 23-C ) :   0.2670
B(  1-C , 26-F ) :   0.3277 B(  2-C ,  3-C ) :   1.1201 B(  2-C ,  6-S ) :   0.1294
B(  2-C , 20-C ) :   1.2229 B(  2-C , 21-H ) :   0.8679 B(  2-C , 22-H ) :   0.9090
B(  2-C , 23-C ) :   0.1379 B(  3-C ,  4-H ) :   0.7828 B(  3-C ,  5-H ) :   0.8810
B(  3-C ,  6-S ) :   0.8185 B(  3-C , 15-O ) :   0.1437 B(  3-C , 16-O ) :   0.1243
B(  3-C , 23-C ) :   0.1605 B(  3-C , 26-F ) :   0.1238 B(  6-S , 15-O ) :   1.4144
B(  6-S , 16-O ) :   1.4970 B(  6-S , 26-F ) :   1.1815 B(  7-C ,  8-N ) :   0.8434
B(  7-C ,  9-N ) :   0.8766 B(  7-C , 12-H ) :  -0.1781 B(  7-C , 17-C ) :   0.1412
B(  8-N , 13-H ) :   0.9244 B(  8-N , 14-H ) :   1.1530 B(  9-N , 10-H ) :   0.9876
B(  9-N , 11-H ) :   1.1131 B( 12-H , 26-F ) :  -0.3603 B( 15-O , 16-O ) :   0.1137
B( 17-C , 20-C ) :   0.1463 B( 17-C , 23-C ) :   1.2384 B( 17-C , 24-H ) :   0.8719
B( 17-C , 25-H ) :   0.8669 B( 20-C , 23-C ) :   0.5648 B( 20-C , 29-H ) :   0.8909
B( 20-C , 30-H ) :   0.8395 B( 23-C , 27-H ) :   0.8672 B( 23-C , 28-H ) :   0.9181
B( 23-C , 29-H ) :  -0.1099

Dispersion correction           -0.046851707
FINAL SINGLE POINT ENERGY     -1073.443539766459

DIPOLE MOMENT
-------------
                                X             Y             Z
Electronic contribution:      0.77142      -3.18458     -19.46689
Nuclear contribution   :      0.26049       3.89757      20.56096
                        -----------------------------------------
Total Dipole Moment    :      1.03191       0.71299       1.09408
                        -----------------------------------------
Magnitude (a.u.)       :      1.66439
Magnitude (Debye)      :      4.23054

Rotational constants in cm-1:     0.029090     0.014735     0.011139
Rotational constants in MHz :   872.086433   441.731892   333.928051

                             ****ORCA TERMINATED NORMALLY****
TOTAL RUN TIME: 0 days 0 hours 2 minutes 24 seconds 302 msec
