                         Program Version 5.0.0 -  RELEASE  -
|  1> !TPSS D3BJ RIJCOSX def2-TZVPD def2/J TightSCF xyzfile
|  2>
|  3> *xyzfile 0 1 D8.xyz
|  4>
|  5> %MaxCore 64000
|  6>
|  7> %pal nprocs 4
|  8> end
|  9>
| 10> %scf
| 11>   MaxIter 150
| 12> end
| 13>
| 14>
| 15>                          ****END OF INPUT****

CARTESIAN COORDINATES (ANGSTROEM)
---------------------------------
  C      1.963365   -1.749150   -1.896887
  N      2.738490   -2.015170   -3.097113
  C      0.611877    1.657634   -4.500288
  C      1.694991    1.541794   -5.570447
  H      2.697326    1.734659   -5.183996
  H      1.506656    2.272239   -6.358076
  S      1.780287   -0.033128   -6.428739
  C      4.049736   -2.154717   -3.152044
  C      4.658206   -1.986293   -4.318655
  N      4.764231   -2.454435   -2.050491
  H      4.287363   -2.776259   -1.217496
  H      5.750825   -2.658351   -2.125988
  H      2.345176   -1.690274   -3.971447
  H      4.109004   -1.592677   -5.071760
  H      5.649095   -2.156462   -4.427237
  O      2.569287    0.213657   -7.607360
  O      0.416880   -0.462969   -6.618595
  C      2.088520   -0.300912   -1.415204
  H      2.231272   -2.451616   -1.102643
  H      0.930249   -1.977801   -2.155438
  C      0.680356    0.655418   -3.348038
  H     -0.356865    1.549231   -4.991128
  H      0.650228    2.675438   -4.096000
  C      1.968993    0.733582   -2.535654
  H      3.051356   -0.168602   -0.911868
  H      1.316501   -0.136231   -0.657252
  F      2.505129   -0.933263   -5.482570
  H      2.824195    0.624726   -3.208464
  H      2.058919    1.730331   -2.093112
  H      0.542252   -0.344731   -3.766662
  H     -0.174219    0.829692   -2.685182

 Total Charge           Charge          ....    0
 Multiplicity           Mult            ....    1
 Number of Electrons    NEL             ....  120
 Basis Dimension        Dim             ....  689

ORBITAL ENERGIES
----------------

  NO   OCC          E(Eh)            E(eV)
   0   2.0000     -88.584518     -2410.5073
   1   2.0000     -24.511224      -666.9843
   2   2.0000     -18.901199      -514.3278
   3   2.0000     -18.899523      -514.2822
   4   2.0000     -14.102866      -383.7585
   5   2.0000     -14.097763      -383.6196
   6   2.0000     -10.043213      -273.2897
   7   2.0000     -10.026218      -272.8273
   8   2.0000     -10.022693      -272.7313
   9   2.0000     -10.014192      -272.5000
  10   2.0000     -10.002050      -272.1696
  11   2.0000      -9.995395      -271.9885
  12   2.0000      -9.991380      -271.8793
  13   2.0000      -9.895356      -269.2663
  14   2.0000      -7.934799      -215.9169
  15   2.0000      -5.918303      -161.0452
  16   2.0000      -5.911182      -160.8514
  17   2.0000      -5.910792      -160.8408
  18   2.0000      -1.274484       -34.6805
  19   2.0000      -1.046622       -28.4800
  20   2.0000      -0.961042       -26.1513
  21   2.0000      -0.904762       -24.6198
  22   2.0000      -0.826184       -22.4816
  23   2.0000      -0.784288       -21.3416
  24   2.0000      -0.743276       -20.2256
  25   2.0000      -0.708309       -19.2741
  26   2.0000      -0.665268       -18.1029
  27   2.0000      -0.655147       -17.8275
  28   2.0000      -0.621013       -16.8986
  29   2.0000      -0.585222       -15.9247
  30   2.0000      -0.547693       -14.9035
  31   2.0000      -0.546304       -14.8657
  32   2.0000      -0.517808       -14.0903
  33   2.0000      -0.514591       -14.0027
  34   2.0000      -0.501975       -13.6594
  35   2.0000      -0.486538       -13.2394
  36   2.0000      -0.459204       -12.4956
  37   2.0000      -0.453882       -12.3507
  38   2.0000      -0.444474       -12.0947
  39   2.0000      -0.440792       -11.9946
  40   2.0000      -0.426373       -11.6022
  41   2.0000      -0.416145       -11.3239
  42   2.0000      -0.403611       -10.9828
  43   2.0000      -0.395871       -10.7722
  44   2.0000      -0.385253       -10.4833
  45   2.0000      -0.365112        -9.9352
  46   2.0000      -0.359402        -9.7798
  47   2.0000      -0.355513        -9.6740
  48   2.0000      -0.347583        -9.4582
  49   2.0000      -0.336764        -9.1638
  50   2.0000      -0.332480        -9.0472
  51   2.0000      -0.325954        -8.8697
  52   2.0000      -0.311482        -8.4759
  53   2.0000      -0.308170        -8.3857
  54   2.0000      -0.299856        -8.1595
  55   2.0000      -0.297443        -8.0938
  56   2.0000      -0.292953        -7.9717
  57   2.0000      -0.283122        -7.7041
  58   2.0000      -0.216523        -5.8919
  59   2.0000      -0.135030        -3.6743
  60   0.0000      -0.021300        -0.5796
  61   0.0000      -0.012200        -0.3320
  62   0.0000      -0.004209        -0.1145
  63   0.0000       0.000293         0.0080
  64   0.0000       0.009982         0.2716

MULLIKEN ATOMIC CHARGES
-----------------------
   0 C :   -0.702346
   1 N :   -0.257673
   2 C :   -0.297841
   3 C :   -0.454933
   4 H :    0.361876
   5 H :    0.188376
   6 S :    1.116236
   7 C :    1.026894
   8 C :   -1.736821
   9 N :   -0.476434
  10 H :    0.150661
  11 H :    0.125510
  12 H :    0.485333
  13 H :    0.778659
  14 H :    0.240281
  15 O :   -0.635426
  16 O :   -0.649634
  17 C :   -0.086448
  18 H :    0.213007
  19 H :    0.206437
  20 C :   -0.429621
  21 H :    0.173493
  22 H :    0.132253
  23 C :   -0.370910
  24 H :    0.187382
  25 H :    0.144383
  26 F :   -0.288639
  27 H :    0.371981
  28 H :    0.088667
  29 H :    0.316373
  30 H :    0.078924
Sum of atomic charges:   -0.0000000

LOEWDIN ATOMIC CHARGES
----------------------
   0 C :   -0.181527
   1 N :    0.031370
   2 C :   -0.215078
   3 C :   -0.217924
   4 H :    0.102692
   5 H :    0.109452
   6 S :    0.594860
   7 C :   -0.551875
   8 C :    0.015427
   9 N :    0.132406
  10 H :    0.088945
  11 H :    0.107444
  12 H :    0.094308
  13 H :   -0.009848
  14 H :    0.013758
  15 O :   -0.240218
  16 O :   -0.238515
  17 C :   -0.176297
  18 H :    0.105460
  19 H :    0.111705
  20 C :   -0.206268
  21 H :    0.109772
  22 H :    0.117305
  23 C :   -0.200196
  24 H :    0.104851
  25 H :    0.106034
  26 F :   -0.137309
  27 H :    0.099425
  28 H :    0.115298
  29 H :    0.094486
  30 H :    0.120056

  Mayer bond orders larger than 0.100000
B(  0-C ,  1-N ) :   1.0521 B(  0-C ,  7-C ) :  -0.1080 B(  0-C ,  9-N ) :   0.1156
B(  0-C , 17-C ) :   0.7635 B(  0-C , 18-H ) :   0.8918 B(  0-C , 19-H ) :   0.9407
B(  0-C , 20-C ) :   0.1544 B(  1-N ,  7-C ) :   0.9794 B(  1-N , 12-H ) :   0.6126
B(  2-C ,  3-C ) :   1.0848 B(  2-C ,  6-S ) :   0.1315 B(  2-C , 20-C ) :   1.2476
B(  2-C , 21-H ) :   0.8668 B(  2-C , 22-H ) :   0.9054 B(  2-C , 23-C ) :   0.1281
B(  3-C ,  4-H ) :   0.7926 B(  3-C ,  5-H ) :   0.8856 B(  3-C ,  6-S ) :   0.7969
B(  3-C , 15-O ) :   0.1559 B(  3-C , 16-O ) :   0.1096 B(  3-C , 20-C ) :   0.1022
B(  3-C , 23-C ) :   0.1730 B(  3-C , 26-F ) :   0.1200 B(  6-S , 15-O ) :   1.4229
B(  6-S , 16-O ) :   1.5046 B(  6-S , 26-F ) :   1.1876 B(  7-C ,  8-C ) :   1.0443
B(  7-C ,  9-N ) :   0.8169 B(  7-C , 14-H ) :  -0.1306 B(  8-C , 13-H ) :   0.4582
B(  8-C , 14-H ) :   1.0802 B(  8-C , 26-F ) :   0.2709 B(  9-N , 10-H ) :   1.0296
B(  9-N , 11-H ) :   1.0685 B( 13-H , 14-H ) :   0.1034 B( 13-H , 26-F ) :  -0.1554
B( 15-O , 16-O ) :   0.1089 B( 17-C , 20-C ) :   0.1249 B( 17-C , 23-C ) :   1.2789
B( 17-C , 24-H ) :   0.8830 B( 17-C , 25-H ) :   0.9806 B( 20-C , 23-C ) :   0.5300
B( 20-C , 29-H ) :   0.8546 B( 20-C , 30-H ) :   0.8687 B( 23-C , 27-H ) :   0.8640
B( 23-C , 28-H ) :   0.8870 B( 23-C , 29-H ) :  -0.1481

Dispersion correction           -0.046604622
FINAL SINGLE POINT ENERGY     -1073.441377858821

DIPOLE MOMENT
-------------
                                X             Y             Z
Electronic contribution:     -0.86120      -2.98791     -18.41547
Nuclear contribution   :      0.50676       3.90127      20.40426
                        -----------------------------------------
Total Dipole Moment    :     -0.35445       0.91336       1.98880
                        -----------------------------------------
Magnitude (a.u.)       :      2.21702
Magnitude (Debye)      :      5.63521

Rotational constants in cm-1:     0.029548     0.014706     0.011197
Rotational constants in MHz :   885.834387   440.871746   335.667619

                             ****ORCA TERMINATED NORMALLY****
TOTAL RUN TIME: 0 days 0 hours 2 minutes 31 seconds 137 msec
