                         Program Version 5.0.0 -  RELEASE  -
|  1> !TPSS D3BJ RIJCOSX def2-TZVPD def2/J TightSCF xyzfile
|  2>
|  3> *xyzfile 0 1 D9.xyz
|  4>
|  5> %MaxCore 64000
|  6>
|  7> %pal nprocs 4
|  8> end
|  9>
| 10> %scf
| 11>   MaxIter 150
| 12> end
| 13>
| 14>
| 15>                          ****END OF INPUT****

CARTESIAN COORDINATES (ANGSTROEM)
---------------------------------
  C      1.963365   -1.749150   -1.896887
  N      2.738490   -2.015170   -3.097113
  C      0.611877    1.657634   -4.500288
  C      1.694991    1.541794   -5.570447
  H      2.697326    1.734659   -5.183996
  H      1.506656    2.272239   -6.358076
  S      1.780287   -0.033128   -6.428739
  C      4.049736   -2.154717   -3.152044
  N      4.658206   -1.986293   -4.318655
  C      4.764231   -2.454435   -2.050491
  H      4.287363   -2.776259   -1.217496
  H      5.750825   -2.658351   -2.125988
  H      2.345176   -1.690274   -3.971447
  H      4.109004   -1.592677   -5.071760
  H      5.649095   -2.156462   -4.427237
  O      2.569287    0.213657   -7.607360
  O      0.416880   -0.462969   -6.618595
  C      2.088520   -0.300912   -1.415204
  H      2.231272   -2.451616   -1.102643
  H      0.930249   -1.977801   -2.155438
  C      0.680356    0.655418   -3.348038
  H     -0.356865    1.549231   -4.991128
  H      0.650228    2.675438   -4.096000
  C      1.968993    0.733582   -2.535654
  H      3.051356   -0.168602   -0.911868
  H      1.316501   -0.136231   -0.657252
  F      2.505129   -0.933263   -5.482570
  H      2.824195    0.624726   -3.208464
  H      2.058919    1.730331   -2.093112
  H      0.542252   -0.344731   -3.766662
  H     -0.174219    0.829692   -2.685182

 Total Charge           Charge          ....    0
 Multiplicity           Mult            ....    1
 Number of Electrons    NEL             ....  120
 Basis Dimension        Dim             ....  689

ORBITAL ENERGIES
----------------

  NO   OCC          E(Eh)            E(eV)
   0   2.0000     -88.597874     -2410.8707
   1   2.0000     -24.532599      -667.5660
   2   2.0000     -18.913738      -514.6690
   3   2.0000     -18.913295      -514.6569
   4   2.0000     -14.099647      -383.6709
   5   2.0000     -14.099045      -383.6545
   6   2.0000     -10.053050      -273.5574
   7   2.0000     -10.022065      -272.7142
   8   2.0000     -10.020113      -272.6611
   9   2.0000     -10.019586      -272.6468
  10   2.0000     -10.004482      -272.2358
  11   2.0000      -9.995867      -272.0014
  12   2.0000      -9.986184      -271.7379
  13   2.0000      -9.896747      -269.3042
  14   2.0000      -7.948335      -216.2852
  15   2.0000      -5.932069      -161.4198
  16   2.0000      -5.924533      -161.2147
  17   2.0000      -5.924194      -161.2055
  18   2.0000      -1.295339       -35.2480
  19   2.0000      -1.060236       -28.8505
  20   2.0000      -0.974036       -26.5049
  21   2.0000      -0.908458       -24.7204
  22   2.0000      -0.827571       -22.5194
  23   2.0000      -0.790030       -21.4978
  24   2.0000      -0.743886       -20.2422
  25   2.0000      -0.705867       -19.2076
  26   2.0000      -0.678626       -18.4663
  27   2.0000      -0.644621       -17.5410
  28   2.0000      -0.641137       -17.4462
  29   2.0000      -0.589356       -16.0372
  30   2.0000      -0.555773       -15.1233
  31   2.0000      -0.544489       -14.8163
  32   2.0000      -0.530153       -14.4262
  33   2.0000      -0.518779       -14.1167
  34   2.0000      -0.503915       -13.7122
  35   2.0000      -0.492693       -13.4069
  36   2.0000      -0.476225       -12.9587
  37   2.0000      -0.461435       -12.5563
  38   2.0000      -0.457990       -12.4625
  39   2.0000      -0.438366       -11.9286
  40   2.0000      -0.427281       -11.6269
  41   2.0000      -0.420075       -11.4308
  42   2.0000      -0.406435       -11.0597
  43   2.0000      -0.398116       -10.8333
  44   2.0000      -0.388638       -10.5754
  45   2.0000      -0.368309       -10.0222
  46   2.0000      -0.362115        -9.8536
  47   2.0000      -0.360025        -9.7968
  48   2.0000      -0.344590        -9.3768
  49   2.0000      -0.335515        -9.1298
  50   2.0000      -0.333855        -9.0847
  51   2.0000      -0.328526        -8.9396
  52   2.0000      -0.316578        -8.6145
  53   2.0000      -0.310948        -8.4613
  54   2.0000      -0.307035        -8.3549
  55   2.0000      -0.302468        -8.2306
  56   2.0000      -0.296141        -8.0584
  57   2.0000      -0.293955        -7.9989
  58   2.0000      -0.212519        -5.7829
  59   2.0000      -0.134390        -3.6569
  60   0.0000      -0.032504        -0.8845
  61   0.0000      -0.011627        -0.3164
  62   0.0000      -0.006893        -0.1876
  63   0.0000      -0.003178        -0.0865
  64   0.0000       0.006953         0.1892

MULLIKEN ATOMIC CHARGES
-----------------------
   0 C :   -0.706833
   1 N :   -0.343750
   2 C :   -0.302375
   3 C :   -0.446835
   4 H :    0.362050
   5 H :    0.191839
   6 S :    1.094964
   7 C :    1.044973
   8 N :   -0.414671
   9 C :   -1.488741
  10 H :    0.300832
  11 H :    0.282971
  12 H :    0.601677
  13 H :    0.296776
  14 H :    0.064400
  15 O :   -0.629976
  16 O :   -0.630657
  17 C :   -0.114798
  18 H :    0.203937
  19 H :    0.229521
  20 C :   -0.392770
  21 H :    0.175664
  22 H :    0.134001
  23 C :   -0.379693
  24 H :    0.211471
  25 H :    0.155373
  26 F :   -0.298166
  27 H :    0.334935
  28 H :    0.090154
  29 H :    0.297457
  30 H :    0.076270
Sum of atomic charges:   -0.0000000

LOEWDIN ATOMIC CHARGES
----------------------
   0 C :   -0.176033
   1 N :    0.027796
   2 C :   -0.214419
   3 C :   -0.217419
   4 H :    0.102257
   5 H :    0.110642
   6 S :    0.596249
   7 C :   -0.560343
   8 N :    0.131032
   9 C :    0.015008
  10 H :   -0.000327
  11 H :    0.002443
  12 H :    0.088568
  13 H :    0.071037
  14 H :    0.117620
  15 O :   -0.240508
  16 O :   -0.231523
  17 C :   -0.171728
  18 H :    0.111508
  19 H :    0.111624
  20 C :   -0.206701
  21 H :    0.110188
  22 H :    0.118425
  23 C :   -0.201772
  24 H :    0.105955
  25 H :    0.108247
  26 F :   -0.135824
  27 H :    0.097664
  28 H :    0.115401
  29 H :    0.093850
  30 H :    0.121085

  Mayer bond orders larger than 0.100000
B(  0-C ,  1-N ) :   1.0462 B(  0-C ,  9-C ) :   0.1151 B(  0-C , 17-C ) :   0.8119
B(  0-C , 18-H ) :   0.9028 B(  0-C , 19-H ) :   0.8757 B(  0-C , 20-C ) :   0.1655
B(  1-N ,  7-C ) :   0.9078 B(  1-N ,  9-C ) :   0.1141 B(  1-N , 12-H ) :   0.5135
B(  2-C ,  3-C ) :   1.0892 B(  2-C ,  6-S ) :   0.1243 B(  2-C , 20-C ) :   1.2438
B(  2-C , 21-H ) :   0.8696 B(  2-C , 22-H ) :   0.9098 B(  2-C , 23-C ) :   0.1366
B(  3-C ,  4-H ) :   0.7848 B(  3-C ,  5-H ) :   0.8777 B(  3-C ,  6-S ) :   0.8065
B(  3-C , 15-O ) :   0.1415 B(  3-C , 16-O ) :   0.1095 B(  3-C , 20-C ) :   0.1023
B(  3-C , 23-C ) :   0.1637 B(  3-C , 26-F ) :   0.1033 B(  6-S , 15-O ) :   1.4456
B(  6-S , 16-O ) :   1.5307 B(  6-S , 26-F ) :   1.1585 B(  7-C ,  8-N ) :   0.7542
B(  7-C ,  9-C ) :   0.9224 B(  8-N ,  9-C ) :   0.1273 B(  8-N , 13-H ) :   0.9013
B(  8-N , 14-H ) :   1.1241 B(  9-C , 10-H ) :   0.9729 B(  9-C , 11-H ) :   0.9994
B( 12-H , 26-F ) :  -0.1022 B( 15-O , 16-O ) :   0.1162 B( 17-C , 20-C ) :   0.1248
B( 17-C , 23-C ) :   1.3260 B( 17-C , 24-H ) :   0.8727 B( 17-C , 25-H ) :   0.9444
B( 20-C , 23-C ) :   0.5212 B( 20-C , 29-H ) :   0.8697 B( 20-C , 30-H ) :   0.8586
B( 23-C , 27-H ) :   0.8884 B( 23-C , 28-H ) :   0.8817 B( 23-C , 29-H ) :  -0.1506

Dispersion correction           -0.046536309
FINAL SINGLE POINT ENERGY     -1073.443903502253

DIPOLE MOMENT
-------------
                                X             Y             Z
Electronic contribution:     -1.05725      -2.42977     -20.38532
Nuclear contribution   :      0.52036       3.84122      20.69523
                        -----------------------------------------
Total Dipole Moment    :     -0.53689       1.41145       0.30991
                        -----------------------------------------
Magnitude (a.u.)       :      1.54158
Magnitude (Debye)      :      3.91839

Rotational constants in cm-1:     0.029184     0.014996     0.011314
Rotational constants in MHz :   874.907122   449.569665   339.178205

                             ****ORCA TERMINATED NORMALLY****
TOTAL RUN TIME: 0 days 0 hours 2 minutes 39 seconds 281 msec
