                               Psi4 1.4rc1

  ==> Input File <==

--------------------------------------------------------------------------
memory 2GB

mol = psi4.core.Molecule.from_arrays(
    elez=[7,1,1,1,16,8,8,8,6,6,6,1,1,1,1,1,1],
    fragment_separators=[4, 8],
    fix_com=True,
    fix_orientation=True,
    fix_symmetry='c1',
    fragment_multiplicities=[2, 2, 1],
    fragment_charges=[+1,-1,0],
    molecular_charge=0,
    molecular_multiplicity=1,
    geom= [
      0.42884350282670 ,     0.32140231760796,     -1.65531186167186,
      0.74857790009701 ,    -0.40054183926203,     -1.00134487477587,
     -0.46105263517042 ,     0.02333186663155,     -2.07773134077319,
      0.31025846368939 ,     1.20137465907452,     -1.13494757511439,

     -1.32860842874695 ,     0.14673726998850,     -4.43578091160516,
     -2.57134655786555 ,     0.47573265118081,     -5.06834105605282,
     -1.51496290436282 ,    -0.40051214725120,     -3.06342020389925,
     -0.37792840161595 ,    -0.62755777872401,     -5.20114102733324,

      1.36401379286593 ,     0.46874177898203,     -2.81376379847671,
      0.96804515216561 ,     1.63063857620477,     -3.71574907816083,
     -0.50834729052918 ,     1.72267873668430,     -4.12429969986748,
     -0.59151056585997 ,     2.29495774295438,     -5.04721886464200,
     -1.11411394138300 ,     2.23561047384228,     -3.37436176875138,
      1.29484732563869 ,    -0.46874190878321,     -3.36468447056886,
      2.37621566682840 ,     0.59740011523247,     -2.43149458961128,
      1.57868832007079 ,     1.52065248862023,     -4.61273308140539,
      1.26665260135133 ,     2.57598799701663,     -3.25044779729026 ])
activate(mol)

set {
basis jun-cc-pvdz
scf_type df
guess sad
freeze_core true
fisapt_do_plot false  # For extra analysis
}

energy('fisapt0')
--------------------------------------------------------------------------

    Molecular point group: c1

    Geometry (in Angstrom), charge = 0, multiplicity = 1:

       Center              X                  Y                   Z               Mass
    ------------   -----------------  -----------------  -----------------  -----------------
         N            0.428843502827     0.321402317608    -1.655311861672    14.003074004430
         H            0.748577900097    -0.400541839262    -1.001344874776     1.007825032230
         H           -0.461052635170     0.023331866632    -2.077731340773     1.007825032230
         H            0.310258463689     1.201374659075    -1.134947575114     1.007825032230
         S           -1.328608428747     0.146737269989    -4.435780911605    31.972071174400
         O           -2.571346557866     0.475732651181    -5.068341056053    15.994914619570
         O           -1.514962904363    -0.400512147251    -3.063420203899    15.994914619570
         O           -0.377928401616    -0.627557778724    -5.201141027333    15.994914619570
         C            1.364013792866     0.468741778982    -2.813763798477    12.000000000000
         C            0.968045152166     1.630638576205    -3.715749078161    12.000000000000
         C           -0.508347290529     1.722678736684    -4.124299699867    12.000000000000
         H           -0.591510565860     2.294957742954    -5.047218864642     1.007825032230
         H           -1.114113941383     2.235610473842    -3.374361768751     1.007825032230
         H            1.294847325639    -0.468741908783    -3.364684470569     1.007825032230
         H            2.376215666828     0.597400115232    -2.431494589611     1.007825032230
         H            1.578688320071     1.520652488620    -4.612733081405     1.007825032230
         H            1.266652601351     2.575987997017    -3.250447797290     1.007825032230

  Charge       = 0
  Multiplicity = 1
  Basis Set: JUN-CC-PVDZ
    Blend: JUN-CC-PVDZ
  Basis Set: (JUN-CC-PVDZ AUX)
    Blend: JUN-CC-PVDZ-JKFIT

    Orbital Energies [Eh]
    ---------------------

    Doubly Occupied:

       1A    -92.176988     2A    -20.516107     3A    -20.500911
       4A    -20.497103     5A    -15.715577     6A    -11.332808
       7A    -11.281262     8A    -11.263452     9A     -9.146968
      10A     -6.832592    11A     -6.832242    12A     -6.830496
      13A     -1.460026    14A     -1.349615    15A     -1.302667
      16A     -1.300435    17A     -1.107993    18A     -0.997564
      19A     -0.885726    20A     -0.828376    21A     -0.799744
      22A     -0.761912    23A     -0.703696    24A     -0.667204
      25A     -0.652697    26A     -0.646440    27A     -0.621095
      28A     -0.606703    29A     -0.560741    30A     -0.548832
      31A     -0.533127    32A     -0.495750    33A     -0.485305
      34A     -0.447352    35A     -0.437690    36A     -0.408077
      37A     -0.399004

  @DF-RHF Final Energy:  -795.34275346382185

   => Energetics <=

    Nuclear Repulsion Energy =            553.4963448450939723
    One-Electron Energy =               -2193.8096438677657716
    Two-Electron Energy =                 844.9705455588499490
    Total Energy =                       -795.3427534638218503

  Dipole Moment: [D]
     X:     8.5343      Y:     4.2579      Z:     9.2140     Total:    13.2613

  Basis Set: (JUN-CC-PVDZ AUX)
    Blend: JUN-CC-PVDZ-JKFIT

    SAPT Results
  --------------------------------------------------------------------------------------------------------
    Electrostatics               -163.70199545 [mEh]    -102.72455302 [kcal/mol]    -429.79952985 [kJ/mol]
      Elst10,r                   -163.70199545 [mEh]    -102.72455302 [kcal/mol]    -429.79952985 [kJ/mol]

    Exchange                       59.20534384 [mEh]      37.15191416 [kcal/mol]     155.44360884 [kJ/mol]
      Exch10                       59.20534384 [mEh]      37.15191416 [kcal/mol]     155.44360884 [kJ/mol]
      Exch10(S^2)                  57.19889938 [mEh]      35.89285125 [kcal/mol]     150.17568964 [kJ/mol]

    Induction                     -37.09447089 [mEh]     -23.27713191 [kcal/mol]     -97.39151990 [kJ/mol]
      Ind20,r                     -41.58062561 [mEh]     -26.09223649 [kcal/mol]    -109.16991749 [kJ/mol]
      Exch-Ind20,r                 18.50625879 [mEh]      11.61285271 [kcal/mol]      48.58817576 [kJ/mol]
      delta HF,r (2)              -14.02010407 [mEh]      -8.79774813 [kcal/mol]     -36.80977817 [kJ/mol]
      Induction (A<-B)             -6.78286025 [mEh]      -4.25630907 [kcal/mol]     -17.80839713 [kJ/mol]
      Induction (B<-A)            -30.31161064 [mEh]     -19.02082284 [kcal/mol]     -79.58312277 [kJ/mol]

    Dispersion                     -7.47469930 [mEh]      -4.69044463 [kcal/mol]     -19.62482032 [kJ/mol]
      Disp20                       -9.41719295 [mEh]      -5.90937779 [kcal/mol]     -24.72483667 [kJ/mol]
      Exch-Disp20                   1.94249364 [mEh]       1.21893316 [kcal/mol]       5.10001635 [kJ/mol]

  Total HF                       -141.59112250 [mEh]     -88.84977077 [kcal/mol]    -371.74744091 [kJ/mol]
  Total SAPT0                    -149.06582180 [mEh]     -93.54021540 [kcal/mol]    -391.37226123 [kJ/mol]

  --------------------------------------------------------------------------------------------------------

*** Psi4 exiting successfully. Buy a developer a beer!
