                               Psi4 1.4rc1

  ==> Input File <==

--------------------------------------------------------------------------
memory 2GB

mol = psi4.core.Molecule.from_arrays(
    elez=[7,1,1,1,8,6,6,1,1,1,1,6,1,1],
    fragment_separators=[4, 5],
    fix_com=True,
    fix_orientation=True,
    fix_symmetry='c1',
    fragment_multiplicities=[2, 2, 1],
    fragment_charges=[+1,-1,0],
    molecular_charge=0,
    molecular_multiplicity=1,
    geom= [
    -3.176900 , -0.159484 ,  1.610700,
    -4.064736 ,  0.231272 ,  1.286754,
    -3.344073 , -0.671511 ,  2.484928,
    -2.716861 , -0.781886 ,  0.935880,

    -1.712061 , -1.376836 ,  0.202535,

    -2.120502 ,  0.885196 ,  1.789506,
    -0.778939 ,  0.171966 ,  1.804965,
    -2.324193 ,  1.472649 ,  2.686078,
    -2.187698 ,  1.541272 ,  0.919482,
     0.015695 ,  0.910767 ,  1.939153,
    -0.743553 , -0.506827 ,  2.665420,
    -0.602493 , -0.630712 ,  0.492240,
     0.313894 , -1.240346 ,  0.603498,
    -0.363829 ,  0.113322 , -0.301169])
activate(mol)

set {
basis jun-cc-pvdz
scf_type df
guess sad
freeze_core true
fisapt_do_plot false  # For extra analysis
}

energy('fisapt0')
--------------------------------------------------------------------------

    Molecular point group: c1

    Geometry (in Angstrom), charge = 0, multiplicity = 1:

       Center              X                  Y                   Z               Mass
    ------------   -----------------  -----------------  -----------------  -----------------
         N           -3.176900000000    -0.159484000000     1.610700000000    14.003074004430
         H           -4.064736000000     0.231272000000     1.286754000000     1.007825032230
         H           -3.344073000000    -0.671511000000     2.484928000000     1.007825032230
         H           -2.716861000000    -0.781886000000     0.935880000000     1.007825032230
         O           -1.712061000000    -1.376836000000     0.202535000000    15.994914619570
         C           -2.120502000000     0.885196000000     1.789506000000    12.000000000000
         C           -0.778939000000     0.171966000000     1.804965000000    12.000000000000
         H           -2.324193000000     1.472649000000     2.686078000000     1.007825032230
         H           -2.187698000000     1.541272000000     0.919482000000     1.007825032230
         H            0.015695000000     0.910767000000     1.939153000000     1.007825032230
         H           -0.743553000000    -0.506827000000     2.665420000000     1.007825032230
         C           -0.602493000000    -0.630712000000     0.492240000000    12.000000000000
         H            0.313894000000    -1.240346000000     0.603498000000     1.007825032230
         H           -0.363829000000     0.113322000000    -0.301169000000     1.007825032230

  Charge       = 0
  Multiplicity = 1
  Basis Set: JUN-CC-PVDZ
    Blend: JUN-CC-PVDZ
  Basis Set: (JUN-CC-PVDZ AUX)
    Blend: JUN-CC-PVDZ-JKFIT

    Orbital Energies [Eh]
    ---------------------

    Doubly Occupied:

       1A    -20.419321     2A    -15.656804     3A    -11.299988
       4A    -11.228202     5A    -11.223735     6A     -1.307676
       7A     -1.217443     8A     -1.040351     9A     -0.891818
      10A     -0.800813    11A     -0.760899    12A     -0.739020
      13A     -0.652074    14A     -0.601688    15A     -0.563545
      16A     -0.558476    17A     -0.511004    18A     -0.489689
      19A     -0.468127    20A     -0.328956    21A     -0.324423

  @DF-RHF Final Energy:  -248.10548370420577

   => Energetics <=

    Nuclear Repulsion Energy =            200.8008061220805018
    One-Electron Energy =                -735.6444758688419370
    Two-Electron Energy =                 286.7381860425556397
    Total Energy =                       -248.1054837042057670

  Dipole Moment: [D]
     X:    -3.7436      Y:     4.4561      Z:     4.6603     Total:     7.4559

  Basis Set: (JUN-CC-PVDZ AUX)
    Blend: JUN-CC-PVDZ-JKFIT

    SAPT Results
  --------------------------------------------------------------------------------------------------------
    Electrostatics               -277.95013903 [mEh]    -174.41634548 [kcal/mol]    -729.75798949 [kJ/mol]
      Elst10,r                   -277.95013903 [mEh]    -174.41634548 [kcal/mol]    -729.75798949 [kJ/mol]

    Exchange                      114.39012133 [mEh]      71.78088484 [kcal/mol]     300.33122217 [kJ/mol]
      Exch10                      114.39012133 [mEh]      71.78088484 [kcal/mol]     300.33122217 [kJ/mol]
      Exch10(S^2)                 107.18673134 [mEh]      67.26068938 [kcal/mol]     281.41872437 [kJ/mol]

    Induction                     -67.97686232 [mEh]     -42.65612510 [kcal/mol]    -178.47322744 [kJ/mol]
      Ind20,r                     -91.55711258 [mEh]     -57.45295554 [kcal/mol]    -240.38316597 [kJ/mol]
      Exch-Ind20,r                 48.21523264 [mEh]      30.25551526 [kcal/mol]     126.58907586 [kJ/mol]
      delta HF,r (2)              -24.63498238 [mEh]     -15.45868483 [kcal/mol]     -64.67913733 [kJ/mol]
      Induction (A<-B)            -26.91323775 [mEh]     -16.88831166 [kcal/mol]     -70.66069597 [kJ/mol]
      Induction (B<-A)            -41.06362458 [mEh]     -25.76781345 [kcal/mol]    -107.81253147 [kJ/mol]

    Dispersion                    -10.50257045 [mEh]      -6.59046245 [kcal/mol]     -27.57449491 [kJ/mol]
      Disp20                      -14.62414509 [mEh]      -9.17678959 [kcal/mol]     -38.39568765 [kJ/mol]
      Exch-Disp20                   4.12157465 [mEh]       2.58632714 [kcal/mol]      10.82119274 [kJ/mol]

  Total HF                       -231.53688002 [mEh]    -145.29158574 [kcal/mol]    -607.89999475 [kJ/mol]
  Total SAPT0                    -242.03945047 [mEh]    -151.88204820 [kcal/mol]    -635.47448966 [kJ/mol]

  --------------------------------------------------------------------------------------------------------

*** Psi4 exiting successfully. Buy a developer a beer!
