                               Psi4 1.4rc1

  ==> Input File <==

--------------------------------------------------------------------------
memory 2GB

mol = psi4.core.Molecule.from_arrays(
    elez=[7,1,1,1,6,8,8,6,6,6,1,1,1,1,1,1],
    fragment_separators=[4, 7],
    fix_com=True,
    fix_orientation=True,
    fix_symmetry='c1',
    fragment_multiplicities=[2, 2, 1],
    fragment_charges=[+1,-1,0],
    molecular_charge=0,
    molecular_multiplicity=1,
    geom= [
    0.28127984387120 ,     0.67645445008226  ,   -2.24017882281796,
    0.39078982234721 ,    -0.31925305682600  ,   -2.02649472204110,
   -0.69268573463875 ,     0.99010404550299  ,   -2.13812305565438,
    0.85420640417775 ,     1.21221440488510  ,   -1.57527895335090,

   -2.35773202247692 ,     2.30685761880910  ,   -3.13675348718298,
   -3.44376282706836 ,     2.84651849689285  ,   -3.25274403211467,
   -1.97092208588631 ,     1.58304212923087  ,   -2.15122870414341,

    0.64865609197938 ,     1.00359491430560  ,   -3.64560058948429,
    0.13296805634975 ,     2.38586900509717  ,   -4.02461835552568,
   -1.36646223853163 ,     2.47910585019382  ,   -4.31393172260702,
   -1.63680195209747 ,     1.72709458177639  ,   -5.06399277142402,
   -1.58234651576219 ,     3.44560530582257  ,   -4.76868652162466,
    0.19099313978949 ,     0.23965470972905  ,   -4.27575248646522,
    1.73157234277303 ,     0.93172861192758  ,   -3.75075059014208,
    0.41483853888046 ,     3.10284729263349  ,   -3.24516509130670,
    0.68316713629335 ,     2.68755963993716  ,   -4.91972109411489
])
activate(mol)

set {
basis jun-cc-pvdz
scf_type df
guess sad
freeze_core true
fisapt_do_plot false  # For extra analysis
}

energy('fisapt0')
--------------------------------------------------------------------------

    Molecular point group: c1

    Geometry (in Angstrom), charge = 0, multiplicity = 1:

       Center              X                  Y                   Z               Mass
    ------------   -----------------  -----------------  -----------------  -----------------
         N            0.281279843871     0.676454450082    -2.240178822818    14.003074004430
         H            0.390789822347    -0.319253056826    -2.026494722041     1.007825032230
         H           -0.692685734639     0.990104045503    -2.138123055654     1.007825032230
         H            0.854206404178     1.212214404885    -1.575278953351     1.007825032230
         C           -2.357732022477     2.306857618809    -3.136753487183    12.000000000000
         O           -3.443762827068     2.846518496893    -3.252744032115    15.994914619570
         O           -1.970922085886     1.583042129231    -2.151228704143    15.994914619570
         C            0.648656091979     1.003594914306    -3.645600589484    12.000000000000
         C            0.132968056350     2.385869005097    -4.024618355526    12.000000000000
         C           -1.366462238532     2.479105850194    -4.313931722607    12.000000000000
         H           -1.636801952097     1.727094581776    -5.063992771424     1.007825032230
         H           -1.582346515762     3.445605305823    -4.768686521625     1.007825032230
         H            0.190993139789     0.239654709729    -4.275752486465     1.007825032230
         H            1.731572342773     0.931728611928    -3.750750590142     1.007825032230
         H            0.414838538880     3.102847292633    -3.245165091307     1.007825032230
         H            0.683167136293     2.687559639937    -4.919721094115     1.007825032230

  Charge       = 0
  Multiplicity = 1
  Basis Set: JUN-CC-PVDZ
    Blend: JUN-CC-PVDZ
  Basis Set: (JUN-CC-PVDZ AUX)
    Blend: JUN-CC-PVDZ-JKFIT

    Orbital Energies [Eh]
    ---------------------

    Doubly Occupied:

       1A    -20.480817     2A    -20.464179     3A    -15.689330
       4A    -11.327605     5A    -11.313517     6A    -11.263909
       7A    -11.226188     8A     -1.361589     9A     -1.326509
      10A     -1.253401    11A     -1.089670    12A     -0.969857
      13A     -0.864280    14A     -0.803859    15A     -0.781019
      16A     -0.705401    17A     -0.670806    18A     -0.654456
      19A     -0.604294    20A     -0.597638    21A     -0.567063
      22A     -0.547707    23A     -0.537152    24A     -0.514574
      25A     -0.486904    26A     -0.393050    27A     -0.372108
      28A     -0.363314

  @DF-RHF Final Energy:  -360.90884152475928

   => Energetics <=

    Nuclear Repulsion Energy =            323.5774628211906361
    One-Electron Energy =               -1134.5122161209546903
    Two-Electron Energy =                 450.0259117750047153
    Total Energy =                       -360.9088415247592820

  Dipole Moment: [D]
     X:    11.3468      Y:    -4.4851      Z:    -0.6174     Total:    12.2167

  Basis Set: (JUN-CC-PVDZ AUX)
    Blend: JUN-CC-PVDZ-JKFIT

    SAPT Results
  --------------------------------------------------------------------------------------------------------
    Electrostatics               -205.93808729 [mEh]    -129.22810079 [kcal/mol]    -540.69037369 [kJ/mol]
      Elst10,r                   -205.93808729 [mEh]    -129.22810079 [kcal/mol]    -540.69037369 [kJ/mol]

    Exchange                       87.11951570 [mEh]      54.66832145 [kcal/mol]     228.73225695 [kJ/mol]
      Exch10                       87.11951570 [mEh]      54.66832145 [kcal/mol]     228.73225695 [kJ/mol]
      Exch10(S^2)                  82.99150561 [mEh]      52.07795601 [kcal/mol]     217.89416795 [kJ/mol]

    Induction                     -51.76270504 [mEh]     -32.48158780 [kcal/mol]    -135.90296335 [kJ/mol]
      Ind20,r                     -62.39200720 [mEh]     -39.15157560 [kcal/mol]    -163.81019233 [kJ/mol]
      Exch-Ind20,r                 30.67033428 [mEh]      19.24592532 [kcal/mol]      80.52495156 [kJ/mol]
      delta HF,r (2)              -20.04103212 [mEh]     -12.57593752 [kcal/mol]     -52.61772258 [kJ/mol]
      Induction (A<-B)            -12.44509186 [mEh]      -7.80941304 [kcal/mol]     -32.67458417 [kJ/mol]
      Induction (B<-A)            -39.31761318 [mEh]     -24.67217476 [kcal/mol]    -103.22837918 [kJ/mol]

    Dispersion                     -9.30736591 [mEh]      -5.84046028 [kcal/mol]     -24.43648582 [kJ/mol]
      Disp20                      -12.30408395 [mEh]      -7.72092925 [kcal/mol]     -32.30436797 [kJ/mol]
      Exch-Disp20                   2.99671805 [mEh]       1.88046896 [kcal/mol]       7.86788215 [kJ/mol]

  Total HF                       -170.58127663 [mEh]    -107.04136714 [kcal/mol]    -447.86108010 [kJ/mol]
  Total SAPT0                    -179.88864254 [mEh]    -112.88182742 [kcal/mol]    -472.29756592 [kJ/mol]

  --------------------------------------------------------------------------------------------------------

*** Psi4 exiting successfully. Buy a developer a beer!
