                               Psi4 1.4rc1

  ==> Input File <==

--------------------------------------------------------------------------
memory 2GB

mol = psi4.core.Molecule.from_arrays(
    elez=[7,1,1,1,8,6,6,6,1,1,6,1,1,1,1,6,1,6,1,1,1,1,1],
    fragment_separators=[4, 5],
    fix_com=True,
    fix_orientation=True,
    fix_symmetry='c1',
    fragment_multiplicities=[2, 2, 1],
    fragment_charges=[+1,-1,0],
    molecular_charge=0,
    molecular_multiplicity=1,
    geom= [
        0.680528 ,   4.614820 ,  -4.048005,
        0.699926 ,   5.584890 ,  -4.388272,
        1.278044 ,   4.055977 ,  -4.668235,
        1.085729 ,   4.533581 ,  -3.106524,

        1.565248 ,   4.233493 ,  -1.864885,

       -0.701686 ,   4.072499 ,  -4.003920,
        1.444422 ,   5.266576 ,  -0.975463,
       -1.703475 ,   5.093197 ,  -3.477396,
       -0.995895 ,   3.740394 ,  -5.000654,
       -0.643580 ,   3.201910 ,  -3.351533,
       -1.313997 ,   5.785995 ,  -2.169271,
       -1.877057 ,   5.850103 ,  -4.251154,
       -2.653264 ,   4.564475 ,  -3.354796,
       -2.097137 ,   6.509395 ,  -1.929558,
       -0.416875 ,   6.387594 ,  -2.339097,
       -1.073895 ,   4.844728 ,  -0.979904,
       -1.968893 ,   4.809608 ,  -0.352568,
        0.148120 ,   5.210874 ,  -0.138092,
       -0.909754 ,   3.827531 ,  -1.338975,
        1.474250 ,   6.264638 ,  -1.476917,
        2.289622 ,   5.303267 ,  -0.264450,
        0.261827 ,   4.450942 ,   0.640711,
       -0.002516 ,   6.171031 ,   0.371483 ])
activate(mol)

set {
basis jun-cc-pvdz
scf_type df
guess sad
freeze_core true
fisapt_do_plot false  # For extra analysis
}

energy('fisapt0')
--------------------------------------------------------------------------

    Molecular point group: c1

    Geometry (in Angstrom), charge = 0, multiplicity = 1:

       Center              X                  Y                   Z               Mass
    ------------   -----------------  -----------------  -----------------  -----------------
         N            0.680528000000     4.614820000000    -4.048005000000    14.003074004430
         H            0.699926000000     5.584890000000    -4.388272000000     1.007825032230
         H            1.278044000000     4.055977000000    -4.668235000000     1.007825032230
         H            1.085729000000     4.533581000000    -3.106524000000     1.007825032230
         O            1.565248000000     4.233493000000    -1.864885000000    15.994914619570
         C           -0.701686000000     4.072499000000    -4.003920000000    12.000000000000
         C            1.444422000000     5.266576000000    -0.975463000000    12.000000000000
         C           -1.703475000000     5.093197000000    -3.477396000000    12.000000000000
         H           -0.995895000000     3.740394000000    -5.000654000000     1.007825032230
         H           -0.643580000000     3.201910000000    -3.351533000000     1.007825032230
         C           -1.313997000000     5.785995000000    -2.169271000000    12.000000000000
         H           -1.877057000000     5.850103000000    -4.251154000000     1.007825032230
         H           -2.653264000000     4.564475000000    -3.354796000000     1.007825032230
         H           -2.097137000000     6.509395000000    -1.929558000000     1.007825032230
         H           -0.416875000000     6.387594000000    -2.339097000000     1.007825032230
         C           -1.073895000000     4.844728000000    -0.979904000000    12.000000000000
         H           -1.968893000000     4.809608000000    -0.352568000000     1.007825032230
         C            0.148120000000     5.210874000000    -0.138092000000    12.000000000000
         H           -0.909754000000     3.827531000000    -1.338975000000     1.007825032230
         H            1.474250000000     6.264638000000    -1.476917000000     1.007825032230
         H            2.289622000000     5.303267000000    -0.264450000000     1.007825032230
         H            0.261827000000     4.450942000000     0.640711000000     1.007825032230
         H           -0.002516000000     6.171031000000     0.371483000000     1.007825032230

  Charge       = 0
  Multiplicity = 1
  Basis Set: JUN-CC-PVDZ
    Blend: JUN-CC-PVDZ
  Basis Set: (JUN-CC-PVDZ AUX)
    Blend: JUN-CC-PVDZ-JKFIT

    Orbital Energies [Eh]
    ---------------------

    Doubly Occupied:

       1A    -20.415140     2A    -15.654948     3A    -11.300762
       4A    -11.252064     5A    -11.225811     6A    -11.213837
       7A    -11.202564     8A    -11.183486     9A     -1.301946
      10A     -1.215612    11A     -1.088905    12A     -1.013143
      13A     -0.943506    14A     -0.867785    15A     -0.806794
      16A     -0.765384    17A     -0.749944    18A     -0.723411
      19A     -0.655525    20A     -0.634552    21A     -0.622792
      22A     -0.578086    23A     -0.564676    24A     -0.547979
      25A     -0.525602    26A     -0.503888    27A     -0.499296
      28A     -0.476242    29A     -0.450155    30A     -0.437485
      31A     -0.432555    32A     -0.323015    33A     -0.320540

  @DF-RHF Final Energy:  -365.21326258260450

   => Energetics <=

    Nuclear Repulsion Energy =            429.7810939471477241
    One-Electron Energy =               -1348.9938543251284955
    Two-Electron Energy =                 553.9994977953763282
    Total Energy =                       -365.2132625826044432

  Dipole Moment: [D]
     X:    -3.2560      Y:     1.1878      Z:    -6.4811     Total:     7.3496

  Basis Set: (JUN-CC-PVDZ AUX)
    Blend: JUN-CC-PVDZ-JKFIT

    SAPT Results
  --------------------------------------------------------------------------------------------------------
    Electrostatics               -292.96259327 [mEh]    -183.83680274 [kcal/mol]    -769.17318265 [kJ/mol]
      Elst10,r                   -292.96259327 [mEh]    -183.83680274 [kcal/mol]    -769.17318265 [kJ/mol]

    Exchange                      123.93857709 [mEh]      77.77263129 [kcal/mol]     325.40068932 [kJ/mol]
      Exch10                      123.93857709 [mEh]      77.77263129 [kcal/mol]     325.40068932 [kJ/mol]
      Exch10(S^2)                 115.91471791 [mEh]      72.73758364 [kcal/mol]     304.33404995 [kJ/mol]

    Induction                     -68.63374595 [mEh]     -43.06832580 [kcal/mol]    -180.19787516 [kJ/mol]
      Ind20,r                    -109.83144152 [mEh]     -68.92027007 [kcal/mol]    -288.36240997 [kJ/mol]
      Exch-Ind20,r                 63.77469674 [mEh]      40.01922639 [kcal/mol]     167.44044322 [kJ/mol]
      delta HF,r (2)              -22.57700117 [mEh]     -14.16728212 [kcal/mol]     -59.27590841 [kJ/mol]
      Induction (A<-B)            -28.45134859 [mEh]     -17.85349078 [kcal/mol]     -74.69900543 [kJ/mol]
      Induction (B<-A)            -40.18239736 [mEh]     -25.21483502 [kcal/mol]    -105.49886972 [kJ/mol]

    Dispersion                    -10.74145345 [mEh]      -6.74036380 [kcal/mol]     -28.20168214 [kJ/mol]
      Disp20                      -15.74561309 [mEh]      -9.88052139 [kcal/mol]     -41.34010148 [kJ/mol]
      Exch-Disp20                   5.00415965 [mEh]       3.14015759 [kcal/mol]      13.13841935 [kJ/mol]

  Total HF                       -237.65776212 [mEh]    -149.13249725 [kcal/mol]    -623.97036849 [kJ/mol]
  Total SAPT0                    -248.39921557 [mEh]    -155.87286105 [kcal/mol]    -652.17205062 [kJ/mol]

  --------------------------------------------------------------------------------------------------------

*** Psi4 exiting successfully. Buy a developer a beer!
