                               Psi4 1.4rc1

  ==> Input File <==

--------------------------------------------------------------------------
memory 2GB

mol = psi4.core.Molecule.from_arrays(
    elez=[7,1,1,1,16,8,8,8,6,6,6,1,1,6,1,1,6,1,1,6,1,1,1,1,1,1],
    fragment_separators=[4, 8],
    fix_com=True,
    fix_orientation=True,
    fix_symmetry='c1',
    fragment_multiplicities=[2, 2, 1],
    fragment_charges=[+1,-1,0],
    molecular_charge=0,
    molecular_multiplicity=1,
    geom= [
     -5.76353884223015 ,    -1.91517009418630,      0.70501225109336,
     -5.84081245237619 ,    -2.11520496885759,     -0.30064636473643,
     -6.40882305467270 ,    -1.14865557918753,      0.93612380710616,
     -6.17478054583437 ,    -2.79060640086591,      1.05143281280082,

     -6.90317860430990 ,    -4.61903253888189,     -0.52845825115517,
     -8.11485258526140 ,    -5.25093175024807,     -0.95700738251447,
     -6.53271453225512 ,    -3.42683780758907,     -1.31484833350533,
     -6.86563206192867 ,    -4.29495735314382,      0.91411800996612,

     -4.38262307886767 ,    -1.67088922228706,      1.21620123990041,
     -3.28172816708473 ,    -2.19127232077839,      0.29436121170575,
     -5.57236426601091 ,    -5.80779778121059,     -0.81644493289857,
     -4.32861817962042 ,    -2.13922323707488,      2.19810279265955,
     -4.26158307942325 ,    -0.59739871300170,      1.35724823988995,
     -3.47464105423692 ,    -3.60589776252897,     -0.25960779625154,
     -2.35454782301695 ,    -2.12760215089291,      0.87143339272696,
     -3.16661075688755 ,    -1.49969259247718,     -0.54503743179829,
     -3.82707794579219 ,    -4.66109690477400,      0.78617419203130,
     -2.56055885694710 ,    -3.88939125067962,     -0.78805017589939,
     -4.25593238268619 ,    -3.57004024272238,     -1.01930020512300,
     -4.45780043491397 ,    -5.94187487851777,      0.22919486881541,
     -5.17734748006984 ,    -5.54257484549727,     -1.79771391924681,
     -6.07420247450873 ,    -6.76889357327374,     -0.92127238617293,
     -4.53050586409487 ,    -4.25364028666500,      1.51197854131922,
     -2.93339997158313 ,    -4.93230154381368,      1.35682513909863,
     -3.68106403831382 ,    -6.56223642818638,     -0.22988450045485,
     -4.84394246707289 ,    -6.51272777265803,      1.07580518064312
])
activate(mol)

set {
basis jun-cc-pvdz
scf_type df
guess sad
freeze_core true
fisapt_do_plot false  # For extra analysis
}

energy('fisapt0')
--------------------------------------------------------------------------

    Molecular point group: c1

    Geometry (in Angstrom), charge = 0, multiplicity = 1:

       Center              X                  Y                   Z               Mass
    ------------   -----------------  -----------------  -----------------  -----------------
         N           -5.763538842230    -1.915170094186     0.705012251093    14.003074004430
         H           -5.840812452376    -2.115204968858    -0.300646364736     1.007825032230
         H           -6.408823054673    -1.148655579188     0.936123807106     1.007825032230
         H           -6.174780545834    -2.790606400866     1.051432812801     1.007825032230
         S           -6.903178604310    -4.619032538882    -0.528458251155    31.972071174400
         O           -8.114852585261    -5.250931750248    -0.957007382514    15.994914619570
         O           -6.532714532255    -3.426837807589    -1.314848333505    15.994914619570
         O           -6.865632061929    -4.294957353144     0.914118009966    15.994914619570
         C           -4.382623078868    -1.670889222287     1.216201239900    12.000000000000
         C           -3.281728167085    -2.191272320778     0.294361211706    12.000000000000
         C           -5.572364266011    -5.807797781211    -0.816444932899    12.000000000000
         H           -4.328618179620    -2.139223237075     2.198102792660     1.007825032230
         H           -4.261583079423    -0.597398713002     1.357248239890     1.007825032230
         C           -3.474641054237    -3.605897762529    -0.259607796252    12.000000000000
         H           -2.354547823017    -2.127602150893     0.871433392727     1.007825032230
         H           -3.166610756888    -1.499692592477    -0.545037431798     1.007825032230
         C           -3.827077945792    -4.661096904774     0.786174192031    12.000000000000
         H           -2.560558856947    -3.889391250680    -0.788050175899     1.007825032230
         H           -4.255932382686    -3.570040242722    -1.019300205123     1.007825032230
         C           -4.457800434914    -5.941874878518     0.229194868815    12.000000000000
         H           -5.177347480070    -5.542574845497    -1.797713919247     1.007825032230
         H           -6.074202474509    -6.768893573274    -0.921272386173     1.007825032230
         H           -4.530505864095    -4.253640286665     1.511978541319     1.007825032230
         H           -2.933399971583    -4.932301543814     1.356825139099     1.007825032230
         H           -3.681064038314    -6.562236428186    -0.229884500455     1.007825032230
         H           -4.843942467073    -6.512727772658     1.075805180643     1.007825032230

  Charge       = 0
  Multiplicity = 1
  Basis Set: JUN-CC-PVDZ
    Blend: JUN-CC-PVDZ
  Basis Set: (JUN-CC-PVDZ AUX)
    Blend: JUN-CC-PVDZ-JKFIT

    Orbital Energies [Eh]
    ---------------------

    Doubly Occupied:

       1A    -92.176496     2A    -20.515545     3A    -20.511678
       4A    -20.496946     5A    -15.685296     6A    -11.326003
       7A    -11.268590     8A    -11.245055     9A    -11.241982
      10A    -11.239491    11A    -11.236221    12A     -9.146969
      13A     -6.832632    14A     -6.832142    15A     -6.830218
      16A     -1.460898    17A     -1.325172    18A     -1.301649
      19A     -1.300149    20A     -1.116516    21A     -1.067945
      22A     -1.004029    23A     -0.937421    24A     -0.868408
      25A     -0.805967    26A     -0.794512    27A     -0.765356
      28A     -0.752137    29A     -0.688164    30A     -0.670323
      31A     -0.664777    32A     -0.646579    33A     -0.626723
      34A     -0.624299    35A     -0.614276    36A     -0.585943
      37A     -0.578570    38A     -0.540064    39A     -0.530188
      40A     -0.526392    41A     -0.497681    42A     -0.491912
      43A     -0.486563    44A     -0.479566    45A     -0.467609
      46A     -0.443268    47A     -0.433929    48A     -0.406785
      49A     -0.404113

  @DF-RHF Final Energy:  -912.46141045864670

   => Energetics <=

    Nuclear Repulsion Energy =            871.9920256526814910
    One-Electron Energy =               -2985.9205768025344696
    Two-Electron Energy =                1201.4671406912061684
    Total Energy =                       -912.4614104586466965

  Dipole Moment: [D]
     X:     7.6567      Y:     5.8891      Z:     3.5477     Total:    10.2904

  Basis Set: (JUN-CC-PVDZ AUX)
    Blend: JUN-CC-PVDZ-JKFIT

    SAPT Results
  --------------------------------------------------------------------------------------------------------
    Electrostatics               -221.41449733 [mEh]    -138.93969471 [kcal/mol]    -581.32368265 [kJ/mol]
      Elst10,r                   -221.41449733 [mEh]    -138.93969471 [kcal/mol]    -581.32368265 [kJ/mol]

    Exchange                       68.42942882 [mEh]      42.94011487 [kcal/mol]     179.66144061 [kJ/mol]
      Exch10                       68.42942882 [mEh]      42.94011487 [kcal/mol]     179.66144061 [kJ/mol]
      Exch10(S^2)                  67.12617872 [mEh]      42.12231309 [kcal/mol]     176.23975795 [kJ/mol]

    Induction                     -31.66038637 [mEh]     -19.86719239 [kcal/mol]     -83.12433297 [kJ/mol]
      Ind20,r                     -52.55844012 [mEh]     -32.98091910 [kcal/mol]    -137.99216552 [kJ/mol]
      Exch-Ind20,r                 31.16462969 [mEh]      19.55610038 [kcal/mol]      81.82272398 [kJ/mol]
      delta HF,r (2)              -10.26657595 [mEh]      -6.44237367 [kcal/mol]     -26.95489143 [kJ/mol]
      Induction (A<-B)             -6.77500323 [mEh]      -4.25137871 [kcal/mol]     -17.78776852 [kJ/mol]
      Induction (B<-A)            -24.88538315 [mEh]     -15.61581368 [kcal/mol]     -65.33656445 [kJ/mol]

    Dispersion                     -9.01984692 [mEh]      -5.66003939 [kcal/mol]     -23.68160483 [kJ/mol]
      Disp20                      -11.96625551 [mEh]      -7.50893870 [kcal/mol]     -31.41739950 [kJ/mol]
      Exch-Disp20                   2.94640858 [mEh]       1.84889930 [kcal/mol]       7.73579467 [kJ/mol]

  Total HF                       -184.64545488 [mEh]    -115.86677223 [kcal/mol]    -484.78657501 [kJ/mol]
  Total SAPT0                    -193.66530181 [mEh]    -121.52681162 [kcal/mol]    -508.46817984 [kJ/mol]

  --------------------------------------------------------------------------------------------------------

*** Psi4 exiting successfully. Buy a developer a beer!
