                               Psi4 1.4rc1

  ==> Input File <==

--------------------------------------------------------------------------
memory 2GB

mol = psi4.core.Molecule.from_arrays(
    elez=[7,1,1,1,8,6,1,6,1,1,1,6,1,6,1,1,1,6,6,1,1,1,6,1,1,1,6,1,1,6,1,1],
    fragment_separators=[4, 5],
    fix_com=True,
    fix_orientation=True,
    fix_symmetry='c1',
    fragment_multiplicities=[2, 2, 1],
    fragment_charges=[+1,-1,0],
    molecular_charge=0,
    molecular_multiplicity=1,
    geom= [
     3.80389294110845,      1.96157247956531,     -0.15674721595221,
     4.20642546808405,      2.24440551271286,      0.74535937887249,
     2.80826924591130,      2.21132299822284,     -0.09609681120563,
     4.28075651012637,      2.50155150706870,     -0.89103729535879,

     1.48929403444460,      2.37470251611377,      0.19918910391421,

     3.95642565958904  ,    0.50146562472069   ,  -0.37910018938068   ,
     3.16839833323376  ,    0.02920141115551   ,   0.20738303413180   ,
     3.84232249634789  ,    0.14849046191637   ,  -1.85405788707224   ,
     4.92323097993895  ,    0.17798152612932   ,   0.00937127538159   ,
     4.62002053731863  ,    0.69450181615241   ,  -2.40215010184870   ,
     4.09601467643300  ,   -0.91093012922074   ,  -1.95510331005890   ,
     2.47561855416642  ,    0.41270768369250   ,  -2.48537704677438   ,
     2.17468930929412  ,    1.44507599101731   ,  -2.28797115037230   ,
     1.38393127003807  ,   -0.53273992352604   ,  -1.99520265150011   ,
     2.57561272491415  ,    0.31857447782860   ,  -3.57145996180400   ,
     1.26469824586929  ,   -0.41230907839294   ,  -0.91549136769453   ,
     1.70522257227828  ,   -1.56688491293516   ,  -2.16498396414687   ,
     0.03139837152293  ,   -0.31726027484875   ,  -2.67779064853345   ,
     -0.58729167858276 ,     1.06085291876985  ,   -2.43645996357132  ,
     -0.66281527246967 ,    -1.08953048047897  ,   -2.32998459798656  ,
     0.14946456816602  ,   -0.47803994459468   ,  -3.75564840930698   ,
     0.10437585662841  ,    1.82859013861462   ,  -2.79313039106348   ,
     -0.95121253937974 ,     1.33497817137256  ,   -0.97249952523090  ,
     -1.47883153096235 ,     1.16135456783849  ,   -3.06248370533803  ,
     -0.31700651911783 ,     0.74164812898724  ,   -0.31138948309014  ,
     -1.98091642254006 ,     1.01284205121055  ,   -0.78895831633776  ,
     -0.77454958282434 ,     2.78833192979526  ,   -0.54394311996424  ,
     -1.35260873848654 ,     3.45937181592222  ,   -1.19258526934067  ,
     -1.17101420670659 ,     2.90233074181755  ,    0.46996809875421  ,
     0.69720829916038  ,    3.22791133877293   ,  -0.52512624957848   ,
     0.71599833132231  ,    4.26402989129817   ,  -0.13077404075484   ,
     1.03614750517342  ,    3.33092004330163   ,  -1.58366921778808])
activate(mol)

set {
basis jun-cc-pvdz
scf_type df
guess sad
freeze_core true
fisapt_do_plot false  # For extra analysis
}

energy('fisapt0')
--------------------------------------------------------------------------

    Molecular point group: c1

    Geometry (in Angstrom), charge = 0, multiplicity = 1:

       Center              X                  Y                   Z               Mass
    ------------   -----------------  -----------------  -----------------  -----------------
         N            3.803892941108     1.961572479565    -0.156747215952    14.003074004430
         H            4.206425468084     2.244405512713     0.745359378872     1.007825032230
         H            2.808269245911     2.211322998223    -0.096096811206     1.007825032230
         H            4.280756510126     2.501551507069    -0.891037295359     1.007825032230
         O            1.489294034445     2.374702516114     0.199189103914    15.994914619570
         C            3.956425659589     0.501465624721    -0.379100189381    12.000000000000
         H            3.168398333234     0.029201411156     0.207383034132     1.007825032230
         C            3.842322496348     0.148490461916    -1.854057887072    12.000000000000
         H            4.923230979939     0.177981526129     0.009371275382     1.007825032230
         H            4.620020537319     0.694501816152    -2.402150101849     1.007825032230
         H            4.096014676433    -0.910930129221    -1.955103310059     1.007825032230
         C            2.475618554166     0.412707683692    -2.485377046774    12.000000000000
         H            2.174689309294     1.445075991017    -2.287971150372     1.007825032230
         C            1.383931270038    -0.532739923526    -1.995202651500    12.000000000000
         H            2.575612724914     0.318574477829    -3.571459961804     1.007825032230
         H            1.264698245869    -0.412309078393    -0.915491367695     1.007825032230
         H            1.705222572278    -1.566884912935    -2.164983964147     1.007825032230
         C            0.031398371523    -0.317260274849    -2.677790648533    12.000000000000
         C           -0.587291678583     1.060852918770    -2.436459963571    12.000000000000
         H           -0.662815272470    -1.089530480479    -2.329984597987     1.007825032230
         H            0.149464568166    -0.478039944595    -3.755648409307     1.007825032230
         H            0.104375856628     1.828590138615    -2.793130391063     1.007825032230
         C           -0.951212539380     1.334978171373    -0.972499525231    12.000000000000
         H           -1.478831530962     1.161354567838    -3.062483705338     1.007825032230
         H           -0.317006519118     0.741648128987    -0.311389483090     1.007825032230
         H           -1.980916422540     1.012842051211    -0.788958316338     1.007825032230
         C           -0.774549582824     2.788331929795    -0.543943119964    12.000000000000
         H           -1.352608738487     3.459371815922    -1.192585269341     1.007825032230
         H           -1.171014206707     2.902330741818     0.469968098754     1.007825032230
         C            0.697208299160     3.227911338773    -0.525126249578    12.000000000000
         H            0.715998331322     4.264029891298    -0.130774040755     1.007825032230
         H            1.036147505173     3.330920043302    -1.583669217788     1.007825032230

  Charge       = 0
  Multiplicity = 1
  Basis Set: JUN-CC-PVDZ
    Blend: JUN-CC-PVDZ
  Basis Set: (JUN-CC-PVDZ AUX)
    Blend: JUN-CC-PVDZ-JKFIT

    Orbital Energies [Eh]
    ---------------------

    Doubly Occupied:

       1A    -20.416185     2A    -15.655014     3A    -11.301732
       4A    -11.253622     5A    -11.226596     6A    -11.213308
       7A    -11.212103     8A    -11.207640     9A    -11.194238
      10A    -11.179573    11A    -11.172740    12A     -1.301545
      13A     -1.214645    14A     -1.098051    15A     -1.052560
      16A     -1.006420    17A     -0.949763    18A     -0.901746
      19A     -0.849147    20A     -0.813878    21A     -0.770581
      22A     -0.751747    23A     -0.748171    24A     -0.711595
      25A     -0.657535    26A     -0.636098    27A     -0.633581
      28A     -0.601477    29A     -0.581457    30A     -0.576808
      31A     -0.555482    32A     -0.544852    33A     -0.530815
      34A     -0.512591    35A     -0.502428    36A     -0.489283
      37A     -0.482752    38A     -0.466611    39A     -0.452189
      40A     -0.448625    41A     -0.426025    42A     -0.416730
      43A     -0.413331    44A     -0.323494    45A     -0.320809

  @DF-RHF Final Energy:  -482.32668974390913

   => Energetics <=

    Nuclear Repulsion Energy =            704.8271278754982632
    One-Electron Energy =               -2054.7564870173928284
    Two-Electron Energy =                 867.6026693979854372
    Total Energy =                       -482.3266897439091281

  Dipole Moment: [D]
     X:     7.3320      Y:    -1.4934      Z:    -1.1107     Total:     7.5645

  Basis Set: (JUN-CC-PVDZ AUX)
    Blend: JUN-CC-PVDZ-JKFIT

    SAPT Results
  --------------------------------------------------------------------------------------------------------
    Electrostatics               -301.84285631 [mEh]    -189.40925192 [kcal/mol]    -792.48831005 [kJ/mol]
      Elst10,r                   -301.84285631 [mEh]    -189.40925192 [kcal/mol]    -792.48831005 [kJ/mol]

    Exchange                      130.97221489 [mEh]      82.18630564 [kcal/mol]     343.86750281 [kJ/mol]
      Exch10                      130.97221489 [mEh]      82.18630564 [kcal/mol]     343.86750281 [kJ/mol]
      Exch10(S^2)                 122.53363343 [mEh]      76.89101583 [kcal/mol]     321.71201024 [kJ/mol]

    Induction                     -67.16286204 [mEh]     -42.14533222 [kcal/mol]    -176.33607000 [kJ/mol]
      Ind20,r                    -119.99067759 [mEh]     -75.29528695 [kcal/mol]    -315.03548060 [kJ/mol]
      Exch-Ind20,r                 72.76811682 [mEh]      45.66268270 [kcal/mol]     191.05266440 [kJ/mol]
      delta HF,r (2)              -19.94030128 [mEh]     -12.51272796 [kcal/mol]     -52.35325380 [kJ/mol]
      Induction (A<-B)            -29.39787432 [mEh]     -18.44744464 [kcal/mol]     -77.18410839 [kJ/mol]
      Induction (B<-A)            -37.76498772 [mEh]     -23.69788757 [kcal/mol]     -99.15196160 [kJ/mol]

    Dispersion                    -10.77863683 [mEh]      -6.76369672 [kcal/mol]     -28.29930709 [kJ/mol]
      Disp20                      -16.48042601 [mEh]     -10.34162345 [kcal/mol]     -43.26935253 [kJ/mol]
      Exch-Disp20                   5.70178918 [mEh]       3.57792673 [kcal/mol]      14.97004544 [kJ/mol]

  Total HF                       -238.03350346 [mEh]    -149.36827850 [kcal/mol]    -624.95687723 [kJ/mol]
  Total SAPT0                    -248.81214029 [mEh]    -156.13197522 [kcal/mol]    -653.25618432 [kJ/mol]

  --------------------------------------------------------------------------------------------------------

*** Psi4 exiting successfully. Buy a developer a beer!
