                               Psi4 1.4rc1

  ==> Input File <==

--------------------------------------------------------------------------
memory 2GB

mol = psi4.core.Molecule.from_arrays(
    elez=[7,1,1,1,6,8,8,6,1,6,1,1,1,6,1,6,1,1,1,6,6,1,1,1,6,1,1,1,6,1,1,6,1,1],
    fragment_separators=[4, 7],
    fix_com=True,
    fix_orientation=True,
    fix_symmetry='c1',
    fragment_multiplicities=[2, 2, 1],
    fragment_charges=[+1,-1,0],
    molecular_charge=0,
    molecular_multiplicity=1,
    geom= [
  -1.08066917485929,      3.79295716904080,      5.15685738529579,
  -0.87448820994566,      4.76273669430624,      5.42734404752623,
  -0.68079276269827,      3.13476207100411,      5.83899982088274,
  -2.05754955770866,      3.53169096852038,      5.34619686655228,

  -2.07841859712748,      1.48042140192617,      6.56409754430678,
  -0.90125151908755,      1.85815580666537,      6.82810392868327,
  -2.93658243146526,      2.17730943402594,      5.96415093051161,

  -0.69912274446286,      3.48945114949551,      3.75516301250790,
  -0.96671595306569,      4.34901310921256,      3.14049072821106,
   0.77695573772895,      3.13839120240963,      3.61740781442809,
  -1.33145545225942,      2.65651033197871,      3.44632274344449,
   1.37139818923124,      3.88834184167537,      4.14974428893862,
   1.04692614532659,      3.23205669513528,      2.56133071668078,
   1.11891710514087,      1.73116988742490,      4.11515536755442,
   2.20057319694071,      1.65422609092753,      4.25488237153010,
   0.65946643905142,      0.63518223027940,      3.15330571330501,
   0.67702393724897,      1.57667420687725,      5.10315049489046,
   1.31228798023081,      0.63887034052592,      2.27420661500811,
  -0.33956307779536,      0.86804937925156,      2.77287623070120,
   0.63995683587287,     -0.77117532985334,      3.75561871022193,
  -0.34182074522006,     -0.96553664646882,      4.91504555048172,
   1.64826557103701,     -1.02866459835602,      4.09701450961763,
   0.39856761721770,     -1.48238609455668,      2.95845273613268,
  -0.27989249845988,     -2.00564602925052,      5.25254701479986,
  -1.78916386267702,     -0.63923149415162,      4.55749611816624,
  -0.03238041329046,     -0.35291826345959,      5.76511779864826,
  -2.10715126791527,     -1.27010207744427,      3.71961942951780,
  -1.85635204986975,      0.39163608826319,      4.19760351160565,
  -2.79070042671666,     -0.78527473936702,      5.70281243130836,
  -2.86730793603917,     -1.83565092064048,      6.00167457933461,
  -3.77455390561600,     -0.48657697602186,      5.33480708300890,
  -2.45379669235908,      0.05510147096220,      6.94144503886623,
  -1.62558397204322,     -0.38216310147529,      7.49891396425670,
  -3.32527350434504,      0.08774570113745,      7.59917490307443])
activate(mol)

set {
basis jun-cc-pvdz
scf_type df
guess sad
freeze_core true
fisapt_do_plot false  # For extra analysis
}

energy('fisapt0')
--------------------------------------------------------------------------

    Molecular point group: c1

    Geometry (in Angstrom), charge = 0, multiplicity = 1:

       Center              X                  Y                   Z               Mass
    ------------   -----------------  -----------------  -----------------  -----------------
         N           -1.080669174859     3.792957169041     5.156857385296    14.003074004430
         H           -0.874488209946     4.762736694306     5.427344047526     1.007825032230
         H           -0.680792762698     3.134762071004     5.838999820883     1.007825032230
         H           -2.057549557709     3.531690968520     5.346196866552     1.007825032230
         C           -2.078418597127     1.480421401926     6.564097544307    12.000000000000
         O           -0.901251519088     1.858155806665     6.828103928683    15.994914619570
         O           -2.936582431465     2.177309434026     5.964150930512    15.994914619570
         C           -0.699122744463     3.489451149496     3.755163012508    12.000000000000
         H           -0.966715953066     4.349013109213     3.140490728211     1.007825032230
         C            0.776955737729     3.138391202410     3.617407814428    12.000000000000
         H           -1.331455452259     2.656510331979     3.446322743444     1.007825032230
         H            1.371398189231     3.888341841675     4.149744288939     1.007825032230
         H            1.046926145327     3.232056695135     2.561330716681     1.007825032230
         C            1.118917105141     1.731169887425     4.115155367554    12.000000000000
         H            2.200573196941     1.654226090928     4.254882371530     1.007825032230
         C            0.659466439051     0.635182230279     3.153305713305    12.000000000000
         H            0.677023937249     1.576674206877     5.103150494890     1.007825032230
         H            1.312287980231     0.638870340526     2.274206615008     1.007825032230
         H           -0.339563077795     0.868049379252     2.772876230701     1.007825032230
         C            0.639956835873    -0.771175329853     3.755618710222    12.000000000000
         C           -0.341820745220    -0.965536646469     4.915045550482    12.000000000000
         H            1.648265571037    -1.028664598356     4.097014509618     1.007825032230
         H            0.398567617218    -1.482386094557     2.958452736133     1.007825032230
         H           -0.279892498460    -2.005646029251     5.252547014800     1.007825032230
         C           -1.789163862677    -0.639231494152     4.557496118166    12.000000000000
         H           -0.032380413290    -0.352918263460     5.765117798648     1.007825032230
         H           -2.107151267915    -1.270102077444     3.719619429518     1.007825032230
         H           -1.856352049870     0.391636088263     4.197603511606     1.007825032230
         C           -2.790700426717    -0.785274739367     5.702812431308    12.000000000000
         H           -2.867307936039    -1.835650920640     6.001674579335     1.007825032230
         H           -3.774553905616    -0.486576976022     5.334807083009     1.007825032230
         C           -2.453796692359     0.055101470962     6.941445038866    12.000000000000
         H           -1.625583972043    -0.382163101475     7.498913964257     1.007825032230
         H           -3.325273504345     0.087745701137     7.599174903074     1.007825032230

  Charge       = 0
  Multiplicity = 1
  Basis Set: JUN-CC-PVDZ
    Blend: JUN-CC-PVDZ
  Basis Set: (JUN-CC-PVDZ AUX)
    Blend: JUN-CC-PVDZ-JKFIT

    Orbital Energies [Eh]
    ---------------------

    Doubly Occupied:

       1A    -20.490118     2A    -20.488403     3A    -15.657867
       4A    -11.324679     5A    -11.305163     6A    -11.253916
       7A    -11.227183     8A    -11.224316     9A    -11.217745
      10A    -11.209209    11A    -11.208291    12A    -11.206506
      13A    -11.201862    14A     -1.377061    15A     -1.295859
      16A     -1.263526    17A     -1.104737    18A     -1.072491
      19A     -1.036261    20A     -0.977520    21A     -0.935592
      22A     -0.884798    23A     -0.834529    24A     -0.803315
      25A     -0.776197    26A     -0.754136    27A     -0.734817
      28A     -0.689661    29A     -0.667583    30A     -0.644830
      31A     -0.641580    32A     -0.622167    33A     -0.616654
      34A     -0.592738    35A     -0.588223    36A     -0.571299
      37A     -0.565889    38A     -0.557991    39A     -0.537343
      40A     -0.531059    41A     -0.509734    42A     -0.504499
      43A     -0.497378    44A     -0.478482    45A     -0.465201
      46A     -0.460005    47A     -0.442734    48A     -0.436403
      49A     -0.430932    50A     -0.398745    51A     -0.388909
      52A     -0.383853

  @DF-RHF Final Energy:  -595.14731869101956

   => Energetics <=

    Nuclear Repulsion Energy =            915.0156300318694775
    One-Electron Energy =               -2628.1459175500758647
    Two-Electron Energy =                1117.9829688271868235
    Total Energy =                       -595.1473186910195636

  Dipole Moment: [D]
     X:     2.5379      Y:     3.7493      Z:    -3.7520     Total:     5.8801

  Basis Set: (JUN-CC-PVDZ AUX)
    Blend: JUN-CC-PVDZ-JKFIT

    SAPT Results
  --------------------------------------------------------------------------------------------------------
    Electrostatics               -275.05562443 [mEh]    -172.60001015 [kcal/mol]    -722.15844246 [kJ/mol]
      Elst10,r                   -275.05562443 [mEh]    -172.60001015 [kcal/mol]    -722.15844246 [kJ/mol]

    Exchange                       87.20732968 [mEh]      54.72342555 [kcal/mol]     228.96281252 [kJ/mol]
      Exch10                       87.20732968 [mEh]      54.72342555 [kcal/mol]     228.96281252 [kJ/mol]
      Exch10(S^2)                  85.06623723 [mEh]      53.37986976 [kcal/mol]     223.34137508 [kJ/mol]

    Induction                     -40.90146610 [mEh]     -25.66605747 [kcal/mol]    -107.38678444 [kJ/mol]
      Ind20,r                     -66.71599788 [mEh]     -41.86492072 [kcal/mol]    -175.16282831 [kJ/mol]
      Exch-Ind20,r                 39.89234948 [mEh]      25.03282723 [kcal/mol]     104.73734913 [kJ/mol]
      delta HF,r (2)              -14.07781769 [mEh]      -8.83396397 [kcal/mol]     -36.96130526 [kJ/mol]
      Induction (A<-B)            -13.02302106 [mEh]      -8.17206909 [kcal/mol]     -34.19193708 [kJ/mol]
      Induction (B<-A)            -27.87844504 [mEh]     -17.49398837 [kcal/mol]     -73.19484736 [kJ/mol]

    Dispersion                    -10.53575864 [mEh]      -6.61128836 [kcal/mol]     -27.66163050 [kJ/mol]
      Disp20                      -14.58293889 [mEh]      -9.15093231 [kcal/mol]     -38.28750078 [kJ/mol]
      Exch-Disp20                   4.04718025 [mEh]       2.53964395 [kcal/mol]      10.62587028 [kJ/mol]

  Total HF                       -228.74976086 [mEh]    -143.54264206 [kcal/mol]    -600.58241438 [kJ/mol]
  Total SAPT0                    -239.28551949 [mEh]    -150.15393042 [kcal/mol]    -628.24404488 [kJ/mol]

  --------------------------------------------------------------------------------------------------------

*** Psi4 exiting successfully. Buy a developer a beer!
