                               Psi4 1.4rc1

  ==> Input File <==

--------------------------------------------------------------------------
memory 2GB

mol = psi4.core.Molecule.from_arrays(
    elez=[7,1,1,1,16,8,8,8,6,6,6,1,1,6,1,1,6,1,1,6,1,1,6,1,1,6,1,1,6,1,1,1,1,1,1],
    fragment_separators=[4, 8],
    fix_com=True,
    fix_orientation=True,
    fix_symmetry='c1',
    fragment_multiplicities=[2, 2, 1],
    fragment_charges=[+1,-1,0],
    molecular_charge=0,
    molecular_multiplicity=1,
    geom= [
     -3.03010802996344 ,    -1.91085698300007,     -4.54107381742999,
     -3.47744291055849 ,    -2.79151285048975,     -4.25709593036079,
     -2.53801341361208 ,    -2.01785996805920,     -5.43807543700154,
     -3.89158877965842 ,    -1.37603852045161,     -4.71436503875806,

     -6.01965886865847 ,    -2.92696536364214,     -4.41912849357646,
     -5.64582952425166 ,    -1.58838385949231,     -4.91930700060193,
     -4.88196091756499 ,    -3.50369656015453,     -3.66723503438814,
     -6.54926738281223 ,    -3.80514951285478,     -5.42507063143538,

     -2.16037555541677 ,    -1.36948629830854,     -3.46710372953529,
     -2.04771650973753 ,     0.14658321887388,     -3.51177430695476,
     -7.33043992223276 ,    -2.67899058199158,     -3.20681098297805,
     -1.18443825539874 ,    -1.84399734807476,     -3.56639268692608,
     -2.59819497113749 ,    -1.70837609627743,     -2.52847706862327,
     -3.32875509138943 ,     0.87503716305976,     -3.10366920798985,
     -1.74003390022663 ,     0.45234260284813,     -4.51712603569840,
     -1.23261061120350 ,     0.43493809014520,     -2.84220809302021,
     -3.62848746663121 ,     0.77160055259619,     -1.60936266489861,
     -4.17510586250952 ,     0.49079106430491,     -3.68220311955098,
     -3.23781244167171 ,     1.92866267983199,     -3.38148026431786,
     -4.97571800619043 ,     1.36143218520543,     -1.19064358092472,
     -2.83070046693720 ,     1.27623379731250,     -1.05476562539092,
     -3.59431173637945 ,    -0.27583813686627,     -1.29460266859388,
     -6.18471972531181 ,     0.78434657190612,     -1.92646404973750,
     -4.95629159075651 ,     2.44572526239768,     -1.34219956515884,
     -5.09725631207324 ,     1.20525150719183,     -0.11413606508544,
     -6.28692144371843 ,    -0.73588173244676,     -1.89353112756117,
     -6.16399381471729 ,     1.10019920482636,     -2.97424958633525,
     -7.09453029446805 ,     1.22345936469084,     -1.50450890010372,
     -7.46899884654230 ,    -1.24615271537452,     -2.71383278466789,
     -6.36064146171857 ,    -1.09034705797104,     -0.85917577911896,
     -5.36984843579279 ,    -1.17185269158493,     -2.29598192346810,
     -7.60191373375158 ,    -0.60134883305503,     -3.58532920200977,
     -8.38979142915680 ,    -1.17343628142172,     -2.12692217812372,
     -7.11825406086471 ,    -3.37981831436294,     -2.39805475494193,
     -8.24183822698380 ,    -3.00474455931058,     -3.70651266473138])
activate(mol)

set {
basis jun-cc-pvdz
scf_type df
guess sad
freeze_core true
fisapt_do_plot false  # For extra analysis
}

energy('fisapt0')
--------------------------------------------------------------------------

    Molecular point group: c1

    Geometry (in Angstrom), charge = 0, multiplicity = 1:

       Center              X                  Y                   Z               Mass
    ------------   -----------------  -----------------  -----------------  -----------------
         N           -3.030108029963    -1.910856983000    -4.541073817430    14.003074004430
         H           -3.477442910558    -2.791512850490    -4.257095930361     1.007825032230
         H           -2.538013413612    -2.017859968059    -5.438075437002     1.007825032230
         H           -3.891588779658    -1.376038520452    -4.714365038758     1.007825032230
         S           -6.019658868658    -2.926965363642    -4.419128493576    31.972071174400
         O           -5.645829524252    -1.588383859492    -4.919307000602    15.994914619570
         O           -4.881960917565    -3.503696560155    -3.667235034388    15.994914619570
         O           -6.549267382812    -3.805149512855    -5.425070631435    15.994914619570
         C           -2.160375555417    -1.369486298309    -3.467103729535    12.000000000000
         C           -2.047716509738     0.146583218874    -3.511774306955    12.000000000000
         C           -7.330439922233    -2.678990581992    -3.206810982978    12.000000000000
         H           -1.184438255399    -1.843997348075    -3.566392686926     1.007825032230
         H           -2.598194971137    -1.708376096277    -2.528477068623     1.007825032230
         C           -3.328755091389     0.875037163060    -3.103669207990    12.000000000000
         H           -1.740033900227     0.452342602848    -4.517126035698     1.007825032230
         H           -1.232610611204     0.434938090145    -2.842208093020     1.007825032230
         C           -3.628487466631     0.771600552596    -1.609362664899    12.000000000000
         H           -4.175105862510     0.490791064305    -3.682203119551     1.007825032230
         H           -3.237812441672     1.928662679832    -3.381480264318     1.007825032230
         C           -4.975718006190     1.361432185205    -1.190643580925    12.000000000000
         H           -2.830700466937     1.276233797312    -1.054765625391     1.007825032230
         H           -3.594311736379    -0.275838136866    -1.294602668594     1.007825032230
         C           -6.184719725312     0.784346571906    -1.926464049738    12.000000000000
         H           -4.956291590757     2.445725262398    -1.342199565159     1.007825032230
         H           -5.097256312073     1.205251507192    -0.114136065085     1.007825032230
         C           -6.286921443718    -0.735881732447    -1.893531127561    12.000000000000
         H           -6.163993814717     1.100199204826    -2.974249586335     1.007825032230
         H           -7.094530294468     1.223459364691    -1.504508900104     1.007825032230
         C           -7.468998846542    -1.246152715375    -2.713832784668    12.000000000000
         H           -6.360641461719    -1.090347057971    -0.859175779119     1.007825032230
         H           -5.369848435793    -1.171852691585    -2.295981923468     1.007825032230
         H           -7.601913733752    -0.601348833055    -3.585329202010     1.007825032230
         H           -8.389791429157    -1.173436281422    -2.126922178124     1.007825032230
         H           -7.118254060865    -3.379818314363    -2.398054754942     1.007825032230
         H           -8.241838226984    -3.004744559311    -3.706512664731     1.007825032230

  Charge       = 0
  Multiplicity = 1
  Basis Set: JUN-CC-PVDZ
    Blend: JUN-CC-PVDZ
  Basis Set: (JUN-CC-PVDZ AUX)
    Blend: JUN-CC-PVDZ-JKFIT

    Orbital Energies [Eh]
    ---------------------

    Doubly Occupied:

       1A    -92.173229     2A    -20.512808     3A    -20.512487
       4A    -20.495782     5A    -15.681554     6A    -11.319925
       7A    -11.268338     8A    -11.246879     9A    -11.239267
      10A    -11.238405    11A    -11.230515    12A    -11.224676
      13A    -11.222944    14A    -11.220360    15A     -9.144174
      16A     -6.829672    17A     -6.829294    18A     -6.827461
      19A     -1.458456    20A     -1.322635    21A     -1.299188
      22A     -1.297150    23A     -1.121189    24A     -1.089518
      25A     -1.056252    26A     -1.000131    27A     -0.956503
      28A     -0.900436    29A     -0.852331    30A     -0.824255
      31A     -0.793545    32A     -0.772606    33A     -0.756750
      34A     -0.755498    35A     -0.686216    36A     -0.670083
      37A     -0.661577    38A     -0.652878    39A     -0.634635
      40A     -0.630365    41A     -0.619397    42A     -0.601701
      43A     -0.590686    44A     -0.580308    45A     -0.572730
      46A     -0.556631    47A     -0.540608    48A     -0.523651
      49A     -0.517391    50A     -0.502230    51A     -0.495329
      52A     -0.490685    53A     -0.485118    54A     -0.474449
      55A     -0.460023    56A     -0.455788    57A     -0.450541
      58A     -0.442711    59A     -0.431386    60A     -0.406667
      61A     -0.402635

  @DF-RHF Final Energy: -1029.58352565452219

   => Energetics <=

    Nuclear Repulsion Energy =           1206.1616512575701563
    One-Electron Energy =               -3809.4690845344262016
    Two-Electron Energy =                1573.7239076223338543
    Total Energy =                      -1029.5835256545221910

  Dipole Moment: [D]
     X:     6.9091      Y:     4.9412      Z:     2.9546     Total:     8.9934

  Basis Set: (JUN-CC-PVDZ AUX)
    Blend: JUN-CC-PVDZ-JKFIT

    SAPT Results
  --------------------------------------------------------------------------------------------------------
    Electrostatics               -233.73479213 [mEh]    -146.67079641 [kcal/mol]    -613.67061219 [kJ/mol]
      Elst10,r                   -233.73479213 [mEh]    -146.67079641 [kcal/mol]    -613.67061219 [kJ/mol]

    Exchange                       68.98603417 [mEh]      43.28939000 [kcal/mol]     181.12280776 [kJ/mol]
      Exch10                       68.98603417 [mEh]      43.28939000 [kcal/mol]     181.12280776 [kJ/mol]
      Exch10(S^2)                  67.62593621 [mEh]      42.43591564 [kcal/mol]     177.55187105 [kJ/mol]

    Induction                     -32.05210627 [mEh]     -20.11300034 [kcal/mol]     -84.15279342 [kJ/mol]
      Ind20,r                     -52.88732284 [mEh]     -33.18729613 [kcal/mol]    -138.85564700 [kJ/mol]
      Exch-Ind20,r                 31.17442901 [mEh]      19.56224954 [kcal/mol]      81.84845209 [kJ/mol]
      delta HF,r (2)              -10.33921244 [mEh]      -6.48795376 [kcal/mol]     -27.14559851 [kJ/mol]
      Induction (A<-B)             -7.26755827 [mEh]      -4.56046166 [kcal/mol]     -19.08097160 [kJ/mol]
      Induction (B<-A)            -24.78454800 [mEh]     -15.55253868 [kcal/mol]     -65.07182182 [kJ/mol]

    Dispersion                     -9.16469666 [mEh]      -5.75093398 [kcal/mol]     -24.06190776 [kJ/mol]
      Disp20                      -12.16301563 [mEh]      -7.63240754 [kcal/mol]     -31.93399313 [kJ/mol]
      Exch-Disp20                   2.99831897 [mEh]       1.88147356 [kcal/mol]       7.87208538 [kJ/mol]

  Total HF                       -196.80086423 [mEh]    -123.49440675 [kcal/mol]    -516.70059785 [kJ/mol]
  Total SAPT0                    -205.96556089 [mEh]    -129.24534073 [kcal/mol]    -540.76250561 [kJ/mol]

  --------------------------------------------------------------------------------------------------------

*** Psi4 exiting successfully. Buy a developer a beer!
