                               Psi4 1.4rc1

  ==> Input File <==

--------------------------------------------------------------------------
memory 2GB

mol = psi4.core.Molecule.from_arrays(
    elez=[6,7,7,1,1,1,1,6,8,8,6,6,6,1,1,1,1,1,1],
    fragment_separators=[7, 10],
    fix_com=True,
    fix_orientation=True,
    fix_symmetry='c1',
    fragment_multiplicities=[2, 2, 1],
    fragment_charges=[+1,-1,0],
    molecular_charge=0,
    molecular_multiplicity=1,
    geom= [
     4.25586804247112,      3.70385134850463,     -4.72605431448344,
     3.73403183515138,      4.29378349178124,     -5.80077012935255,
     5.51503873886098,      3.40725476795129,     -4.63718475574677,
     6.14918688706815,      3.60120266249580,     -5.39905334440414,
     5.81358411092688,      2.89950388619310,     -3.80878546906787,
     2.74138001626484,      4.51310886731342,     -5.82470109663063,
     4.28754816283857,      4.52126022688647,     -6.61434088449523,

     5.01734352973491,      1.31521182071668,     -2.22130486810223,
     4.73705506938985,      0.85411209978948,     -1.12282504204880,
     5.92814610220347,      2.16810809638091,     -2.49136468137082,

     3.34350005093394,      3.35457058974267,     -3.59199780976274,
     2.95263326012696,      1.86307658588633,     -3.57484884311380,
     4.12920891347371,      0.89839402753374,     -3.41895027033527,
     3.73368657161974,     -0.10060450851713,     -3.23763326927244,
     4.71909530136736,      0.86255588332926,     -4.33900522421567,
     2.27893774274414,      1.73524992653171,     -2.72549604266386,
     2.37746631720847,      1.62578654059136,     -4.47586924409931,
     3.86124601437151,      3.59725223276503,     -2.66297851465776,
     2.44649333324393,      3.97346145412396,     -3.65655619617661])
activate(mol)

set {
basis jun-cc-pvdz
scf_type df
guess sad
freeze_core true
fisapt_do_plot false  # For extra analysis
}

energy('fisapt0')
--------------------------------------------------------------------------

    Molecular point group: c1

    Geometry (in Angstrom), charge = 0, multiplicity = 1:

       Center              X                  Y                   Z               Mass
    ------------   -----------------  -----------------  -----------------  -----------------
         C            4.255868042471     3.703851348505    -4.726054314483    12.000000000000
         N            3.734031835151     4.293783491781    -5.800770129353    14.003074004430
         N            5.515038738861     3.407254767951    -4.637184755747    14.003074004430
         H            6.149186887068     3.601202662496    -5.399053344404     1.007825032230
         H            5.813584110927     2.899503886193    -3.808785469068     1.007825032230
         H            2.741380016265     4.513108867313    -5.824701096631     1.007825032230
         H            4.287548162839     4.521260226886    -6.614340884495     1.007825032230
         C            5.017343529735     1.315211820717    -2.221304868102    12.000000000000
         O            4.737055069390     0.854112099789    -1.122825042049    15.994914619570
         O            5.928146102203     2.168108096381    -2.491364681371    15.994914619570
         C            3.343500050934     3.354570589743    -3.591997809763    12.000000000000
         C            2.952633260127     1.863076585886    -3.574848843114    12.000000000000
         C            4.129208913474     0.898394027534    -3.418950270335    12.000000000000
         H            3.733686571620    -0.100604508517    -3.237633269272     1.007825032230
         H            4.719095301367     0.862555883329    -4.339005224216     1.007825032230
         H            2.278937742744     1.735249926532    -2.725496042664     1.007825032230
         H            2.377466317208     1.625786540591    -4.475869244099     1.007825032230
         H            3.861246014372     3.597252232765    -2.662978514658     1.007825032230
         H            2.446493333244     3.973461454124    -3.656556196177     1.007825032230

  Charge       = 0
  Multiplicity = 1
  Basis Set: JUN-CC-PVDZ
    Blend: JUN-CC-PVDZ
  Basis Set: (JUN-CC-PVDZ AUX)
    Blend: JUN-CC-PVDZ-JKFIT

    Orbital Energies [Eh]
    ---------------------

    Doubly Occupied:

       1A    -20.461750     2A    -20.454719     3A    -15.674382
       4A    -15.632529     5A    -11.420591     6A    -11.299137
       7A    -11.281433     8A    -11.256546     9A    -11.214342
      10A     -1.373693    11A     -1.341436    12A     -1.258844
      13A     -1.235138    14A     -1.105675    15A     -0.998568
      16A     -0.903904    17A     -0.851157    18A     -0.809228
      19A     -0.790106    20A     -0.730912    21A     -0.678001
      22A     -0.669759    23A     -0.636280    24A     -0.622673
      25A     -0.592737    26A     -0.575795    27A     -0.551572
      28A     -0.533137    29A     -0.525583    30A     -0.490631
      31A     -0.477789    32A     -0.468888    33A     -0.375347
      34A     -0.356091    35A     -0.351063

  @DF-RHF Final Energy:  -453.83583567593661

   => Energetics <=

    Nuclear Repulsion Energy =            475.9346021543439065
    One-Electron Energy =               -1563.5420076422797138
    Two-Electron Energy =                 633.7715698119993704
    Total Energy =                       -453.8358356759365506

  Dipole Moment: [D]
     X:    -4.4614      Y:     6.9945      Z:   -12.1463     Total:    14.7092

  Basis Set: (JUN-CC-PVDZ AUX)
    Blend: JUN-CC-PVDZ-JKFIT

    SAPT Results
  --------------------------------------------------------------------------------------------------------
    Electrostatics               -173.70046732 [mEh]    -108.99868884 [kcal/mol]    -456.05051413 [kJ/mol]
      Elst10,r                   -173.70046732 [mEh]    -108.99868884 [kcal/mol]    -456.05051413 [kJ/mol]

    Exchange                       62.83041665 [mEh]      39.42668169 [kcal/mol]     164.96123619 [kJ/mol]
      Exch10                       62.83041665 [mEh]      39.42668169 [kcal/mol]     164.96123619 [kJ/mol]
      Exch10(S^2)                  60.62374256 [mEh]      38.04197279 [kcal/mol]     159.16761417 [kJ/mol]

    Induction                     -38.72583056 [mEh]     -24.30082556 [kcal/mol]    -101.67465413 [kJ/mol]
      Ind20,r                     -45.62106744 [mEh]     -28.62765202 [kcal/mol]    -119.77809606 [kJ/mol]
      Exch-Ind20,r                 21.64100590 [mEh]      13.57993623 [kcal/mol]      56.81845317 [kJ/mol]
      delta HF,r (2)              -14.74576903 [mEh]      -9.25310976 [kcal/mol]     -38.71501124 [kJ/mol]
      Induction (A<-B)            -13.40632687 [mEh]      -8.41259712 [kcal/mol]     -35.19830635 [kJ/mol]
      Induction (B<-A)            -25.31950369 [mEh]     -15.88822844 [kcal/mol]     -66.47634778 [kJ/mol]

    Dispersion                     -8.19683874 [mEh]      -5.14359396 [kcal/mol]     -21.52079714 [kJ/mol]
      Disp20                      -11.22955197 [mEh]      -7.04665025 [kcal/mol]     -29.48318464 [kJ/mol]
      Exch-Disp20                   3.03271323 [mEh]       1.90305628 [kcal/mol]       7.96238749 [kJ/mol]

  Total HF                       -149.59588123 [mEh]     -93.87283271 [kcal/mol]    -392.76393207 [kJ/mol]
  Total SAPT0                    -157.79271997 [mEh]     -99.01642668 [kcal/mol]    -414.28472921 [kJ/mol]

  --------------------------------------------------------------------------------------------------------

*** Psi4 exiting successfully. Buy a developer a beer!
