                               Psi4 1.4rc1

  ==> Input File <==

--------------------------------------------------------------------------
memory 2GB

mol = psi4.core.Molecule.from_arrays(
    elez=[6,7,7,1,1,1,1,16,8,8,8,6,6,6,1,1,1,1,1,1],
    fragment_separators=[7, 11],
    fix_com=True,
    fix_orientation=True,
    fix_symmetry='c1',
    fragment_multiplicities=[2, 2, 1],
    fragment_charges=[+1,-1,0],
    molecular_charge=0,
    molecular_multiplicity=1,
    geom= [
     -0.42384055274795,      2.39877189610259,     -6.47431661041161,
     -0.95946676147821,      3.49264746388406,     -7.00740064351677,
      0.14558481008630,      1.48689082624733,     -7.20398720863589,
      0.56537089098927,      0.69680707894345,     -6.72385841555464,
      0.22068167599344,      1.58176813779902,     -8.20751968602530,
     -1.40624262810436,      4.18150658549070,     -6.40326083435084,
     -0.93421495760361,      3.68160125641265,     -7.99946843148752,

      1.87964372522168,      0.07859386315408,     -4.46296509697773,
      3.20757441982960,     -0.46611124555230,     -4.42025907767002,
      1.07506383934461,     -0.05616016865527,     -3.26875785677706,
      1.13166146504037,     -0.31995960280141,     -5.67903101622402,

     -0.46129278604562,      2.23468578704369,     -4.98961904005500,
      0.84888265971981,      2.66796697355912,     -4.30235138435066,
      2.09343392030341,      1.86103708067235,     -4.65684462674424,
      2.44481370900931,      2.04156655490911,     -5.67499044304010,
      2.90174787099152,      2.13786372324099,     -3.98033777958977,
      0.66843227713818,      2.55942701671355,     -3.23285008216146,
      1.03407416083197,      3.72942640343435,     -4.49708109698683,
     -1.28888406744720,      2.82673696913203,     -4.59499714538315,
     -0.65169567107254,      1.18634340026987,     -4.75655152405734])
activate(mol)

set {
basis jun-cc-pvdz
scf_type df
guess sad
freeze_core true
fisapt_do_plot false  # For extra analysis
}

energy('fisapt0')
--------------------------------------------------------------------------

    Molecular point group: c1

    Geometry (in Angstrom), charge = 0, multiplicity = 1:

       Center              X                  Y                   Z               Mass
    ------------   -----------------  -----------------  -----------------  -----------------
         C           -0.423840552748     2.398771896103    -6.474316610412    12.000000000000
         N           -0.959466761478     3.492647463884    -7.007400643517    14.003074004430
         N            0.145584810086     1.486890826247    -7.203987208636    14.003074004430
         H            0.565370890989     0.696807078943    -6.723858415555     1.007825032230
         H            0.220681675993     1.581768137799    -8.207519686025     1.007825032230
         H           -1.406242628104     4.181506585491    -6.403260834351     1.007825032230
         H           -0.934214957604     3.681601256413    -7.999468431488     1.007825032230
         S            1.879643725222     0.078593863154    -4.462965096978    31.972071174400
         O            3.207574419830    -0.466111245552    -4.420259077670    15.994914619570
         O            1.075063839345    -0.056160168655    -3.268757856777    15.994914619570
         O            1.131661465040    -0.319959602801    -5.679031016224    15.994914619570
         C           -0.461292786046     2.234685787044    -4.989619040055    12.000000000000
         C            0.848882659720     2.667966973559    -4.302351384351    12.000000000000
         C            2.093433920303     1.861037080672    -4.656844626744    12.000000000000
         H            2.444813709009     2.041566554909    -5.674990443040     1.007825032230
         H            2.901747870992     2.137863723241    -3.980337779590     1.007825032230
         H            0.668432277138     2.559427016714    -3.232850082161     1.007825032230
         H            1.034074160832     3.729426403434    -4.497081096987     1.007825032230
         H           -1.288884067447     2.826736969132    -4.594997145383     1.007825032230
         H           -0.651695671073     1.186343400270    -4.756551524057     1.007825032230

  Charge       = 0
  Multiplicity = 1
  Basis Set: JUN-CC-PVDZ
    Blend: JUN-CC-PVDZ
  Basis Set: (JUN-CC-PVDZ AUX)
    Blend: JUN-CC-PVDZ-JKFIT

    Orbital Energies [Eh]
    ---------------------

    Doubly Occupied:

       1A    -92.161424     2A    -20.498089     3A    -20.484932
       4A    -20.482385     5A    -15.686066     6A    -15.651956
       7A    -11.434434     8A    -11.289900     9A    -11.269914
      10A    -11.248533    11A     -9.131176    12A     -6.816784
      13A     -6.816508    14A     -6.814760    15A     -1.443351
      16A     -1.386620    17A     -1.290452    18A     -1.286144
      19A     -1.264353    20A     -1.119931    21A     -1.021845
      22A     -0.924643    23A     -0.872208    24A     -0.823055
      25A     -0.811802    26A     -0.761230    27A     -0.723866
      28A     -0.690891    29A     -0.664235    30A     -0.645801
      31A     -0.625600    32A     -0.614404    33A     -0.599464
      34A     -0.595211    35A     -0.549756    36A     -0.528246
      37A     -0.513758    38A     -0.485751    39A     -0.476438
      40A     -0.470168    41A     -0.431818    42A     -0.422453
      43A     -0.392795    44A     -0.382825

  @DF-RHF Final Energy:  -888.27675618275816

   => Energetics <=

    Nuclear Repulsion Energy =            724.7834552389741702
    One-Electron Energy =               -2660.9084776516292550
    Two-Electron Energy =                1047.8482662298970354
    Total Energy =                       -888.2767561827581630

  Dipole Moment: [D]
     X:    -7.5113      Y:    12.5319      Z:    -8.1411     Total:    16.7256

  Basis Set: (JUN-CC-PVDZ AUX)
    Blend: JUN-CC-PVDZ-JKFIT

    SAPT Results
  --------------------------------------------------------------------------------------------------------
    Electrostatics               -143.95209667 [mEh]     -90.33130443 [kcal/mol]    -377.94617773 [kJ/mol]
      Elst10,r                   -143.95209667 [mEh]     -90.33130443 [kcal/mol]    -377.94617773 [kJ/mol]

    Exchange                       46.57656484 [mEh]      29.22723569 [kcal/mol]     122.28675414 [kJ/mol]
      Exch10                       46.57656484 [mEh]      29.22723569 [kcal/mol]     122.28675414 [kJ/mol]
      Exch10(S^2)                  45.34168653 [mEh]      28.45233786 [kcal/mol]     119.04458159 [kJ/mol]

    Induction                     -28.64190809 [mEh]     -17.97306867 [kcal/mol]     -75.19931933 [kJ/mol]
      Ind20,r                     -32.54428729 [mEh]     -20.42184859 [kcal/mol]     -85.44501451 [kJ/mol]
      Exch-Ind20,r                 14.39366633 [mEh]       9.03216198 [kcal/mol]      37.79056574 [kJ/mol]
      delta HF,r (2)              -10.49128713 [mEh]      -6.58338206 [kcal/mol]     -27.54487056 [kJ/mol]
      Induction (A<-B)             -8.03571415 [mEh]      -5.04248676 [kcal/mol]     -21.09776461 [kJ/mol]
      Induction (B<-A)            -20.60619393 [mEh]     -12.93058191 [kcal/mol]     -54.10155472 [kJ/mol]

    Dispersion                     -7.21456061 [mEh]      -4.52720513 [kcal/mol]     -18.94182626 [kJ/mol]
      Disp20                       -9.30469283 [mEh]      -5.83878290 [kcal/mol]     -24.42946767 [kJ/mol]
      Exch-Disp20                   2.09013223 [mEh]       1.31157777 [kcal/mol]       5.48764141 [kJ/mol]

  Total HF                       -126.01743992 [mEh]     -79.07713741 [kcal/mol]    -330.85874292 [kJ/mol]
  Total SAPT0                    -133.23200052 [mEh]     -83.60434254 [kcal/mol]    -349.80056918 [kJ/mol]

  --------------------------------------------------------------------------------------------------------

*** Psi4 exiting successfully. Buy a developer a beer!
