                               Psi4 1.4rc1

  ==> Input File <==

--------------------------------------------------------------------------
memory 2GB

mol = psi4.core.Molecule.from_arrays(
    elez=[6,7,7,1,1,1,1,8,6,6,6,6,6,1,6,1,1,1,1,1,1,1,1,1,1,1],
    fragment_separators=[7, 8],
    fix_com=True,
    fix_orientation=True,
    fix_symmetry='c1',
    fragment_multiplicities=[2, 2, 1],
    fragment_charges=[+1,-1,0],
    molecular_charge=0,
    molecular_multiplicity=1,
    geom= [
   2.48900669576735 ,    -1.66851027087421,     -2.73753782984138,
   3.59631427548996 ,    -0.94760810218694,     -2.95224699656250,
   1.66393631456233 ,    -1.41368536811825,     -1.77780602374615,
   0.81164195764156 ,    -1.96317843016328,     -1.70275470814049,
   1.84550314242626 ,    -0.63507785414296,     -1.15874915047870,
   4.20535105980061 ,    -1.17600307208012,     -3.73382519267984,
   3.81722990563412 ,    -0.12584534547469,     -2.40604073315493,

  -0.35039474585980 ,    -2.74968930600017,     -1.79600619868149,

   1.64703212051598 ,    -2.34527642947653,     -5.02041078093971,
   0.21762757943606 ,    -1.81402182106088,     -4.92438896073569,
   2.20996408316368 ,    -2.81238795729977,     -3.66570839426900,
  -0.81135572537995 ,    -2.90877989499973,     -4.60762515636500,
  -1.91657858254092 ,    -2.48508075713937,     -3.64366523945767,
  -2.55452478493006 ,    -1.71242755788778,     -4.09199294305849,
  -1.36353082720541 ,    -1.98133749722810,     -2.29360805249173,
  -2.55344838843162 ,    -3.35566694845509,     -3.45881477764605,
   2.30838499234352 ,    -1.58870425796698,     -5.45712825441895,
   1.67428589212794 ,    -3.20347842021223,     -5.69739224907122,
  -1.24482927661837 ,    -3.28088390439730,     -5.54104020975660,
  -0.30633065559159 ,    -3.75774641460160,     -4.14273378193499,
  -0.03624430874863 ,    -1.31855517297128,     -5.86530292533512,
   0.17500429843014 ,    -1.03538177398415,     -4.15809494690952,
   3.14310647236628 ,    -3.36280322518370,     -3.81152363032594,
   1.48768268169986 ,    -3.45893499530133,     -3.16521138815954,
  -2.22621969314943 ,    -1.90838562854536,     -1.60203905420989,
  -1.05135348294987 ,    -0.91567059424818,     -2.44333142162935])
activate(mol)

set {
basis jun-cc-pvdz
scf_type df
guess sad
freeze_core true
fisapt_do_plot false  # For extra analysis
}

energy('fisapt0')
--------------------------------------------------------------------------

    Molecular point group: c1

    Geometry (in Angstrom), charge = 0, multiplicity = 1:

       Center              X                  Y                   Z               Mass
    ------------   -----------------  -----------------  -----------------  -----------------
         C            2.489006695767    -1.668510270874    -2.737537829841    12.000000000000
         N            3.596314275490    -0.947608102187    -2.952246996562    14.003074004430
         N            1.663936314562    -1.413685368118    -1.777806023746    14.003074004430
         H            0.811641957642    -1.963178430163    -1.702754708140     1.007825032230
         H            1.845503142426    -0.635077854143    -1.158749150479     1.007825032230
         H            4.205351059801    -1.176003072080    -3.733825192680     1.007825032230
         H            3.817229905634    -0.125845345475    -2.406040733155     1.007825032230
         O           -0.350394745860    -2.749689306000    -1.796006198681    15.994914619570
         C            1.647032120516    -2.345276429477    -5.020410780940    12.000000000000
         C            0.217627579436    -1.814021821061    -4.924388960736    12.000000000000
         C            2.209964083164    -2.812387957300    -3.665708394269    12.000000000000
         C           -0.811355725380    -2.908779895000    -4.607625156365    12.000000000000
         C           -1.916578582541    -2.485080757139    -3.643665239458    12.000000000000
         H           -2.554524784930    -1.712427557888    -4.091992943058     1.007825032230
         C           -1.363530827205    -1.981337497228    -2.293608052492    12.000000000000
         H           -2.553448388432    -3.355666948455    -3.458814777646     1.007825032230
         H            2.308384992344    -1.588704257967    -5.457128254419     1.007825032230
         H            1.674285892128    -3.203478420212    -5.697392249071     1.007825032230
         H           -1.244829276618    -3.280883904397    -5.541040209757     1.007825032230
         H           -0.306330655592    -3.757746414602    -4.142733781935     1.007825032230
         H           -0.036244308749    -1.318555172971    -5.865302925335     1.007825032230
         H            0.175004298430    -1.035381773984    -4.158094946910     1.007825032230
         H            3.143106472366    -3.362803225184    -3.811523630326     1.007825032230
         H            1.487682681700    -3.458934995301    -3.165211388160     1.007825032230
         H           -2.226219693149    -1.908385628545    -1.602039054210     1.007825032230
         H           -1.051353482950    -0.915670594248    -2.443331421629     1.007825032230

  Charge       = 0
  Multiplicity = 1
  Basis Set: JUN-CC-PVDZ
    Blend: JUN-CC-PVDZ
  Basis Set: (JUN-CC-PVDZ AUX)
    Blend: JUN-CC-PVDZ-JKFIT

    Orbital Energies [Eh]
    ---------------------

    Doubly Occupied:

       1A    -20.400048     2A    -15.650012     3A    -15.601820
       4A    -11.393927     5A    -11.259274     6A    -11.246018
       7A    -11.213699     8A    -11.202871     9A    -11.191755
      10A    -11.173448    11A     -1.346933    12A     -1.235614
      13A     -1.198215    14A     -1.097763    15A     -1.023852
      16A     -0.957644    17A     -0.878561    18A     -0.858021
      19A     -0.800638    20A     -0.784412    21A     -0.761616
      22A     -0.719383    23A     -0.690862    24A     -0.652241
      25A     -0.633800    26A     -0.602045    27A     -0.590717
      28A     -0.561184    29A     -0.545129    30A     -0.541856
      31A     -0.502699    32A     -0.496789    33A     -0.485865
      34A     -0.463775    35A     -0.443406    36A     -0.438498
      37A     -0.426720    38A     -0.422188    39A     -0.309312
      40A     -0.305357

  @DF-RHF Final Energy:  -458.13943741781179

   => Energetics <=

    Nuclear Repulsion Energy =            590.9606514827222554
    One-Electron Energy =               -1795.9842453077021673
    Two-Electron Energy =                 746.8841564071680068
    Total Energy =                       -458.1394374178117914

  Dipole Moment: [D]
     X:     8.8515      Y:     4.3294      Z:    -2.5379     Total:    10.1751

  Basis Set: (JUN-CC-PVDZ AUX)
    Blend: JUN-CC-PVDZ-JKFIT

    SAPT Results
  --------------------------------------------------------------------------------------------------------
    Electrostatics               -247.77431290 [mEh]    -155.48072870 [kcal/mol]    -650.53136890 [kJ/mol]
      Elst10,r                   -247.77431290 [mEh]    -155.48072870 [kcal/mol]    -650.53136890 [kJ/mol]

    Exchange                      100.69862144 [mEh]      63.18933895 [kcal/mol]     264.38419417 [kJ/mol]
      Exch10                      100.69862144 [mEh]      63.18933895 [kcal/mol]     264.38419417 [kJ/mol]
      Exch10(S^2)                  95.10624724 [mEh]      59.68007116 [kcal/mol]     249.70141774 [kJ/mol]

    Induction                     -63.88839320 [mEh]     -40.09057200 [kcal/mol]    -167.73895325 [kJ/mol]
      Ind20,r                     -84.76167391 [mEh]     -53.18875339 [kcal/mol]    -222.54174420 [kJ/mol]
      Exch-Ind20,r                 42.45157526 [mEh]      26.63876565 [kcal/mol]     111.45659548 [kJ/mol]
      delta HF,r (2)              -21.57829455 [mEh]     -13.54058426 [kcal/mol]     -56.65380453 [kJ/mol]
      Induction (A<-B)            -32.32836384 [mEh]     -20.28635458 [kcal/mol]     -84.87810757 [kJ/mol]
      Induction (B<-A)            -31.56002936 [mEh]     -19.80421742 [kcal/mol]     -82.86084567 [kJ/mol]

    Dispersion                    -10.19478032 [mEh]      -6.39732123 [kcal/mol]     -26.76639203 [kJ/mol]
      Disp20                      -15.21032499 [mEh]      -9.54462303 [kcal/mol]     -39.93470275 [kJ/mol]
      Exch-Disp20                   5.01554467 [mEh]       3.14730180 [kcal/mol]      13.16831071 [kJ/mol]

  Total HF                       -210.96408467 [mEh]    -132.38196175 [kcal/mol]    -553.88612798 [kJ/mol]
  Total SAPT0                    -221.15886498 [mEh]    -138.77928299 [kcal/mol]    -580.65252001 [kJ/mol]

  --------------------------------------------------------------------------------------------------------

*** Psi4 exiting successfully. Buy a developer a beer!
