                               Psi4 1.4rc1

  ==> Input File <==

--------------------------------------------------------------------------
memory 2GB

mol = psi4.core.Molecule.from_arrays(
    elez=[6,7,7,1,1,1,1,16,8,8,8,6,6,6,1,1,6,6,1,1,6,1,1,1,1,1,1,1,1],
    fragment_separators=[7, 11],
    fix_com=True,
    fix_orientation=True,
    fix_symmetry='c1',
    fragment_multiplicities=[2, 2, 1],
    fragment_charges=[+1,-1,0],
    molecular_charge=0,
    molecular_multiplicity=1,
    geom= [
    3.46658534930874,     -1.59097113302117,     -2.88908154363117,
    4.65227491347413,     -1.14316365889866,     -3.25969197085875,
    2.75226442097354,     -2.29204320785818,     -3.72802873265263,
    1.77836380076627,     -2.48960354340716,     -3.51273808972934,
    2.94861236744678,     -2.20854372639547,     -4.71681253762466,
    5.14672300796749,     -0.51250849646345,     -2.63385194476357,
    4.78302987666472,     -1.00720259929899,     -4.25349752672027,

    2.25262538381534,     -0.18811476079310,     -6.27183959250769,
    3.56260742666456,     -0.44446397946053,     -5.63155189851986,
    2.34494365709139,     -0.03374220574718,     -7.69650119599574,
    1.26605846132039,     -1.15917661362997,     -5.80536456290656,

    2.91632441016149,     -1.24258949288613,     -1.54312517112070,
    0.70466112712955,      1.44312909223046,     -4.50362963163058,
    1.72853931924467,      1.42432006249010,     -5.63944277968560,
    2.64671821347868,      1.95379379193246,     -5.38105410348287,
    1.29991639672259,      1.93061324894890,     -6.50361449165200,
    2.80408416044204,      0.29069783379302,     -1.35924300821656,
    1.05255034850399,      0.69565870002704,     -3.21491452828060,
   -0.23248290100565,      1.03292535323007,     -4.88444937714405,
    0.51169956799328,      2.49579449368823,     -4.26796562601076,
    2.38837981438588,      1.09366902341495,     -2.59710754390303,
    3.76342488854147,      0.67471794057959,     -0.99988877511160,
    2.09478774138312,      0.46122201940362,     -0.54575587491500,
    3.16731642857969,      1.01324225073436,     -3.35942951596932,
    2.35769023295144,      2.14937495698039,     -2.31099682403245,
    1.03928352292421,     -0.36842852379492,     -3.44932893415787,
    0.25078692416074,      0.86560459090064,     -2.48828332251853,
    1.94047159983143,     -1.71652926488753,     -1.44116115345812,
    3.55856853907795,     -1.66343315181139,     -0.76637074280004])
activate(mol)

set {
basis jun-cc-pvdz
scf_type df
guess sad
freeze_core true
fisapt_do_plot false  # For extra analysis
}

energy('fisapt0')
--------------------------------------------------------------------------

    Molecular point group: c1

    Geometry (in Angstrom), charge = 0, multiplicity = 1:

       Center              X                  Y                   Z               Mass
    ------------   -----------------  -----------------  -----------------  -----------------
         C            3.466585349309    -1.590971133021    -2.889081543631    12.000000000000
         N            4.652274913474    -1.143163658899    -3.259691970859    14.003074004430
         N            2.752264420974    -2.292043207858    -3.728028732653    14.003074004430
         H            1.778363800766    -2.489603543407    -3.512738089729     1.007825032230
         H            2.948612367447    -2.208543726395    -4.716812537625     1.007825032230
         H            5.146723007967    -0.512508496463    -2.633851944764     1.007825032230
         H            4.783029876665    -1.007202599299    -4.253497526720     1.007825032230
         S            2.252625383815    -0.188114760793    -6.271839592508    31.972071174400
         O            3.562607426665    -0.444463979461    -5.631551898520    15.994914619570
         O            2.344943657091    -0.033742205747    -7.696501195996    15.994914619570
         O            1.266058461320    -1.159176613630    -5.805364562907    15.994914619570
         C            2.916324410161    -1.242589492886    -1.543125171121    12.000000000000
         C            0.704661127130     1.443129092230    -4.503629631631    12.000000000000
         C            1.728539319245     1.424320062490    -5.639442779686    12.000000000000
         H            2.646718213479     1.953793791932    -5.381054103483     1.007825032230
         H            1.299916396723     1.930613248949    -6.503614491652     1.007825032230
         C            2.804084160442     0.290697833793    -1.359243008217    12.000000000000
         C            1.052550348504     0.695658700027    -3.214914528281    12.000000000000
         H           -0.232482901006     1.032925353230    -4.884449377144     1.007825032230
         H            0.511699567993     2.495794493688    -4.267965626011     1.007825032230
         C            2.388379814386     1.093669023415    -2.597107543903    12.000000000000
         H            3.763424888541     0.674717940580    -0.999888775112     1.007825032230
         H            2.094787741383     0.461222019404    -0.545755874915     1.007825032230
         H            3.167316428580     1.013242250734    -3.359429515969     1.007825032230
         H            2.357690232951     2.149374956980    -2.310996824032     1.007825032230
         H            1.039283522924    -0.368428523795    -3.449328934158     1.007825032230
         H            0.250786924161     0.865604590901    -2.488283322519     1.007825032230
         H            1.940471599831    -1.716529264888    -1.441161153458     1.007825032230
         H            3.558568539078    -1.663433151811    -0.766370742800     1.007825032230

  Charge       = 0
  Multiplicity = 1
  Basis Set: JUN-CC-PVDZ
    Blend: JUN-CC-PVDZ
  Basis Set: (JUN-CC-PVDZ AUX)
    Blend: JUN-CC-PVDZ-JKFIT

    Orbital Energies [Eh]
    ---------------------

    Doubly Occupied:

       1A    -92.161506     2A    -20.499366     3A    -20.491699
       4A    -20.481342     5A    -15.643792     6A    -15.643520
       7A    -11.417696     8A    -11.302684     9A    -11.279757
      10A    -11.249505    11A    -11.236216    12A    -11.235348
      13A    -11.233473    14A     -9.131372    15A     -6.817020
      16A     -6.816639    17A     -6.814804    18A     -1.443586
      19A     -1.368087    20A     -1.287530    21A     -1.283521
      22A     -1.242943    23A     -1.133295    24A     -1.081065
      25A     -1.020672    26A     -0.952005    27A     -0.898456
      28A     -0.858694    29A     -0.809949    30A     -0.794118
      31A     -0.780190    32A     -0.743075    33A     -0.703448
      34A     -0.695729    35A     -0.671745    36A     -0.649117
      37A     -0.644824    38A     -0.621783    39A     -0.616149
      40A     -0.608971    41A     -0.588653    42A     -0.583639
      43A     -0.572416    44A     -0.538594    45A     -0.532375
      46A     -0.526168    47A     -0.495313    48A     -0.484714
      49A     -0.475507    50A     -0.474693    51A     -0.465452
      52A     -0.455592    53A     -0.428441    54A     -0.420619
      55A     -0.392807    56A     -0.386449

  @DF-RHF Final Energy: -1005.39092903328947

   => Energetics <=

    Nuclear Repulsion Energy =           1085.8945408754939308
    One-Electron Energy =               -3538.1986867128393897
    Two-Electron Energy =                1446.9132168040559918
    Total Energy =                      -1005.3909290332894670

  Dipole Moment: [D]
     X:     2.0574      Y:     0.1803      Z:    12.4933     Total:    12.6629

  Basis Set: (JUN-CC-PVDZ AUX)
    Blend: JUN-CC-PVDZ-JKFIT

    SAPT Results
  --------------------------------------------------------------------------------------------------------
    Electrostatics               -178.07394683 [mEh]    -111.74308867 [kcal/mol]    -467.53308299 [kJ/mol]
      Elst10,r                   -178.07394683 [mEh]    -111.74308867 [kcal/mol]    -467.53308299 [kJ/mol]

    Exchange                       43.75087092 [mEh]      27.45408599 [kcal/mol]     114.86789578 [kJ/mol]
      Exch10                       43.75087092 [mEh]      27.45408599 [kcal/mol]     114.86789578 [kJ/mol]
      Exch10(S^2)                  43.12640063 [mEh]      27.06222496 [kcal/mol]     113.22834925 [kJ/mol]

    Induction                     -18.96839944 [mEh]     -11.90285035 [kcal/mol]     -49.80152586 [kJ/mol]
      Ind20,r                     -33.92813428 [mEh]     -21.29022569 [kcal/mol]     -89.07830427 [kJ/mol]
      Exch-Ind20,r                 19.79892678 [mEh]      12.42401412 [kcal/mol]      51.98207509 [kJ/mol]
      delta HF,r (2)               -4.83919194 [mEh]      -3.03663879 [kcal/mol]     -12.70529668 [kJ/mol]
      Induction (A<-B)             -9.80534650 [mEh]      -6.15294782 [kcal/mol]     -25.74393369 [kJ/mol]
      Induction (B<-A)             -9.16305294 [mEh]      -5.74990253 [kcal/mol]     -24.05759217 [kJ/mol]

    Dispersion                     -9.24783204 [mEh]      -5.80310222 [kcal/mol]     -24.28017967 [kJ/mol]
      Disp20                      -12.21603207 [mEh]      -7.66567586 [kcal/mol]     -32.07318778 [kJ/mol]
      Exch-Disp20                   2.96820003 [mEh]       1.86257364 [kcal/mol]       7.79300811 [kJ/mol]

  Total HF                       -153.29147534 [mEh]     -96.19185303 [kcal/mol]    -402.46671307 [kJ/mol]
  Total SAPT0                    -162.53930738 [mEh]    -101.99495524 [kcal/mol]    -426.74689274 [kJ/mol]

  --------------------------------------------------------------------------------------------------------

*** Psi4 exiting successfully. Buy a developer a beer!
