                               Psi4 1.4rc1

  ==> Input File <==

--------------------------------------------------------------------------
memory 2GB

mol = psi4.core.Molecule.from_arrays(
    elez=[6,7,7,1,1,1,1,8,6,6,1,6,1,1,1,6,1,6,1,6,1,1,6,1,1,1,6,1,1,1,6,1,1,1,1],
    fragment_separators=[7, 8],
    fix_com=True,
    fix_orientation=True,
    fix_symmetry='c1',
    fragment_multiplicities=[2, 2, 1],
    fragment_charges=[+1,-1,0],
    molecular_charge=0,
    molecular_multiplicity=1,
    geom= [
  3.05650338331497,     -0.32079712227794,     -0.70738441964908,
  2.38982528472702,      0.71128523917987,     -0.24390854983093,
  2.51599915502833,     -1.50772110597523,     -0.55022869017013,
  2.96768349302617,     -2.32291458467886,     -0.95630541420828,
  1.54987212597906,     -1.49063385262893,     -0.24987626572520,
  2.74307130863236,      1.64947073690287,     -0.41280172083215,
  1.44036400093257,      0.50277761889166,      0.03703091057877,

  0.26170326728597,     -0.58030703540009,      0.13861070897944,

  4.36645427451694,     -0.13321454085556,     -1.41606238187347,
  4.50829163186317,     -0.93187211305901,     -2.72424931742061,
  4.75371553538325,     -1.97205124920192,     -2.48840805664131,
  3.29416443298811,     -0.91821442563072,     -3.65656998689809,
  5.38563722807613,     -0.53623556391885,     -3.24263968485996,
  2.48346303505728,     -1.47737775755059,     -3.18576439683001,
  3.55309247877913,     -1.47849507554146,     -4.56033123356794,
  2.77233505813200,      0.46010008580740,     -4.05144758254894,
  2.60876161766481,      1.06510687467322,     -3.15519416763712,
  1.46535412439777,      0.41053704405884,     -4.85364357226631,
  3.53293995526563,      0.98884836691320,     -4.63567084836454,
  0.32617078608220,     -0.37561317197479,     -4.19258037205238,
  1.66670387984157,     -0.02226858642508,     -5.83932290100563,
  1.13819765531995,      1.43924637333964,     -5.03544911015978,
 -0.01740511924545,      0.08058793732787,     -2.77840588041015,
  0.58557349602150,     -1.43938473812308,     -4.16805652363173,
 -0.56000465843704,     -0.31142523460731,     -4.83146053710162,
  0.90208987433971,      0.20129611973388,     -2.20672931150706,
 -0.90349461011537,     -0.87394470751609,     -1.98738822581940,
 -0.47954857765702,      1.07465728873206,     -2.81191455891158,
 -0.50255427472994,     -1.89209587470610,     -2.08120449115066,
 -1.91703924035949,     -0.89542699984880,     -2.40627726628260,
 -0.96014819844854,     -0.52236494227433,     -0.48986681352304,
 -1.69039236838790,     -1.20813028673113,     -0.02167748186227,
 -1.41449049121222,      0.48632887624557,     -0.40667723549367,
  4.48783513322442,      0.93299747439470,     -1.61156868419169,
  5.16967232271248,     -0.41443206727480,     -0.72981693713026])
activate(mol)

set {
basis jun-cc-pvdz
scf_type df
guess sad
freeze_core true
fisapt_do_plot false  # For extra analysis
}

energy('fisapt0')
--------------------------------------------------------------------------

    Molecular point group: c1

    Geometry (in Angstrom), charge = 0, multiplicity = 1:

       Center              X                  Y                   Z               Mass
    ------------   -----------------  -----------------  -----------------  -----------------
         C            3.056503383315    -0.320797122278    -0.707384419649    12.000000000000
         N            2.389825284727     0.711285239180    -0.243908549831    14.003074004430
         N            2.515999155028    -1.507721105975    -0.550228690170    14.003074004430
         H            2.967683493026    -2.322914584679    -0.956305414208     1.007825032230
         H            1.549872125979    -1.490633852629    -0.249876265725     1.007825032230
         H            2.743071308632     1.649470736903    -0.412801720832     1.007825032230
         H            1.440364000933     0.502777618892     0.037030910579     1.007825032230
         O            0.261703267286    -0.580307035400     0.138610708979    15.994914619570
         C            4.366454274517    -0.133214540856    -1.416062381873    12.000000000000
         C            4.508291631863    -0.931872113059    -2.724249317421    12.000000000000
         H            4.753715535383    -1.972051249202    -2.488408056641     1.007825032230
         C            3.294164432988    -0.918214425631    -3.656569986898    12.000000000000
         H            5.385637228076    -0.536235563919    -3.242639684860     1.007825032230
         H            2.483463035057    -1.477377757551    -3.185764396830     1.007825032230
         H            3.553092478779    -1.478495075541    -4.560331233568     1.007825032230
         C            2.772335058132     0.460100085807    -4.051447582549    12.000000000000
         H            2.608761617665     1.065106874673    -3.155194167637     1.007825032230
         C            1.465354124398     0.410537044059    -4.853643572266    12.000000000000
         H            3.532939955266     0.988848366913    -4.635670848365     1.007825032230
         C            0.326170786082    -0.375613171975    -4.192580372052    12.000000000000
         H            1.666703879842    -0.022268586425    -5.839322901006     1.007825032230
         H            1.138197655320     1.439246373340    -5.035449110160     1.007825032230
         C           -0.017405119245     0.080587937328    -2.778405880410    12.000000000000
         H            0.585573496021    -1.439384738123    -4.168056523632     1.007825032230
         H           -0.560004658437    -0.311425234607    -4.831460537102     1.007825032230
         H            0.902089874340     0.201296119734    -2.206729311507     1.007825032230
         C           -0.903494610115    -0.873944707516    -1.987388225819    12.000000000000
         H           -0.479548577657     1.074657288732    -2.811914558912     1.007825032230
         H           -0.502554274730    -1.892095874706    -2.081204491151     1.007825032230
         H           -1.917039240359    -0.895426999849    -2.406277266283     1.007825032230
         C           -0.960148198449    -0.522364942274    -0.489866813523    12.000000000000
         H           -1.690392368388    -1.208130286731    -0.021677481862     1.007825032230
         H           -1.414490491212     0.486328876246    -0.406677235494     1.007825032230
         H            4.487835133224     0.932997474395    -1.611568684192     1.007825032230
         H            5.169672322712    -0.414432067275    -0.729816937130     1.007825032230

  Charge       = 0
  Multiplicity = 1
  Basis Set: JUN-CC-PVDZ
    Blend: JUN-CC-PVDZ
  Basis Set: (JUN-CC-PVDZ AUX)
    Blend: JUN-CC-PVDZ-JKFIT

    Orbital Energies [Eh]
    ---------------------

    Doubly Occupied:

       1A    -20.413679     2A    -15.598665     3A    -15.597997
       4A    -11.381399     5A    -11.282859     6A    -11.264966
       7A    -11.241142     8A    -11.234018     9A    -11.224097
      10A    -11.211893    11A    -11.207491    12A    -11.196719
      13A    -11.182199    14A     -1.334203    15A     -1.208772
      16A     -1.201116    17A     -1.120536    18A     -1.077368
      19A     -1.029545    20A     -0.978586    21A     -0.929687
      22A     -0.868376    23A     -0.846649    24A     -0.822037
      25A     -0.769448    26A     -0.762490    27A     -0.743572
      28A     -0.728561    29A     -0.675464    30A     -0.674495
      31A     -0.655996    32A     -0.631452    33A     -0.613150
      34A     -0.590071    35A     -0.576684    36A     -0.571150
      37A     -0.563910    38A     -0.557563    39A     -0.533232
      40A     -0.521120    41A     -0.510003    42A     -0.498372
      43A     -0.487038    44A     -0.481618    45A     -0.461035
      46A     -0.451919    47A     -0.439604    48A     -0.435027
      49A     -0.432965    50A     -0.415027    51A     -0.319975
      52A     -0.317699

  @DF-RHF Final Energy:  -575.26173861800805

   => Energetics <=

    Nuclear Repulsion Energy =            909.9289592715668959
    One-Electron Energy =               -2588.6361085549706331
    Two-Electron Energy =                1103.4454106653956842
    Total Energy =                       -575.2617386180081667

  Dipole Moment: [D]
     X:     7.3553      Y:     0.7486      Z:    -3.4264     Total:     8.1487

  Basis Set: (JUN-CC-PVDZ AUX)
    Blend: JUN-CC-PVDZ-JKFIT

    SAPT Results
  --------------------------------------------------------------------------------------------------------
    Electrostatics               -282.55150215 [mEh]    -177.30374443 [kcal/mol]    -741.83886668 [kJ/mol]
      Elst10,r                   -282.55150215 [mEh]    -177.30374443 [kcal/mol]    -741.83886668 [kJ/mol]

    Exchange                      125.80715276 [mEh]      78.94518023 [kcal/mol]     330.30663407 [kJ/mol]
      Exch10                      125.80715276 [mEh]      78.94518023 [kcal/mol]     330.30663407 [kJ/mol]
      Exch10(S^2)                 121.79140185 [mEh]      76.42525849 [kcal/mol]     319.76328151 [kJ/mol]

    Induction                     -59.80492227 [mEh]     -37.52815531 [kcal/mol]    -157.01780180 [kJ/mol]
      Ind20,r                    -115.04579331 [mEh]     -72.19232522 [kcal/mol]    -302.05268872 [kJ/mol]
      Exch-Ind20,r                 69.11664256 [mEh]      43.37134800 [kcal/mol]     181.46572005 [kJ/mol]
      delta HF,r (2)              -13.87577153 [mEh]      -8.70717809 [kcal/mol]     -36.43083313 [kJ/mol]
      Induction (A<-B)            -38.44367148 [mEh]     -24.12376806 [kcal/mol]    -100.93384557 [kJ/mol]
      Induction (B<-A)            -21.36125079 [mEh]     -13.40438724 [kcal/mol]     -56.08395622 [kJ/mol]

    Dispersion                    -13.07217252 [mEh]      -8.20291210 [kcal/mol]     -34.32098423 [kJ/mol]
      Disp20                      -21.38907765 [mEh]     -13.42184886 [kcal/mol]     -56.15701564 [kJ/mol]
      Exch-Disp20                   8.31690513 [mEh]       5.21893676 [kcal/mol]      21.83603141 [kJ/mol]

  Total HF                       -216.54927166 [mEh]    -135.88671951 [kcal/mol]    -568.55003441 [kJ/mol]
  Total SAPT0                    -229.62144418 [mEh]    -144.08963161 [kcal/mol]    -602.87101864 [kJ/mol]

  --------------------------------------------------------------------------------------------------------

*** Psi4 exiting successfully. Buy a developer a beer!
