                               Psi4 1.4rc1

  ==> Input File <==

--------------------------------------------------------------------------
memory 2GB

mol = psi4.core.Molecule.from_arrays(
    elez=[6,7,7,1,1,1,1,6,8,8,6,6,6,1,1,6,6,6,1,1,1,1,6,1,1,6,1,1,6,1,1,1,1,1,1,1,1],
    fragment_separators=[7, 10],
    fix_com=True,
    fix_orientation=True,
    fix_symmetry='c1',
    fragment_multiplicities=[2, 2, 1],
    fragment_charges=[+1,-1,0],
    molecular_charge=0,
    molecular_multiplicity=1,
    geom= [
      3.86085122854086,     -1.59156542266854,      3.62289287132015,
      2.75650162574631,     -2.04615925209465,      4.16633274264935,
      4.25432509219432,     -0.36290515094238,      3.86045533866247,
      3.56525601279035,      0.31099394446487,      4.16898282191692,
      5.05429236017308,     -0.01605855348191,      3.33783772092085,
      2.43969557699551,     -2.97389369060373,      3.89739548576565,
      2.06686903212635,     -1.41253213861069,      4.54981259184623,

      1.08302716256020,      0.74963953533347,      4.08570516420685,
      2.22816740579744,      1.26347523114662,      4.01982591263945,
      0.81003438453957,     -0.34541089890893,      4.63626858690625,

      4.60295394304411,     -2.44009960431605,      2.63477998475673,
     -0.91494747942279,      0.61511237483913,      2.50553780705699,
     -0.05914597904504,      1.50352395842803,      3.41057780749663,
      0.36536442386802,      2.34431472428831,      2.86116128539235,
     -0.69226136467381,      1.92020678488270,      4.19898491586828,
      3.74468509407724,     -2.58055657762700,      1.36188237738604,
      0.77213864638528,      0.63688223129021,      0.56212932528796,
     -0.13073964798436,     -0.19398490855792,      1.47076311355233,
     -0.84056338868553,     -0.76016452672850,      0.85637653047926,
      0.46669075947644,     -0.93894218909653,      2.00695874530624,
     -1.64796051000980,      1.24596314951130,      1.99107608446278,
     -1.47818013776316,     -0.08104634618574,      3.13042398755735,
      3.20372109175446,     -1.25600353196732,      0.82621087086116,
      2.89893945178306,     -3.23928879828922,      1.58307360258282,
      4.33496206775426,     -3.09552304896171,      0.60018812721577,
      2.10781477278224,     -1.44238541906717,     -0.21686453376144,
      2.78677529474304,     -0.67276033302424,      1.65071060947103,
      4.02100849647130,     -0.65299301771911,      0.41404637285591,
      1.39066158514704,     -0.14591207597319,     -0.60242185384882,
      1.37217918348244,     -2.15218442172401,      0.17615073840218,
      2.52330246029558,     -1.90678735111703,     -1.11711460944475,
      1.56136065824558,      1.10009369417633,      1.16183125504762,
      0.19551625691369,      1.46832468434778,      0.14275849422572,
      0.60289290375026,     -0.39821384276050,     -1.31971575382723,
      2.08724673015408,      0.50827191665530,     -1.13733527902548,
      5.56155674775162,     -1.97134728304569,      2.40708363960203,
      4.81049805824068,     -3.42255184589228,      3.06309911820632 ])
activate(mol)

set {
basis jun-cc-pvdz
scf_type df
guess sad
freeze_core true
fisapt_do_plot false  # For extra analysis
}

energy('fisapt0')
--------------------------------------------------------------------------

    Molecular point group: c1

    Geometry (in Angstrom), charge = 0, multiplicity = 1:

       Center              X                  Y                   Z               Mass
    ------------   -----------------  -----------------  -----------------  -----------------
         C            3.860851228541    -1.591565422669     3.622892871320    12.000000000000
         N            2.756501625746    -2.046159252095     4.166332742649    14.003074004430
         N            4.254325092194    -0.362905150942     3.860455338662    14.003074004430
         H            3.565256012790     0.310993944465     4.168982821917     1.007825032230
         H            5.054292360173    -0.016058553482     3.337837720921     1.007825032230
         H            2.439695576996    -2.973893690604     3.897395485766     1.007825032230
         H            2.066869032126    -1.412532138611     4.549812591846     1.007825032230
         C            1.083027162560     0.749639535333     4.085705164207    12.000000000000
         O            2.228167405797     1.263475231147     4.019825912639    15.994914619570
         O            0.810034384540    -0.345410898909     4.636268586906    15.994914619570
         C            4.602953943044    -2.440099604316     2.634779984757    12.000000000000
         C           -0.914947479423     0.615112374839     2.505537807057    12.000000000000
         C           -0.059145979045     1.503523958428     3.410577807497    12.000000000000
         H            0.365364423868     2.344314724288     2.861161285392     1.007825032230
         H           -0.692261364674     1.920206784883     4.198984915868     1.007825032230
         C            3.744685094077    -2.580556577627     1.361882377386    12.000000000000
         C            0.772138646385     0.636882231290     0.562129325288    12.000000000000
         C           -0.130739647984    -0.193984908558     1.470763113552    12.000000000000
         H           -0.840563388686    -0.760164526728     0.856376530479     1.007825032230
         H            0.466690759476    -0.938942189097     2.006958745306     1.007825032230
         H           -1.647960510010     1.245963149511     1.991076084463     1.007825032230
         H           -1.478180137763    -0.081046346186     3.130423987557     1.007825032230
         C            3.203721091754    -1.256003531967     0.826210870861    12.000000000000
         H            2.898939451783    -3.239288798289     1.583073602583     1.007825032230
         H            4.334962067754    -3.095523048962     0.600188127216     1.007825032230
         C            2.107814772782    -1.442385419067    -0.216864533761    12.000000000000
         H            2.786775294743    -0.672760333024     1.650710609471     1.007825032230
         H            4.021008496471    -0.652993017719     0.414046372856     1.007825032230
         C            1.390661585147    -0.145912075973    -0.602421853849    12.000000000000
         H            1.372179183482    -2.152184421724     0.176150738402     1.007825032230
         H            2.523302460296    -1.906787351117    -1.117114609445     1.007825032230
         H            1.561360658246     1.100093694176     1.161831255048     1.007825032230
         H            0.195516256914     1.468324684348     0.142758494226     1.007825032230
         H            0.602892903750    -0.398213842760    -1.319715753827     1.007825032230
         H            2.087246730154     0.508271916655    -1.137335279025     1.007825032230
         H            5.561556747752    -1.971347283046     2.407083639602     1.007825032230
         H            4.810498058241    -3.422551845892     3.063099118206     1.007825032230

  Charge       = 0
  Multiplicity = 1
  Basis Set: JUN-CC-PVDZ
    Blend: JUN-CC-PVDZ
  Basis Set: (JUN-CC-PVDZ AUX)
    Blend: JUN-CC-PVDZ-JKFIT

    Orbital Energies [Eh]
    ---------------------

    Doubly Occupied:

       1A    -20.476984     2A    -20.474324     3A    -15.612510
       4A    -15.612166     5A    -11.393850     6A    -11.312729
       7A    -11.288588     8A    -11.267248     9A    -11.240801
      10A    -11.230940    11A    -11.222188    12A    -11.210667
      13A    -11.207254    14A    -11.203199    15A    -11.194796
      16A     -1.363466    17A     -1.339703    18A     -1.254991
      19A     -1.215794    20A     -1.123448    21A     -1.084063
      22A     -1.047941    23A     -0.996824    24A     -0.948274
      25A     -0.895068    26A     -0.869236    27A     -0.835387
      28A     -0.803704    29A     -0.774307    30A     -0.768099
      31A     -0.752210    32A     -0.694103    33A     -0.680783
      34A     -0.668117    35A     -0.652985    36A     -0.635172
      37A     -0.627135    38A     -0.608554    39A     -0.594342
      40A     -0.591940    41A     -0.578310    42A     -0.572044
      43A     -0.559634    44A     -0.556339    45A     -0.527769
      46A     -0.522673    47A     -0.513939    48A     -0.511219
      49A     -0.497899    50A     -0.477105    51A     -0.473563
      52A     -0.464197    53A     -0.445492    54A     -0.438121
      55A     -0.435523    56A     -0.429959    57A     -0.385592
      58A     -0.374740    59A     -0.372364

  @DF-RHF Final Energy:  -688.08196873057443

   => Energetics <=

    Nuclear Repulsion Energy =           1121.1560919033770460
    One-Electron Energy =               -3164.6553810395976143
    Two-Electron Energy =                1355.4173204056460236
    Total Energy =                       -688.0819687305745447

  Dipole Moment: [D]
     X:     5.2076      Y:    -5.1674      Z:    -3.9595     Total:     8.3366

  Basis Set: (JUN-CC-PVDZ AUX)
    Blend: JUN-CC-PVDZ-JKFIT

    SAPT Results
  --------------------------------------------------------------------------------------------------------
    Electrostatics               -233.80931130 [mEh]    -146.71755790 [kcal/mol]    -613.86626224 [kJ/mol]
      Elst10,r                   -233.80931130 [mEh]    -146.71755790 [kcal/mol]    -613.86626224 [kJ/mol]

    Exchange                       86.01815066 [mEh]      53.97720445 [kcal/mol]     225.84062343 [kJ/mol]
      Exch10                       86.01815066 [mEh]      53.97720445 [kcal/mol]     225.84062343 [kJ/mol]
      Exch10(S^2)                  84.01286944 [mEh]      52.71887149 [kcal/mol]     220.57575833 [kJ/mol]

    Induction                     -44.50986169 [mEh]     -27.93035989 [kcal/mol]    -116.86062577 [kJ/mol]
      Ind20,r                     -57.21092183 [mEh]     -35.90039545 [kcal/mol]    -150.20725458 [kJ/mol]
      Exch-Ind20,r                 29.00150534 [mEh]      18.19871935 [kcal/mol]      76.14344177 [kJ/mol]
      delta HF,r (2)              -16.30044519 [mEh]     -10.22868379 [kcal/mol]     -42.79681296 [kJ/mol]
      Induction (A<-B)            -22.35969842 [mEh]     -14.03092259 [kcal/mol]     -58.70538010 [kJ/mol]
      Induction (B<-A)            -22.15016328 [mEh]     -13.89943730 [kcal/mol]     -58.15524567 [kJ/mol]

    Dispersion                    -12.81388708 [mEh]      -8.04083554 [kcal/mol]     -33.64285590 [kJ/mol]
      Disp20                      -17.84481984 [mEh]     -11.19779351 [kcal/mol]     -46.85156803 [kJ/mol]
      Exch-Disp20                   5.03093276 [mEh]       3.15695797 [kcal/mol]      13.20871214 [kJ/mol]

  Total HF                       -192.30102233 [mEh]    -120.67071333 [kcal/mol]    -504.88626458 [kJ/mol]
  Total SAPT0                    -205.11490941 [mEh]    -128.71154887 [kcal/mol]    -538.52912048 [kJ/mol]

  --------------------------------------------------------------------------------------------------------

*** Psi4 exiting successfully. Buy a developer a beer!
