                               Psi4 1.4rc1

  ==> Input File <==

--------------------------------------------------------------------------
memory 2GB

mol = psi4.core.Molecule.from_arrays(
    elez=[7,6,7,7,1,1,1,1,1,6,8,8,6,6,6,1,1,1,1,1,1],
    fragment_separators=[9, 12],
    fix_com=True,
    fix_orientation=True,
    fix_symmetry='c1',
    fragment_multiplicities=[2, 2, 1],
    fragment_charges=[+1,-1,0],
    molecular_charge=0,
    molecular_multiplicity=1,
    geom= [
  5.29561544148172,      3.13151463189311,     -4.10533427738733,
  5.70861941097975,      3.46888548901111,     -5.32419033899509,
  6.90469597467801,      3.03895367317843,     -5.71708406340109,
  4.98188442747266,      4.29356985176773,     -6.09745662789833,
  5.00054649887452,      4.10131148961536,     -7.08776140004861,
  4.08469301436389,      4.59689864893086,     -5.73965185066001,
  5.96335824188284,      2.52611200906673,     -3.64239110343941,
  7.04716417563478,      2.06686091797147,     -5.47360368190500,
  7.19814532819337,      3.30799406200566,     -6.64522520998895,

  5.10584579108154,      0.66802242093208,     -5.30546252084629,
  4.80913158391404,      1.15018659454622,     -6.41436116266800,
  6.26736646993431,      0.56499944056063,     -4.81948096895293,

  3.90594730056438,      2.81985472396617,     -3.75291954362640,
  3.80351126540380,      1.37471570584528,     -3.26080731472895,
  3.93993384003018,      0.32036234078962,     -4.36772932829208,
  4.10504309121958,     -0.65508455224231,     -3.90773296457214,
  3.02280142165645,      0.28051729531502,     -4.95711742835281,
  3.28202462799347,      2.94918701936661,     -4.64025896902848,
  3.56525363654760,      3.51457361221196,     -2.98252251523612,
  4.57483307231304,      1.21515713430784,     -2.50044303611179,
  2.84351438578003,      1.26084549096040,     -2.75146469386016])
activate(mol)

set {
basis jun-cc-pvdz
scf_type df
guess sad
freeze_core true
fisapt_do_plot false  # For extra analysis
}

energy('fisapt0')
--------------------------------------------------------------------------

    Molecular point group: c1

    Geometry (in Angstrom), charge = 0, multiplicity = 1:

       Center              X                  Y                   Z               Mass
    ------------   -----------------  -----------------  -----------------  -----------------
         N            5.295615441482     3.131514631893    -4.105334277387    14.003074004430
         C            5.708619410980     3.468885489011    -5.324190338995    12.000000000000
         N            6.904695974678     3.038953673178    -5.717084063401    14.003074004430
         N            4.981884427473     4.293569851768    -6.097456627898    14.003074004430
         H            5.000546498875     4.101311489615    -7.087761400049     1.007825032230
         H            4.084693014364     4.596898648931    -5.739651850660     1.007825032230
         H            5.963358241883     2.526112009067    -3.642391103439     1.007825032230
         H            7.047164175635     2.066860917971    -5.473603681905     1.007825032230
         H            7.198145328193     3.307994062006    -6.645225209989     1.007825032230
         C            5.105845791082     0.668022420932    -5.305462520846    12.000000000000
         O            4.809131583914     1.150186594546    -6.414361162668    15.994914619570
         O            6.267366469934     0.564999440561    -4.819480968953    15.994914619570
         C            3.905947300564     2.819854723966    -3.752919543626    12.000000000000
         C            3.803511265404     1.374715705845    -3.260807314729    12.000000000000
         C            3.939933840030     0.320362340790    -4.367729328292    12.000000000000
         H            4.105043091220    -0.655084552242    -3.907732964572     1.007825032230
         H            3.022801421656     0.280517295315    -4.957117428353     1.007825032230
         H            3.282024627993     2.949187019367    -4.640258969028     1.007825032230
         H            3.565253636548     3.514573612212    -2.982522515236     1.007825032230
         H            4.574833072313     1.215157134308    -2.500443036112     1.007825032230
         H            2.843514385780     1.260845490960    -2.751464693860     1.007825032230

  Charge       = 0
  Multiplicity = 1
  Basis Set: JUN-CC-PVDZ
    Blend: JUN-CC-PVDZ
  Basis Set: (JUN-CC-PVDZ AUX)
    Blend: JUN-CC-PVDZ-JKFIT

    Orbital Energies [Eh]
    ---------------------

    Doubly Occupied:

       1A    -20.472761     2A    -20.471364     3A    -15.640218
       4A    -15.626009     5A    -15.606102     6A    -11.431630
       7A    -11.310411     8A    -11.299189     9A    -11.244718
      10A    -11.211850    11A     -1.385704    12A     -1.352351
      13A     -1.252178    14A     -1.246480    15A     -1.227019
      16A     -1.071714    17A     -0.966294    18A     -0.876487
      19A     -0.847149    20A     -0.802395    21A     -0.766212
      22A     -0.715502    23A     -0.691710    24A     -0.689700
      25A     -0.661417    26A     -0.646352    27A     -0.608458
      28A     -0.598271    29A     -0.578842    30A     -0.553426
      31A     -0.544355    32A     -0.539617    33A     -0.491749
      34A     -0.485326    35A     -0.464432    36A     -0.430684
      37A     -0.381467    38A     -0.372032    39A     -0.366592

  @DF-RHF Final Energy:  -508.88894903519787

   => Energetics <=

    Nuclear Repulsion Energy =            597.6852626254280949
    One-Electron Energy =               -1881.2920930820932881
    Two-Electron Energy =                 774.7178814214673821
    Total Energy =                       -508.8889490351978111

  Dipole Moment: [D]
     X:    -2.3609      Y:     6.5039      Z:     1.1097     Total:     7.0075

  Basis Set: (JUN-CC-PVDZ AUX)
    Blend: JUN-CC-PVDZ-JKFIT

    SAPT Results
  --------------------------------------------------------------------------------------------------------
    Electrostatics               -205.01649516 [mEh]    -128.64979299 [kcal/mol]    -538.27073388 [kJ/mol]
      Elst10,r                   -205.01649516 [mEh]    -128.64979299 [kcal/mol]    -538.27073388 [kJ/mol]

    Exchange                       57.73443041 [mEh]      36.22890205 [kcal/mol]     151.58172616 [kJ/mol]
      Exch10                       57.73443041 [mEh]      36.22890205 [kcal/mol]     151.58172616 [kJ/mol]
      Exch10(S^2)                  56.89777040 [mEh]      35.70388997 [kcal/mol]     149.38507561 [kJ/mol]

    Induction                     -26.86717171 [mEh]     -16.85940478 [kcal/mol]     -70.53974959 [kJ/mol]
      Ind20,r                     -44.13167527 [mEh]     -27.69304433 [kcal/mol]    -115.86769746 [kJ/mol]
      Exch-Ind20,r                 25.06592869 [mEh]      15.72910772 [kcal/mol]      65.81058671 [kJ/mol]
      delta HF,r (2)               -7.80142513 [mEh]      -4.89546818 [kcal/mol]     -20.48263885 [kJ/mol]
      Induction (A<-B)            -16.25310250 [mEh]     -10.19897580 [kcal/mol]     -42.67251475 [kJ/mol]
      Induction (B<-A)            -10.61406920 [mEh]      -6.66042898 [kcal/mol]     -27.86723485 [kJ/mol]

    Dispersion                    -12.56088204 [mEh]      -7.88207248 [kcal/mol]     -32.97859126 [kJ/mol]
      Disp20                      -17.01078119 [mEh]     -10.67442636 [kcal/mol]     -44.66179987 [kJ/mol]
      Exch-Disp20                   4.44989915 [mEh]       2.79235387 [kcal/mol]      11.68320861 [kJ/mol]

  Total HF                       -174.14923645 [mEh]    -109.28029572 [kcal/mol]    -457.22875730 [kJ/mol]
  Total SAPT0                    -186.71011849 [mEh]    -117.16236820 [kcal/mol]    -490.20734857 [kJ/mol]

  --------------------------------------------------------------------------------------------------------

*** Psi4 exiting successfully. Buy a developer a beer!
