                               Psi4 1.4rc1

  ==> Input File <==

--------------------------------------------------------------------------
memory 2GB

mol = psi4.core.Molecule.from_arrays(
    elez=[7,6,7,7,1,1,1,1,1,16,8,8,8,6,6,6,1,1,1,1,1,1],
    fragment_separators=[9, 13],
    fix_com=True,
    fix_orientation=True,
    fix_symmetry='c1',
    fragment_multiplicities=[2, 2, 1],
    fragment_charges=[+1,-1,0],
    molecular_charge=0,
    molecular_multiplicity=1,
    geom= [
    4.53592355539147,      1.18244720798907,     -3.42851809310285,
    4.67195632560828,      0.12227262485707,     -4.22059829818643,
    5.86602329002026,     -0.50784900277095,     -4.22428368432641,
    3.69888095256997,     -0.31284391417114,     -4.98698804977450,
    2.73140542189933,     -0.05009080990113,     -4.84899991113940,
    3.89004615848104,     -1.05517184951114,     -5.64373002321179,
    5.25193266013024,      1.30345918115295,     -2.72101406976262,
    6.69516488201870,     -0.06232199131331,     -3.85159616445003,
    5.97538320090226,     -1.39688363299816,     -4.69141411928890,

    0.57902397044612,      0.14047217495365,     -3.29794301172596,
    0.22886029743600,     -1.24686762079064,     -3.12787050738689,
   -0.43926902857602,      1.11896619895193,     -3.01454956723521,
    1.24788126392434,      0.40347381325164,     -4.59564710264155,

    3.38092795557115,      2.08304461202498,     -3.35012652608757,
    2.49555725863754,      1.81614960851423,     -2.13636429661015,
    1.87218064127553,      0.42790288115637,     -2.07749720313876,
    2.61427030965840,     -0.36582501310385,     -2.19889398920823,
    1.38995264007889,      0.27308723640234,     -1.11236027558737,
    1.69700292169061,      2.56196893183610,     -2.14110879137667,
    3.08078742833954,      1.98743550437495,     -1.22583802430969,
    2.80646345887142,      1.98651085639345,     -4.26848412047050,
    3.77871443562488,      3.09828200270158,     -3.30738317097849])
activate(mol)

set {
basis jun-cc-pvdz
scf_type df
guess sad
freeze_core true
fisapt_do_plot false  # For extra analysis
}

energy('fisapt0')
--------------------------------------------------------------------------

    Molecular point group: c1

    Geometry (in Angstrom), charge = 0, multiplicity = 1:

       Center              X                  Y                   Z               Mass
    ------------   -----------------  -----------------  -----------------  -----------------
         N            4.535923555391     1.182447207989    -3.428518093103    14.003074004430
         C            4.671956325608     0.122272624857    -4.220598298186    12.000000000000
         N            5.866023290020    -0.507849002771    -4.224283684326    14.003074004430
         N            3.698880952570    -0.312843914171    -4.986988049775    14.003074004430
         H            2.731405421899    -0.050090809901    -4.848999911139     1.007825032230
         H            3.890046158481    -1.055171849511    -5.643730023212     1.007825032230
         H            5.251932660130     1.303459181153    -2.721014069763     1.007825032230
         H            6.695164882019    -0.062321991313    -3.851596164450     1.007825032230
         H            5.975383200902    -1.396883632998    -4.691414119289     1.007825032230
         S            0.579023970446     0.140472174954    -3.297943011726    31.972071174400
         O            0.228860297436    -1.246867620791    -3.127870507387    15.994914619570
         O           -0.439269028576     1.118966198952    -3.014549567235    15.994914619570
         O            1.247881263924     0.403473813252    -4.595647102642    15.994914619570
         C            3.380927955571     2.083044612025    -3.350126526088    12.000000000000
         C            2.495557258638     1.816149608514    -2.136364296610    12.000000000000
         C            1.872180641276     0.427902881156    -2.077497203139    12.000000000000
         H            2.614270309658    -0.365825013104    -2.198893989208     1.007825032230
         H            1.389952640079     0.273087236402    -1.112360275587     1.007825032230
         H            1.697002921691     2.561968931836    -2.141108791377     1.007825032230
         H            3.080787428340     1.987435504375    -1.225838024310     1.007825032230
         H            2.806463458871     1.986510856393    -4.268484120471     1.007825032230
         H            3.778714435625     3.098282002702    -3.307383170978     1.007825032230

  Charge       = 0
  Multiplicity = 1
  Basis Set: JUN-CC-PVDZ
    Blend: JUN-CC-PVDZ
  Basis Set: (JUN-CC-PVDZ AUX)
    Blend: JUN-CC-PVDZ-JKFIT

    Orbital Energies [Eh]
    ---------------------

    Doubly Occupied:

       1A    -92.154723     2A    -20.492727     3A    -20.477936
       4A    -20.476875     5A    -15.672541     6A    -15.661622
       7A    -15.634614     8A    -11.463672     9A    -11.302440
      10A    -11.250692    11A    -11.241294    12A     -9.124549
      13A     -6.810126    14A     -6.809939    15A     -6.808078
      16A     -1.437343    17A     -1.410531    18A     -1.283949
      19A     -1.280037    20A     -1.275682    21A     -1.253162
      22A     -1.088563    23A     -0.994180    24A     -0.913216
      25A     -0.865997    26A     -0.846051    27A     -0.803258
      28A     -0.763241    29A     -0.736577    30A     -0.723902
      31A     -0.686828    32A     -0.665428    33A     -0.649920
      34A     -0.625127    35A     -0.618285    36A     -0.605591
      37A     -0.588634    38A     -0.538273    39A     -0.533405
      40A     -0.517971    41A     -0.488526    42A     -0.471354
      43A     -0.464578    44A     -0.449602    45A     -0.424490
      46A     -0.415325    47A     -0.386252    48A     -0.376754

  @DF-RHF Final Energy:  -943.32204239838416

   => Energetics <=

    Nuclear Repulsion Energy =            832.3048157007644932
    One-Electron Energy =               -2950.1259868312235994
    Two-Electron Energy =                1174.4991287320751780
    Total Energy =                       -943.3220423983841556

  Dipole Moment: [D]
     X:    17.2872      Y:     0.7459      Z:    -0.2890     Total:    17.3057

  Basis Set: (JUN-CC-PVDZ AUX)
    Blend: JUN-CC-PVDZ-JKFIT

    SAPT Results
  --------------------------------------------------------------------------------------------------------
    Electrostatics               -142.65785970 [mEh]     -89.51915847 [kcal/mol]    -374.54815903 [kJ/mol]
      Elst10,r                   -142.65785970 [mEh]     -89.51915847 [kcal/mol]    -374.54815903 [kJ/mol]

    Exchange                       46.06339121 [mEh]      28.90521438 [kcal/mol]     120.93941696 [kJ/mol]
      Exch10                       46.06339121 [mEh]      28.90521438 [kcal/mol]     120.93941696 [kJ/mol]
      Exch10(S^2)                  44.84932962 [mEh]      28.14337923 [kcal/mol]     117.75189870 [kJ/mol]

    Induction                     -28.50525278 [mEh]     -17.88731617 [kcal/mol]     -74.84053086 [kJ/mol]
      Ind20,r                     -31.87096232 [mEh]     -19.99933079 [kcal/mol]     -83.67720004 [kJ/mol]
      Exch-Ind20,r                 14.02981953 [mEh]       8.80384467 [kcal/mol]      36.83528610 [kJ/mol]
      delta HF,r (2)              -10.66410999 [mEh]      -6.69183005 [kcal/mol]     -27.99861692 [kJ/mol]
      Induction (A<-B)             -9.12009585 [mEh]      -5.72294655 [kcal/mol]     -23.94480837 [kJ/mol]
      Induction (B<-A)            -19.38515693 [mEh]     -12.16436962 [kcal/mol]     -50.89572250 [kJ/mol]

    Dispersion                     -7.45423614 [mEh]      -4.67760380 [kcal/mol]     -19.57109428 [kJ/mol]
      Disp20                       -9.62947982 [mEh]      -6.04258981 [kcal/mol]     -25.28219578 [kJ/mol]
      Exch-Disp20                   2.17524368 [mEh]       1.36498602 [kcal/mol]       5.71110151 [kJ/mol]

  Total HF                       -125.09972127 [mEh]     -78.50126026 [kcal/mol]    -328.44927294 [kJ/mol]
  Total SAPT0                    -132.55395740 [mEh]     -83.17886406 [kcal/mol]    -348.02036722 [kJ/mol]

  --------------------------------------------------------------------------------------------------------

*** Psi4 exiting successfully. Buy a developer a beer!
