                               Psi4 1.4rc1

  ==> Input File <==

--------------------------------------------------------------------------
memory 2GB

mol = psi4.core.Molecule.from_arrays(
    elez=[7,6,7,7,1,1,1,1,1,8,6,6,6,1,1,1,1,1,1],
    fragment_separators=[9, 10],
    fix_com=True,
    fix_orientation=True,
    fix_symmetry='c1',
    fragment_multiplicities=[2, 2, 1],
    fragment_charges=[+1,-1,0],
    molecular_charge=0,
    molecular_multiplicity=1,
    geom= [
     5.28156001386356,     -1.97413230202639,     -4.53576396509695,
     4.79250040037565,     -1.36131633161753,     -3.45729543047029,
     3.93989812200971,     -0.37492457796416,     -3.55735935698078,
     5.25985994691107,     -1.75422360742556,     -2.23913258292645,
     5.92282439266980,     -2.52145050287608,     -2.18672046160884,
     4.65467848233861,     -1.64040418559269,     -1.44201608171381,
     5.70913931601787,     -2.87559879741736,     -4.38702107927370,
     3.33010127435397,     -0.31763918833135,     -4.36124687374376,
     3.69849409063960,      0.11446792224571,     -2.70833270752008,

     2.45972920999948,     -0.50920407754511,     -5.50575660540022,

     4.99986217247582,     -1.59613296193310,     -5.92487556889778,
     3.76677942509234,     -2.26611016126918,     -6.51175157294435,
     2.49670203593654,     -1.84416112189797,     -5.73570407103022,
     1.62641603508535,     -2.21743410374496,     -6.30894985053107,
     2.48182441182043,     -2.45606903488391,     -4.79341408821103,
     4.84333288368632,     -0.51792980682896,     -5.94301905078900,
     5.90169506332698,     -1.82250328709904,     -6.49646680938943,
     3.88619055705276,     -3.35707593204907,     -6.53360433014879,
     3.68560216634413,     -1.92216794174328,     -7.54712751332339])
activate(mol)

set {
basis jun-cc-pvdz
scf_type df
guess sad
freeze_core true
fisapt_do_plot false  # For extra analysis
}

energy('fisapt0')
--------------------------------------------------------------------------

    Molecular point group: c1

    Geometry (in Angstrom), charge = 0, multiplicity = 1:

       Center              X                  Y                   Z               Mass
    ------------   -----------------  -----------------  -----------------  -----------------
         N            5.281560013864    -1.974132302026    -4.535763965097    14.003074004430
         C            4.792500400376    -1.361316331618    -3.457295430470    12.000000000000
         N            3.939898122010    -0.374924577964    -3.557359356981    14.003074004430
         N            5.259859946911    -1.754223607426    -2.239132582926    14.003074004430
         H            5.922824392670    -2.521450502876    -2.186720461609     1.007825032230
         H            4.654678482339    -1.640404185593    -1.442016081714     1.007825032230
         H            5.709139316018    -2.875598797417    -4.387021079274     1.007825032230
         H            3.330101274354    -0.317639188331    -4.361246873744     1.007825032230
         H            3.698494090640     0.114467922246    -2.708332707520     1.007825032230
         O            2.459729209999    -0.509204077545    -5.505756605400    15.994914619570
         C            4.999862172476    -1.596132961933    -5.924875568898    12.000000000000
         C            3.766779425092    -2.266110161269    -6.511751572944    12.000000000000
         C            2.496702035937    -1.844161121898    -5.735704071030    12.000000000000
         H            1.626416035085    -2.217434103745    -6.308949850531     1.007825032230
         H            2.481824411820    -2.456069034884    -4.793414088211     1.007825032230
         H            4.843332883686    -0.517929806829    -5.943019050789     1.007825032230
         H            5.901695063327    -1.822503287099    -6.496466809389     1.007825032230
         H            3.886190557053    -3.357075932049    -6.533604330149     1.007825032230
         H            3.685602166344    -1.922167941743    -7.547127513323     1.007825032230

  Charge       = 0
  Multiplicity = 1
  Basis Set: JUN-CC-PVDZ
    Blend: JUN-CC-PVDZ
  Basis Set: (JUN-CC-PVDZ AUX)
    Blend: JUN-CC-PVDZ-JKFIT

    Orbital Energies [Eh]
    ---------------------

    Doubly Occupied:

       1A    -20.397478     2A    -15.642124     3A    -15.626992
       4A    -15.586170     5A    -11.424258     6A    -11.267023
       7A    -11.212308     8A    -11.196475     9A     -1.374585
      10A     -1.241833    11A     -1.228857    12A     -1.198993
      13A     -1.021946    14A     -0.913522    15A     -0.852103
      16A     -0.807546    17A     -0.783806    18A     -0.742785
      19A     -0.699456    20A     -0.686701    21A     -0.637051
      22A     -0.629627    23A     -0.600082    24A     -0.562596
      25A     -0.514954    26A     -0.494448    27A     -0.479690
      28A     -0.454983    29A     -0.442736    30A     -0.410653
      31A     -0.308456    32A     -0.304528

  @DF-RHF Final Energy:  -396.07588200727150

   => Energetics <=

    Nuclear Repulsion Energy =            414.8881559088766835
    One-Electron Energy =               -1362.4385429860055865
    Two-Electron Energy =                 551.4745050698574005
    Total Energy =                       -396.0758820072715025

  Dipole Moment: [D]
     X:     6.6268      Y:    -3.8944      Z:     6.3215     Total:     9.9520

  Basis Set: (JUN-CC-PVDZ AUX)
    Blend: JUN-CC-PVDZ-JKFIT

    SAPT Results
  --------------------------------------------------------------------------------------------------------
    Electrostatics               -231.00773108 [mEh]    -144.95953977 [kcal/mol]    -606.51071438 [kJ/mol]
      Elst10,r                   -231.00773108 [mEh]    -144.95953977 [kcal/mol]    -606.51071438 [kJ/mol]

    Exchange                       88.98753415 [mEh]      55.84052072 [kcal/mol]     233.63673871 [kJ/mol]
      Exch10                       88.98753415 [mEh]      55.84052072 [kcal/mol]     233.63673871 [kJ/mol]
      Exch10(S^2)                  84.53257296 [mEh]      53.04499038 [kcal/mol]     221.94023974 [kJ/mol]

    Induction                     -57.12600620 [mEh]     -35.84711009 [kcal/mol]    -149.98430862 [kJ/mol]
      Ind20,r                     -72.11615543 [mEh]     -45.25357075 [kcal/mol]    -189.34094000 [kJ/mol]
      Exch-Ind20,r                 34.84941575 [mEh]      21.86833854 [kcal/mol]      91.49712845 [kJ/mol]
      delta HF,r (2)              -19.85926652 [mEh]     -12.46187788 [kcal/mol]     -52.14049707 [kJ/mol]
      Induction (A<-B)            -30.63425230 [mEh]     -19.22328354 [kcal/mol]     -80.43021834 [kJ/mol]
      Induction (B<-A)            -26.49175390 [mEh]     -16.62382655 [kcal/mol]     -69.55409028 [kJ/mol]

    Dispersion                     -9.75069041 [mEh]      -6.11865061 [kcal/mol]     -25.60043415 [kJ/mol]
      Disp20                      -14.38443255 [mEh]      -9.02636770 [kcal/mol]     -37.76632246 [kJ/mol]
      Exch-Disp20                   4.63374214 [mEh]       2.90771709 [kcal/mol]      12.16588831 [kJ/mol]

  Total HF                       -199.14620313 [mEh]    -124.96612913 [kcal/mol]    -522.85828428 [kJ/mol]
  Total SAPT0                    -208.89689354 [mEh]    -131.08477974 [kcal/mol]    -548.45871844 [kJ/mol]

  --------------------------------------------------------------------------------------------------------

*** Psi4 exiting successfully. Buy a developer a beer!
