                               Psi4 1.4rc1

  ==> Input File <==

--------------------------------------------------------------------------
memory 2GB

mol = psi4.core.Molecule.from_arrays(
    elez=[7,6,7,7,1,1,1,1,1,16,8,8,8,6,6,6,1,1,6,1,1,6,1,1,6,1,1,1,1,1,1],
    fragment_separators=[9, 13],
    fix_com=True,
    fix_orientation=True,
    fix_symmetry='c1',
    fragment_multiplicities=[2, 2, 1],
    fragment_charges=[+1,-1,0],
    molecular_charge=0,
    molecular_multiplicity=1,
    geom= [
   2.73849039107582,     -2.01517049554655,     -3.09711339369230,
   4.04973587503316,     -2.15471681046897,     -3.15204416592072,
   4.65820553030303,     -1.98629287231442,     -4.31865531627658,
   4.76423051655031,     -2.45443505760812,     -2.05049060367438,
   4.28736286833683,     -2.77625946604811,     -1.21749648446513,
   5.75082458252022,     -2.65835130605123,     -2.12598836069482,
   2.34517621577683,     -1.69027408805856,     -3.97144718444580,
   4.10900359722758,     -1.59267656894597,     -5.07175991866817,
   5.64909502466002,     -2.15646177264639,     -4.42723689154449,

   1.78028743732908,     -0.03312793404448,     -6.42873889520162,
   2.56928715973694,      0.21365690171441,     -7.60735992146340,
   0.41688007163324,     -0.46296925312067,     -6.61859494246921,
   2.50512937537815,     -0.93326330256752,     -5.48257018884023,

   1.96336502905482,     -1.74915015043433,     -1.89688720128696,
   0.61187722027906,      1.65763393107793,     -4.50028804999496,
   1.69499052696981,      1.54179359448048,     -5.57044709305477,
   2.69732636782291,      1.73465851117987,     -5.18399634615475,
   1.50665605471627,      2.27223908940812,     -6.35807644503046,
   2.08852039803600,     -0.30091178292735,     -1.41520410997191,
   2.23127233795772,     -2.45161554690055,     -1.10264349302717,
   0.93024894640603,     -1.97780078673175,     -2.15543828104780,
   0.68035581852117,      0.65541840768183,     -3.34803753765872,
  -0.35686536131385,      1.54923066471482,     -4.99112761998146,
   0.65022799384970,      2.67543793586848,     -4.09599978073347,
   1.96899265517463,      0.73358177755290,     -2.53565393963036,
   3.05135646014005,     -0.16860215042702,     -0.91186780635775,
   1.31650056994006,     -0.13623079419342,     -0.65725199948059,
   2.82419507290150,      0.62472619526298,     -3.20846448812172,
   2.05891886835951,      1.73033068641945,     -2.09311233005813,
   0.54225160131491,     -0.34473077308597,     -3.76666181681016,
  -0.17421920569159,      0.82969221676014,     -2.68518239424180])
activate(mol)

set {
basis jun-cc-pvdz
scf_type df
guess sad
freeze_core true
fisapt_do_plot false  # For extra analysis
}

energy('fisapt0')
--------------------------------------------------------------------------

    Molecular point group: c1

    Geometry (in Angstrom), charge = 0, multiplicity = 1:

       Center              X                  Y                   Z               Mass
    ------------   -----------------  -----------------  -----------------  -----------------
         N            2.738490391076    -2.015170495547    -3.097113393692    14.003074004430
         C            4.049735875033    -2.154716810469    -3.152044165921    12.000000000000
         N            4.658205530303    -1.986292872314    -4.318655316277    14.003074004430
         N            4.764230516550    -2.454435057608    -2.050490603674    14.003074004430
         H            4.287362868337    -2.776259466048    -1.217496484465     1.007825032230
         H            5.750824582520    -2.658351306051    -2.125988360695     1.007825032230
         H            2.345176215777    -1.690274088059    -3.971447184446     1.007825032230
         H            4.109003597228    -1.592676568946    -5.071759918668     1.007825032230
         H            5.649095024660    -2.156461772646    -4.427236891544     1.007825032230
         S            1.780287437329    -0.033127934044    -6.428738895202    31.972071174400
         O            2.569287159737     0.213656901714    -7.607359921463    15.994914619570
         O            0.416880071633    -0.462969253121    -6.618594942469    15.994914619570
         O            2.505129375378    -0.933263302568    -5.482570188840    15.994914619570
         C            1.963365029055    -1.749150150434    -1.896887201287    12.000000000000
         C            0.611877220279     1.657633931078    -4.500288049995    12.000000000000
         C            1.694990526970     1.541793594480    -5.570447093055    12.000000000000
         H            2.697326367823     1.734658511180    -5.183996346155     1.007825032230
         H            1.506656054716     2.272239089408    -6.358076445030     1.007825032230
         C            2.088520398036    -0.300911782927    -1.415204109972    12.000000000000
         H            2.231272337958    -2.451615546901    -1.102643493027     1.007825032230
         H            0.930248946406    -1.977800786732    -2.155438281048     1.007825032230
         C            0.680355818521     0.655418407682    -3.348037537659    12.000000000000
         H           -0.356865361314     1.549230664715    -4.991127619981     1.007825032230
         H            0.650227993850     2.675437935868    -4.095999780733     1.007825032230
         C            1.968992655175     0.733581777553    -2.535653939630    12.000000000000
         H            3.051356460140    -0.168602150427    -0.911867806358     1.007825032230
         H            1.316500569940    -0.136230794193    -0.657251999481     1.007825032230
         H            2.824195072901     0.624726195263    -3.208464488122     1.007825032230
         H            2.058918868360     1.730330686419    -2.093112330058     1.007825032230
         H            0.542251601315    -0.344730773086    -3.766661816810     1.007825032230
         H           -0.174219205692     0.829692216760    -2.685182394242     1.007825032230

  Charge       = 0
  Multiplicity = 1
  Basis Set: JUN-CC-PVDZ
    Blend: JUN-CC-PVDZ
  Basis Set: (JUN-CC-PVDZ AUX)
    Blend: JUN-CC-PVDZ-JKFIT

    Orbital Energies [Eh]
    ---------------------

    Doubly Occupied:

       1A    -92.154366     2A    -20.498796     3A    -20.477559
       4A    -20.476360     5A    -15.664056     6A    -15.631843
       7A    -15.622589     8A    -11.446705     9A    -11.308514
      10A    -11.254628    11A    -11.235189    12A    -11.227250
      13A    -11.223645    14A    -11.221429    15A     -9.124003
      16A     -6.809666    17A     -6.809433    18A     -6.807419
      19A     -1.436048    20A     -1.397666    21A     -1.282334
      22A     -1.279914    23A     -1.260556    24A     -1.245029
      25A     -1.104448    26A     -1.057485    27A     -0.994167
      28A     -0.938588    29A     -0.895342    30A     -0.854895
      31A     -0.829058    32A     -0.802128    33A     -0.780104
      34A     -0.755372    35A     -0.720153    36A     -0.707571
      37A     -0.687788    38A     -0.654548    39A     -0.649096
      40A     -0.639315    41A     -0.631598    42A     -0.622354
      43A     -0.604880    44A     -0.589883    45A     -0.575190
      46A     -0.557903    47A     -0.530173    48A     -0.524017
      49A     -0.514814    50A     -0.489286    51A     -0.485185
      52A     -0.474061    53A     -0.468651    54A     -0.460762
      55A     -0.453009    56A     -0.430488    57A     -0.421633
      58A     -0.413658    59A     -0.384422    60A     -0.379497

  @DF-RHF Final Energy: -1060.44675095897992

   => Energetics <=

    Nuclear Repulsion Energy =           1187.7048131493172605
    One-Electron Energy =               -3816.3500827820962513
    Two-Electron Energy =                1568.1985186737988442
    Total Energy =                      -1060.4467509589799192

  Dipole Moment: [D]
     X:     7.1900      Y:    -3.3155      Z:    13.4959     Total:    15.6470

  Basis Set: (JUN-CC-PVDZ AUX)
    Blend: JUN-CC-PVDZ-JKFIT

    SAPT Results
  --------------------------------------------------------------------------------------------------------
    Electrostatics               -173.58602306 [mEh]    -108.92687399 [kcal/mol]    -455.75004077 [kJ/mol]
      Elst10,r                   -173.58602306 [mEh]    -108.92687399 [kcal/mol]    -455.75004077 [kJ/mol]

    Exchange                       56.29507147 [mEh]      35.32569067 [kcal/mol]     147.80268978 [kJ/mol]
      Exch10                       56.29507147 [mEh]      35.32569067 [kcal/mol]     147.80268978 [kJ/mol]
      Exch10(S^2)                  55.26086024 [mEh]      34.67671333 [kcal/mol]     145.08736858 [kJ/mol]

    Induction                     -29.92935118 [mEh]     -18.78095141 [kcal/mol]     -78.57950069 [kJ/mol]
      Ind20,r                     -39.52145862 [mEh]     -24.80008970 [kcal/mol]    -103.76357530 [kJ/mol]
      Exch-Ind20,r                 18.60951942 [mEh]      11.67764974 [kcal/mol]      48.85928650 [kJ/mol]
      delta HF,r (2)               -9.01741198 [mEh]      -5.65851145 [kcal/mol]     -23.67521189 [kJ/mol]
      Induction (A<-B)            -13.20277427 [mEh]      -8.28486594 [kcal/mol]     -34.66387908 [kJ/mol]
      Induction (B<-A)            -16.72657690 [mEh]     -10.49608547 [kcal/mol]     -43.91562161 [kJ/mol]

    Dispersion                     -9.77183452 [mEh]      -6.13191874 [kcal/mol]     -25.65594799 [kJ/mol]
      Disp20                      -12.78902495 [mEh]      -8.02523431 [kcal/mol]     -33.57758037 [kJ/mol]
      Exch-Disp20                   3.01719043 [mEh]       1.89331558 [kcal/mol]       7.92163238 [kJ/mol]

  Total HF                       -147.22030277 [mEh]     -92.38213472 [kcal/mol]    -386.52685168 [kJ/mol]
  Total SAPT0                    -156.99213729 [mEh]     -98.51405346 [kcal/mol]    -412.18279967 [kJ/mol]

  --------------------------------------------------------------------------------------------------------

*** Psi4 exiting successfully. Buy a developer a beer!
