                               Psi4 1.4rc1

  ==> Input File <==

--------------------------------------------------------------------------
memory 2GB

mol = psi4.core.Molecule.from_arrays(
    elez=[7,6,7,7,1,1,1,1,1,16,8,8,8,6,6,6,1,1,6,1,1,6,6,1,1,1,1,6,1,1,6,1,1,6,1,1,1,1,1,1],
    fragment_separators=[9, 13],
    fix_com=True,
    fix_orientation=True,
    fix_symmetry='c1',
    fragment_multiplicities=[2, 2, 1],
    fragment_charges=[+1,-1,0],
    molecular_charge=0,
    molecular_multiplicity=1,
    geom= [
  4.30539357759474,      1.22276171772989,     -3.90831707954832,
  4.63191802118304,      2.24636530588977,     -4.67095783713700,
  4.54168605587906,      2.14398958030115,     -5.98713861636265,
  5.08408567897372,      3.39358431547207,     -4.11854542099563,
  4.92067470663503,      3.57050051749320,     -3.13587047738743,
  5.25465156972577,      4.19738974039907,     -4.70695614367641,
  3.82452982069098,      0.44911338149334,     -4.35092589508632,
  4.34337337041103,      1.24931773356438,     -6.41664641632432,
  4.67671218134767,      2.95662352158758,     -6.57411338763789,

  3.00461762524979,     -1.09620635139870,     -6.38925892346112,
  4.12885624354887,     -0.32964695104251,     -6.95371738482914,
  1.78128456109544,     -1.00077924340479,     -7.13639903924805,
  2.85154575656931,     -0.78368307217092,     -4.95678935364747,

  4.49058828459565,      1.15589856379256,     -2.46928985772460,
  4.90645815367018,     -3.10281641829988,     -5.95484411575280,
  3.51177094785996,     -2.80621482336234,     -6.49228339799105,
  2.73604386591082,     -3.37344524132504,     -5.97373550836139,
  3.44490433841772,     -3.04083129884908,     -7.55528106024963,
  5.94212934200506,      0.93949984410552,     -2.03689287919944,
  3.86430546335699,      0.32853240614265,     -2.13661136254684,
  4.07623274386868,      2.04999380182267,     -1.98901028401622,
  6.46267659777243,     -3.11777498860426,     -3.94467065892023,
  5.02497747611449,     -3.02567893224524,     -4.43762488245753,
  4.42332114610350,     -3.81869316486848,     -3.97764828764398,
  4.57935030942481,     -2.08713106900852,     -4.10872719366710,
  5.20153297727727,     -4.10020738165822,     -6.29690539783460,
  5.60592207052365,     -2.39782168691971,     -6.41336792459643,
  6.55995685847378,     -0.35629024892673,     -2.55908560620210,
  5.96797606479666,      0.95256667785465,     -0.94244397924644,
  6.54718431135504,      1.78833055977840,     -2.36884939785842,
  6.00628323940050,     -1.61591738837183,     -1.89930084213948,
  7.64235951455788,     -0.31800042286935,     -2.40205936859516,
  6.41485458199805,     -0.40343321743975,     -3.64258686598218,
  6.60871758019104,     -2.91701411166357,     -2.43565511072442,
  6.19032356669693,     -1.56111490667591,     -0.82094772277603,
  4.91924976712727,     -1.65124456852965,     -2.01658615680569,
  7.06697548314998,     -2.37425797298627,     -4.47551407757881,
  6.88780770811373,     -4.08974658511977,     -4.21533164162003,
  6.13519652272706,     -3.75557318986985,     -1.91515938469324,
  7.67114191560624,     -2.95550343181653,     -2.17229105947430])
activate(mol)

set {
basis jun-cc-pvdz
scf_type df
guess sad
freeze_core true
fisapt_do_plot false  # For extra analysis
}

energy('fisapt0')
--------------------------------------------------------------------------

    Molecular point group: c1

    Geometry (in Angstrom), charge = 0, multiplicity = 1:

       Center              X                  Y                   Z               Mass
    ------------   -----------------  -----------------  -----------------  -----------------
         N            4.305393577595     1.222761717730    -3.908317079548    14.003074004430
         C            4.631918021183     2.246365305890    -4.670957837137    12.000000000000
         N            4.541686055879     2.143989580301    -5.987138616363    14.003074004430
         N            5.084085678974     3.393584315472    -4.118545420996    14.003074004430
         H            4.920674706635     3.570500517493    -3.135870477387     1.007825032230
         H            5.254651569726     4.197389740399    -4.706956143676     1.007825032230
         H            3.824529820691     0.449113381493    -4.350925895086     1.007825032230
         H            4.343373370411     1.249317733564    -6.416646416324     1.007825032230
         H            4.676712181348     2.956623521588    -6.574113387638     1.007825032230
         S            3.004617625250    -1.096206351399    -6.389258923461    31.972071174400
         O            4.128856243549    -0.329646951043    -6.953717384829    15.994914619570
         O            1.781284561095    -1.000779243405    -7.136399039248    15.994914619570
         O            2.851545756569    -0.783683072171    -4.956789353647    15.994914619570
         C            4.490588284596     1.155898563793    -2.469289857725    12.000000000000
         C            4.906458153670    -3.102816418300    -5.954844115753    12.000000000000
         C            3.511770947860    -2.806214823362    -6.492283397991    12.000000000000
         H            2.736043865911    -3.373445241325    -5.973735508361     1.007825032230
         H            3.444904338418    -3.040831298849    -7.555281060250     1.007825032230
         C            5.942129342005     0.939499844106    -2.036892879199    12.000000000000
         H            3.864305463357     0.328532406143    -2.136611362547     1.007825032230
         H            4.076232743869     2.049993801823    -1.989010284016     1.007825032230
         C            6.462676597772    -3.117774988604    -3.944670658920    12.000000000000
         C            5.024977476114    -3.025678932245    -4.437624882458    12.000000000000
         H            4.423321146103    -3.818693164868    -3.977648287644     1.007825032230
         H            4.579350309425    -2.087131069009    -4.108727193667     1.007825032230
         H            5.201532977277    -4.100207381658    -6.296905397835     1.007825032230
         H            5.605922070524    -2.397821686920    -6.413367924596     1.007825032230
         C            6.559956858474    -0.356290248927    -2.559085606202    12.000000000000
         H            5.967976064797     0.952566677855    -0.942443979246     1.007825032230
         H            6.547184311355     1.788330559778    -2.368849397858     1.007825032230
         C            6.006283239401    -1.615917388372    -1.899300842139    12.000000000000
         H            7.642359514558    -0.318000422869    -2.402059368595     1.007825032230
         H            6.414854581998    -0.403433217440    -3.642586865982     1.007825032230
         C            6.608717580191    -2.917014111664    -2.435655110724    12.000000000000
         H            6.190323566697    -1.561114906676    -0.820947722776     1.007825032230
         H            4.919249767127    -1.651244568530    -2.016586156806     1.007825032230
         H            7.066975483150    -2.374257972986    -4.475514077579     1.007825032230
         H            6.887807708114    -4.089746585120    -4.215331641620     1.007825032230
         H            6.135196522727    -3.755573189870    -1.915159384693     1.007825032230
         H            7.671141915606    -2.955503431817    -2.172291059474     1.007825032230

  Charge       = 0
  Multiplicity = 1
  Basis Set: JUN-CC-PVDZ
    Blend: JUN-CC-PVDZ
  Basis Set: (JUN-CC-PVDZ AUX)
    Blend: JUN-CC-PVDZ-JKFIT

    Orbital Energies [Eh]
    ---------------------

    Doubly Occupied:

       1A    -92.161247     2A    -20.499477     3A    -20.498236
       4A    -20.483810     5A    -15.651730     6A    -15.614550
       7A    -15.612362     8A    -11.434281     9A    -11.300285
      10A    -11.250326    11A    -11.233189    12A    -11.228557
      13A    -11.226091    14A    -11.221369    15A    -11.215193
      16A    -11.214564    17A    -11.205288    18A     -9.131863
      19A     -6.817418    20A     -6.817113    21A     -6.815193
      22A     -1.446403    23A     -1.384639    24A     -1.290858
      25A     -1.288970    26A     -1.248686    27A     -1.232157
      28A     -1.106983    29A     -1.078294    30A     -1.044392
      31A     -0.994725    32A     -0.948505    33A     -0.909573
      34A     -0.874275    35A     -0.842430    36A     -0.820858
      37A     -0.809380    38A     -0.774682    39A     -0.758091
      40A     -0.754523    41A     -0.719385    42A     -0.696996
      43A     -0.681243    44A     -0.660879    45A     -0.652125
      46A     -0.640173    47A     -0.631983    48A     -0.627287
      49A     -0.614387    50A     -0.605861    51A     -0.593299
      52A     -0.574197    53A     -0.573368    54A     -0.558160
      55A     -0.543956    56A     -0.533071    57A     -0.512071
      58A     -0.505725    59A     -0.496950    60A     -0.483188
      61A     -0.477173    62A     -0.475786    63A     -0.469792
      64A     -0.462118    65A     -0.450746    66A     -0.445549
      67A     -0.440991    68A     -0.430618    69A     -0.421301
      70A     -0.415956    71A     -0.394150    72A     -0.388331

  @DF-RHF Final Energy: -1177.57076620614271

   => Energetics <=

    Nuclear Repulsion Energy =           1572.1035875550519449
    One-Electron Energy =               -4740.5139354962284415
    Two-Electron Energy =                1990.8395817350337893
    Total Energy =                      -1177.5707662061427072

  Dipole Moment: [D]
     X:     6.3029      Y:     7.3878      Z:     6.0296     Total:    11.4308

  Basis Set: (JUN-CC-PVDZ AUX)
    Blend: JUN-CC-PVDZ-JKFIT

    SAPT Results
  --------------------------------------------------------------------------------------------------------
    Electrostatics               -197.48478046 [mEh]    -123.92357066 [kcal/mol]    -518.49621966 [kJ/mol]
      Elst10,r                   -197.48478046 [mEh]    -123.92357066 [kcal/mol]    -518.49621966 [kJ/mol]

    Exchange                       67.22045284 [mEh]      42.18147099 [kcal/mol]     176.48727463 [kJ/mol]
      Exch10                       67.22045284 [mEh]      42.18147099 [kcal/mol]     176.48727463 [kJ/mol]
      Exch10(S^2)                  65.86550828 [mEh]      41.33123044 [kcal/mol]     172.92986815 [kJ/mol]

    Induction                     -36.98318608 [mEh]     -23.20729964 [kcal/mol]     -97.09934168 [kJ/mol]
      Ind20,r                     -45.46173459 [mEh]     -28.52766915 [kcal/mol]    -119.35976772 [kJ/mol]
      Exch-Ind20,r                 22.01830384 [mEh]      13.81669425 [kcal/mol]      57.80904876 [kJ/mol]
      delta HF,r (2)              -13.53975533 [mEh]      -8.49632474 [kcal/mol]     -35.54862273 [kJ/mol]
      Induction (A<-B)            -16.82754865 [mEh]     -10.55944620 [kcal/mol]     -44.18072289 [kJ/mol]
      Induction (B<-A)            -20.15563744 [mEh]     -12.64785344 [kcal/mol]     -52.91861880 [kJ/mol]

    Dispersion                    -11.35270384 [mEh]      -7.12392922 [kcal/mol]     -29.80651984 [kJ/mol]
      Disp20                      -14.97545941 [mEh]      -9.39724265 [kcal/mol]     -39.31806325 [kJ/mol]
      Exch-Disp20                   3.62275556 [mEh]       2.27331344 [kcal/mol]       9.51154342 [kJ/mol]

  Total HF                       -167.24751370 [mEh]    -104.94939931 [kcal/mol]    -439.10828671 [kJ/mol]
  Total SAPT0                    -178.60021754 [mEh]    -112.07332853 [kcal/mol]    -468.91480655 [kJ/mol]

  --------------------------------------------------------------------------------------------------------

*** Psi4 exiting successfully. Buy a developer a beer!
