                               Psi4 1.4rc1

  ==> Input File <==

--------------------------------------------------------------------------
memory 2GB

mol = psi4.core.Molecule.from_arrays(
    elez=[7,6,7,7,1,1,1,1,1,6,8,8,6,6,6,1,1,6,1,1,6,6,1,1,1,1,6,1,1,6,1,1,6,1,1,1,1,1,1],
    fragment_separators=[9, 12],
    fix_com=True,
    fix_orientation=True,
    fix_symmetry='c1',
    fragment_multiplicities=[2, 2, 1],
    fragment_charges=[+1,-1,0],
    molecular_charge=0,
    molecular_multiplicity=1,
    geom= [
   5.03926572214575,     -0.90115425507729,      2.49282076560561,
   6.21038441598106,     -1.41726129528950,      2.17824405407479,
   6.53591317996752,     -2.67712156512816,      2.55607836284447,
   7.07675391053381,     -0.70081997908563,      1.47890578379924,
   7.95464328449979,     -1.12155357420488,      1.20755420676775,
   6.75616114233380,      0.10663745362057,      0.96027757226049,
   4.84216822529615,      0.01760923695873,      2.11519097545130,
   5.99387606545849,     -3.12691790121906,      3.28278356661725,
   7.49844069750494,     -2.97548249637451,      2.46877573953708,

   4.98224029568504,      1.65025660570416,      0.24742201372352,
   4.36806463507270,      1.38926960603825,      1.31370552767218,
   6.12891888768149,      1.23351205161461,     -0.04562025127454,

   3.91385314731321,     -1.65829054686942,      3.01513399144527,
   4.08421519720403,      1.74208116988936,     -2.11472437200523,
   4.26524488333685,      2.50051796894580,     -0.79588967260326,
   4.86853438077702,      3.39267418647808,     -0.98113363274644,
   3.30763953998509,      2.82457078666110,     -0.38780861458907,
   3.13915939092054,     -2.37657184147194,      1.91060909461344,
   3.26723483858359,     -0.93940124865792,      3.52069287338507,
   4.24719520258695,     -2.35509489145651,      3.79006472067167,
   1.99727420150534,      0.43091832550186,     -1.39921802696557,
   3.41274626943639,      0.37688642612419,     -1.96549728921441,
   4.04740706865891,     -0.24658969886091,     -1.32670613553989,
   3.39077381217935,     -0.11871867104452,     -2.94283939470893,
   5.06847495715273,      1.59850383631238,     -2.56572823592331,
   3.50335611651517,      2.36393851053799,     -2.80456526697761,
   2.39994577549464,     -1.38957857555319,      1.00948954889897,
   2.44074993178013,     -3.08711796957249,      2.36297592074973,
   3.84447515045738,     -2.97046199158360,      1.31867659777718,
   2.07017718157771,     -1.93670522350988,     -0.37240050628010,
   1.48161131680493,     -1.06154171361502,      1.50991174389862,
   3.00862786414751,     -0.49000095834389,      0.89745124451755,
   1.32223767986703,     -0.93577498827946,     -1.25641329317947,
   1.47274687285184,     -2.85090226916956,     -0.28399697371465,
   3.00353868915705,     -2.23404057129344,     -0.86253505291205,
   1.37644394055181,      1.05892021246432,     -2.04742047850170,
   2.01534120555064,      0.92977995469208,     -0.42653480214436,
   0.31664763368347,     -0.78721338745009,     -0.84827782783955,
   1.18561128975997,     -1.37925171843256,     -2.24861347719108])
activate(mol)

set {
basis jun-cc-pvdz
scf_type df
guess sad
freeze_core true
fisapt_do_plot false  # For extra analysis
}

energy('fisapt0')
--------------------------------------------------------------------------

    Molecular point group: c1

    Geometry (in Angstrom), charge = 0, multiplicity = 1:

       Center              X                  Y                   Z               Mass
    ------------   -----------------  -----------------  -----------------  -----------------
         N            5.039265722146    -0.901154255077     2.492820765606    14.003074004430
         C            6.210384415981    -1.417261295290     2.178244054075    12.000000000000
         N            6.535913179968    -2.677121565128     2.556078362844    14.003074004430
         N            7.076753910534    -0.700819979086     1.478905783799    14.003074004430
         H            7.954643284500    -1.121553574205     1.207554206768     1.007825032230
         H            6.756161142334     0.106637453621     0.960277572260     1.007825032230
         H            4.842168225296     0.017609236959     2.115190975451     1.007825032230
         H            5.993876065458    -3.126917901219     3.282783566617     1.007825032230
         H            7.498440697505    -2.975482496375     2.468775739537     1.007825032230
         C            4.982240295685     1.650256605704     0.247422013724    12.000000000000
         O            4.368064635073     1.389269606038     1.313705527672    15.994914619570
         O            6.128918887681     1.233512051615    -0.045620251275    15.994914619570
         C            3.913853147313    -1.658290546869     3.015133991445    12.000000000000
         C            4.084215197204     1.742081169889    -2.114724372005    12.000000000000
         C            4.265244883337     2.500517968946    -0.795889672603    12.000000000000
         H            4.868534380777     3.392674186478    -0.981133632746     1.007825032230
         H            3.307639539985     2.824570786661    -0.387808614589     1.007825032230
         C            3.139159390921    -2.376571841472     1.910609094613    12.000000000000
         H            3.267234838584    -0.939401248658     3.520692873385     1.007825032230
         H            4.247195202587    -2.355094891457     3.790064720672     1.007825032230
         C            1.997274201505     0.430918325502    -1.399218026966    12.000000000000
         C            3.412746269436     0.376886426124    -1.965497289214    12.000000000000
         H            4.047407068659    -0.246589698861    -1.326706135540     1.007825032230
         H            3.390773812179    -0.118718671045    -2.942839394709     1.007825032230
         H            5.068474957153     1.598503836312    -2.565728235923     1.007825032230
         H            3.503356116515     2.363938510538    -2.804565266978     1.007825032230
         C            2.399945775495    -1.389578575553     1.009489548899    12.000000000000
         H            2.440749931780    -3.087117969572     2.362975920750     1.007825032230
         H            3.844475150457    -2.970461991584     1.318676597777     1.007825032230
         C            2.070177181578    -1.936705223510    -0.372400506280    12.000000000000
         H            1.481611316805    -1.061541713615     1.509911743899     1.007825032230
         H            3.008627864148    -0.490000958344     0.897451244518     1.007825032230
         C            1.322237679867    -0.935774988279    -1.256413293179    12.000000000000
         H            1.472746872852    -2.850902269170    -0.283996973715     1.007825032230
         H            3.003538689157    -2.234040571293    -0.862535052912     1.007825032230
         H            1.376443940552     1.058920212464    -2.047420478502     1.007825032230
         H            2.015341205551     0.929779954692    -0.426534802144     1.007825032230
         H            0.316647633683    -0.787213387450    -0.848277827840     1.007825032230
         H            1.185611289760    -1.379251718433    -2.248613477191     1.007825032230

  Charge       = 0
  Multiplicity = 1
  Basis Set: JUN-CC-PVDZ
    Blend: JUN-CC-PVDZ
  Basis Set: (JUN-CC-PVDZ AUX)
    Blend: JUN-CC-PVDZ-JKFIT

    Orbital Energies [Eh]
    ---------------------

    Doubly Occupied:

       1A    -20.473729     2A    -20.472244     3A    -15.642541
       4A    -15.599458     5A    -15.598156     6A    -11.421908
       7A    -11.309636     8A    -11.291696     9A    -11.236747
      10A    -11.213991    11A    -11.212320    12A    -11.209778
      13A    -11.200504    14A    -11.199423    15A    -11.198747
      16A    -11.190673    17A     -1.374899    18A     -1.356457
      19A     -1.253086    20A     -1.237433    21A     -1.219108
      22A     -1.092812    23A     -1.063426    24A     -1.027329
      25A     -0.975327    26A     -0.926968    27A     -0.892757
      28A     -0.858854    29A     -0.826582    30A     -0.809442
      31A     -0.788979    32A     -0.761869    33A     -0.745822
      34A     -0.707326    35A     -0.702422    36A     -0.672893
      37A     -0.656969    38A     -0.636939    39A     -0.626098
      40A     -0.623516    41A     -0.607132    42A     -0.602773
      43A     -0.581758    44A     -0.577164    45A     -0.571025
      46A     -0.562793    47A     -0.547252    48A     -0.524408
      49A     -0.516201    50A     -0.501510    51A     -0.494120
      52A     -0.486731    53A     -0.468758    54A     -0.461401
      55A     -0.457115    56A     -0.448727    57A     -0.435393
      58A     -0.427657    59A     -0.421771    60A     -0.407215
      61A     -0.383108    62A     -0.371969    63A     -0.369675

  @DF-RHF Final Energy:  -743.13239263007358

   => Energetics <=

    Nuclear Repulsion Energy =           1239.7879313988776175
    One-Electron Energy =               -3476.7715873569641190
    Two-Electron Energy =                1493.8512633280126920
    Total Energy =                       -743.1323926300735820

  Dipole Moment: [D]
     X:     2.1524      Y:    -7.8362      Z:     3.8964     Total:     9.0122

  Basis Set: (JUN-CC-PVDZ AUX)
    Blend: JUN-CC-PVDZ-JKFIT

    SAPT Results
  --------------------------------------------------------------------------------------------------------
    Electrostatics               -229.73721205 [mEh]    -144.16227704 [kcal/mol]    -603.17496713 [kJ/mol]
      Elst10,r                   -229.73721205 [mEh]    -144.16227704 [kcal/mol]    -603.17496713 [kJ/mol]

    Exchange                       84.89282136 [mEh]      53.27104966 [kcal/mol]     222.88607178 [kJ/mol]
      Exch10                       84.89282136 [mEh]      53.27104966 [kcal/mol]     222.88607178 [kJ/mol]
      Exch10(S^2)                  82.78669557 [mEh]      51.94943577 [kcal/mol]     217.35643926 [kJ/mol]

    Induction                     -47.28453229 [mEh]     -29.67149198 [kcal/mol]    -124.14552243 [kJ/mol]
      Ind20,r                     -60.17709121 [mEh]     -37.76169484 [kcal/mol]    -157.99493120 [kJ/mol]
      Exch-Ind20,r                 29.90881787 [mEh]      18.76806656 [kcal/mol]      78.52559049 [kJ/mol]
      delta HF,r (2)              -17.01625895 [mEh]     -10.67786370 [kcal/mol]     -44.67618172 [kJ/mol]
      Induction (A<-B)            -25.73633597 [mEh]     -16.14979464 [kcal/mol]     -67.57074077 [kJ/mol]
      Induction (B<-A)            -21.54819632 [mEh]     -13.52169734 [kcal/mol]     -56.57478166 [kJ/mol]

    Dispersion                    -12.38025499 [mEh]      -7.76872730 [kcal/mol]     -32.50435501 [kJ/mol]
      Disp20                      -17.28013052 [mEh]     -10.84344561 [kcal/mol]     -45.36897643 [kJ/mol]
      Exch-Disp20                   4.89987553 [mEh]       3.07471831 [kcal/mol]      12.86462142 [kJ/mol]

  Total HF                       -192.12892298 [mEh]    -120.56271936 [kcal/mol]    -504.43441778 [kJ/mol]
  Total SAPT0                    -204.50917797 [mEh]    -128.33144665 [kcal/mol]    -536.93877279 [kJ/mol]

  --------------------------------------------------------------------------------------------------------

*** Psi4 exiting successfully. Buy a developer a beer!
