                         Program Version 5.0.0 -  RELEASE  -
|  1> !CAM-B3LYP RIJCOSX def2-TZVP def2/J TightSCF
|  2> *xyz -1 1
|  3> C         -2.79070       -0.78527        5.70281
|  4> C         -2.45380        0.05510        6.94145
|  5> C         -2.07842        1.48042        6.56410
|  6> H         -1.62558       -0.38216        7.49891
|  7> H         -3.32527        0.08775        7.59917
|  8> O         -0.90125        1.85816        6.82810
|  9> O         -2.93658        2.17731        5.96415
| 10> H         -1.94052       -0.82114        5.05412
| 11> H         -3.61590       -0.34261        5.18514
| 12> H         -3.05063       -1.77815        6.00536
| 13> *
| 14> %MaxCore 64000
| 15>
| 16> %pal nprocs 4
| 17> end
| 18>
| 19> %scf
| 20>   MaxIter 150
| 21> end
| 22>
| 23>
| 24>                          ****END OF INPUT****

CARTESIAN COORDINATES (ANGSTROEM)
---------------------------------
  C     -2.790700   -0.785270    5.702810
  C     -2.453800    0.055100    6.941450
  C     -2.078420    1.480420    6.564100
  H     -1.625580   -0.382160    7.498910
  H     -3.325270    0.087750    7.599170
  O     -0.901250    1.858160    6.828100
  O     -2.936580    2.177310    5.964150
  H     -1.940520   -0.821140    5.054120
  H     -3.615900   -0.342610    5.185140
  H     -3.050630   -1.778150    6.005360

 Total Charge           Charge          ....   -1
 Multiplicity           Mult            ....    1
 Number of Electrons    NEL             ....   40
 Basis Dimension        Dim             ....  185

ORBITAL ENERGIES
----------------

  NO   OCC          E(Eh)            E(eV)
   0   2.0000     -18.921760      -514.8873
   1   2.0000     -18.920215      -514.8452
   2   2.0000     -10.120201      -275.3847
   3   2.0000     -10.077991      -274.2361
   4   2.0000     -10.065285      -273.8903
   5   2.0000      -0.890795       -24.2398
   6   2.0000      -0.795535       -21.6476
   7   2.0000      -0.686172       -18.6717
   8   2.0000      -0.551032       -14.9943
   9   2.0000      -0.390471       -10.6253
  10   2.0000      -0.361069        -9.8252
  11   2.0000      -0.325580        -8.8595
  12   2.0000      -0.294436        -8.0120
  13   2.0000      -0.278150        -7.5688
  14   2.0000      -0.270948        -7.3729
  15   2.0000      -0.238379        -6.4866
  16   2.0000      -0.222035        -6.0419
  17   2.0000      -0.102071        -2.7775
  18   2.0000      -0.099655        -2.7117
  19   2.0000      -0.084856        -2.3091
  20   0.0000       0.219752         5.9798
  21   0.0000       0.260919         7.1000
  22   0.0000       0.283781         7.7221
  23   0.0000       0.286580         7.7982
  24   0.0000       0.304181         8.2772

MULLIKEN ATOMIC CHARGES
-----------------------
   0 C :   -0.336148
   1 C :   -0.121912
   2 C :    0.187106
   3 H :    0.043377
   4 H :    0.034678
   5 O :   -0.529567
   6 O :   -0.526934
   7 H :    0.091782
   8 H :    0.100498
   9 H :    0.057120
Sum of atomic charges:   -1.0000000

LOEWDIN ATOMIC CHARGES
----------------------
   0 C :   -0.322153
   1 C :   -0.287406
   2 C :   -0.691725
   3 H :    0.118485
   4 H :    0.119565
   5 O :   -0.130116
   6 O :   -0.120734
   7 H :    0.109086
   8 H :    0.111927
   9 H :    0.093070

  Mayer bond orders larger than 0.100000
B(  0-C ,  1-C ) :   0.9424 B(  0-C ,  7-H ) :   0.9860 B(  0-C ,  8-H ) :   0.9741
B(  0-C ,  9-H ) :   0.9767 B(  1-C ,  2-C ) :   0.9298 B(  1-C ,  3-H ) :   0.9611
B(  1-C ,  4-H ) :   0.9595 B(  2-C ,  5-O ) :   1.8943 B(  2-C ,  6-O ) :   1.8632

FINAL SINGLE POINT ENERGY      -267.830044590819

DIPOLE MOMENT
-------------
                                X             Y             Z
Electronic contribution:      1.64810       5.57865       0.67399
Nuclear contribution   :     -2.24498      -7.51881      -0.57245
                        -----------------------------------------
Total Dipole Moment    :     -0.59688      -1.94016       0.10153
                        -----------------------------------------
Magnitude (a.u.)       :      2.03244
Magnitude (Debye)      :      5.16605

Rotational constants in cm-1:     0.305589     0.135336     0.107479
Rotational constants in MHz :  9161.317320  4057.276612  3222.126231

                             ****ORCA TERMINATED NORMALLY****
TOTAL RUN TIME: 0 days 0 hours 0 minutes 25 seconds 641 msec
