                         Program Version 5.0.0 -  RELEASE  -
|  1> !CAM-B3LYP RIJCOSX def2-TZVP def2/J TightSCF
|  2> *xyz 1 1
|  3> C         -0.69912        3.48945        3.75516
|  4> H         -0.96672        4.34901        3.14049
|  5> N         -1.08067        3.79296        5.15686
|  6> C          0.77696        3.13839        3.61741
|  7> H         -1.33146        2.65651        3.44632
|  8> H         -0.87449        4.76274        5.42734
|  9> H         -0.68079        3.13476        5.83900
| 10> H         -2.05755        3.53169        5.34620
| 11> H          0.99957        2.92898        2.59199
| 12> H          0.99576        2.27685        4.21303
| 13> H          1.37223        3.96279        3.95046
| 14> *
| 15> %MaxCore 64000
| 16>
| 17> %pal nprocs 4
| 18> end
| 19>
| 20> %scf
| 21>   MaxIter 150
| 22> end
| 23>
| 24>
| 25>                          ****END OF INPUT****

CARTESIAN COORDINATES (ANGSTROEM)
---------------------------------
  C     -0.699120    3.489450    3.755160
  H     -0.966720    4.349010    3.140490
  N     -1.080670    3.792960    5.156860
  C      0.776960    3.138390    3.617410
  H     -1.331460    2.656510    3.446320
  H     -0.874490    4.762740    5.427340
  H     -0.680790    3.134760    5.839000
  H     -2.057550    3.531690    5.346200
  H      0.999570    2.928980    2.591990
  H      0.995760    2.276850    4.213030
  H      1.372230    3.962790    3.950460

 Total Charge           Charge          ....    1
 Multiplicity           Mult            ....    1
 Number of Electrons    NEL             ....   26
 Basis Dimension        Dim             ....  141

ORBITAL ENERGIES
----------------

  NO   OCC          E(Eh)            E(eV)
   0   2.0000     -14.725204      -400.6932
   1   2.0000     -10.498058      -285.6667
   2   2.0000     -10.416094      -283.4363
   3   2.0000      -1.301842       -35.4249
   4   2.0000      -1.048953       -28.5435
   5   2.0000      -0.924162       -25.1477
   6   2.0000      -0.888347       -24.1731
   7   2.0000      -0.839290       -22.8382
   8   2.0000      -0.769124       -20.9289
   9   2.0000      -0.713432       -19.4135
  10   2.0000      -0.648616       -17.6497
  11   2.0000      -0.634130       -17.2555
  12   2.0000      -0.616552       -16.7772
  13   0.0000      -0.159795        -4.3482
  14   0.0000      -0.096678        -2.6307
  15   0.0000      -0.093438        -2.5426
  16   0.0000      -0.073744        -2.0067
  17   0.0000      -0.036095        -0.9822

MULLIKEN ATOMIC CHARGES
-----------------------
   0 C :   -0.196001
   1 H :    0.195671
   2 N :   -0.290278
   3 C :   -0.352927
   4 H :    0.183501
   5 H :    0.335834
   6 H :    0.317438
   7 H :    0.326542
   8 H :    0.180701
   9 H :    0.149495
  10 H :    0.150024
Sum of atomic charges:    1.0000000

LOEWDIN ATOMIC CHARGES
----------------------
   0 C :   -0.277214
   1 H :    0.154038
   2 N :    0.166137
   3 C :   -0.276438
   4 H :    0.152150
   5 H :    0.224847
   6 H :    0.222951
   7 H :    0.226006
   8 H :    0.147267
   9 H :    0.129491
  10 H :    0.130766

  Mayer bond orders larger than 0.100000
B(  0-C ,  1-H ) :   0.9592 B(  0-C ,  2-N ) :   0.8387 B(  0-C ,  3-C ) :   0.9705
B(  0-C ,  4-H ) :   0.9570 B(  2-N ,  5-H ) :   0.8731 B(  2-N ,  6-H ) :   0.8807
B(  2-N ,  7-H ) :   0.8841 B(  3-C ,  8-H ) :   0.9619 B(  3-C ,  9-H ) :   0.9607
B(  3-C , 10-H ) :   0.9602

FINAL SINGLE POINT ENERGY      -135.502080843994

DIPOLE MOMENT
-------------
                                X             Y             Z
Electronic contribution:     -1.34115       0.57395       1.10892
Nuclear contribution   :      0.33986      -0.24565       0.10678
                        -----------------------------------------
Total Dipole Moment    :     -1.00130       0.32830       1.21570
                        -----------------------------------------
Magnitude (a.u.)       :      1.60882
Magnitude (Debye)      :      4.08929

Rotational constants in cm-1:     1.016237     0.277523     0.247812
Rotational constants in MHz : 30466.024354  8319.937961  7429.230177

                             ****ORCA TERMINATED NORMALLY****
TOTAL RUN TIME: 0 days 0 hours 0 minutes 17 seconds 765 msec
