                         Program Version 5.0.0 -  RELEASE  -
|  1> !CAM-B3LYP RIJCOSX def2-TZVP def2/J TightSCF xyzfile
|  2>
|  3> *xyzfile 0 1 B.xyz
|  4>
|  5> %MaxCore 64000
|  6>
|  7> %pal nprocs 18
|  8> end
|  9>
| 10> %scf
| 11>   MaxIter 150
| 12> end
| 13>
| 14>
| 15>                          ****END OF INPUT****

CARTESIAN COORDINATES (ANGSTROEM)
---------------------------------
  C     -0.699123    3.489451    3.755163
  H     -0.966716    4.349013    3.140491
  N     -1.080669    3.792957    5.156857
  C      0.776956    3.138391    3.617408
  H     -1.331455    2.656510    3.446323
  H      1.371398    3.888342    4.149744
  H      1.046926    3.232057    2.561331
  C      1.118917    1.731170    4.115155
  H      2.200573    1.654226    4.254882
  C      0.659466    0.635182    3.153306
  H      0.677024    1.576674    5.103150
  H      1.312288    0.638870    2.274207
  H     -0.339563    0.868049    2.772876
  C      0.639957   -0.771175    3.755619
  C     -0.341821   -0.965537    4.915046
  H      1.648266   -1.028665    4.097015
  H      0.398568   -1.482386    2.958453
  H     -0.279892   -2.005646    5.252547
  C     -1.789164   -0.639231    4.557496
  H     -0.032380   -0.352918    5.765118
  H     -2.107151   -1.270102    3.719619
  H     -1.856352    0.391636    4.197604
  C     -2.790700   -0.785275    5.702812
  H     -2.867308   -1.835651    6.001675
  H     -3.774554   -0.486577    5.334807
  C     -2.453797    0.055101    6.941445
  C     -2.078419    1.480421    6.564098
  H     -1.625584   -0.382163    7.498914
  H     -3.325274    0.087746    7.599175
  H     -0.874488    4.762737    5.427344
  H     -0.680793    3.134762    5.839000
  H     -2.057550    3.531691    5.346197
  O     -0.901252    1.858156    6.828104
  O     -2.936582    2.177309    5.964151

 Total Charge           Charge          ....    0
 Multiplicity           Mult            ....    1
 Number of Electrons    NEL             ....  104
 Basis Dimension        Dim             ....  529

ORBITAL ENERGIES
----------------

  NO   OCC          E(Eh)            E(eV)
   0   2.0000     -19.131718      -520.6005
   1   2.0000     -19.129994      -520.5536
   2   2.0000     -14.469412      -393.7327
   3   2.0000     -10.319511      -280.8082
   4   2.0000     -10.313401      -280.6419
   5   2.0000     -10.265857      -279.3482
   6   2.0000     -10.240727      -278.6644
   7   2.0000     -10.237592      -278.5790
   8   2.0000     -10.231096      -278.4023
   9   2.0000     -10.221981      -278.1542
  10   2.0000     -10.221599      -278.1439
  11   2.0000     -10.220296      -278.1084
  12   2.0000     -10.214564      -277.9524
  13   2.0000      -1.110966       -30.2309
  14   2.0000      -1.065312       -28.9886
  15   2.0000      -1.009153       -27.4604
  16   2.0000      -0.906387       -24.6640
  17   2.0000      -0.877475       -23.8773
  18   2.0000      -0.848489       -23.0886
  19   2.0000      -0.800687       -21.7878
  20   2.0000      -0.767787       -20.8926
  21   2.0000      -0.727961       -19.8088
  22   2.0000      -0.688571       -18.7370
  23   2.0000      -0.669936       -18.2299
  24   2.0000      -0.652026       -17.7425
  25   2.0000      -0.625456       -17.0195
  26   2.0000      -0.618275       -16.8241
  27   2.0000      -0.572095       -15.5675
  28   2.0000      -0.555696       -15.1213
  29   2.0000      -0.545032       -14.8311
  30   2.0000      -0.543429       -14.7875
  31   2.0000      -0.517308       -14.0767
  32   2.0000      -0.513078       -13.9616
  33   2.0000      -0.501390       -13.6435
  34   2.0000      -0.490128       -13.3371
  35   2.0000      -0.477019       -12.9804
  36   2.0000      -0.467992       -12.7347
  37   2.0000      -0.467724       -12.7274
  38   2.0000      -0.453438       -12.3387
  39   2.0000      -0.445644       -12.1266
  40   2.0000      -0.428526       -11.6608
  41   2.0000      -0.422799       -11.5049
  42   2.0000      -0.415930       -11.3180
  43   2.0000      -0.400511       -10.8985
  44   2.0000      -0.389868       -10.6088
  45   2.0000      -0.385027       -10.4771
  46   2.0000      -0.370608       -10.0848
  47   2.0000      -0.365133        -9.9358
  48   2.0000      -0.359095        -9.7715
  49   2.0000      -0.312187        -8.4950
  50   2.0000      -0.299578        -8.1519
  51   2.0000      -0.299192        -8.1414
  52   0.0000       0.038133         1.0376
  53   0.0000       0.074129         2.0171
  54   0.0000       0.082829         2.2539
  55   0.0000       0.086849         2.3633
  56   0.0000       0.095588         2.6011

MULLIKEN ATOMIC CHARGES
-----------------------
   0 C :   -0.204405
   1 H :    0.143321
   2 N :   -0.262741
   3 C :   -0.179741
   4 H :    0.159117
   5 H :    0.112815
   6 H :    0.114565
   7 C :   -0.258147
   8 H :    0.107716
   9 C :   -0.241095
  10 H :    0.164963
  11 H :    0.107331
  12 H :    0.106900
  13 C :   -0.158382
  14 C :   -0.265832
  15 H :    0.099698
  16 H :    0.100904
  17 H :    0.098238
  18 C :   -0.209577
  19 H :    0.155182
  20 H :    0.095904
  21 H :    0.092291
  22 C :   -0.173595
  23 H :    0.093860
  24 H :    0.104017
  25 C :   -0.190706
  26 C :    0.293588
  27 H :    0.110575
  28 H :    0.106276
  29 H :    0.253620
  30 H :    0.282326
  31 H :    0.291541
  32 O :   -0.528578
  33 O :   -0.521948
Sum of atomic charges:    0.0000000

LOEWDIN ATOMIC CHARGES
----------------------
   0 C :   -0.273231
   1 H :    0.133564
   2 N :    0.133979
   3 C :   -0.270248
   4 H :    0.142114
   5 H :    0.136821
   6 H :    0.144645
   7 C :   -0.264279
   8 H :    0.137442
   9 C :   -0.270484
  10 H :    0.145801
  11 H :    0.133919
  12 H :    0.131082
  13 C :   -0.266369
  14 C :   -0.267394
  15 H :    0.135432
  16 H :    0.135080
  17 H :    0.134710
  18 C :   -0.269172
  19 H :    0.141784
  20 H :    0.133496
  21 H :    0.132500
  22 C :   -0.261550
  23 H :    0.132417
  24 H :    0.139494
  25 C :   -0.237169
  26 C :   -0.618105
  27 H :    0.138035
  28 H :    0.142940
  29 H :    0.186096
  30 H :    0.165154
  31 H :    0.178673
  32 O :   -0.072293
  33 O :   -0.064884

  Mayer bond orders larger than 0.100000
B(  0-C ,  1-H ) :   0.9829 B(  0-C ,  2-N ) :   0.8944 B(  0-C ,  3-C ) :   0.9424
B(  0-C ,  4-H ) :   0.9745 B(  2-N , 29-H ) :   0.9051 B(  2-N , 30-H ) :   0.7633
B(  2-N , 31-H ) :   0.7882 B(  3-C ,  5-H ) :   0.9780 B(  3-C ,  6-H ) :   0.9703
B(  3-C ,  7-C ) :   0.9447 B(  7-C ,  8-H ) :   0.9728 B(  7-C ,  9-C ) :   0.9012
B(  7-C , 10-H ) :   0.9855 B(  9-C , 11-H ) :   0.9731 B(  9-C , 12-H ) :   0.9933
B(  9-C , 13-C ) :   0.9496 B( 13-C , 14-C ) :   0.9549 B( 13-C , 15-H ) :   0.9843
B( 13-C , 16-H ) :   0.9828 B( 14-C , 17-H ) :   0.9760 B( 14-C , 18-C ) :   0.9029
B( 14-C , 19-H ) :   0.9837 B( 18-C , 20-H ) :   0.9759 B( 18-C , 21-H ) :   0.9853
B( 18-C , 22-C ) :   0.9742 B( 22-C , 23-H ) :   0.9774 B( 22-C , 24-H ) :   0.9715
B( 22-C , 25-C ) :   0.9428 B( 25-C , 26-C ) :   0.9388 B( 25-C , 27-H ) :   0.9861
B( 25-C , 28-H ) :   0.9599 B( 26-C , 32-O ) :   1.6425 B( 26-C , 33-O ) :   1.7007
B( 30-H , 32-O ) :   0.2226 B( 31-H , 33-O ) :   0.1797

FINAL SINGLE POINT ENERGY      -598.859382178763

DIPOLE MOMENT
-------------
                                X             Y             Z
Electronic contribution:     -4.66731       4.85996       6.69855
Nuclear contribution   :      5.60885      -3.40606      -8.06960
                        -----------------------------------------
Total Dipole Moment    :      0.94153       1.45390      -1.37105
                        -----------------------------------------
Magnitude (a.u.)       :      2.20909
Magnitude (Debye)      :      5.61507

Rotational constants in cm-1:     0.028465     0.023505     0.015110
Rotational constants in MHz :   853.363165   704.655786   452.976312

                             ****ORCA TERMINATED NORMALLY****
TOTAL RUN TIME: 0 days 0 hours 1 minutes 42 seconds 729 msec
