                         Program Version 5.0.0 -  RELEASE  -
|  1> !CAM-B3LYP RIJCOSX def2-TZVP def2/J TightSCF
|  2> *xyz 0 1
|  3> C         -2.79070       -0.78527        5.70281
|  4> C         -2.45380        0.05510        6.94145
|  5> C         -2.07842        1.48042        6.56410
|  6> H         -1.62558       -0.38216        7.49891
|  7> H         -3.32527        0.08775        7.59917
|  8> F         -0.90125        1.85816        6.82810
|  9> O         -2.93658        2.17731        5.96415
| 10> H         -1.94052       -0.82114        5.05412
| 11> H         -3.61590       -0.34261        5.18514
| 12> H         -3.05063       -1.77815        6.00536
| 13> *
| 14> %MaxCore 64000
| 15>
| 16> %pal nprocs 4
| 17> end
| 18>
| 19> %scf
| 20>   MaxIter 150
| 21> end
| 22>
| 23>
| 24>                          ****END OF INPUT****

CARTESIAN COORDINATES (ANGSTROEM)
---------------------------------
  C     -2.790700   -0.785270    5.702810
  C     -2.453800    0.055100    6.941450
  C     -2.078420    1.480420    6.564100
  H     -1.625580   -0.382160    7.498910
  H     -3.325270    0.087750    7.599170
  F     -0.901250    1.858160    6.828100
  O     -2.936580    2.177310    5.964150
  H     -1.940520   -0.821140    5.054120
  H     -3.615900   -0.342610    5.185140
  H     -3.050630   -1.778150    6.005360

 Total Charge           Charge          ....    0
 Multiplicity           Mult            ....    1
 Number of Electrons    NEL             ....   40
 Basis Dimension        Dim             ....  185

ORBITAL ENERGIES
----------------

  NO   OCC          E(Eh)            E(eV)
   0   2.0000     -24.824386      -675.5059
   1   2.0000     -19.205469      -522.6074
   2   2.0000     -10.426454      -283.7182
   3   2.0000     -10.277388      -279.6619
   4   2.0000     -10.249627      -278.9065
   5   2.0000      -1.396601       -38.0035
   6   2.0000      -1.115024       -30.3414
   7   2.0000      -0.886966       -24.1356
   8   2.0000      -0.769912       -20.9504
   9   2.0000      -0.715135       -19.4598
  10   2.0000      -0.622371       -16.9356
  11   2.0000      -0.608067       -16.5464
  12   2.0000      -0.583280       -15.8719
  13   2.0000      -0.537750       -14.6329
  14   2.0000      -0.506288       -13.7768
  15   2.0000      -0.468821       -12.7573
  16   2.0000      -0.449094       -12.2205
  17   2.0000      -0.443003       -12.0547
  18   2.0000      -0.413532       -11.2528
  19   2.0000      -0.362998        -9.8777
  20   0.0000       0.018122         0.4931
  21   0.0000       0.071238         1.9385
  22   0.0000       0.109156         2.9703
  23   0.0000       0.125133         3.4050
  24   0.0000       0.136408         3.7119

MULLIKEN ATOMIC CHARGES
-----------------------
   0 C :   -0.357462
   1 C :   -0.203259
   2 C :    0.364305
   3 H :    0.113241
   4 H :    0.130484
   5 F :   -0.106606
   6 O :   -0.328213
   7 H :    0.120180
   8 H :    0.143139
   9 H :    0.124192
Sum of atomic charges:    0.0000000

LOEWDIN ATOMIC CHARGES
----------------------
   0 C :   -0.284930
   1 C :   -0.256868
   2 C :   -0.486835
   3 H :    0.139159
   4 H :    0.154566
   5 F :    0.310088
   6 O :    0.059210
   7 H :    0.120072
   8 H :    0.126018
   9 H :    0.119519

  Mayer bond orders larger than 0.100000
B(  0-C ,  1-C ) :   0.9490 B(  0-C ,  7-H ) :   0.9756 B(  0-C ,  8-H ) :   0.9707
B(  0-C ,  9-H ) :   0.9749 B(  1-C ,  2-C ) :   0.9725 B(  1-C ,  3-H ) :   0.9642
B(  1-C ,  4-H ) :   0.9499 B(  2-C ,  5-F ) :   1.1605 B(  2-C ,  6-O ) :   2.0640

FINAL SINGLE POINT ENERGY      -292.403703787667

DIPOLE MOMENT
-------------
                                X             Y             Z
Electronic contribution:      3.96933       7.41165       1.49786
Nuclear contribution   :     -3.69486      -8.49563      -1.04945
                        -----------------------------------------
Total Dipole Moment    :      0.27448      -1.08398       0.44840
                        -----------------------------------------
Magnitude (a.u.)       :      1.20475
Magnitude (Debye)      :      3.06223

Rotational constants in cm-1:     0.293725     0.129218     0.102393
Rotational constants in MHz :  8805.653529  3873.869810  3069.666716

                             ****ORCA TERMINATED NORMALLY****
TOTAL RUN TIME: 0 days 0 hours 0 minutes 28 seconds 371 msec
