                         Program Version 5.0.0 -  RELEASE  -
|  1> !CAM-B3LYP RIJCOSX def2-TZVP def2/J TightSCF
|  2> *xyz 0 1
|  3> C         -0.69912        3.48945        3.75516
|  4> H         -0.96672        4.34901        3.14049
|  5> C         -1.08067        3.79296        5.15686
|  6> C          0.77696        3.13839        3.61741
|  7> H         -1.33146        2.65651        3.44632
|  8> H         -0.87449        4.76274        5.42734
|  9> H         -0.68079        3.13476        5.83900
| 10> H         -2.05755        3.53169        5.34620
| 11> H          0.99957        2.92898        2.59199
| 12> H          0.99576        2.27685        4.21303
| 13> H          1.37223        3.96279        3.95046
| 14> *
| 15> %MaxCore 64000
| 16>
| 17> %pal nprocs 4
| 18> end
| 19>
| 20> %scf
| 21>   MaxIter 150
| 22> end
| 23>
| 24>
| 25>                          ****END OF INPUT****

CARTESIAN COORDINATES (ANGSTROEM)
---------------------------------
  C     -0.699120    3.489450    3.755160
  H     -0.966720    4.349010    3.140490
  C     -1.080670    3.792960    5.156860
  C      0.776960    3.138390    3.617410
  H     -1.331460    2.656510    3.446320
  H     -0.874490    4.762740    5.427340
  H     -0.680790    3.134760    5.839000
  H     -2.057550    3.531690    5.346200
  H      0.999570    2.928980    2.591990
  H      0.995760    2.276850    4.213030
  H      1.372230    3.962790    3.950460

 Total Charge           Charge          ....    0
 Multiplicity           Mult            ....    1
 Number of Electrons    NEL             ....   26
 Basis Dimension        Dim             ....  141

ORBITAL ENERGIES
----------------

  NO   OCC          E(Eh)            E(eV)
   0   2.0000     -10.228876      -278.3419
   1   2.0000     -10.219289      -278.0810
   2   2.0000     -10.201153      -277.5875
   3   2.0000      -0.874349       -23.7922
   4   2.0000      -0.772177       -21.0120
   5   2.0000      -0.665222       -18.1016
   6   2.0000      -0.543616       -14.7925
   7   2.0000      -0.509204       -13.8561
   8   2.0000      -0.467787       -12.7291
   9   2.0000      -0.463314       -12.6074
  10   2.0000      -0.404829       -11.0160
  11   2.0000      -0.393280       -10.7017
  12   2.0000      -0.389327       -10.5941
  13   0.0000       0.076927         2.0933
  14   0.0000       0.119389         3.2487
  15   0.0000       0.125341         3.4107
  16   0.0000       0.131027         3.5654
  17   0.0000       0.154923         4.2157

MULLIKEN ATOMIC CHARGES
-----------------------
   0 C :   -0.150324
   1 H :    0.088716
   2 C :   -0.351641
   3 C :   -0.329619
   4 H :    0.087024
   5 H :    0.111549
   6 H :    0.107531
   7 H :    0.115211
   8 H :    0.110161
   9 H :    0.106966
  10 H :    0.104426
Sum of atomic charges:    0.0000000

LOEWDIN ATOMIC CHARGES
----------------------
   0 C :   -0.320244
   1 H :    0.131014
   2 C :   -0.311621
   3 C :   -0.305591
   4 H :    0.131943
   5 H :    0.107342
   6 H :    0.111544
   7 H :    0.112268
   8 H :    0.113751
   9 H :    0.114405
  10 H :    0.115189

  Mayer bond orders larger than 0.100000
B(  0-C ,  1-H ) :   0.9796 B(  0-C ,  2-C ) :   0.9424 B(  0-C ,  3-C ) :   0.9580
B(  0-C ,  4-H ) :   0.9836 B(  2-C ,  5-H ) :   0.9799 B(  2-C ,  6-H ) :   0.9831
B(  2-C ,  7-H ) :   0.9873 B(  3-C ,  8-H ) :   0.9836 B(  3-C ,  9-H ) :   0.9803
B(  3-C , 10-H ) :   0.9782

FINAL SINGLE POINT ENERGY      -119.090136537742

DIPOLE MOMENT
-------------
                                X             Y             Z
Electronic contribution:     -0.14540       0.11963      -0.39661
Nuclear contribution   :      0.10024      -0.14218       0.41628
                        -----------------------------------------
Total Dipole Moment    :     -0.04515      -0.02256       0.01967
                        -----------------------------------------
Magnitude (a.u.)       :      0.05417
Magnitude (Debye)      :      0.13769

Rotational constants in cm-1:     1.024179     0.291605     0.259489
Rotational constants in MHz : 30704.103454  8742.106283  7779.285909

                             ****ORCA TERMINATED NORMALLY****
TOTAL RUN TIME: 0 days 0 hours 0 minutes 16 seconds 821 msec
