                         Program Version 5.0.0 -  RELEASE  -
|  1> !CAM-B3LYP RIJCOSX def2-TZVP def2/J TightSCF
|  2> *xyz 0 1
|  3> C         -2.79070       -0.78527        5.70281
|  4> C         -2.45380        0.05510        6.94145
|  5> C         -2.07842        1.48042        6.56410
|  6> H         -1.62558       -0.38216        7.49891
|  7> H         -3.32527        0.08775        7.59917
|  8> O         -0.90125        1.85816        6.82810
|  9> F         -2.93658        2.17731        5.96415
| 10> H         -1.94052       -0.82114        5.05412
| 11> H         -3.61590       -0.34261        5.18514
| 12> H         -3.05063       -1.77815        6.00536
| 13> *
| 14> %MaxCore 64000
| 15>
| 16> %pal nprocs 4
| 17> end
| 18>
| 19> %scf
| 20>   MaxIter 150
| 21> end
| 22>
| 23>
| 24>                          ****END OF INPUT****

CARTESIAN COORDINATES (ANGSTROEM)
---------------------------------
  C     -2.790700   -0.785270    5.702810
  C     -2.453800    0.055100    6.941450
  C     -2.078420    1.480420    6.564100
  H     -1.625580   -0.382160    7.498910
  H     -3.325270    0.087750    7.599170
  O     -0.901250    1.858160    6.828100
  F     -2.936580    2.177310    5.964150
  H     -1.940520   -0.821140    5.054120
  H     -3.615900   -0.342610    5.185140
  H     -3.050630   -1.778150    6.005360

 Total Charge           Charge          ....    0
 Multiplicity           Mult            ....    1
 Number of Electrons    NEL             ....   40
 Basis Dimension        Dim             ....  185

ORBITAL ENERGIES
----------------

  NO   OCC          E(Eh)            E(eV)
   0   2.0000     -24.827627      -675.5941
   1   2.0000     -19.203680      -522.5587
   2   2.0000     -10.426175      -283.7107
   3   2.0000     -10.276951      -279.6501
   4   2.0000     -10.253689      -279.0171
   5   2.0000      -1.401951       -38.1490
   6   2.0000      -1.110051       -30.2060
   7   2.0000      -0.890104       -24.2209
   8   2.0000      -0.767666       -20.8893
   9   2.0000      -0.722047       -19.6479
  10   2.0000      -0.626822       -17.0567
  11   2.0000      -0.614915       -16.7327
  12   2.0000      -0.576656       -15.6916
  13   2.0000      -0.538259       -14.6468
  14   2.0000      -0.507033       -13.7971
  15   2.0000      -0.471596       -12.8328
  16   2.0000      -0.452782       -12.3208
  17   2.0000      -0.445703       -12.1282
  18   2.0000      -0.414864       -11.2890
  19   2.0000      -0.356714        -9.7067
  20   0.0000       0.021420         0.5829
  21   0.0000       0.067649         1.8408
  22   0.0000       0.107976         2.9382
  23   0.0000       0.127276         3.4633
  24   0.0000       0.140965         3.8359

MULLIKEN ATOMIC CHARGES
-----------------------
   0 C :   -0.362084
   1 C :   -0.200382
   2 C :    0.358113
   3 H :    0.136402
   4 H :    0.117731
   5 O :   -0.330856
   6 F :   -0.104461
   7 H :    0.131529
   8 H :    0.125601
   9 H :    0.128407
Sum of atomic charges:    0.0000000

LOEWDIN ATOMIC CHARGES
----------------------
   0 C :   -0.290920
   1 C :   -0.253526
   2 C :   -0.489973
   3 H :    0.152046
   4 H :    0.146716
   5 O :    0.049388
   6 F :    0.322208
   7 H :    0.122625
   8 H :    0.120114
   9 H :    0.121323

  Mayer bond orders larger than 0.100000
B(  0-C ,  1-C ) :   0.9371 B(  0-C ,  7-H ) :   0.9735 B(  0-C ,  8-H ) :   0.9730
B(  0-C ,  9-H ) :   0.9748 B(  1-C ,  2-C ) :   0.9906 B(  1-C ,  3-H ) :   0.9688
B(  1-C ,  4-H ) :   0.9469 B(  2-C ,  5-O ) :   2.0727 B(  2-C ,  6-F ) :   1.1551

FINAL SINGLE POINT ENERGY      -292.401293165925

DIPOLE MOMENT
-------------
                                X             Y             Z
Electronic contribution:      0.57152       7.92198       0.05989
Nuclear contribution   :     -1.47571      -8.84360      -0.10748
                        -----------------------------------------
Total Dipole Moment    :     -0.90419      -0.92162      -0.04759
                        -----------------------------------------
Magnitude (a.u.)       :      1.29198
Magnitude (Debye)      :      3.28396

Rotational constants in cm-1:     0.283081     0.133379     0.103386
Rotational constants in MHz :  8486.545774  3998.599544  3099.448040

                             ****ORCA TERMINATED NORMALLY****
TOTAL RUN TIME: 0 days 0 hours 0 minutes 28 seconds 71 msec
