                         Program Version 5.0.0 -  RELEASE  -
|  1> !CAM-B3LYP RIJCOSX def2-TZVP def2/J TightSCF xyzfile
|  2>
|  3> *xyzfile 0 1 D1.xyz
|  4>
|  5> %MaxCore 64000
|  6>
|  7> %pal nprocs 18
|  8> end
|  9>
| 10> %scf
| 11>   MaxIter 150
| 12> end
| 13>
| 14>
| 15>                          ****END OF INPUT****

CARTESIAN COORDINATES (ANGSTROEM)
---------------------------------
  C     -0.699123    3.489451    3.755163
  H     -0.966716    4.349013    3.140491
  C     -1.080669    3.792957    5.156857
  C      0.776956    3.138391    3.617408
  H     -1.331455    2.656510    3.446323
  H      1.371398    3.888342    4.149744
  H      1.046926    3.232057    2.561331
  C      1.118917    1.731170    4.115155
  H      2.200573    1.654226    4.254882
  C      0.659466    0.635182    3.153306
  H      0.677024    1.576674    5.103150
  H      1.312288    0.638870    2.274207
  H     -0.339563    0.868049    2.772876
  C      0.639957   -0.771175    3.755619
  C     -0.341821   -0.965537    4.915046
  H      1.648266   -1.028665    4.097015
  H      0.398568   -1.482386    2.958453
  H     -0.279892   -2.005646    5.252547
  C     -1.789164   -0.639231    4.557496
  H     -0.032380   -0.352918    5.765118
  H     -2.107151   -1.270102    3.719619
  H     -1.856352    0.391636    4.197604
  C     -2.790700   -0.785275    5.702812
  H     -2.867308   -1.835651    6.001675
  H     -3.774554   -0.486577    5.334807
  C     -2.453797    0.055101    6.941445
  C     -2.078419    1.480421    6.564098
  H     -1.625584   -0.382163    7.498914
  H     -3.325274    0.087746    7.599175
  H     -0.874488    4.762737    5.427344
  H     -0.680793    3.134762    5.839000
  H     -2.057550    3.531691    5.346197
  F     -0.901252    1.858156    6.828104
  O     -2.936582    2.177309    5.964151

 Total Charge           Charge          ....    0
 Multiplicity           Mult            ....    1
 Number of Electrons    NEL             ....  104
 Basis Dimension        Dim             ....  529

ORBITAL ENERGIES
----------------

  NO   OCC          E(Eh)            E(eV)
   0   2.0000     -24.835295      -675.8027
   1   2.0000     -19.212535      -522.7997
   2   2.0000     -10.437489      -284.0185
   3   2.0000     -10.278867      -279.7022
   4   2.0000     -10.260484      -279.2020
   5   2.0000     -10.245459      -278.7931
   6   2.0000     -10.242459      -278.7115
   7   2.0000     -10.237106      -278.5658
   8   2.0000     -10.229787      -278.3667
   9   2.0000     -10.226987      -278.2905
  10   2.0000     -10.219800      -278.0949
  11   2.0000     -10.209762      -277.8217
  12   2.0000     -10.155345      -276.3410
  13   2.0000      -1.414447       -38.4891
  14   2.0000      -1.129950       -30.7475
  15   2.0000      -0.916649       -24.9433
  16   2.0000      -0.891878       -24.2692
  17   2.0000      -0.860906       -23.4264
  18   2.0000      -0.831867       -22.6363
  19   2.0000      -0.789127       -21.4732
  20   2.0000      -0.764765       -20.8103
  21   2.0000      -0.736722       -20.0472
  22   2.0000      -0.704519       -19.1709
  23   2.0000      -0.685951       -18.6657
  24   2.0000      -0.643410       -17.5081
  25   2.0000      -0.638825       -17.3833
  26   2.0000      -0.630844       -17.1661
  27   2.0000      -0.612865       -16.6769
  28   2.0000      -0.593880       -16.1603
  29   2.0000      -0.552132       -15.0243
  30   2.0000      -0.548252       -14.9187
  31   2.0000      -0.531102       -14.4520
  32   2.0000      -0.528187       -14.3727
  33   2.0000      -0.506101       -13.7717
  34   2.0000      -0.498335       -13.5604
  35   2.0000      -0.483249       -13.1499
  36   2.0000      -0.476089       -12.9550
  37   2.0000      -0.467445       -12.7198
  38   2.0000      -0.456352       -12.4180
  39   2.0000      -0.447233       -12.1698
  40   2.0000      -0.434245       -11.8164
  41   2.0000      -0.426282       -11.5997
  42   2.0000      -0.417252       -11.3540
  43   2.0000      -0.410018       -11.1572
  44   2.0000      -0.403762       -10.9869
  45   2.0000      -0.392500       -10.6805
  46   2.0000      -0.387446       -10.5429
  47   2.0000      -0.376311       -10.2399
  48   2.0000      -0.372648       -10.1403
  49   2.0000      -0.361427        -9.8349
  50   2.0000      -0.358796        -9.7633
  51   2.0000      -0.330965        -9.0060
  52   0.0000       0.006389         0.1739
  53   0.0000       0.066151         1.8001
  54   0.0000       0.083331         2.2675
  55   0.0000       0.086301         2.3484
  56   0.0000       0.094828         2.5804

MULLIKEN ATOMIC CHARGES
-----------------------
   0 C :   -0.205450
   1 H :    0.091039
   2 C :   -0.404698
   3 C :   -0.131371
   4 H :    0.092931
   5 H :    0.095538
   6 H :    0.086481
   7 C :   -0.222971
   8 H :    0.100310
   9 C :   -0.249150
  10 H :    0.091205
  11 H :    0.107062
  12 H :    0.121596
  13 C :   -0.152498
  14 C :   -0.257203
  15 H :    0.101749
  16 H :    0.104365
  17 H :    0.107207
  18 C :   -0.258028
  19 H :    0.115392
  20 H :    0.112137
  21 H :    0.130271
  22 C :   -0.174642
  23 H :    0.113802
  24 H :    0.126870
  25 C :   -0.244265
  26 C :    0.389860
  27 H :    0.138267
  28 H :    0.147475
  29 H :    0.101478
  30 H :    0.103401
  31 H :    0.163788
  32 F :   -0.112194
  33 O :   -0.329755
Sum of atomic charges:   -0.0000000

LOEWDIN ATOMIC CHARGES
----------------------
   0 C :   -0.301407
   1 H :    0.131980
   2 C :   -0.332575
   3 C :   -0.265923
   4 H :    0.129096
   5 H :    0.134518
   6 H :    0.132559
   7 C :   -0.264870
   8 H :    0.133456
   9 C :   -0.269165
  10 H :    0.130342
  11 H :    0.135544
  12 H :    0.133959
  13 C :   -0.266208
  14 C :   -0.269443
  15 H :    0.136041
  16 H :    0.135957
  17 H :    0.136128
  18 C :   -0.267731
  19 H :    0.130606
  20 H :    0.140365
  21 H :    0.140000
  22 C :   -0.252708
  23 H :    0.139877
  24 H :    0.145515
  25 C :   -0.230444
  26 C :   -0.470014
  27 H :    0.143210
  28 H :    0.158100
  29 H :    0.099786
  30 H :    0.099831
  31 H :    0.111471
  32 F :    0.325468
  33 O :    0.086678

  Mayer bond orders larger than 0.100000
B(  0-C ,  1-H ) :   0.9827 B(  0-C ,  2-C ) :   0.9051 B(  0-C ,  3-C ) :   0.9344
B(  0-C ,  4-H ) :   1.0122 B(  2-C , 29-H ) :   0.9694 B(  2-C , 30-H ) :   0.9948
B(  2-C , 31-H ) :   0.9699 B(  3-C ,  5-H ) :   0.9761 B(  3-C ,  6-H ) :   0.9775
B(  3-C ,  7-C ) :   0.9612 B(  7-C ,  8-H ) :   0.9743 B(  7-C ,  9-C ) :   0.9247
B(  7-C , 10-H ) :   0.9959 B(  9-C , 11-H ) :   0.9753 B(  9-C , 12-H ) :   0.9931
B(  9-C , 13-C ) :   0.9378 B( 13-C , 14-C ) :   0.9584 B( 13-C , 15-H ) :   0.9844
B( 13-C , 16-H ) :   0.9835 B( 14-C , 17-H ) :   0.9767 B( 14-C , 18-C ) :   0.9043
B( 14-C , 19-H ) :   0.9883 B( 18-C , 20-H ) :   0.9742 B( 18-C , 21-H ) :   0.9824
B( 18-C , 22-C ) :   0.9613 B( 22-C , 23-H ) :   0.9768 B( 22-C , 24-H ) :   0.9737
B( 22-C , 25-C ) :   0.9316 B( 25-C , 26-C ) :   0.9564 B( 25-C , 27-H ) :   0.9761
B( 25-C , 28-H ) :   0.9570 B( 26-C , 32-F ) :   1.1135 B( 26-C , 33-O ) :   1.9969

FINAL SINGLE POINT ENERGY      -606.761969544287

DIPOLE MOMENT
-------------
                                X             Y             Z
Electronic contribution:     -5.47529       2.46868      10.85132
Nuclear contribution   :      5.54676      -3.70047     -10.28793
                        -----------------------------------------
Total Dipole Moment    :      0.07147      -1.23179       0.56339
                        -----------------------------------------
Magnitude (a.u.)       :      1.35640
Magnitude (Debye)      :      3.44769

Rotational constants in cm-1:     0.028503     0.023389     0.015214
Rotational constants in MHz :   854.502405   701.197575   456.108322

                             ****ORCA TERMINATED NORMALLY****
TOTAL RUN TIME: 0 days 0 hours 1 minutes 22 seconds 403 msec
