                         Program Version 5.0.0 -  RELEASE  -
|  1> !LC-BLYP RIJCOSX def2-SVPD def2/J TightSCF
|  2> *xyz -1 1
|  3> C         -0.47749        0.60819       -4.10105
|  4> C          0.18467       -0.50664       -4.91676
|  5> O         -0.15869       -1.70109       -4.65798
|  6> O          1.05594       -0.17441       -5.74037
|  7> H         -0.09903        1.55672       -4.42038
|  8> H         -0.25931        0.46828       -3.06292
|  9> H         -1.53664        0.57826       -4.25010
| 10> *
| 11>
| 12> %MaxCore 64000
| 13>
| 14> %pal nprocs 4
| 15> end
| 16>
| 17> %scf
| 18>   MaxIter 150
| 19> end
| 20>
| 21>
| 22>                          ****END OF INPUT****

CARTESIAN COORDINATES (ANGSTROEM)
---------------------------------
  C     -0.477490    0.608190   -4.101050
  C      0.184670   -0.506640   -4.916760
  O     -0.158690   -1.701090   -4.657980
  O      1.055940   -0.174410   -5.740370
  H     -0.099030    1.556720   -4.420380
  H     -0.259310    0.468280   -3.062920
  H     -1.536640    0.578260   -4.250100

 Total Charge           Charge          ....   -1
 Multiplicity           Mult            ....    1
 Number of Electrons    NEL             ....   32
 Basis Dimension        Dim             ....  110

ORBITAL ENERGIES
----------------

  NO   OCC          E(Eh)            E(eV)
   0   2.0000     -18.696404      -508.7550
   1   2.0000     -18.690862      -508.6042
   2   2.0000      -9.975414      -271.4448
   3   2.0000      -9.900184      -269.3977
   4   2.0000      -0.905218       -24.6322
   5   2.0000      -0.808386       -21.9973
   6   2.0000      -0.649144       -17.6641
   7   2.0000      -0.406659       -11.0657
   8   2.0000      -0.368861       -10.0372
   9   2.0000      -0.350710        -9.5433
  10   2.0000      -0.330191        -8.9850
  11   2.0000      -0.287100        -7.8124
  12   2.0000      -0.273513        -7.4427
  13   2.0000      -0.148088        -4.0297
  14   2.0000      -0.143049        -3.8926
  15   2.0000      -0.126607        -3.4452
  16   0.0000       0.221077         6.0158
  17   0.0000       0.257246         7.0000
  18   0.0000       0.281116         7.6496
  19   0.0000       0.291727         7.9383
  20   0.0000       0.316713         8.6182

MULLIKEN ATOMIC CHARGES
-----------------------
   0 C :    0.706849
   1 C :   -0.205061
   2 O :   -0.575109
   3 O :   -0.503348
   4 H :   -0.148909
   5 H :   -0.138320
   6 H :   -0.136102
Sum of atomic charges:   -1.0000000

LOEWDIN ATOMIC CHARGES
----------------------
   0 C :    0.132065
   1 C :   -0.375590
   2 O :   -0.337350
   3 O :   -0.313971
   4 H :   -0.039727
   5 H :   -0.031858
   6 H :   -0.033570

  Mayer bond orders larger than 0.100000
B(  0-C ,  1-C ) :   1.1865 B(  0-C ,  4-H ) :   0.8176 B(  0-C ,  5-H ) :   0.7761
B(  0-C ,  6-H ) :   0.7668 B(  1-C ,  2-O ) :   1.6094 B(  1-C ,  3-O ) :   1.6456
B(  1-C ,  4-H ) :   0.2854 B(  1-C ,  5-H ) :   0.1871 B(  1-C ,  6-H ) :   0.1956

FINAL SINGLE POINT ENERGY      -227.894787914757

DIPOLE MOMENT
-------------
                                X             Y             Z
Electronic contribution:      1.57321      -2.53448      -1.90603
Nuclear contribution   :     -2.19461       3.67480       2.63888
                        -----------------------------------------
Total Dipole Moment    :     -0.62140       1.14032       0.73285
                        -----------------------------------------
Magnitude (a.u.)       :      1.49116
Magnitude (Debye)      :      3.79022

Rotational constants in cm-1:     0.393152     0.332423     0.186264
Rotational constants in MHz : 11786.395082  9965.786704  5584.045355

                             ****ORCA TERMINATED NORMALLY****
TOTAL RUN TIME: 0 days 0 hours 0 minutes 8 seconds 389 msec
