                         Program Version 5.0.0 -  RELEASE  -
|  1> !LC-BLYP RIJCOSX def2-SVPD def2/J TightSCF
|  2> *xyz 1 1
|  3> C          2.48645       -2.67712       -2.56345
|  4> C          3.03764       -2.36672       -3.92351
|  5> N          2.28036       -2.45441       -4.96769
|  6> N          4.32174       -2.01793       -4.01664
|  7> H          4.87994       -1.91167       -3.17382
|  8> H          4.71015       -1.67088       -4.88356
|  9> H          1.27042       -2.41265       -4.86614
| 10> H          2.58183       -2.05528       -5.84688
| 11> H          1.45238       -2.93848       -2.64882
| 12> H          2.58636       -1.81799       -1.93352
| 13> H          3.02742       -3.49632       -2.13781
| 14> *
| 15>
| 16> %MaxCore 64000
| 17>
| 18> %pal nprocs 4
| 19> end
| 20>
| 21> %scf
| 22>   MaxIter 150
| 23> end
| 24>
| 25>
| 26>                          ****END OF INPUT****

CARTESIAN COORDINATES (ANGSTROEM)
---------------------------------
  C      2.486450   -2.677120   -2.563450
  C      3.037640   -2.366720   -3.923510
  N      2.280360   -2.454410   -4.967690
  N      4.321740   -2.017930   -4.016640
  H      4.879940   -1.911670   -3.173820
  H      4.710150   -1.670880   -4.883560
  H      1.270420   -2.412650   -4.866140
  H      2.581830   -2.055280   -5.846880
  H      1.452380   -2.938480   -2.648820
  H      2.586360   -1.817990   -1.933520
  H      3.027420   -3.496320   -2.137810

 Total Charge           Charge          ....    1
 Multiplicity           Mult            ....    1
 Number of Electrons    NEL             ....   32
 Basis Dimension        Dim             ....  136

ORBITAL ENERGIES
----------------

  NO   OCC          E(Eh)            E(eV)
   0   2.0000     -14.444825      -393.0637
   1   2.0000     -14.438981      -392.9047
   2   2.0000     -10.423938      -283.6498
   3   2.0000     -10.284769      -279.8628
   4   2.0000      -1.309213       -35.6255
   5   2.0000      -1.210606       -32.9423
   6   2.0000      -1.060538       -28.8587
   7   2.0000      -0.951950       -25.9039
   8   2.0000      -0.888887       -24.1878
   9   2.0000      -0.873208       -23.7612
  10   2.0000      -0.808899       -22.0113
  11   2.0000      -0.774769       -21.0825
  12   2.0000      -0.718721       -19.5574
  13   2.0000      -0.703871       -19.1533
  14   2.0000      -0.681612       -18.5476
  15   2.0000      -0.603316       -16.4171
  16   0.0000      -0.141647        -3.8544
  17   0.0000      -0.104681        -2.8485
  18   0.0000      -0.059995        -1.6326
  19   0.0000      -0.058153        -1.5824
  20   0.0000      -0.032827        -0.8933

MULLIKEN ATOMIC CHARGES
-----------------------
   0 C :    0.820975
   1 C :    0.016963
   2 N :    0.317663
   3 N :    0.299507
   4 H :   -0.021979
   5 H :   -0.167475
   6 H :   -0.004507
   7 H :   -0.111836
   8 H :   -0.033455
   9 H :   -0.063383
  10 H :   -0.052472
Sum of atomic charges:    1.0000000

LOEWDIN ATOMIC CHARGES
----------------------
   0 C :    0.222135
   1 C :   -0.088205
   2 N :    0.290316
   3 N :    0.289236
   4 H :    0.058125
   5 H :    0.046120
   6 H :    0.062237
   7 H :    0.054015
   8 H :    0.011871
   9 H :    0.026107
  10 H :    0.028043

  Mayer bond orders larger than 0.100000
B(  0-C ,  1-C ) :   1.3337 B(  0-C ,  8-H ) :   0.7100 B(  0-C ,  9-H ) :   0.7296
B(  0-C , 10-H ) :   0.6745 B(  1-C ,  2-N ) :   1.2309 B(  1-C ,  3-N ) :   1.2364
B(  1-C ,  5-H ) :  -0.1520 B(  1-C ,  7-H ) :  -0.1276 B(  1-C ,  8-H ) :   0.3185
B(  1-C ,  9-H ) :   0.1984 B(  1-C , 10-H ) :   0.2281 B(  2-N ,  3-N ) :   0.1403
B(  2-N ,  6-H ) :   1.0619 B(  2-N ,  7-H ) :   1.1788 B(  3-N ,  4-H ) :   1.1275
B(  3-N ,  5-H ) :   1.2333 B(  4-H ,  5-H ) :  -0.1650 B(  6-H ,  7-H ) :  -0.1322
B(  9-H , 10-H ) :   0.1048

FINAL SINGLE POINT ENERGY      -189.093672019555

DIPOLE MOMENT
-------------
                                X             Y             Z
Electronic contribution:      0.79121       0.25758      -1.97720
Nuclear contribution   :     -0.70516       0.22720       1.57908
                        -----------------------------------------
Total Dipole Moment    :      0.08606       0.48478      -0.39812
                        -----------------------------------------
Magnitude (a.u.)       :      0.63318
Magnitude (Debye)      :      1.60943

Rotational constants in cm-1:     0.330529     0.301293     0.162717
Rotational constants in MHz :  9909.000224  9032.538169  4878.126278

                             ****ORCA TERMINATED NORMALLY****
TOTAL RUN TIME: 0 days 0 hours 0 minutes 11 seconds 584 msec
