                         Program Version 5.0.0 -  RELEASE  -
|  1> !LC-BLYP RIJCOSX def2-SVPD def2/J TightSCF
|  2> *xyz 0 1
|  3> C         -0.47749        0.60819       -4.10105
|  4> C          0.18467       -0.50664       -4.91676
|  5> F         -0.15869       -1.70109       -4.65798
|  6> O          1.05594       -0.17441       -5.74037
|  7> H         -0.09903        1.55672       -4.42038
|  8> H         -0.25931        0.46828       -3.06292
|  9> H         -1.53664        0.57826       -4.25010
| 10> *
| 11>
| 12> %MaxCore 64000
| 13>
| 14> %pal nprocs 4
| 15> end
| 16>
| 17> %scf
| 18>   MaxIter 150
| 19> end
| 20>
| 21>
| 22>                          ****END OF INPUT****

CARTESIAN COORDINATES (ANGSTROEM)
---------------------------------
  C     -0.477490    0.608190   -4.101050
  C      0.184670   -0.506640   -4.916760
  F     -0.158690   -1.701090   -4.657980
  O      1.055940   -0.174410   -5.740370
  H     -0.099030    1.556720   -4.420380
  H     -0.259310    0.468280   -3.062920
  H     -1.536640    0.578260   -4.250100

 Total Charge           Charge          ....    0
 Multiplicity           Mult            ....    1
 Number of Electrons    NEL             ....   32
 Basis Dimension        Dim             ....  110

ORBITAL ENERGIES
----------------

  NO   OCC          E(Eh)            E(eV)
   0   2.0000     -24.546943      -667.9563
   1   2.0000     -18.973469      -516.2944
   2   2.0000     -10.277153      -279.6556
   3   2.0000     -10.115656      -275.2610
   4   2.0000      -1.382325       -37.6150
   5   2.0000      -1.130631       -30.7660
   6   2.0000      -0.878734       -23.9116
   7   2.0000      -0.759846       -20.6765
   8   2.0000      -0.658492       -17.9185
   9   2.0000      -0.650752       -17.7079
  10   2.0000      -0.608343       -16.5538
  11   2.0000      -0.549903       -14.9636
  12   2.0000      -0.540245       -14.7008
  13   2.0000      -0.509695       -13.8695
  14   2.0000      -0.469079       -12.7643
  15   2.0000      -0.402212       -10.9448
  16   0.0000       0.051016         1.3882
  17   0.0000       0.061928         1.6851
  18   0.0000       0.103445         2.8149
  19   0.0000       0.134842         3.6692
  20   0.0000       0.142324         3.8728

MULLIKEN ATOMIC CHARGES
-----------------------
   0 C :    0.667359
   1 C :    0.180679
   2 F :   -0.292699
   3 O :   -0.300396
   4 H :   -0.124260
   5 H :   -0.064272
   6 H :   -0.066411
Sum of atomic charges:   -0.0000000

LOEWDIN ATOMIC CHARGES
----------------------
   0 C :    0.204398
   1 C :   -0.076282
   2 F :   -0.024202
   3 O :   -0.111187
   4 H :    0.003187
   5 H :    0.003025
   6 H :    0.001061

  Mayer bond orders larger than 0.100000
B(  0-C ,  1-C ) :   1.2169 B(  0-C ,  4-H ) :   0.8366 B(  0-C ,  5-H ) :   0.7722
B(  0-C ,  6-H ) :   0.7661 B(  1-C ,  2-F ) :   0.8736 B(  1-C ,  3-O ) :   1.9876
B(  1-C ,  4-H ) :   0.2425 B(  1-C ,  5-H ) :   0.1516 B(  1-C ,  6-H ) :   0.1569

FINAL SINGLE POINT ENERGY      -252.416174212339

DIPOLE MOMENT
-------------
                                X             Y             Z
Electronic contribution:      1.07529      -4.65278      -1.60675
Nuclear contribution   :     -1.87439       4.97468       2.43802
                        -----------------------------------------
Total Dipole Moment    :     -0.79910       0.32190       0.83127
                        -----------------------------------------
Magnitude (a.u.)       :      1.19716
Magnitude (Debye)      :      3.04294

Rotational constants in cm-1:     0.370842     0.317886     0.176700
Rotational constants in MHz : 11117.569466  9529.969862  5297.328364

                             ****ORCA TERMINATED NORMALLY****
TOTAL RUN TIME: 0 days 0 hours 0 minutes 8 seconds 425 msec
