                         Program Version 5.0.0 -  RELEASE  -
|  1> !LC-BLYP RIJCOSX def2-SVPD def2/J TightSCF
|  2> *xyz 0 1
|  3> C          2.48645       -2.67712       -2.56345
|  4> C          3.03764       -2.36672       -3.92351
|  5> C          2.28036       -2.45441       -4.96769
|  6> N          4.32174       -2.01793       -4.01664
|  7> H          4.87994       -1.91167       -3.17382
|  8> H          4.71015       -1.67088       -4.88356
|  9> H          1.27042       -2.41265       -4.86614
| 10> H          2.58183       -2.05528       -5.84688
| 11> H          1.45238       -2.93848       -2.64882
| 12> H          2.58636       -1.81799       -1.93352
| 13> H          3.02742       -3.49632       -2.13781
| 14> *
| 15>
| 16> %MaxCore 64000
| 17>
| 18> %pal nprocs 4
| 19> end
| 20>
| 21> %scf
| 22>   MaxIter 150
| 23> end
| 24>
| 25>
| 26>                          ****END OF INPUT****

CARTESIAN COORDINATES (ANGSTROEM)
---------------------------------
  C      2.486450   -2.677120   -2.563450
  C      3.037640   -2.366720   -3.923510
  C      2.280360   -2.454410   -4.967690
  N      4.321740   -2.017930   -4.016640
  H      4.879940   -1.911670   -3.173820
  H      4.710150   -1.670880   -4.883560
  H      1.270420   -2.412650   -4.866140
  H      2.581830   -2.055280   -5.846880
  H      1.452380   -2.938480   -2.648820
  H      2.586360   -1.817990   -1.933520
  H      3.027420   -3.496320   -2.137810

 Total Charge           Charge          ....    0
 Multiplicity           Mult            ....    1
 Number of Electrons    NEL             ....   32
 Basis Dimension        Dim             ....  136

ORBITAL ENERGIES
----------------

  NO   OCC          E(Eh)            E(eV)
   0   2.0000     -14.189656      -386.1202
   1   2.0000     -10.111490      -275.1476
   2   2.0000     -10.075924      -274.1798
   3   2.0000     -10.017448      -272.5886
   4   2.0000      -1.019841       -27.7513
   5   2.0000      -0.862340       -23.4655
   6   2.0000      -0.796607       -21.6768
   7   2.0000      -0.675406       -18.3787
   8   2.0000      -0.627477       -17.0745
   9   2.0000      -0.580903       -15.8072
  10   2.0000      -0.540639       -14.7115
  11   2.0000      -0.497154       -13.5283
  12   2.0000      -0.495732       -13.4895
  13   2.0000      -0.447056       -12.1650
  14   2.0000      -0.437533       -11.9059
  15   2.0000      -0.294461        -8.0127
  16   0.0000       0.072861         1.9827
  17   0.0000       0.108060         2.9405
  18   0.0000       0.113344         3.0842
  19   0.0000       0.119221         3.2442
  20   0.0000       0.149338         4.0637

MULLIKEN ATOMIC CHARGES
-----------------------
   0 C :    1.028345
   1 C :   -0.574386
   2 C :    0.489274
   3 N :    0.395554
   4 H :   -0.207889
   5 H :   -0.208093
   6 H :   -0.184683
   7 H :   -0.480413
   8 H :   -0.024453
   9 H :   -0.135765
  10 H :   -0.097491
Sum of atomic charges:    0.0000000

LOEWDIN ATOMIC CHARGES
----------------------
   0 C :    0.153108
   1 C :   -0.303061
   2 C :    0.149965
   3 N :    0.178529
   4 H :   -0.000597
   5 H :    0.002346
   6 H :   -0.074688
   7 H :   -0.080848
   8 H :   -0.009296
   9 H :   -0.008272
  10 H :   -0.007185

  Mayer bond orders larger than 0.100000
B(  0-C ,  1-C ) :   1.3734 B(  0-C ,  8-H ) :   0.7398 B(  0-C ,  9-H ) :   0.5090
B(  0-C , 10-H ) :   0.6281 B(  1-C ,  2-C ) :   1.9364 B(  1-C ,  3-N ) :   1.2288
B(  1-C ,  7-H ) :   0.2570 B(  1-C ,  8-H ) :   0.2761 B(  1-C ,  9-H ) :   0.3946
B(  1-C , 10-H ) :   0.2761 B(  2-C ,  3-N ) :   0.2809 B(  2-C ,  6-H ) :   0.7954
B(  2-C ,  7-H ) :   0.5813 B(  3-N ,  4-H ) :   1.1714 B(  3-N ,  5-H ) :   1.1810
B(  4-H ,  5-H ) :  -0.1491 B(  6-H ,  7-H ) :   0.2462

FINAL SINGLE POINT ENERGY      -172.643336889721

DIPOLE MOMENT
-------------
                                X             Y             Z
Electronic contribution:      1.42894       0.18576      -0.90640
Nuclear contribution   :     -0.87498       0.20680       1.33581
                        -----------------------------------------
Total Dipole Moment    :      0.55396       0.39256       0.42941
                        -----------------------------------------
Magnitude (a.u.)       :      0.80335
Magnitude (Debye)      :      2.04195

Rotational constants in cm-1:     0.351941     0.304186     0.168624
Rotational constants in MHz : 10550.928440  9119.266441  5055.221775

                             ****ORCA TERMINATED NORMALLY****
TOTAL RUN TIME: 0 days 0 hours 0 minutes 12 seconds 232 msec
