                         Program Version 5.0.0 -  RELEASE  -
|  1> !LC-BLYP RIJCOSX def2-SVPD def2/J TightSCF
|  2> *xyz 0 1
|  3> C         -0.47749        0.60819       -4.10105
|  4> C          0.18467       -0.50664       -4.91676
|  5> O         -0.15869       -1.70109       -4.65798
|  6> F          1.05594       -0.17441       -5.74037
|  7> H         -0.09903        1.55672       -4.42038
|  8> H         -0.25931        0.46828       -3.06292
|  9> H         -1.53664        0.57826       -4.25010
| 10> *
| 11>
| 12> %MaxCore 64000
| 13>
| 14> %pal nprocs 4
| 15> end
| 16>
| 17> %scf
| 18>   MaxIter 150
| 19> end
| 20>
| 21>
| 22>                          ****END OF INPUT****

CARTESIAN COORDINATES (ANGSTROEM)
---------------------------------
  C     -0.477490    0.608190   -4.101050
  C      0.184670   -0.506640   -4.916760
  O     -0.158690   -1.701090   -4.657980
  F      1.055940   -0.174410   -5.740370
  H     -0.099030    1.556720   -4.420380
  H     -0.259310    0.468280   -3.062920
  H     -1.536640    0.578260   -4.250100

 Total Charge           Charge          ....    0
 Multiplicity           Mult            ....    1
 Number of Electrons    NEL             ....   32
 Basis Dimension        Dim             ....  110

ORBITAL ENERGIES
----------------

  NO   OCC          E(Eh)            E(eV)
   0   2.0000     -24.556008      -668.2029
   1   2.0000     -18.969270      -516.1801
   2   2.0000     -10.279430      -279.7175
   3   2.0000     -10.116094      -275.2729
   4   2.0000      -1.401098       -38.1258
   5   2.0000      -1.115194       -30.3460
   6   2.0000      -0.879796       -23.9405
   7   2.0000      -0.769651       -20.9433
   8   2.0000      -0.668249       -18.1840
   9   2.0000      -0.659249       -17.9391
  10   2.0000      -0.608818       -16.5668
  11   2.0000      -0.551643       -15.0110
  12   2.0000      -0.538804       -14.6616
  13   2.0000      -0.506250       -13.7758
  14   2.0000      -0.457665       -12.4537
  15   2.0000      -0.398820       -10.8524
  16   0.0000       0.045298         1.2326
  17   0.0000       0.061233         1.6662
  18   0.0000       0.103079         2.8049
  19   0.0000       0.137440         3.7399
  20   0.0000       0.140139         3.8134

MULLIKEN ATOMIC CHARGES
-----------------------
   0 C :    0.647132
   1 C :    0.172076
   2 O :   -0.357895
   3 F :   -0.235352
   4 H :   -0.112603
   5 H :   -0.055265
   6 H :   -0.058093
Sum of atomic charges:    0.0000000

LOEWDIN ATOMIC CHARGES
----------------------
   0 C :    0.204333
   1 C :   -0.076012
   2 O :   -0.128058
   3 F :   -0.007583
   4 H :   -0.009136
   5 H :    0.008688
   6 H :    0.007768

  Mayer bond orders larger than 0.100000
B(  0-C ,  1-C ) :   1.2427 B(  0-C ,  4-H ) :   0.8365 B(  0-C ,  5-H ) :   0.7720
B(  0-C ,  6-H ) :   0.7619 B(  1-C ,  2-O ) :   1.9300 B(  1-C ,  3-F ) :   0.9498
B(  1-C ,  4-H ) :   0.1891 B(  1-C ,  5-H ) :   0.1622 B(  1-C ,  6-H ) :   0.1729

FINAL SINGLE POINT ENERGY      -252.408671256114

DIPOLE MOMENT
-------------
                                X             Y             Z
Electronic contribution:      3.05791      -2.16345      -3.37396
Nuclear contribution   :     -3.12947       3.39716       3.55645
                        -----------------------------------------
Total Dipole Moment    :     -0.07156       1.23372       0.18249
                        -----------------------------------------
Magnitude (a.u.)       :      1.24919
Magnitude (Debye)      :      3.17519

Rotational constants in cm-1:     0.366922     0.321471     0.176896
Rotational constants in MHz : 11000.056350  9637.461211  5303.212706

                             ****ORCA TERMINATED NORMALLY****
TOTAL RUN TIME: 0 days 0 hours 0 minutes 8 seconds 420 msec
