                         Program Version 5.0.0 -  RELEASE  -
|  1> !LC-BLYP RIJCOSX def2-SVPD def2/J TightSCF
|  2> *xyz 0 1
|  3> C          2.48645       -2.67712       -2.56345
|  4> C          3.03764       -2.36672       -3.92351
|  5> N          2.28036       -2.45441       -4.96769
|  6> C          4.32174       -2.01793       -4.01664
|  7> H          4.87994       -1.91167       -3.17382
|  8> H          4.71015       -1.67088       -4.88356
|  9> H          1.27042       -2.41265       -4.86614
| 10> H          2.58183       -2.05528       -5.84688
| 11> H          1.45238       -2.93848       -2.64882
| 12> H          2.58636       -1.81799       -1.93352
| 13> H          3.02742       -3.49632       -2.13781
| 14> *
| 15>
| 16> %MaxCore 64000
| 17>
| 18> %pal nprocs 4
| 19> end
| 20>
| 21> %scf
| 22>   MaxIter 150
| 23> end
| 24>
| 25>
| 26>                          ****END OF INPUT****

CARTESIAN COORDINATES (ANGSTROEM)
---------------------------------
  C      2.486450   -2.677120   -2.563450
  C      3.037640   -2.366720   -3.923510
  N      2.280360   -2.454410   -4.967690
  C      4.321740   -2.017930   -4.016640
  H      4.879940   -1.911670   -3.173820
  H      4.710150   -1.670880   -4.883560
  H      1.270420   -2.412650   -4.866140
  H      2.581830   -2.055280   -5.846880
  H      1.452380   -2.938480   -2.648820
  H      2.586360   -1.817990   -1.933520
  H      3.027420   -3.496320   -2.137810

 Total Charge           Charge          ....    0
 Multiplicity           Mult            ....    1
 Number of Electrons    NEL             ....   32
 Basis Dimension        Dim             ....  136

ORBITAL ENERGIES
----------------

  NO   OCC          E(Eh)            E(eV)
   0   2.0000     -14.193624      -386.2281
   1   2.0000     -10.111396      -275.1451
   2   2.0000     -10.076211      -274.1876
   3   2.0000     -10.016453      -272.5615
   4   2.0000      -1.034911       -28.1614
   5   2.0000      -0.859624       -23.3916
   6   2.0000      -0.789300       -21.4779
   7   2.0000      -0.684308       -18.6210
   8   2.0000      -0.628037       -17.0898
   9   2.0000      -0.577939       -15.7265
  10   2.0000      -0.539449       -14.6792
  11   2.0000      -0.497723       -13.5437
  12   2.0000      -0.490702       -13.3527
  13   2.0000      -0.452521       -12.3137
  14   2.0000      -0.446208       -12.1419
  15   2.0000      -0.284071        -7.7300
  16   0.0000       0.072423         1.9707
  17   0.0000       0.106122         2.8877
  18   0.0000       0.112411         3.0589
  19   0.0000       0.115813         3.1514
  20   0.0000       0.144219         3.9244

MULLIKEN ATOMIC CHARGES
-----------------------
   0 C :    1.031721
   1 C :   -0.542698
   2 N :    0.362407
   3 C :    0.542791
   4 H :   -0.314988
   5 H :   -0.520240
   6 H :   -0.112105
   7 H :   -0.131276
   8 H :   -0.187348
   9 H :   -0.067153
  10 H :   -0.061112
Sum of atomic charges:   -0.0000000

LOEWDIN ATOMIC CHARGES
----------------------
   0 C :    0.154964
   1 C :   -0.306304
   2 N :    0.173034
   3 C :    0.159691
   4 H :   -0.078133
   5 H :   -0.090214
   6 H :    0.003464
   7 H :    0.010677
   8 H :   -0.022924
   9 H :   -0.002679
  10 H :   -0.001575

  Mayer bond orders larger than 0.100000
B(  0-C ,  1-C ) :   1.1259 B(  0-C ,  2-N ) :   0.1118 B(  0-C ,  3-C ) :   0.1229
B(  0-C ,  8-H ) :   0.6062 B(  0-C ,  9-H ) :   0.6908 B(  0-C , 10-H ) :   0.6501
B(  1-C ,  2-N ) :   1.1606 B(  1-C ,  3-C ) :   1.7711 B(  1-C ,  4-H ) :   0.1029
B(  1-C ,  5-H ) :   0.1576 B(  1-C ,  8-H ) :   0.3837 B(  1-C ,  9-H ) :   0.2140
B(  1-C , 10-H ) :   0.2359 B(  2-N ,  3-C ) :   0.2436 B(  2-N ,  6-H ) :   1.0340
B(  2-N ,  7-H ) :   1.1161 B(  3-C ,  4-H ) :   0.7732 B(  3-C ,  5-H ) :   0.7312
B(  6-H ,  7-H ) :  -0.1197

FINAL SINGLE POINT ENERGY      -172.643061656651

DIPOLE MOMENT
-------------
                                X             Y             Z
Electronic contribution:     -0.38072      -0.12421      -1.72924
Nuclear contribution   :     -0.41717       0.30469       1.54910
                        -----------------------------------------
Total Dipole Moment    :     -0.79789       0.18047      -0.18014
                        -----------------------------------------
Magnitude (a.u.)       :      0.83764
Magnitude (Debye)      :      2.12912

Rotational constants in cm-1:     0.351587     0.304754     0.168726
Rotational constants in MHz : 10540.302868  9136.286689  5058.281984

                             ****ORCA TERMINATED NORMALLY****
TOTAL RUN TIME: 0 days 0 hours 0 minutes 12 seconds 115 msec
