                         Program Version 5.0.0 -  RELEASE  -
|  1> !LC-BLYP RIJCOSX def2-SVPD def2/J TightSCF xyzfile
|  2>
|  3> *xyzfile 0 1 D1.xyz
|  4>
|  5> %MaxCore 64000
|  6>
|  7> %pal nprocs 4
|  8> end
|  9>
| 10> %scf
| 11>   MaxIter 150
| 12> end
| 13>
| 14>
| 15>                          ****END OF INPUT****

CARTESIAN COORDINATES (ANGSTROEM)
---------------------------------
  C      2.486452   -2.677121   -2.563447
  C     -0.870963    0.248043   -2.662804
  C     -0.477492    0.608191   -4.101052
  H      0.206773    1.458299   -4.118748
  H     -1.368442    0.929419   -4.647855
  C      0.184673   -0.506640   -4.916760
  C      3.037640   -2.366715   -3.923509
  C      2.280360   -2.454408   -4.967692
  N      4.321736   -2.017932   -4.016641
  H      4.879940   -1.911668   -3.173823
  H      4.710148   -1.670882   -4.883561
  H      1.270423   -2.412650   -4.866143
  H      2.581829   -2.055282   -5.846878
  F     -0.158685   -1.701088   -4.657981
  O      1.055938   -0.174410   -5.740373
  C      2.497991   -1.469464   -1.610303
  C      1.582841   -0.321986   -2.042619
  H      2.193083   -1.833912   -0.625420
  H      3.523356   -1.103982   -1.490392
  C      0.100160   -0.673551   -1.915815
  H      1.822311   -0.040361   -3.072834
  H      1.813180    0.557019   -1.433266
  H     -0.063284   -1.679120   -2.301112
  H     -0.168820   -0.691680   -0.853831
  H     -1.001048    1.181040   -2.104071
  H     -1.844645   -0.246592   -2.663281
  H      1.472592   -3.051527   -2.694366
  H      3.083201   -3.490638   -2.141472

 Total Charge           Charge          ....    0
 Multiplicity           Mult            ....    1
 Number of Electrons    NEL             ....   94
 Basis Dimension        Dim             ....  374

ORBITAL ENERGIES
----------------

  NO   OCC          E(Eh)            E(eV)
   0   2.0000     -24.546254      -667.9375
   1   2.0000     -18.967480      -516.1314
   2   2.0000     -14.177802      -385.7976
   3   2.0000     -10.269617      -279.4505
   4   2.0000     -10.115458      -275.2556
   5   2.0000     -10.099756      -274.8283
   6   2.0000     -10.093236      -274.6509
   7   2.0000     -10.087522      -274.4954
   8   2.0000     -10.084732      -274.4195
   9   2.0000     -10.083369      -274.3824
  10   2.0000     -10.078250      -274.2431
  11   2.0000      -9.996584      -272.0209
  12   2.0000      -1.386856       -37.7383
  13   2.0000      -1.126550       -30.6550
  14   2.0000      -1.009037       -27.4573
  15   2.0000      -0.933603       -25.4046
  16   2.0000      -0.897435       -24.4205
  17   2.0000      -0.846675       -23.0392
  18   2.0000      -0.825358       -22.4591
  19   2.0000      -0.780511       -21.2388
  20   2.0000      -0.761506       -20.7216
  21   2.0000      -0.723744       -19.6941
  22   2.0000      -0.686525       -18.6813
  23   2.0000      -0.681306       -18.5393
  24   2.0000      -0.658278       -17.9127
  25   2.0000      -0.641926       -17.4677
  26   2.0000      -0.615131       -16.7386
  27   2.0000      -0.597361       -16.2550
  28   2.0000      -0.589087       -16.0299
  29   2.0000      -0.578319       -15.7368
  30   2.0000      -0.563366       -15.3300
  31   2.0000      -0.546612       -14.8741
  32   2.0000      -0.536410       -14.5964
  33   2.0000      -0.516034       -14.0420
  34   2.0000      -0.508254       -13.8303
  35   2.0000      -0.492225       -13.3941
  36   2.0000      -0.479924       -13.0594
  37   2.0000      -0.476052       -12.9540
  38   2.0000      -0.457261       -12.4427
  39   2.0000      -0.452592       -12.3157
  40   2.0000      -0.441191       -12.0054
  41   2.0000      -0.434142       -11.8136
  42   2.0000      -0.417465       -11.3598
  43   2.0000      -0.412892       -11.2354
  44   2.0000      -0.407902       -11.0996
  45   2.0000      -0.390360       -10.6222
  46   2.0000      -0.278867        -7.5884
  47   0.0000       0.048953         1.3321
  48   0.0000       0.065195         1.7741
  49   0.0000       0.077224         2.1014
  50   0.0000       0.086718         2.3597
  51   0.0000       0.091056         2.4778

MULLIKEN ATOMIC CHARGES
-----------------------
   0 C :    0.487068
   1 C :    0.714233
   2 C :    0.441079
   3 H :    0.148895
   4 H :   -0.387395
   5 C :    0.140137
   6 C :   -0.371839
   7 C :    1.427842
   8 N :    0.429079
   9 H :   -0.125442
  10 H :   -0.206644
  11 H :   -0.769079
  12 H :   -0.499030
  13 F :   -0.510176
  14 O :   -0.299761
  15 C :    0.497589
  16 C :    0.467860
  17 H :   -0.176473
  18 H :   -0.172663
  19 C :    0.223534
  20 H :   -0.273513
  21 H :   -0.277390
  22 H :   -0.181446
  23 H :   -0.255799
  24 H :   -0.201599
  25 H :   -0.049275
  26 H :    0.040172
  27 H :   -0.259963
Sum of atomic charges:   -0.0000000

LOEWDIN ATOMIC CHARGES
----------------------
   0 C :    0.011969
   1 C :   -0.027493
   2 C :    0.048111
   3 H :    0.042586
   4 H :    0.044305
   5 C :   -0.036715
   6 C :   -0.252990
   7 C :    0.172176
   8 N :    0.191015
   9 H :   -0.008985
  10 H :    0.004906
  11 H :   -0.138885
  12 H :   -0.065818
  13 F :   -0.031522
  14 O :   -0.092285
  15 C :   -0.029305
  16 C :   -0.022076
  17 H :    0.027182
  18 H :    0.016106
  19 C :   -0.037084
  20 H :    0.012968
  21 H :    0.032420
  22 H :   -0.001963
  23 H :    0.034213
  24 H :    0.030637
  25 H :    0.028795
  26 H :    0.015686
  27 H :    0.032046

  Mayer bond orders larger than 0.100000
B(  0-C ,  6-C ) :   1.2680 B(  0-C ,  7-C ) :   0.1883 B(  0-C ,  8-N ) :   0.1275
B(  0-C , 15-C ) :   1.0659 B(  0-C , 16-C ) :   0.1670 B(  0-C , 17-H ) :   0.2176
B(  0-C , 18-H ) :   0.2259 B(  0-C , 20-H ) :  -0.1076 B(  0-C , 26-H ) :   0.7001
B(  0-C , 27-H ) :   0.7555 B(  1-C ,  2-C ) :   1.1333 B(  1-C ,  4-H ) :   0.1269
B(  1-C , 19-C ) :   1.2678 B(  1-C , 23-H ) :   0.1027 B(  1-C , 24-H ) :   0.6872
B(  1-C , 25-H ) :   0.5995 B(  2-C ,  3-H ) :   0.7511 B(  2-C ,  4-H ) :   0.6471
B(  2-C ,  5-C ) :   1.2044 B(  2-C , 19-C ) :   0.1534 B(  2-C , 24-H ) :   0.1515
B(  3-H ,  4-H ) :  -0.1123 B(  3-H ,  5-C ) :   0.2589 B(  4-H ,  5-C ) :   0.3228
B(  4-H , 20-H ) :  -0.1072 B(  5-C , 13-F ) :   0.7582 B(  5-C , 14-O ) :   1.9824
B(  6-C ,  7-C ) :   1.9608 B(  6-C ,  8-N ) :   1.2068 B(  6-C , 11-H ) :   0.2632
B(  6-C , 12-H ) :   0.5351 B(  6-C , 15-C ) :   0.2173 B(  6-C , 20-H ) :   0.1245
B(  6-C , 26-H ) :   0.2225 B(  6-C , 27-H ) :   0.2304 B(  7-C ,  8-N ) :   0.4316
B(  7-C , 12-H ) :  -0.1286 B(  7-C , 26-H ) :  -0.1828 B(  8-N ,  9-H ) :   1.1287
B(  8-N , 10-H ) :   1.1603 B(  9-H , 10-H ) :  -0.1768 B( 11-H , 12-H ) :   0.3451
B( 11-H , 13-F ) :   0.2900 B( 13-F , 14-O ) :   0.1496 B( 15-C , 16-C ) :   1.1996
B( 15-C , 17-H ) :   0.7822 B( 15-C , 18-H ) :   0.5955 B( 15-C , 20-H ) :   0.1945
B( 15-C , 21-H ) :   0.1023 B( 15-C , 26-H ) :   0.1935 B( 16-C , 18-H ) :   0.2790
B( 16-C , 19-C ) :   1.1435 B( 16-C , 20-H ) :   0.7391 B( 16-C , 21-H ) :   0.7601
B( 16-C , 22-H ) :   0.1354 B( 16-C , 23-H ) :   0.2599 B( 16-C , 26-H ) :  -0.1408
B( 17-H , 18-H ) :  -0.1140 B( 19-C , 20-H ) :   0.1681 B( 19-C , 21-H ) :   0.1248
B( 19-C , 22-H ) :   0.7890 B( 19-C , 23-H ) :   0.7260 B( 19-C , 24-H ) :   0.2202
B( 19-C , 25-H ) :   0.2711 B( 20-H , 27-H ) :  -0.1001 B( 21-H , 27-H ) :   0.1140
B( 22-H , 26-H ) :   0.1540 B( 24-H , 25-H ) :  -0.1432

FINAL SINGLE POINT ENERGY      -580.537908752282

DIPOLE MOMENT
-------------
                                X             Y             Z
Electronic contribution:     -3.71454      -1.62249     -10.21411
Nuclear contribution   :      3.32973       2.37270      11.37738
                        -----------------------------------------
Total Dipole Moment    :     -0.38481       0.75021       1.16327
                        -----------------------------------------
Magnitude (a.u.)       :      1.43669
Magnitude (Debye)      :      3.65179

Rotational constants in cm-1:     0.040902     0.025807     0.019036
Rotational constants in MHz :  1226.202138   773.670450   570.681201

                             ****ORCA TERMINATED NORMALLY****
TOTAL RUN TIME: 0 days 0 hours 2 minutes 35 seconds 418 msec
