                         Program Version 5.0.0 -  RELEASE  -
|  1> !LC-BLYP RIJCOSX def2-SVPD def2/J TightSCF xyzfile
|  2>
|  3> *xyzfile 0 1 D2.xyz
|  4>
|  5> %MaxCore 64000
|  6>
|  7> %pal nprocs 4
|  8> end
|  9>
| 10> %scf
| 11>   MaxIter 150
| 12> end
| 13>
| 14>
| 15>                          ****END OF INPUT****

CARTESIAN COORDINATES (ANGSTROEM)
---------------------------------
  C      2.486452   -2.677121   -2.563447
  C     -0.870963    0.248043   -2.662804
  C     -0.477492    0.608191   -4.101052
  H      0.206773    1.458299   -4.118748
  H     -1.368442    0.929419   -4.647855
  C      0.184673   -0.506640   -4.916760
  C      3.037640   -2.366715   -3.923509
  N      2.280360   -2.454408   -4.967692
  C      4.321736   -2.017932   -4.016641
  H      4.879940   -1.911668   -3.173823
  H      4.710148   -1.670882   -4.883561
  H      1.270423   -2.412650   -4.866143
  H      2.581829   -2.055282   -5.846878
  F     -0.158685   -1.701088   -4.657981
  O      1.055938   -0.174410   -5.740373
  C      2.497991   -1.469464   -1.610303
  C      1.582841   -0.321986   -2.042619
  H      2.193083   -1.833912   -0.625420
  H      3.523356   -1.103982   -1.490392
  C      0.100160   -0.673551   -1.915815
  H      1.822311   -0.040361   -3.072834
  H      1.813180    0.557019   -1.433266
  H     -0.063284   -1.679120   -2.301112
  H     -0.168820   -0.691680   -0.853831
  H     -1.001048    1.181040   -2.104071
  H     -1.844645   -0.246592   -2.663281
  H      1.472592   -3.051527   -2.694366
  H      3.083201   -3.490638   -2.141472

 Total Charge           Charge          ....    0
 Multiplicity           Mult            ....    1
 Number of Electrons    NEL             ....   94
 Basis Dimension        Dim             ....  374

ORBITAL ENERGIES
----------------

  NO   OCC          E(Eh)            E(eV)
   0   2.0000     -24.574628      -668.7096
   1   2.0000     -18.987745      -516.6828
   2   2.0000     -14.166333      -385.4855
   3   2.0000     -10.288814      -279.9729
   4   2.0000     -10.127018      -275.5702
   5   2.0000     -10.107277      -275.0330
   6   2.0000     -10.097041      -274.7545
   7   2.0000     -10.092753      -274.6378
   8   2.0000     -10.085692      -274.4456
   9   2.0000     -10.082030      -274.3460
  10   2.0000     -10.079164      -274.2680
  11   2.0000     -10.004615      -272.2394
  12   2.0000      -1.413725       -38.4694
  13   2.0000      -1.146621       -31.2012
  14   2.0000      -1.018514       -27.7152
  15   2.0000      -0.941660       -25.6239
  16   2.0000      -0.899966       -24.4893
  17   2.0000      -0.858381       -23.3577
  18   2.0000      -0.811317       -22.0771
  19   2.0000      -0.794941       -21.6314
  20   2.0000      -0.772225       -21.0133
  21   2.0000      -0.733514       -19.9599
  22   2.0000      -0.702899       -19.1269
  23   2.0000      -0.692369       -18.8403
  24   2.0000      -0.675466       -18.3804
  25   2.0000      -0.643555       -17.5120
  26   2.0000      -0.616529       -16.7766
  27   2.0000      -0.604858       -16.4590
  28   2.0000      -0.591024       -16.0826
  29   2.0000      -0.583755       -15.8848
  30   2.0000      -0.575595       -15.6627
  31   2.0000      -0.551158       -14.9978
  32   2.0000      -0.534364       -14.5408
  33   2.0000      -0.525275       -14.2935
  34   2.0000      -0.514267       -13.9939
  35   2.0000      -0.499041       -13.5796
  36   2.0000      -0.490560       -13.3488
  37   2.0000      -0.478915       -13.0319
  38   2.0000      -0.466768       -12.7014
  39   2.0000      -0.457379       -12.4459
  40   2.0000      -0.446694       -12.1552
  41   2.0000      -0.438901       -11.9431
  42   2.0000      -0.426032       -11.5929
  43   2.0000      -0.421643       -11.4735
  44   2.0000      -0.412353       -11.2207
  45   2.0000      -0.404329       -11.0023
  46   2.0000      -0.268797        -7.3143
  47   0.0000       0.031715         0.8630
  48   0.0000       0.057406         1.5621
  49   0.0000       0.081492         2.2175
  50   0.0000       0.084255         2.2927
  51   0.0000       0.087741         2.3876

MULLIKEN ATOMIC CHARGES
-----------------------
   0 C :    0.827887
   1 C :    0.707489
   2 C :    0.417437
   3 H :    0.192979
   4 H :   -0.380229
   5 C :    0.205448
   6 C :   -0.313164
   7 N :    0.628199
   8 C :    0.542220
   9 H :   -0.238229
  10 H :   -0.487959
  11 H :   -0.501996
  12 H :   -0.000825
  13 F :   -0.456418
  14 O :   -0.263636
  15 C :    0.408321
  16 C :    0.432453
  17 H :   -0.154851
  18 H :   -0.163456
  19 C :    0.246927
  20 H :   -0.293138
  21 H :   -0.311707
  22 H :   -0.155992
  23 H :   -0.276538
  24 H :   -0.201448
  25 H :   -0.053534
  26 H :   -0.215804
  27 H :   -0.140437
Sum of atomic charges:   -0.0000000

LOEWDIN ATOMIC CHARGES
----------------------
   0 C :    0.012623
   1 C :   -0.026653
   2 C :    0.050084
   3 H :    0.045626
   4 H :    0.046238
   5 C :   -0.038183
   6 C :   -0.255217
   7 N :    0.205942
   8 C :    0.171701
   9 H :   -0.085530
  10 H :   -0.086289
  11 H :   -0.087344
  12 H :    0.012600
  13 F :   -0.019037
  14 O :   -0.091455
  15 C :   -0.023912
  16 C :   -0.021966
  17 H :    0.027833
  18 H :    0.022807
  19 C :   -0.039115
  20 H :    0.011297
  21 H :    0.033932
  22 H :   -0.005108
  23 H :    0.035363
  24 H :    0.032543
  25 H :    0.029047
  26 H :    0.005069
  27 H :    0.037102

  Mayer bond orders larger than 0.100000
B(  0-C ,  6-C ) :   0.9516 B(  0-C ,  7-N ) :   0.1329 B(  0-C , 10-H ) :   0.1501
B(  0-C , 15-C ) :   1.1136 B(  0-C , 16-C ) :   0.1664 B(  0-C , 17-H ) :   0.1754
B(  0-C , 18-H ) :   0.1764 B(  0-C , 26-H ) :   0.4775 B(  0-C , 27-H ) :   0.6517
B(  1-C ,  2-C ) :   1.1437 B(  1-C ,  4-H ) :   0.1388 B(  1-C , 19-C ) :   1.2492
B(  1-C , 22-H ) :   0.1057 B(  1-C , 23-H ) :   0.1016 B(  1-C , 24-H ) :   0.6826
B(  1-C , 25-H ) :   0.6012 B(  2-C ,  3-H ) :   0.7316 B(  2-C ,  4-H ) :   0.6603
B(  2-C ,  5-C ) :   1.2097 B(  2-C , 19-C ) :   0.1540 B(  2-C , 24-H ) :   0.1576
B(  3-H ,  4-H ) :  -0.1218 B(  3-H ,  5-C ) :   0.2572 B(  4-H ,  5-C ) :   0.3237
B(  5-C , 13-F ) :   0.7338 B(  5-C , 14-O ) :   1.9755 B(  6-C ,  7-N ) :   1.1614
B(  6-C ,  8-C ) :   1.7167 B(  6-C ,  9-H ) :   0.1277 B(  6-C , 10-H ) :   0.2145
B(  6-C , 26-H ) :   0.3326 B(  6-C , 27-H ) :   0.1862 B(  7-N ,  8-C ) :   0.2681
B(  7-N , 11-H ) :   0.8397 B(  7-N , 12-H ) :   0.9346 B(  8-C ,  9-H ) :   0.7689
B(  8-C , 10-H ) :   0.5480 B( 11-H , 12-H ) :  -0.1540 B( 11-H , 13-F ) :   0.1744
B( 11-H , 26-H ) :   0.1128 B( 13-F , 14-O ) :   0.1350 B( 15-C , 16-C ) :   1.2041
B( 15-C , 17-H ) :   0.7957 B( 15-C , 18-H ) :   0.6464 B( 15-C , 20-H ) :   0.2033
B( 15-C , 26-H ) :   0.2367 B( 15-C , 27-H ) :   0.1511 B( 16-C , 17-H ) :   0.1335
B( 16-C , 18-H ) :   0.2826 B( 16-C , 19-C ) :   1.1470 B( 16-C , 20-H ) :   0.7197
B( 16-C , 21-H ) :   0.8065 B( 16-C , 22-H ) :   0.1229 B( 16-C , 23-H ) :   0.2622
B( 16-C , 26-H ) :  -0.1238 B( 17-H , 18-H ) :  -0.1627 B( 19-C , 20-H ) :   0.1666
B( 19-C , 21-H ) :   0.1245 B( 19-C , 22-H ) :   0.8046 B( 19-C , 23-H ) :   0.7348
B( 19-C , 24-H ) :   0.2175 B( 19-C , 25-H ) :   0.2725 B( 22-H , 26-H ) :   0.1426
B( 24-H , 25-H ) :  -0.1430

FINAL SINGLE POINT ENERGY      -580.549325342052

DIPOLE MOMENT
-------------
                                X             Y             Z
Electronic contribution:     -5.35055      -1.77333     -10.84810
Nuclear contribution   :      3.65024       2.44123      11.52670
                        -----------------------------------------
Total Dipole Moment    :     -1.70031       0.66790       0.67861
                        -----------------------------------------
Magnitude (a.u.)       :      1.94876
Magnitude (Debye)      :      4.95335

Rotational constants in cm-1:     0.040600     0.026409     0.019262
Rotational constants in MHz :  1217.142957   791.712481   577.449390

                             ****ORCA TERMINATED NORMALLY****
TOTAL RUN TIME: 0 days 0 hours 2 minutes 19 seconds 731 msec
