                         Program Version 5.0.0 -  RELEASE  -
|  1> !LC-BLYP RIJCOSX def2-SVPD def2/J TightSCF xyzfile
|  2>
|  3> *xyzfile 0 1 D4.xyz
|  4>
|  5> %MaxCore 64000
|  6>
|  7> %pal nprocs 4
|  8> end
|  9>
| 10> %scf
| 11>   MaxIter 150
| 12> end
| 13>
| 14>
| 15>                          ****END OF INPUT****

CARTESIAN COORDINATES (ANGSTROEM)
---------------------------------
  C      2.486452   -2.677121   -2.563447
  C     -0.870963    0.248043   -2.662804
  C     -0.477492    0.608191   -4.101052
  H      0.206773    1.458299   -4.118748
  H     -1.368442    0.929419   -4.647855
  C      0.184673   -0.506640   -4.916760
  C      3.037640   -2.366715   -3.923509
  N      2.280360   -2.454408   -4.967692
  C      4.321736   -2.017932   -4.016641
  H      4.879940   -1.911668   -3.173823
  H      4.710148   -1.670882   -4.883561
  H      1.270423   -2.412650   -4.866143
  H      2.581829   -2.055282   -5.846878
  O     -0.158685   -1.701088   -4.657981
  F      1.055938   -0.174410   -5.740373
  C      2.497991   -1.469464   -1.610303
  C      1.582841   -0.321986   -2.042619
  H      2.193083   -1.833912   -0.625420
  H      3.523356   -1.103982   -1.490392
  C      0.100160   -0.673551   -1.915815
  H      1.822311   -0.040361   -3.072834
  H      1.813180    0.557019   -1.433266
  H     -0.063284   -1.679120   -2.301112
  H     -0.168820   -0.691680   -0.853831
  H     -1.001048    1.181040   -2.104071
  H     -1.844645   -0.246592   -2.663281
  H      1.472592   -3.051527   -2.694366
  H      3.083201   -3.490638   -2.141472

 Total Charge           Charge          ....    0
 Multiplicity           Mult            ....    1
 Number of Electrons    NEL             ....   94
 Basis Dimension        Dim             ....  374

ORBITAL ENERGIES
----------------

  NO   OCC          E(Eh)            E(eV)
   0   2.0000     -24.575652      -668.7375
   1   2.0000     -18.992363      -516.8085
   2   2.0000     -14.157373      -385.2417
   3   2.0000     -10.298347      -280.2323
   4   2.0000     -10.131154      -275.6827
   5   2.0000     -10.104966      -274.9701
   6   2.0000     -10.094065      -274.6735
   7   2.0000     -10.084118      -274.4028
   8   2.0000     -10.084071      -274.4015
   9   2.0000     -10.078564      -274.2517
  10   2.0000     -10.073155      -274.1045
  11   2.0000     -10.002252      -272.1751
  12   2.0000      -1.420100       -38.6429
  13   2.0000      -1.147612       -31.2281
  14   2.0000      -1.012637       -27.5553
  15   2.0000      -0.937308       -25.5054
  16   2.0000      -0.897676       -24.4270
  17   2.0000      -0.856331       -23.3020
  18   2.0000      -0.813758       -22.1435
  19   2.0000      -0.788076       -21.4446
  20   2.0000      -0.769815       -20.9477
  21   2.0000      -0.728974       -19.8364
  22   2.0000      -0.694817       -18.9069
  23   2.0000      -0.687794       -18.7158
  24   2.0000      -0.663970       -18.0675
  25   2.0000      -0.653673       -17.7873
  26   2.0000      -0.632109       -17.2006
  27   2.0000      -0.604414       -16.4470
  28   2.0000      -0.590941       -16.0803
  29   2.0000      -0.584653       -15.9092
  30   2.0000      -0.576251       -15.6806
  31   2.0000      -0.551531       -15.0079
  32   2.0000      -0.530629       -14.4392
  33   2.0000      -0.516642       -14.0585
  34   2.0000      -0.510984       -13.9046
  35   2.0000      -0.497800       -13.5458
  36   2.0000      -0.483254       -13.1500
  37   2.0000      -0.476222       -12.9587
  38   2.0000      -0.462272       -12.5790
  39   2.0000      -0.459950       -12.5159
  40   2.0000      -0.441127       -12.0037
  41   2.0000      -0.435806       -11.8589
  42   2.0000      -0.421803       -11.4779
  43   2.0000      -0.420128       -11.4323
  44   2.0000      -0.413295       -11.2463
  45   2.0000      -0.397791       -10.8244
  46   2.0000      -0.266257        -7.2452
  47   0.0000       0.023476         0.6388
  48   0.0000       0.057666         1.5692
  49   0.0000       0.079149         2.1538
  50   0.0000       0.086917         2.3651
  51   0.0000       0.088224         2.4007

MULLIKEN ATOMIC CHARGES
-----------------------
   0 C :    0.820809
   1 C :    0.713976
   2 C :    0.386012
   3 H :    0.186468
   4 H :   -0.364192
   5 C :    0.326088
   6 C :   -0.337902
   7 N :    0.592480
   8 C :    0.547759
   9 H :   -0.244005
  10 H :   -0.489445
  11 H :   -0.490386
  12 H :   -0.021808
  13 O :   -0.515772
  14 F :   -0.257819
  15 C :    0.388346
  16 C :    0.374689
  17 H :   -0.151283
  18 H :   -0.169330
  19 C :    0.230586
  20 H :   -0.248220
  21 H :   -0.319264
  22 H :   -0.119153
  23 H :   -0.296190
  24 H :   -0.194333
  25 H :   -0.015511
  26 H :   -0.198977
  27 H :   -0.133622
Sum of atomic charges:    0.0000000

LOEWDIN ATOMIC CHARGES
----------------------
   0 C :    0.016303
   1 C :   -0.015584
   2 C :    0.044470
   3 H :    0.037204
   4 H :    0.047535
   5 C :   -0.012918
   6 C :   -0.257103
   7 N :    0.202809
   8 C :    0.165243
   9 H :   -0.087416
  10 H :   -0.091066
  11 H :   -0.123955
  12 H :    0.012064
  13 O :   -0.101200
  14 F :    0.014627
  15 C :   -0.023695
  16 C :   -0.024942
  17 H :    0.028506
  18 H :    0.021274
  19 C :   -0.035512
  20 H :    0.007950
  21 H :    0.032139
  22 H :   -0.005173
  23 H :    0.035070
  24 H :    0.032802
  25 H :    0.034137
  26 H :    0.009711
  27 H :    0.036721

  Mayer bond orders larger than 0.100000
B(  0-C ,  6-C ) :   0.9633 B(  0-C ,  7-N ) :   0.1307 B(  0-C , 10-H ) :   0.1516
B(  0-C , 15-C ) :   1.1141 B(  0-C , 16-C ) :   0.1867 B(  0-C , 17-H ) :   0.1718
B(  0-C , 18-H ) :   0.1732 B(  0-C , 26-H ) :   0.5004 B(  0-C , 27-H ) :   0.6416
B(  1-C ,  2-C ) :   1.1644 B(  1-C ,  3-H ) :   0.1123 B(  1-C ,  4-H ) :   0.1559
B(  1-C , 19-C ) :   1.2550 B(  1-C , 24-H ) :   0.6659 B(  1-C , 25-H ) :   0.5961
B(  2-C ,  3-H ) :   0.7460 B(  2-C ,  4-H ) :   0.6464 B(  2-C ,  5-C ) :   1.2412
B(  2-C , 19-C ) :   0.1650 B(  2-C , 24-H ) :   0.1750 B(  3-H ,  4-H ) :  -0.1254
B(  3-H ,  5-C ) :   0.1941 B(  4-H ,  5-C ) :   0.3202 B(  5-C , 13-O ) :   1.7783
B(  5-C , 14-F ) :   0.8611 B(  6-C ,  7-N ) :   1.1869 B(  6-C ,  8-C ) :   1.7096
B(  6-C ,  9-H ) :   0.1422 B(  6-C , 10-H ) :   0.2121 B(  6-C , 26-H ) :   0.3299
B(  6-C , 27-H ) :   0.1816 B(  7-N ,  8-C ) :   0.2604 B(  7-N , 11-H ) :   0.8319
B(  7-N , 12-H ) :   0.9440 B(  8-C ,  9-H ) :   0.7579 B(  8-C , 10-H ) :   0.5536
B( 11-H , 12-H ) :  -0.1604 B( 11-H , 13-O ) :   0.2040 B( 11-H , 26-H ) :   0.1043
B( 13-O , 14-F ) :   0.1128 B( 15-C , 16-C ) :   1.2032 B( 15-C , 17-H ) :   0.7923
B( 15-C , 18-H ) :   0.6499 B( 15-C , 20-H ) :   0.2088 B( 15-C , 26-H ) :   0.2382
B( 15-C , 27-H ) :   0.1554 B( 16-C , 17-H ) :   0.1356 B( 16-C , 18-H ) :   0.2851
B( 16-C , 19-C ) :   1.1573 B( 16-C , 20-H ) :   0.7425 B( 16-C , 21-H ) :   0.8203
B( 16-C , 22-H ) :   0.1233 B( 16-C , 23-H ) :   0.2674 B( 16-C , 26-H ) :  -0.1244
B( 17-H , 18-H ) :  -0.1640 B( 19-C , 20-H ) :   0.1453 B( 19-C , 21-H ) :   0.1215
B( 19-C , 22-H ) :   0.8263 B( 19-C , 23-H ) :   0.7332 B( 19-C , 24-H ) :   0.2227
B( 19-C , 25-H ) :   0.2764 B( 22-H , 26-H ) :   0.1337 B( 24-H , 25-H ) :  -0.1445

FINAL SINGLE POINT ENERGY      -580.550627797507

DIPOLE MOMENT
-------------
                                X             Y             Z
Electronic contribution:     -3.44250       0.82020     -12.72145
Nuclear contribution   :      2.21030       0.63135      12.80988
                        -----------------------------------------
Total Dipole Moment    :     -1.23220       1.45155       0.08844
                        -----------------------------------------
Magnitude (a.u.)       :      1.90608
Magnitude (Debye)      :      4.84487

Rotational constants in cm-1:     0.039980     0.026547     0.019089
Rotational constants in MHz :  1198.568620   795.867393   572.288555

                             ****ORCA TERMINATED NORMALLY****
TOTAL RUN TIME: 0 days 0 hours 2 minutes 20 seconds 176 msec
