                         Program Version 5.0.0 -  RELEASE  -
|  1> !wB97X-D3 RIJCOSX def2-TZVPD def2/J TightSCF
|  2> *xyz -1 1
|  3> C         -1.78916       -0.63923        4.55750
|  4> C         -2.79070       -0.78527        5.70281
|  5> H         -2.86731       -1.83565        6.00167
|  6> H         -3.77455       -0.48658        5.33481
|  7> C         -2.45380        0.05510        6.94145
|  8> C         -2.07842        1.48042        6.56410
|  9> H         -1.62558       -0.38216        7.49891
| 10> H         -3.32527        0.08775        7.59917
| 11> O         -0.90125        1.85816        6.82810
| 12> O         -2.93658        2.17731        5.96415
| 13> H         -2.09421       -1.25377        3.73641
| 14> H         -0.81933       -0.94475        4.89064
| 15> H         -1.75281        0.38306        4.24366
| 16> *
| 17> %MaxCore 64000
| 18>
| 19> %pal nprocs 18
| 20> end
| 21>
| 22> %scf
| 23>   MaxIter 150
| 24> end
| 25>
| 26>
| 27>                          ****END OF INPUT****

CARTESIAN COORDINATES (ANGSTROEM)
---------------------------------
  C     -1.789160   -0.639230    4.557500
  C     -2.790700   -0.785270    5.702810
  H     -2.867310   -1.835650    6.001670
  H     -3.774550   -0.486580    5.334810
  C     -2.453800    0.055100    6.941450
  C     -2.078420    1.480420    6.564100
  H     -1.625580   -0.382160    7.498910
  H     -3.325270    0.087750    7.599170
  O     -0.901250    1.858160    6.828100
  O     -2.936580    2.177310    5.964150
  H     -2.094210   -1.253770    3.736410
  H     -0.819330   -0.944750    4.890640
  H     -1.752810    0.383060    4.243660

 Total Charge           Charge          ....   -1
 Multiplicity           Mult            ....    1
 Number of Electrons    NEL             ....   48
 Basis Dimension        Dim             ....  291

ORBITAL ENERGIES
----------------

  NO   OCC          E(Eh)            E(eV)
   0   2.0000     -18.966895      -516.1155
   1   2.0000     -18.965644      -516.0814
   2   2.0000     -10.160519      -276.4818
   3   2.0000     -10.127275      -275.5772
   4   2.0000     -10.114452      -275.2282
   5   2.0000     -10.101495      -274.8757
   6   2.0000      -0.936251       -25.4767
   7   2.0000      -0.840388       -22.8681
   8   2.0000      -0.754547       -20.5323
   9   2.0000      -0.656319       -17.8594
  10   2.0000      -0.556464       -15.1421
  11   2.0000      -0.432091       -11.7578
  12   2.0000      -0.406427       -11.0594
  13   2.0000      -0.392938       -10.6924
  14   2.0000      -0.353283        -9.6133
  15   2.0000      -0.334699        -9.1076
  16   2.0000      -0.307880        -8.3778
  17   2.0000      -0.302882        -8.2418
  18   2.0000      -0.291600        -7.9348
  19   2.0000      -0.267722        -7.2851
  20   2.0000      -0.257918        -7.0183
  21   2.0000      -0.142610        -3.8806
  22   2.0000      -0.137517        -3.7420
  23   2.0000      -0.124045        -3.3754
  24   0.0000       0.186048         5.0626
  25   0.0000       0.202752         5.5172
  26   0.0000       0.211226         5.7477
  27   0.0000       0.219146         5.9633
  28   0.0000       0.239080         6.5057

MULLIKEN ATOMIC CHARGES
-----------------------
   0 C :   -1.229849
   1 C :   -0.274588
   2 H :    0.231640
   3 H :    0.254503
   4 C :   -0.213825
   5 C :    0.341330
   6 H :    0.233081
   7 H :    0.216270
   8 O :   -0.766664
   9 O :   -0.759536
  10 H :    0.322852
  11 H :    0.311529
  12 H :    0.333257
Sum of atomic charges:   -1.0000000

LOEWDIN ATOMIC CHARGES
----------------------
   0 C :   -0.119018
   1 C :   -0.274437
   2 H :    0.087306
   3 H :    0.096481
   4 C :   -0.172719
   5 C :   -0.771971
   6 H :    0.094881
   7 H :    0.098199
   8 O :   -0.114796
   9 O :   -0.104318
  10 H :    0.049651
  11 H :    0.065049
  12 H :    0.065692

  Mayer bond orders larger than 0.100000
B(  0-C ,  1-C ) :   0.6960 B(  0-C , 10-H ) :   0.9161 B(  0-C , 11-H ) :   0.9578
B(  0-C , 12-H ) :   0.9721 B(  1-C ,  2-H ) :   0.9515 B(  1-C ,  3-H ) :   0.9164
B(  1-C ,  4-C ) :   0.8216 B(  1-C ,  5-C ) :   0.1234 B(  4-C ,  5-C ) :   0.8865
B(  4-C ,  6-H ) :   0.9759 B(  4-C ,  7-H ) :   0.9405 B(  5-C ,  8-O ) :   1.4297
B(  5-C ,  9-O ) :   1.4699

Dispersion correction           -0.003483604
FINAL SINGLE POINT ENERGY      -307.189293692380

DIPOLE MOMENT
-------------
                                X             Y             Z
Electronic contribution:      0.62406       6.38505       2.68502
Nuclear contribution   :     -1.12936      -8.75108      -3.05770
                        -----------------------------------------
Total Dipole Moment    :     -0.50531      -2.36603      -0.37268
                        -----------------------------------------
Magnitude (a.u.)       :      2.44792
Magnitude (Debye)      :      6.22213

Rotational constants in cm-1:     0.189092     0.083831     0.082013
Rotational constants in MHz :  5668.846461  2513.177001  2458.689996

                             ****ORCA TERMINATED NORMALLY****
TOTAL RUN TIME: 0 days 0 hours 0 minutes 32 seconds 219 msec
