                         Program Version 5.0.0 -  RELEASE  -
|  1> !wB97X-D3 RIJCOSX def2-TZVPD def2/J TightSCF
|  2> *xyz 1 1
|  3> C         -0.69912        3.48945        3.75516
|  4> H         -0.96672        4.34901        3.14049
|  5> N         -1.08067        3.79296        5.15686
|  6> C          0.77696        3.13839        3.61741
|  7> H         -1.33146        2.65651        3.44632
|  8> H          1.37140        3.88834        4.14974
|  9> H          1.04693        3.23206        2.56133
| 10> C          1.11892        1.73117        4.11516
| 11> H         -0.87449        4.76274        5.42734
| 12> H         -0.68079        3.13476        5.83900
| 13> H         -2.05755        3.53169        5.34620
| 14> H          0.52974        1.01235        3.58499
| 15> H          0.90870        1.66226        5.16204
| 16> H          2.15725        1.53562        3.94624
| 17> *
| 18> %MaxCore 64000
| 19>
| 20> %pal nprocs 18
| 21> end
| 22>
| 23> %scf
| 24>   MaxIter 150
| 25> end
| 26>
| 27>
| 28>                          ****END OF INPUT****

CARTESIAN COORDINATES (ANGSTROEM)
---------------------------------
  C     -0.699120    3.489450    3.755160
  H     -0.966720    4.349010    3.140490
  N     -1.080670    3.792960    5.156860
  C      0.776960    3.138390    3.617410
  H     -1.331460    2.656510    3.446320
  H      1.371400    3.888340    4.149740
  H      1.046930    3.232060    2.561330
  C      1.118920    1.731170    4.115160
  H     -0.874490    4.762740    5.427340
  H     -0.680790    3.134760    5.839000
  H     -2.057550    3.531690    5.346200
  H      0.529740    1.012350    3.584990
  H      0.908700    1.662260    5.162040
  H      2.157250    1.535620    3.946240

 Total Charge           Charge          ....    1
 Multiplicity           Mult            ....    1
 Number of Electrons    NEL             ....   34
 Basis Dimension        Dim             ....  238

ORBITAL ENERGIES
----------------

  NO   OCC          E(Eh)            E(eV)
   0   2.0000     -14.752855      -401.4456
   1   2.0000     -10.521586      -286.3069
   2   2.0000     -10.451761      -284.4069
   3   2.0000     -10.415761      -283.4273
   4   2.0000      -1.329728       -36.1837
   5   2.0000      -1.089640       -29.6506
   6   2.0000      -0.996802       -27.1244
   7   2.0000      -0.915030       -24.8992
   8   2.0000      -0.893659       -24.3177
   9   2.0000      -0.862603       -23.4726
  10   2.0000      -0.792631       -21.5686
  11   2.0000      -0.729144       -19.8410
  12   2.0000      -0.704942       -19.1824
  13   2.0000      -0.680654       -18.5215
  14   2.0000      -0.618040       -16.8177
  15   2.0000      -0.612203       -16.6589
  16   2.0000      -0.607136       -16.5210
  17   0.0000      -0.119293        -3.2461
  18   0.0000      -0.066368        -1.8060
  19   0.0000      -0.065669        -1.7869
  20   0.0000      -0.050453        -1.3729
  21   0.0000      -0.026625        -0.7245

MULLIKEN ATOMIC CHARGES
-----------------------
   0 C :   -0.594995
   1 H :    0.301241
   2 N :   -0.291984
   3 C :   -0.238389
   4 H :    0.355437
   5 H :    0.308452
   6 H :    0.311515
   7 C :   -1.255018
   8 H :    0.380336
   9 H :    0.332862
  10 H :    0.367820
  11 H :    0.354182
  12 H :    0.349347
  13 H :    0.319192
Sum of atomic charges:    1.0000000

LOEWDIN ATOMIC CHARGES
----------------------
   0 C :   -0.165987
   1 H :    0.138614
   2 N :    0.185005
   3 C :   -0.229573
   4 H :    0.137904
   5 H :    0.119660
   6 H :    0.126719
   7 C :   -0.082814
   8 H :    0.188167
   9 H :    0.171235
  10 H :    0.183393
  11 H :    0.080843
  12 H :    0.062722
  13 H :    0.084112

  Mayer bond orders larger than 0.100000
B(  0-C ,  1-H ) :   0.9669 B(  0-C ,  2-N ) :   0.9824 B(  0-C ,  3-C ) :   0.8126
B(  0-C ,  4-H ) :   0.8559 B(  0-C ,  7-C ) :   0.1485 B(  2-N ,  8-H ) :   0.8365
B(  2-N ,  9-H ) :   0.8847 B(  2-N , 10-H ) :   0.8463 B(  3-C ,  5-H ) :   0.9418
B(  3-C ,  6-H ) :   0.9358 B(  3-C ,  7-C ) :   0.6345 B(  7-C , 11-H ) :   0.9772
B(  7-C , 12-H ) :   0.8835 B(  7-C , 13-H ) :   0.9997

Dispersion correction           -0.002828484
FINAL SINGLE POINT ENERGY      -174.865699746152

DIPOLE MOMENT
-------------
                                X             Y             Z
Electronic contribution:     -1.67231       1.67551       0.72997
Nuclear contribution   :      0.19356      -0.71099       0.46987
                        -----------------------------------------
Total Dipole Moment    :     -1.47875       0.96451       1.19984
                        -----------------------------------------
Magnitude (a.u.)       :      2.13462
Magnitude (Debye)      :      5.42577

Rotational constants in cm-1:     0.465349     0.150671     0.132807
Rotational constants in MHz : 13950.800968  4516.999758  3981.442177

                             ****ORCA TERMINATED NORMALLY****
TOTAL RUN TIME: 0 days 0 hours 0 minutes 19 seconds 328 msec
