                         Program Version 5.0.0 -  RELEASE  -
|  1> !wB97X-D3 RIJCOSX def2-TZVPD def2/J TightSCF
|  2> *xyz 0 1
|  3> C         -1.78916       -0.63923        4.55750
|  4> C         -2.79070       -0.78527        5.70281
|  5> H         -2.86731       -1.83565        6.00167
|  6> H         -3.77455       -0.48658        5.33481
|  7> C         -2.45380        0.05510        6.94145
|  8> C         -2.07842        1.48042        6.56410
|  9> H         -1.62558       -0.38216        7.49891
| 10> H         -3.32527        0.08775        7.59917
| 11> F         -0.90125        1.85816        6.82810
| 12> O         -2.93658        2.17731        5.96415
| 13> H         -2.09421       -1.25377        3.73641
| 14> H         -0.81933       -0.94475        4.89064
| 15> H         -1.75281        0.38306        4.24366
| 16> *
| 17> %MaxCore 64000
| 18>
| 19> %pal nprocs 18
| 20> end
| 21>
| 22> %scf
| 23>   MaxIter 150
| 24> end
| 25>
| 26>
| 27>                          ****END OF INPUT****

CARTESIAN COORDINATES (ANGSTROEM)
---------------------------------
  C     -1.789160   -0.639230    4.557500
  C     -2.790700   -0.785270    5.702810
  H     -2.867310   -1.835650    6.001670
  H     -3.774550   -0.486580    5.334810
  C     -2.453800    0.055100    6.941450
  C     -2.078420    1.480420    6.564100
  H     -1.625580   -0.382160    7.498910
  H     -3.325270    0.087750    7.599170
  F     -0.901250    1.858160    6.828100
  O     -2.936580    2.177310    5.964150
  H     -2.094210   -1.253770    3.736410
  H     -0.819330   -0.944750    4.890640
  H     -1.752810    0.383060    4.243660

 Total Charge           Charge          ....    0
 Multiplicity           Mult            ....    1
 Number of Electrons    NEL             ....   48
 Basis Dimension        Dim             ....  291

ORBITAL ENERGIES
----------------

  NO   OCC          E(Eh)            E(eV)
   0   2.0000     -24.852823      -676.2797
   1   2.0000     -19.236397      -523.4490
   2   2.0000     -10.455536      -284.5096
   3   2.0000     -10.305581      -280.4291
   4   2.0000     -10.291026      -280.0330
   5   2.0000     -10.266252      -279.3589
   6   2.0000      -1.429688       -38.9038
   7   2.0000      -1.148109       -31.2416
   8   2.0000      -0.933570       -25.4037
   9   2.0000      -0.845544       -23.0084
  10   2.0000      -0.771409       -20.9911
  11   2.0000      -0.720313       -19.6007
  12   2.0000      -0.650276       -17.6949
  13   2.0000      -0.633667       -17.2430
  14   2.0000      -0.615766       -16.7558
  15   2.0000      -0.568373       -15.4662
  16   2.0000      -0.557010       -15.1570
  17   2.0000      -0.517570       -14.0838
  18   2.0000      -0.502186       -13.6652
  19   2.0000      -0.468172       -12.7396
  20   2.0000      -0.453914       -12.3516
  21   2.0000      -0.442403       -12.0384
  22   2.0000      -0.438399       -11.9295
  23   2.0000      -0.389918       -10.6102
  24   0.0000       0.049718         1.3529
  25   0.0000       0.066285         1.8037
  26   0.0000       0.086593         2.3563
  27   0.0000       0.090087         2.4514
  28   0.0000       0.094907         2.5826

MULLIKEN ATOMIC CHARGES
-----------------------
   0 C :   -1.312593
   1 C :   -0.285598
   2 H :    0.271003
   3 H :    0.293529
   4 C :   -0.308046
   5 C :    0.563107
   6 H :    0.301136
   7 H :    0.257565
   8 F :   -0.245127
   9 O :   -0.569014
  10 H :    0.332640
  11 H :    0.339530
  12 H :    0.361868
Sum of atomic charges:   -0.0000000

LOEWDIN ATOMIC CHARGES
----------------------
   0 C :   -0.099464
   1 C :   -0.244754
   2 H :    0.109580
   3 H :    0.111606
   4 C :   -0.119136
   5 C :   -0.480006
   6 H :    0.114518
   7 H :    0.124932
   8 F :    0.197655
   9 O :    0.075228
  10 H :    0.069535
  11 H :    0.073165
  12 H :    0.067139

  Mayer bond orders larger than 0.100000
B(  0-C ,  1-C ) :   0.6315 B(  0-C ,  5-C ) :   0.1349 B(  0-C , 10-H ) :   0.9295
B(  0-C , 11-H ) :   0.9497 B(  0-C , 12-H ) :   0.9305 B(  1-C ,  2-H ) :   0.9386
B(  1-C ,  3-H ) :   0.9178 B(  1-C ,  4-C ) :   0.8641 B(  1-C ,  5-C ) :   0.1147
B(  4-C ,  5-C ) :   0.8461 B(  4-C ,  6-H ) :   0.9302 B(  4-C ,  7-H ) :   0.9307
B(  5-C ,  8-F ) :   0.8971 B(  5-C ,  9-O ) :   1.6700

Dispersion correction           -0.003394302
FINAL SINGLE POINT ENERGY      -331.757081964428

DIPOLE MOMENT
-------------
                                X             Y             Z
Electronic contribution:      2.81598       8.96219       4.28567
Nuclear contribution   :     -2.53960     -10.05333      -3.90042
                        -----------------------------------------
Total Dipole Moment    :      0.27638      -1.09114       0.38525
                        -----------------------------------------
Magnitude (a.u.)       :      1.18970
Magnitude (Debye)      :      3.02398

Rotational constants in cm-1:     0.183043     0.080991     0.078218
Rotational constants in MHz :  5487.486217  2428.040459  2344.904824

                             ****ORCA TERMINATED NORMALLY****
TOTAL RUN TIME: 0 days 0 hours 0 minutes 23 seconds 901 msec
