                         Program Version 5.0.0 -  RELEASE  -
|  1> !wB97X-D3 RIJCOSX def2-TZVPD def2/J TightSCF
|  2> *xyz 0 1
|  3> C         -0.69912        3.48945        3.75516
|  4> H         -0.96672        4.34901        3.14049
|  5> C         -1.08067        3.79296        5.15686
|  6> C          0.77696        3.13839        3.61741
|  7> H         -1.33146        2.65651        3.44632
|  8> H          1.37140        3.88834        4.14974
|  9> H          1.04693        3.23206        2.56133
| 10> C          1.11892        1.73117        4.11516
| 11> H         -0.87449        4.76274        5.42734
| 12> H         -0.68079        3.13476        5.83900
| 13> H         -2.05755        3.53169        5.34620
| 14> H          0.52974        1.01235        3.58499
| 15> H          0.90870        1.66226        5.16204
| 16> H          2.15725        1.53562        3.94624
| 17> *
| 18> %MaxCore 64000
| 19>
| 20> %pal nprocs 18
| 21> end
| 22>
| 23> %scf
| 24>   MaxIter 150
| 25> end
| 26>
| 27>
| 28>                          ****END OF INPUT****

CARTESIAN COORDINATES (ANGSTROEM)
---------------------------------
  C     -0.699120    3.489450    3.755160
  H     -0.966720    4.349010    3.140490
  C     -1.080670    3.792960    5.156860
  C      0.776960    3.138390    3.617410
  H     -1.331460    2.656510    3.446320
  H      1.371400    3.888340    4.149740
  H      1.046930    3.232060    2.561330
  C      1.118920    1.731170    4.115160
  H     -0.874490    4.762740    5.427340
  H     -0.680790    3.134760    5.839000
  H     -2.057550    3.531690    5.346200
  H      0.529740    1.012350    3.584990
  H      0.908700    1.662260    5.162040
  H      2.157250    1.535620    3.946240

 Total Charge           Charge          ....    0
 Multiplicity           Mult            ....    1
 Number of Electrons    NEL             ....   34
 Basis Dimension        Dim             ....  238

ORBITAL ENERGIES
----------------

  NO   OCC          E(Eh)            E(eV)
   0   2.0000     -10.263024      -279.2711
   1   2.0000     -10.258579      -279.1501
   2   2.0000     -10.251718      -278.9634
   3   2.0000     -10.230928      -278.3977
   4   2.0000      -0.918707       -24.9993
   5   2.0000      -0.844862       -22.9899
   6   2.0000      -0.756626       -20.5888
   7   2.0000      -0.678821       -18.4716
   8   2.0000      -0.569749       -15.5037
   9   2.0000      -0.560266       -15.2456
  10   2.0000      -0.526980       -14.3399
  11   2.0000      -0.483633       -13.1603
  12   2.0000      -0.474796       -12.9199
  13   2.0000      -0.459180       -12.4949
  14   2.0000      -0.416531       -11.3344
  15   2.0000      -0.413497       -11.2518
  16   2.0000      -0.408089       -11.1047
  17   0.0000       0.076746         2.0884
  18   0.0000       0.094053         2.5593
  19   0.0000       0.095221         2.5911
  20   0.0000       0.097918         2.6645
  21   0.0000       0.142065         3.8658

MULLIKEN ATOMIC CHARGES
-----------------------
   0 C :   -0.135969
   1 H :    0.212245
   2 C :   -1.507538
   3 C :   -0.216968
   4 H :    0.268015
   5 H :    0.282253
   6 H :    0.247715
   7 C :   -1.238353
   8 H :    0.367723
   9 H :    0.368009
  10 H :    0.388549
  11 H :    0.326010
  12 H :    0.323805
  13 H :    0.314503
Sum of atomic charges:   -0.0000000

LOEWDIN ATOMIC CHARGES
----------------------
   0 C :   -0.275648
   1 H :    0.106763
   2 C :   -0.122158
   3 C :   -0.270838
   4 H :    0.107793
   5 H :    0.108493
   6 H :    0.100508
   7 C :   -0.108778
   8 H :    0.060603
   9 H :    0.048920
  10 H :    0.055258
  11 H :    0.067354
  12 H :    0.059008
  13 H :    0.062723

  Mayer bond orders larger than 0.100000
B(  0-C ,  1-H ) :   1.0001 B(  0-C ,  2-C ) :   0.5916 B(  0-C ,  3-C ) :   0.7634
B(  0-C ,  4-H ) :   0.9667 B(  0-C ,  7-C ) :   0.1250 B(  2-C ,  3-C ) :   0.1565
B(  2-C ,  7-C ) :   0.1419 B(  2-C ,  8-H ) :   0.9303 B(  2-C ,  9-H ) :   0.9146
B(  2-C , 10-H ) :   0.9194 B(  3-C ,  5-H ) :   0.9585 B(  3-C ,  6-H ) :   0.9789
B(  3-C ,  7-C ) :   0.6228 B(  7-C , 11-H ) :   0.9681 B(  7-C , 12-H ) :   0.9521
B(  7-C , 13-H ) :   0.9636

Dispersion correction           -0.002731080
FINAL SINGLE POINT ENERGY      -158.451551979704

DIPOLE MOMENT
-------------
                                X             Y             Z
Electronic contribution:      0.12417       0.47066      -0.75831
Nuclear contribution   :     -0.14518      -0.47660       0.76944
                        -----------------------------------------
Total Dipole Moment    :     -0.02101      -0.00593       0.01113
                        -----------------------------------------
Magnitude (a.u.)       :      0.02450
Magnitude (Debye)      :      0.06228

Rotational constants in cm-1:     0.472466     0.157481     0.138592
Rotational constants in MHz : 14164.171374  4721.163669  4154.874787

                             ****ORCA TERMINATED NORMALLY****
TOTAL RUN TIME: 0 days 0 hours 0 minutes 16 seconds 116 msec
