                         Program Version 5.0.0 -  RELEASE  -
|  1> !wB97X-D3 RIJCOSX def2-TZVPD def2/J TightSCF
|  2> *xyz 0 1
|  3> C         -1.78916       -0.63923        4.55750
|  4> C         -2.79070       -0.78527        5.70281
|  5> H         -2.86731       -1.83565        6.00167
|  6> H         -3.77455       -0.48658        5.33481
|  7> C         -2.45380        0.05510        6.94145
|  8> C         -2.07842        1.48042        6.56410
|  9> H         -1.62558       -0.38216        7.49891
| 10> H         -3.32527        0.08775        7.59917
| 11> O         -0.90125        1.85816        6.82810
| 12> F         -2.93658        2.17731        5.96415
| 13> H         -2.09421       -1.25377        3.73641
| 14> H         -0.81933       -0.94475        4.89064
| 15> H         -1.75281        0.38306        4.24366
| 16> *
| 17> %MaxCore 64000
| 18>
| 19> %pal nprocs 18
| 20> end
| 21>
| 22> %scf
| 23>   MaxIter 150
| 24> end
| 25>
| 26>
| 27>                          ****END OF INPUT****

CARTESIAN COORDINATES (ANGSTROEM)
---------------------------------
  C     -1.789160   -0.639230    4.557500
  C     -2.790700   -0.785270    5.702810
  H     -2.867310   -1.835650    6.001670
  H     -3.774550   -0.486580    5.334810
  C     -2.453800    0.055100    6.941450
  C     -2.078420    1.480420    6.564100
  H     -1.625580   -0.382160    7.498910
  H     -3.325270    0.087750    7.599170
  O     -0.901250    1.858160    6.828100
  F     -2.936580    2.177310    5.964150
  H     -2.094210   -1.253770    3.736410
  H     -0.819330   -0.944750    4.890640
  H     -1.752810    0.383060    4.243660

 Total Charge           Charge          ....    0
 Multiplicity           Mult            ....    1
 Number of Electrons    NEL             ....   48
 Basis Dimension        Dim             ....  291

ORBITAL ENERGIES
----------------

  NO   OCC          E(Eh)            E(eV)
   0   2.0000     -24.856180      -676.3710
   1   2.0000     -19.234598      -523.4000
   2   2.0000     -10.455048      -284.4963
   3   2.0000     -10.304899      -280.4106
   4   2.0000     -10.294375      -280.1242
   5   2.0000     -10.268503      -279.4202
   6   2.0000      -1.435171       -39.0530
   7   2.0000      -1.142899       -31.0999
   8   2.0000      -0.936738       -25.4899
   9   2.0000      -0.845424       -23.0051
  10   2.0000      -0.771831       -21.0026
  11   2.0000      -0.725805       -19.7502
  12   2.0000      -0.655574       -17.8391
  13   2.0000      -0.643817       -17.5191
  14   2.0000      -0.599752       -16.3201
  15   2.0000      -0.576411       -15.6849
  16   2.0000      -0.557917       -15.1817
  17   2.0000      -0.517461       -14.0808
  18   2.0000      -0.499033       -13.5794
  19   2.0000      -0.469369       -12.7722
  20   2.0000      -0.461450       -12.5567
  21   2.0000      -0.445273       -12.1165
  22   2.0000      -0.439454       -11.9581
  23   2.0000      -0.383052       -10.4234
  24   0.0000       0.051968         1.4141
  25   0.0000       0.065568         1.7842
  26   0.0000       0.087092         2.3699
  27   0.0000       0.089832         2.4444
  28   0.0000       0.093147         2.5347

MULLIKEN ATOMIC CHARGES
-----------------------
   0 C :   -1.244384
   1 C :   -0.350677
   2 H :    0.262843
   3 H :    0.296262
   4 C :   -0.262101
   5 C :    0.544562
   6 H :    0.260049
   7 H :    0.290313
   8 O :   -0.583781
   9 F :   -0.237567
  10 H :    0.333400
  11 H :    0.339378
  12 H :    0.351702
Sum of atomic charges:   -0.0000000

LOEWDIN ATOMIC CHARGES
----------------------
   0 C :   -0.098018
   1 C :   -0.248884
   2 H :    0.110101
   3 H :    0.107531
   4 C :   -0.117281
   5 C :   -0.486029
   6 H :    0.123229
   7 H :    0.120791
   8 O :    0.067099
   9 F :    0.207736
  10 H :    0.069065
  11 H :    0.077441
  12 H :    0.067220

  Mayer bond orders larger than 0.100000
B(  0-C ,  1-C ) :   0.6966 B(  0-C ,  5-C ) :   0.1361 B(  0-C , 10-H ) :   0.9385
B(  0-C , 11-H ) :   0.9581 B(  0-C , 12-H ) :   0.9208 B(  1-C ,  2-H ) :   0.9434
B(  1-C ,  3-H ) :   0.9156 B(  1-C ,  4-C ) :   0.8226 B(  1-C ,  5-C ) :   0.1181
B(  4-C ,  5-C ) :   0.8635 B(  4-C ,  6-H ) :   0.9771 B(  4-C ,  7-H ) :   0.9227
B(  5-C ,  8-O ) :   1.6311 B(  5-C ,  9-F ) :   0.9033

Dispersion correction           -0.003400970
FINAL SINGLE POINT ENERGY      -331.754575791129

DIPOLE MOMENT
-------------
                                X             Y             Z
Electronic contribution:     -0.64241       9.47814       2.81104
Nuclear contribution   :     -0.24054     -10.41383      -2.92452
                        -----------------------------------------
Total Dipole Moment    :     -0.88295      -0.93569      -0.11349
                        -----------------------------------------
Magnitude (a.u.)       :      1.29151
Magnitude (Debye)      :      3.28276

Rotational constants in cm-1:     0.180403     0.081943     0.079197
Rotational constants in MHz :  5408.335479  2456.587956  2374.272438

                             ****ORCA TERMINATED NORMALLY****
TOTAL RUN TIME: 0 days 0 hours 0 minutes 22 seconds 804 msec
