                         Program Version 5.0.0 -  RELEASE  -
|  1> !wB97X-D3 RIJCOSX def2-TZVPD def2/J TightSCF xyzfile
|  2>
|  3> *xyzfile 0 1 D1.xyz
|  4>
|  5> %MaxCore 64000
|  6>
|  7> %pal nprocs 18
|  8> end
|  9>
| 10> %scf
| 11>   MaxIter 150
| 12> end
| 13>
| 14>
| 15>                          ****END OF INPUT****

CARTESIAN COORDINATES (ANGSTROEM)
---------------------------------
  C     -0.699123    3.489451    3.755163
  H     -0.966716    4.349013    3.140491
  C     -1.080669    3.792957    5.156857
  C      0.776956    3.138391    3.617408
  H     -1.331455    2.656510    3.446323
  H      1.371398    3.888342    4.149744
  H      1.046926    3.232057    2.561331
  C      1.118917    1.731170    4.115155
  H      2.200573    1.654226    4.254882
  C      0.659466    0.635182    3.153306
  H      0.677024    1.576674    5.103150
  H      1.312288    0.638870    2.274207
  H     -0.339563    0.868049    2.772876
  C      0.639957   -0.771175    3.755619
  C     -0.341821   -0.965537    4.915046
  H      1.648266   -1.028665    4.097015
  H      0.398568   -1.482386    2.958453
  H     -0.279892   -2.005646    5.252547
  C     -1.789164   -0.639231    4.557496
  H     -0.032380   -0.352918    5.765118
  H     -2.107151   -1.270102    3.719619
  H     -1.856352    0.391636    4.197604
  C     -2.790700   -0.785275    5.702812
  H     -2.867308   -1.835651    6.001675
  H     -3.774554   -0.486577    5.334807
  C     -2.453797    0.055101    6.941445
  C     -2.078419    1.480421    6.564098
  H     -1.625584   -0.382163    7.498914
  H     -3.325274    0.087746    7.599175
  H     -0.874488    4.762737    5.427344
  H     -0.680793    3.134762    5.839000
  H     -2.057550    3.531691    5.346197
  F     -0.901252    1.858156    6.828104
  O     -2.936582    2.177309    5.964151

 Total Charge           Charge          ....    0
 Multiplicity           Mult            ....    1
 Number of Electrons    NEL             ....  104
 Basis Dimension        Dim             ....  676

ORBITAL ENERGIES
----------------

  NO   OCC          E(Eh)            E(eV)
   0   2.0000     -24.864049      -676.5852
   1   2.0000     -19.243321      -523.6374
   2   2.0000     -10.466770      -284.8153
   3   2.0000     -10.310347      -280.5588
   4   2.0000     -10.292688      -280.0783
   5   2.0000     -10.277759      -279.6720
   6   2.0000     -10.274887      -279.5939
   7   2.0000     -10.269555      -279.4488
   8   2.0000     -10.262275      -279.2507
   9   2.0000     -10.259522      -279.1758
  10   2.0000     -10.252209      -278.9768
  11   2.0000     -10.242073      -278.7010
  12   2.0000     -10.185890      -277.1722
  13   2.0000      -1.447576       -39.3905
  14   2.0000      -1.162622       -31.6366
  15   2.0000      -0.950280       -25.8584
  16   2.0000      -0.925631       -25.1877
  17   2.0000      -0.894799       -24.3487
  18   2.0000      -0.865343       -23.5472
  19   2.0000      -0.822678       -22.3862
  20   2.0000      -0.797375       -21.6977
  21   2.0000      -0.768573       -20.9139
  22   2.0000      -0.737679       -20.0733
  23   2.0000      -0.717965       -19.5368
  24   2.0000      -0.675951       -18.3936
  25   2.0000      -0.668126       -18.1806
  26   2.0000      -0.661557       -18.0019
  27   2.0000      -0.643816       -17.5191
  28   2.0000      -0.624884       -17.0039
  29   2.0000      -0.582703       -15.8562
  30   2.0000      -0.578861       -15.7516
  31   2.0000      -0.561536       -15.2802
  32   2.0000      -0.558657       -15.2018
  33   2.0000      -0.536446       -14.5974
  34   2.0000      -0.528267       -14.3749
  35   2.0000      -0.512575       -13.9479
  36   2.0000      -0.505618       -13.7586
  37   2.0000      -0.497009       -13.5243
  38   2.0000      -0.485741       -13.2177
  39   2.0000      -0.476300       -12.9608
  40   2.0000      -0.463514       -12.6129
  41   2.0000      -0.454969       -12.3803
  42   2.0000      -0.445980       -12.1357
  43   2.0000      -0.438546       -11.9334
  44   2.0000      -0.432380       -11.7657
  45   2.0000      -0.420795       -11.4504
  46   2.0000      -0.416065       -11.3217
  47   2.0000      -0.404400       -11.0043
  48   2.0000      -0.400692       -10.9034
  49   2.0000      -0.389510       -10.5991
  50   2.0000      -0.386993       -10.5306
  51   2.0000      -0.358832        -9.7643
  52   0.0000       0.039257         1.0682
  53   0.0000       0.063729         1.7341
  54   0.0000       0.074040         2.0147
  55   0.0000       0.076927         2.0933
  56   0.0000       0.083399         2.2694

MULLIKEN ATOMIC CHARGES
-----------------------
   0 C :    0.062839
   1 H :    0.268354
   2 C :   -2.061498
   3 C :   -0.570183
   4 H :    0.152139
   5 H :    0.303471
   6 H :    0.230848
   7 C :   -0.146623
   8 H :    0.318303
   9 C :   -0.539570
  10 H :   -0.002594
  11 H :    0.327614
  12 H :    0.258483
  13 C :   -0.792315
  14 C :   -0.394262
  15 H :    0.289352
  16 H :    0.317711
  17 H :    0.269532
  18 C :   -0.115263
  19 H :    0.222879
  20 H :    0.357249
  21 H :   -0.150742
  22 C :   -0.708047
  23 H :    0.264930
  24 H :    0.361430
  25 C :   -0.572056
  26 C :    0.703862
  27 H :    0.335980
  28 H :    0.318123
  29 H :    0.478348
  30 H :    0.524545
  31 H :    0.623875
  32 F :   -0.299820
  33 O :   -0.636895
Sum of atomic charges:    0.0000000

LOEWDIN ATOMIC CHARGES
----------------------
   0 C :   -0.237834
   1 H :    0.110232
   2 C :   -0.120741
   3 C :   -0.208608
   4 H :    0.096714
   5 H :    0.113222
   6 H :    0.107508
   7 C :   -0.201724
   8 H :    0.115035
   9 C :   -0.215759
  10 H :    0.088067
  11 H :    0.115019
  12 H :    0.096902
  13 C :   -0.207352
  14 C :   -0.209796
  15 H :    0.111815
  16 H :    0.110451
  17 H :    0.117824
  18 C :   -0.204770
  19 H :    0.093208
  20 H :    0.124587
  21 H :    0.096205
  22 C :   -0.187312
  23 H :    0.116663
  24 H :    0.116600
  25 C :   -0.096260
  26 C :   -0.433980
  27 H :    0.115487
  28 H :    0.128374
  29 H :    0.070651
  30 H :    0.021981
  31 H :    0.021061
  32 F :    0.162493
  33 O :    0.074037

  Mayer bond orders larger than 0.100000
B(  0-C ,  1-H ) :   0.8767 B(  0-C ,  2-C ) :   0.1866 B(  0-C ,  3-C ) :   0.8141
B(  0-C ,  4-H ) :   1.1064 B(  0-C ,  9-C ) :   0.1166 B(  2-C ,  3-C ) :   0.2929
B(  2-C , 29-H ) :   0.6845 B(  2-C , 30-H ) :   0.9231 B(  2-C , 31-H ) :   0.8312
B(  3-C ,  5-H ) :   0.9004 B(  3-C ,  6-H ) :   0.9372 B(  3-C ,  7-C ) :   1.0242
B(  3-C ,  9-C ) :   0.3665 B(  7-C ,  8-H ) :   0.8258 B(  7-C ,  9-C ) :   0.4339
B(  7-C , 10-H ) :   1.1938 B(  7-C , 13-C ) :   0.3577 B(  7-C , 14-C ) :   0.1094
B(  9-C , 11-H ) :   0.8742 B(  9-C , 12-H ) :   1.0293 B(  9-C , 13-C ) :   1.0114
B(  9-C , 18-C ) :   0.1502 B( 13-C , 14-C ) :   0.9060 B( 13-C , 15-H ) :   0.9593
B( 13-C , 16-H ) :   0.9098 B( 13-C , 18-C ) :   0.3153 B( 14-C , 17-H ) :   0.9044
B( 14-C , 18-C ) :   0.4320 B( 14-C , 19-H ) :   1.0274 B( 14-C , 21-H ) :  -0.1576
B( 14-C , 22-C ) :   0.2592 B( 14-C , 25-C ) :   0.1476 B( 18-C , 20-H ) :   0.7338
B( 18-C , 21-H ) :   1.3745 B( 18-C , 22-C ) :   0.8347 B( 18-C , 26-C ) :   0.1220
B( 20-H , 21-H ) :   0.1377 B( 21-H , 22-C ) :   0.2675 B( 22-C , 23-H ) :   0.9452
B( 22-C , 24-H ) :   0.8492 B( 22-C , 25-C ) :   0.8637 B( 22-C , 26-C ) :   0.1683
B( 25-C , 26-C ) :   0.9466 B( 25-C , 27-H ) :   0.9285 B( 25-C , 28-H ) :   0.8738
B( 26-C , 32-F ) :   0.8596 B( 26-C , 33-O ) :   1.5845 B( 30-H , 32-F ) :  -0.1751
B( 31-H , 33-O ) :  -0.1600 B( 32-F , 33-O ) :   0.1074

Dispersion correction           -0.017256555
FINAL SINGLE POINT ENERGY      -606.922420093742

DIPOLE MOMENT
-------------
                                X             Y             Z
Electronic contribution:     -5.46605       2.47814      10.85376
Nuclear contribution   :      5.54676      -3.70047     -10.28793
                        -----------------------------------------
Total Dipole Moment    :      0.08071      -1.22232       0.56583
                        -----------------------------------------
Magnitude (a.u.)       :      1.34935
Magnitude (Debye)      :      3.42979

Rotational constants in cm-1:     0.028503     0.023389     0.015214
Rotational constants in MHz :   854.502405   701.197575   456.108322

                             ****ORCA TERMINATED NORMALLY****
TOTAL RUN TIME: 0 days 0 hours 2 minutes 46 seconds 506 msec
