                         Program Version 5.0.0 -  RELEASE  -
|  1> !M062X D3Zero RIJCOSX def2-TZVPD def2/J TightSCF
|  2> *xyz -1 1
|  3> C          2.49556        1.81615       -2.13636
|  4> C          1.87218        0.42790       -2.07750
|  5> H          2.61427       -0.36583       -2.19889
|  6> H          1.38995        0.27309       -1.11236
|  7> S          0.57902        0.14047       -3.29794
|  8> O          0.22886       -1.24687       -3.12787
|  9> O         -0.43927        1.11897       -3.01455
| 10> O          1.24788        0.40347       -4.59565
| 11> H          2.96535        1.95613       -3.08747
| 12> H          3.22581        1.91242       -1.36024
| 13> H          1.73350        2.55528       -2.00274
| 14> *
| 15>
| 16> %MaxCore 64000
| 17>
| 18> %pal nprocs 4
| 19> end
| 20>
| 21> %scf
| 22>   MaxIter 150
| 23> end
| 24>
| 25>
| 26>                          ****END OF INPUT****

CARTESIAN COORDINATES (ANGSTROEM)
---------------------------------
  C      2.495560    1.816150   -2.136360
  C      1.872180    0.427900   -2.077500
  H      2.614270   -0.365830   -2.198890
  H      1.389950    0.273090   -1.112360
  S      0.579020    0.140470   -3.297940
  O      0.228860   -1.246870   -3.127870
  O     -0.439270    1.118970   -3.014550
  O      1.247880    0.403470   -4.595650
  H      2.965350    1.956130   -3.087470
  H      3.225810    1.912420   -1.360240
  H      1.733500    2.555280   -2.002740

 Total Charge           Charge          ....   -1
 Multiplicity           Mult            ....    1
 Number of Electrons    NEL             ....   58
 Basis Dimension        Dim             ....  285

ORBITAL ENERGIES
----------------

  NO   OCC          E(Eh)            E(eV)
   0   2.0000     -89.888777     -2445.9980
   1   2.0000     -19.408310      -528.1270
   2   2.0000     -19.408288      -528.1264
   3   2.0000     -19.394011      -527.7379
   4   2.0000     -10.392898      -282.8051
   5   2.0000     -10.386124      -282.6208
   6   2.0000      -8.213649      -223.5047
   7   2.0000      -6.136369      -166.9791
   8   2.0000      -6.135215      -166.9477
   9   2.0000      -6.135029      -166.9426
  10   2.0000      -1.049684       -28.5634
  11   2.0000      -0.918860       -25.0035
  12   2.0000      -0.891724       -24.2651
  13   2.0000      -0.727653       -19.8005
  14   2.0000      -0.591975       -16.1085
  15   2.0000      -0.466344       -12.6899
  16   2.0000      -0.394124       -10.7246
  17   2.0000      -0.386865       -10.5271
  18   2.0000      -0.352831        -9.6010
  19   2.0000      -0.343407        -9.3446
  20   2.0000      -0.326439        -8.8829
  21   2.0000      -0.293325        -7.9818
  22   2.0000      -0.274881        -7.4799
  23   2.0000      -0.231382        -6.2962
  24   2.0000      -0.229268        -6.2387
  25   2.0000      -0.193234        -5.2582
  26   2.0000      -0.179399        -4.8817
  27   2.0000      -0.166868        -4.5407
  28   2.0000      -0.140543        -3.8244
  29   0.0000       0.129522         3.5245
  30   0.0000       0.144184         3.9234
  31   0.0000       0.146236         3.9793
  32   0.0000       0.155678         4.2362
  33   0.0000       0.174985         4.7616

MULLIKEN ATOMIC CHARGES
-----------------------
   0 C :   -1.193802
   1 C :   -0.457315
   2 H :    0.339616
   3 H :    0.332664
   4 S :    1.352343
   5 O :   -0.747710
   6 O :   -0.757322
   7 O :   -0.790302
   8 H :    0.296001
   9 H :    0.328046
  10 H :    0.297781
Sum of atomic charges:   -1.0000000

LOEWDIN ATOMIC CHARGES
----------------------
   0 C :   -0.151841
   1 C :   -0.334013
   2 H :    0.087283
   3 H :    0.082852
   4 S :    0.359188
   5 O :   -0.397823
   6 O :   -0.390979
   7 O :   -0.426324
   8 H :    0.060130
   9 H :    0.049909
  10 H :    0.061619

  Mayer bond orders larger than 0.100000
B(  0-C ,  1-C ) :   0.5435 B(  0-C ,  8-H ) :   1.0044 B(  0-C ,  9-H ) :   0.9354
B(  0-C , 10-H ) :   0.9950 B(  1-C ,  2-H ) :   0.9268 B(  1-C ,  3-H ) :   0.9358
B(  1-C ,  4-S ) :   0.8604 B(  1-C ,  5-O ) :   0.1279 B(  1-C ,  6-O ) :   0.1069
B(  4-S ,  5-O ) :   1.4342 B(  4-S ,  6-O ) :   1.4519 B(  4-S ,  7-O ) :   1.4114

Dispersion correction           -0.000144423
FINAL SINGLE POINT ENERGY      -703.162728432911

DIPOLE MOMENT
-------------
                                X             Y             Z
Electronic contribution:     -5.65847      -3.58038      -4.05820
Nuclear contribution   :      6.89220       4.11756       5.35566
                        -----------------------------------------
Total Dipole Moment    :      1.23372       0.53718       1.29746
                        -----------------------------------------
Magnitude (a.u.)       :      1.86924
Magnitude (Debye)      :      4.75123

Rotational constants in cm-1:     0.162183     0.084017     0.082390
Rotational constants in MHz :  4862.117324  2518.774315  2469.980309

                             ****ORCA TERMINATED NORMALLY****
TOTAL RUN TIME: 0 days 0 hours 0 minutes 36 seconds 151 msec
