                         Program Version 5.0.0 -  RELEASE  -
|  1> !M062X D3Zero RIJCOSX def2-TZVPD def2/J TightSCF
|  2> *xyz 1 1
|  3> C          3.38093        2.08304       -3.35013
|  4> N          4.53592        1.18245       -3.42852
|  5> C          2.49556        1.81615       -2.13636
|  6> C          4.67196        0.12227       -4.22060
|  7> N          5.86602       -0.50785       -4.22428
|  8> N          3.69888       -0.31284       -4.98699
|  9> H          2.73141       -0.05009       -4.84900
| 10> H          3.89005       -1.05517       -5.64373
| 11> H          5.25193        1.30346       -2.72101
| 12> H          6.69516       -0.06232       -3.85160
| 13> H          5.97538       -1.39688       -4.69141
| 14> H          2.80646        1.98651       -4.26848
| 15> H          3.77871        3.09828       -3.30738
| 16> H          2.11090        0.81901       -2.18783
| 17> H          1.68276        2.51198       -2.12786
| 18> H          3.07216        1.93031       -1.24227
| 19> *
| 20>
| 21> %MaxCore 64000
| 22>
| 23> %pal nprocs 4
| 24> end
| 25>
| 26> %scf
| 27>   MaxIter 150
| 28> end
| 29>
| 30>
| 31>                          ****END OF INPUT****

CARTESIAN COORDINATES (ANGSTROEM)
---------------------------------
  C      3.380930    2.083040   -3.350130
  N      4.535920    1.182450   -3.428520
  C      2.495560    1.816150   -2.136360
  C      4.671960    0.122270   -4.220600
  N      5.866020   -0.507850   -4.224280
  N      3.698880   -0.312840   -4.986990
  H      2.731410   -0.050090   -4.849000
  H      3.890050   -1.055170   -5.643730
  H      5.251930    1.303460   -2.721010
  H      6.695160   -0.062320   -3.851600
  H      5.975380   -1.396880   -4.691410
  H      2.806460    1.986510   -4.268480
  H      3.778710    3.098280   -3.307380
  H      2.110900    0.819010   -2.187830
  H      1.682760    2.511980   -2.127860
  H      3.072160    1.930310   -1.242270

 Total Charge           Charge          ....    1
 Multiplicity           Mult            ....    1
 Number of Electrons    NEL             ....   48
 Basis Dimension        Dim             ....  312

ORBITAL ENERGIES
----------------

  NO   OCC          E(Eh)            E(eV)
   0   2.0000     -14.974610      -407.4799
   1   2.0000     -14.970197      -407.3598
   2   2.0000     -14.965859      -407.2417
   3   2.0000     -10.878220      -296.0114
   4   2.0000     -10.742508      -292.3185
   5   2.0000     -10.668768      -290.3119
   6   2.0000      -1.327451       -36.1218
   7   2.0000      -1.210029       -32.9266
   8   2.0000      -1.194037       -32.4914
   9   2.0000      -1.025850       -27.9148
  10   2.0000      -0.927828       -25.2475
  11   2.0000      -0.886565       -24.1246
  12   2.0000      -0.863527       -23.4978
  13   2.0000      -0.817767       -22.2526
  14   2.0000      -0.767303       -20.8794
  15   2.0000      -0.761821       -20.7302
  16   2.0000      -0.712499       -19.3881
  17   2.0000      -0.704219       -19.1628
  18   2.0000      -0.672129       -18.2895
  19   2.0000      -0.623765       -16.9735
  20   2.0000      -0.594453       -16.1759
  21   2.0000      -0.577270       -15.7083
  22   2.0000      -0.543358       -14.7855
  23   2.0000      -0.507445       -13.8083
  24   0.0000      -0.142521        -3.8782
  25   0.0000      -0.130556        -3.5526
  26   0.0000      -0.111601        -3.0368
  27   0.0000      -0.103665        -2.8209
  28   0.0000      -0.079527        -2.1640

MULLIKEN ATOMIC CHARGES
-----------------------
   0 C :   -0.608238
   1 N :   -0.340548
   2 C :   -0.930052
   3 C :    1.112736
   4 N :   -0.609621
   5 N :   -0.543510
   6 H :    0.274323
   7 H :    0.259326
   8 H :    0.288587
   9 H :    0.253311
  10 H :    0.243649
  11 H :    0.355844
  12 H :    0.288939
  13 H :    0.288592
  14 H :    0.329907
  15 H :    0.336755
Sum of atomic charges:    1.0000000

LOEWDIN ATOMIC CHARGES
----------------------
   0 C :   -0.200993
   1 N :    0.078581
   2 C :   -0.061300
   3 C :   -0.433966
   4 N :    0.190045
   5 N :    0.218380
   6 H :    0.139456
   7 H :    0.144199
   8 H :    0.170343
   9 H :    0.138821
  10 H :    0.134696
  11 H :    0.116532
  12 H :    0.130289
  13 H :    0.073700
  14 H :    0.083254
  15 H :    0.077961

  Mayer bond orders larger than 0.100000
B(  0-C ,  1-N ) :   0.8025 B(  0-C ,  2-C ) :   0.5800 B(  0-C ,  3-C ) :  -0.1526
B(  0-C ,  5-N ) :   0.1091 B(  0-C , 11-H ) :   0.9015 B(  0-C , 12-H ) :   0.9735
B(  1-N ,  3-C ) :   1.1721 B(  1-N ,  4-N ) :   0.1041 B(  1-N ,  8-H ) :   0.9504
B(  2-C , 13-H ) :   0.9609 B(  2-C , 14-H ) :   0.9867 B(  2-C , 15-H ) :   0.9392
B(  3-C ,  4-N ) :   0.8865 B(  3-C ,  5-N ) :   1.0398 B(  4-N ,  9-H ) :   0.9675
B(  4-N , 10-H ) :   0.9986 B(  5-N ,  6-H ) :   0.9182 B(  5-N ,  7-H ) :   0.9831

Dispersion correction           -0.000317811
FINAL SINGLE POINT ENERGY      -284.373134462988

DIPOLE MOMENT
-------------
                                X             Y             Z
Electronic contribution:      3.54195      -2.64092      -2.81410
Nuclear contribution   :     -2.93277       1.85779       2.25966
                        -----------------------------------------
Total Dipole Moment    :      0.60918      -0.78312      -0.55444
                        -----------------------------------------
Magnitude (a.u.)       :      1.13657
Magnitude (Debye)      :      2.88893

Rotational constants in cm-1:     0.245511     0.068839     0.059711
Rotational constants in MHz :  7360.233487  2063.743353  1790.088408

                             ****ORCA TERMINATED NORMALLY****
TOTAL RUN TIME: 0 days 0 hours 0 minutes 50 seconds 13 msec
