                         Program Version 5.0.0 -  RELEASE  -
|  1> !M062X D3Zero RIJCOSX def2-TZVPD def2/J TightSCF xyzfile
|  2>
|  3> *xyzfile 0 1 B.xyz
|  4>
|  5> %MaxCore 64000
|  6>
|  7> %pal nprocs 4
|  8> end
|  9>
| 10> %scf
| 11>   MaxIter 150
| 12> end
| 13>
| 14>
| 15>                          ****END OF INPUT****

CARTESIAN COORDINATES (ANGSTROEM)
---------------------------------
  C      3.380928    2.083045   -3.350127
  N      4.535924    1.182447   -3.428518
  C      2.495557    1.816150   -2.136364
  C      1.872181    0.427903   -2.077497
  H      2.614270   -0.365825   -2.198894
  H      1.389953    0.273087   -1.112360
  S      0.579024    0.140472   -3.297943
  C      4.671956    0.122273   -4.220598
  N      5.866023   -0.507849   -4.224284
  N      3.698881   -0.312844   -4.986988
  H      2.731405   -0.050091   -4.849000
  H      3.890046   -1.055172   -5.643730
  H      5.251933    1.303459   -2.721014
  H      6.695165   -0.062322   -3.851596
  H      5.975383   -1.396884   -4.691414
  O      0.228860   -1.246868   -3.127871
  O     -0.439269    1.118966   -3.014550
  O      1.247881    0.403474   -4.595647
  H      1.697003    2.561969   -2.141109
  H      3.080787    1.987436   -1.225838
  H      2.806463    1.986511   -4.268484
  H      3.778714    3.098282   -3.307383

 Total Charge           Charge          ....    0
 Multiplicity           Mult            ....    1
 Number of Electrons    NEL             ....   96
 Basis Dimension        Dim             ....  524

ORBITAL ENERGIES
----------------

  NO   OCC          E(Eh)            E(eV)
   0   2.0000     -90.036552     -2450.0191
   1   2.0000     -19.561288      -532.2897
   2   2.0000     -19.545701      -531.8656
   3   2.0000     -19.545669      -531.8647
   4   2.0000     -14.843040      -403.8996
   5   2.0000     -14.838666      -403.7806
   6   2.0000     -14.808808      -402.9682
   7   2.0000     -10.739898      -292.2475
   8   2.0000     -10.602497      -288.5086
   9   2.0000     -10.551499      -287.1209
  10   2.0000     -10.537153      -286.7305
  11   2.0000      -8.361475      -227.5273
  12   2.0000      -6.284421      -171.0078
  13   2.0000      -6.283360      -170.9789
  14   2.0000      -6.282302      -170.9501
  15   2.0000      -1.198213       -32.6050
  16   2.0000      -1.190109       -32.3845
  17   2.0000      -1.074447       -29.2372
  18   2.0000      -1.064859       -28.9763
  19   2.0000      -1.055754       -28.7285
  20   2.0000      -1.049094       -28.5473
  21   2.0000      -0.908532       -24.7224
  22   2.0000      -0.831442       -22.6247
  23   2.0000      -0.772629       -21.0243
  24   2.0000      -0.730346       -19.8737
  25   2.0000      -0.723553       -19.6889
  26   2.0000      -0.683536       -18.6000
  27   2.0000      -0.640802       -17.4371
  28   2.0000      -0.623577       -16.9684
  29   2.0000      -0.610398       -16.6098
  30   2.0000      -0.584962       -15.9176
  31   2.0000      -0.562195       -15.2981
  32   2.0000      -0.546187       -14.8625
  33   2.0000      -0.524390       -14.2694
  34   2.0000      -0.511668       -13.9232
  35   2.0000      -0.499345       -13.5879
  36   2.0000      -0.481257       -13.0957
  37   2.0000      -0.447982       -12.1902
  38   2.0000      -0.441772       -12.0212
  39   2.0000      -0.428075       -11.6485
  40   2.0000      -0.406563       -11.0631
  41   2.0000      -0.380855       -10.3636
  42   2.0000      -0.375175       -10.2090
  43   2.0000      -0.371687       -10.1141
  44   2.0000      -0.339058        -9.2262
  45   2.0000      -0.329631        -8.9697
  46   2.0000      -0.312611        -8.5066
  47   2.0000      -0.291178        -7.9234
  48   0.0000      -0.037308        -1.0152
  49   0.0000      -0.006850        -0.1864
  50   0.0000      -0.000639        -0.0174
  51   0.0000       0.011281         0.3070
  52   0.0000       0.025639         0.6977

MULLIKEN ATOMIC CHARGES
-----------------------
   0 C :   -0.754221
   1 N :   -0.349589
   2 C :   -0.616399
   3 C :   -0.645518
   4 H :    0.223892
   5 H :    0.421926
   6 S :    1.445862
   7 C :    1.048160
   8 N :   -0.650492
   9 N :   -0.487937
  10 H :    0.373095
  11 H :    0.253489
  12 H :    0.310771
  13 H :    0.234777
  14 H :    0.239164
  15 O :   -0.758933
  16 O :   -0.753839
  17 O :   -0.946302
  18 H :    0.366532
  19 H :    0.361210
  20 H :    0.389058
  21 H :    0.295293
Sum of atomic charges:   -0.0000000

LOEWDIN ATOMIC CHARGES
----------------------
   0 C :   -0.160579
   1 N :    0.080420
   2 C :   -0.205248
   3 C :   -0.253757
   4 H :    0.092611
   5 H :    0.103972
   6 S :    0.432102
   7 C :   -0.445835
   8 N :    0.163392
   9 N :    0.230371
  10 H :    0.028913
  11 H :    0.139760
  12 H :    0.161041
  13 H :    0.123701
  14 H :    0.123470
  15 O :   -0.348401
  16 O :   -0.337865
  17 O :   -0.403049
  18 H :    0.121816
  19 H :    0.112202
  20 H :    0.115724
  21 H :    0.125239

  Mayer bond orders larger than 0.100000
B(  0-C ,  1-N ) :   0.8079 B(  0-C ,  2-C ) :   0.6527 B(  0-C ,  7-C ) :  -0.1446
B(  0-C , 20-H ) :   0.9044 B(  0-C , 21-H ) :   0.9758 B(  1-N ,  7-C ) :   1.1664
B(  1-N ,  8-N ) :   0.1127 B(  1-N , 12-H ) :   0.9070 B(  2-C ,  3-C ) :   0.8055
B(  2-C ,  6-S ) :   0.1199 B(  2-C , 18-H ) :   0.9774 B(  2-C , 19-H ) :   0.9088
B(  3-C ,  4-H ) :   0.9672 B(  3-C ,  5-H ) :   0.8872 B(  3-C ,  6-S ) :   0.8167
B(  3-C , 15-O ) :   0.1383 B(  6-S , 15-O ) :   1.4005 B(  6-S , 16-O ) :   1.4316
B(  6-S , 17-O ) :   1.2443 B(  7-C ,  8-N ) :   0.8205 B(  7-C ,  9-N ) :   1.1442
B(  8-N , 13-H ) :   0.9869 B(  8-N , 14-H ) :   0.9994 B(  9-N , 10-H ) :   0.7085
B(  9-N , 11-H ) :   0.9973 B(  9-N , 17-O ) :  -0.1512

Dispersion correction           -0.000937957
FINAL SINGLE POINT ENERGY      -947.180201878548

DIPOLE MOMENT
-------------
                                X             Y             Z
Electronic contribution:     -7.06804      -3.17814      -2.42533
Nuclear contribution   :     13.40759       3.44219       2.21042
                        -----------------------------------------
Total Dipole Moment    :      6.33955       0.26405      -0.21490
                        -----------------------------------------
Magnitude (a.u.)       :      6.34869
Magnitude (Debye)      :     16.13708

Rotational constants in cm-1:     0.059860     0.020817     0.017914
Rotational constants in MHz :  1794.564877   624.092098   537.039275

                             ****ORCA TERMINATED NORMALLY****
TOTAL RUN TIME: 0 days 0 hours 3 minutes 4 seconds 16 msec
