                         Program Version 5.0.0 -  RELEASE  -
|  1> !M062X D3Zero RIJCOSX def2-TZVPD def2/J TightSCF
|  2> *xyz 0 1
|  3> C          2.49556        1.81615       -2.13636
|  4> C          1.87218        0.42790       -2.07750
|  5> H          2.61427       -0.36583       -2.19889
|  6> H          1.38995        0.27309       -1.11236
|  7> S          0.57902        0.14047       -3.29794
|  8> F          0.22886       -1.24687       -3.12787
|  9> O         -0.43927        1.11897       -3.01455
| 10> O          1.24788        0.40347       -4.59565
| 11> H          2.96535        1.95613       -3.08747
| 12> H          3.22581        1.91242       -1.36024
| 13> H          1.73350        2.55528       -2.00274
| 14> *
| 15>
| 16> %MaxCore 64000
| 17>
| 18> %pal nprocs 4
| 19> end
| 20>
| 21> %scf
| 22>   MaxIter 150
| 23> end
| 24>
| 25>
| 26>                          ****END OF INPUT****

CARTESIAN COORDINATES (ANGSTROEM)
---------------------------------
  C      2.495560    1.816150   -2.136360
  C      1.872180    0.427900   -2.077500
  H      2.614270   -0.365830   -2.198890
  H      1.389950    0.273090   -1.112360
  S      0.579020    0.140470   -3.297940
  F      0.228860   -1.246870   -3.127870
  O     -0.439270    1.118970   -3.014550
  O      1.247880    0.403470   -4.595650
  H      2.965350    1.956130   -3.087470
  H      3.225810    1.912420   -1.360240
  H      1.733500    2.555280   -2.002740

 Total Charge           Charge          ....    0
 Multiplicity           Mult            ....    1
 Number of Electrons    NEL             ....   58
 Basis Dimension        Dim             ....  285

ORBITAL ENERGIES
----------------

  NO   OCC          E(Eh)            E(eV)
   0   2.0000     -90.152971     -2453.1871
   1   2.0000     -25.371459      -690.3925
   2   2.0000     -19.643260      -534.5203
   3   2.0000     -19.628483      -534.1182
   4   2.0000     -10.596506      -288.3456
   5   2.0000     -10.551356      -287.1170
   6   2.0000      -8.478334      -230.7072
   7   2.0000      -6.403140      -174.2383
   8   2.0000      -6.398168      -174.1030
   9   2.0000      -6.397711      -174.0906
  10   2.0000      -1.534606       -41.7587
  11   2.0000      -1.230927       -33.4952
  12   2.0000      -1.126192       -30.6453
  13   2.0000      -0.920558       -25.0497
  14   2.0000      -0.839501       -22.8440
  15   2.0000      -0.766873       -20.8677
  16   2.0000      -0.693165       -18.8620
  17   2.0000      -0.685568       -18.6553
  18   2.0000      -0.643676       -17.5153
  19   2.0000      -0.567744       -15.4491
  20   2.0000      -0.563330       -15.3290
  21   2.0000      -0.523118       -14.2348
  22   2.0000      -0.499775       -13.5996
  23   2.0000      -0.475808       -12.9474
  24   2.0000      -0.461860       -12.5678
  25   2.0000      -0.452076       -12.3016
  26   2.0000      -0.409463       -11.1421
  27   2.0000      -0.391543       -10.6544
  28   2.0000      -0.382839       -10.4176
  29   0.0000      -0.000069        -0.0019
  30   0.0000       0.018751         0.5102
  31   0.0000       0.025769         0.7012
  32   0.0000       0.028875         0.7857
  33   0.0000       0.056298         1.5319

MULLIKEN ATOMIC CHARGES
-----------------------
   0 C :   -1.197188
   1 C :   -0.512291
   2 H :    0.405363
   3 H :    0.403420
   4 S :    1.317434
   5 F :   -0.115999
   6 O :   -0.641080
   7 O :   -0.670159
   8 H :    0.335215
   9 H :    0.334028
  10 H :    0.341257
Sum of atomic charges:    0.0000000

LOEWDIN ATOMIC CHARGES
----------------------
   0 C :   -0.104758
   1 C :   -0.289291
   2 H :    0.104029
   3 H :    0.099798
   4 S :    0.611273
   5 F :   -0.058024
   6 O :   -0.279050
   7 O :   -0.313138
   8 H :    0.075970
   9 H :    0.075995
  10 H :    0.077195

  Mayer bond orders larger than 0.100000
B(  0-C ,  1-C ) :   0.6259 B(  0-C ,  8-H ) :   0.9596 B(  0-C ,  9-H ) :   0.9354
B(  0-C , 10-H ) :   0.9462 B(  1-C ,  2-H ) :   0.8466 B(  1-C ,  3-H ) :   0.8553
B(  1-C ,  4-S ) :   0.8652 B(  4-S ,  5-F ) :   0.9257 B(  4-S ,  6-O ) :   1.6365
B(  4-S ,  7-O ) :   1.5914

Dispersion correction           -0.000139490
FINAL SINGLE POINT ENERGY      -727.672741375226

DIPOLE MOMENT
-------------
                                X             Y             Z
Electronic contribution:     -6.79693      -6.40539      -4.06422
Nuclear contribution   :      7.60530       5.82028       5.38743
                        -----------------------------------------
Total Dipole Moment    :      0.80837      -0.58511       1.32321
                        -----------------------------------------
Magnitude (a.u.)       :      1.65732
Magnitude (Debye)      :      4.21257

Rotational constants in cm-1:     0.157861     0.081452     0.078859
Rotational constants in MHz :  4732.562506  2441.865430  2364.129821

                             ****ORCA TERMINATED NORMALLY****
TOTAL RUN TIME: 0 days 0 hours 0 minutes 40 seconds 197 msec
