                         Program Version 5.0.0 -  RELEASE  -
|  1> !M062X D3Zero RIJCOSX def2-TZVPD def2/J TightSCF
|  2> *xyz 0 1
|  3> C          3.38093        2.08304       -3.35013
|  4> C          4.53592        1.18245       -3.42852
|  5> C          2.49556        1.81615       -2.13636
|  6> C          4.67196        0.12227       -4.22060
|  7> N          5.86602       -0.50785       -4.22428
|  8> N          3.69888       -0.31284       -4.98699
|  9> H          2.73141       -0.05009       -4.84900
| 10> H          3.89005       -1.05517       -5.64373
| 11> H          5.25193        1.30346       -2.72101
| 12> H          6.69516       -0.06232       -3.85160
| 13> H          5.97538       -1.39688       -4.69141
| 14> H          2.80646        1.98651       -4.26848
| 15> H          3.77871        3.09828       -3.30738
| 16> H          2.11090        0.81901       -2.18783
| 17> H          1.68276        2.51198       -2.12786
| 18> H          3.07216        1.93031       -1.24227
| 19> *
| 20>
| 21> %MaxCore 64000
| 22>
| 23> %pal nprocs 4
| 24> end
| 25>
| 26> %scf
| 27>   MaxIter 150
| 28> end
| 29>
| 30>
| 31>                          ****END OF INPUT****

CARTESIAN COORDINATES (ANGSTROEM)
---------------------------------
  C      3.380930    2.083040   -3.350130
  C      4.535920    1.182450   -3.428520
  C      2.495560    1.816150   -2.136360
  C      4.671960    0.122270   -4.220600
  N      5.866020   -0.507850   -4.224280
  N      3.698880   -0.312840   -4.986990
  H      2.731410   -0.050090   -4.849000
  H      3.890050   -1.055170   -5.643730
  H      5.251930    1.303460   -2.721010
  H      6.695160   -0.062320   -3.851600
  H      5.975380   -1.396880   -4.691410
  H      2.806460    1.986510   -4.268480
  H      3.778710    3.098280   -3.307380
  H      2.110900    0.819010   -2.187830
  H      1.682760    2.511980   -2.127860
  H      3.072160    1.930310   -1.242270

 Total Charge           Charge          ....    0
 Multiplicity           Mult            ....    1
 Number of Electrons    NEL             ....   48
 Basis Dimension        Dim             ....  312

ORBITAL ENERGIES
----------------

  NO   OCC          E(Eh)            E(eV)
   0   2.0000     -14.751191      -401.4003
   1   2.0000     -14.743520      -401.1916
   2   2.0000     -10.582554      -287.9659
   3   2.0000     -10.507231      -285.9163
   4   2.0000     -10.497652      -285.6556
   5   2.0000     -10.458384      -284.5871
   6   2.0000      -1.073006       -29.1980
   7   2.0000      -0.973802       -26.4985
   8   2.0000      -0.869665       -23.6648
   9   2.0000      -0.786963       -21.4144
  10   2.0000      -0.701792       -19.0967
  11   2.0000      -0.657165       -17.8824
  12   2.0000      -0.618801       -16.8384
  13   2.0000      -0.580639       -15.8000
  14   2.0000      -0.548938       -14.9374
  15   2.0000      -0.510534       -13.8923
  16   2.0000      -0.482794       -13.1375
  17   2.0000      -0.464626       -12.6431
  18   2.0000      -0.444423       -12.0934
  19   2.0000      -0.412780       -11.2323
  20   2.0000      -0.387396       -10.5416
  21   2.0000      -0.381308       -10.3759
  22   2.0000      -0.331400        -9.0179
  23   2.0000      -0.210592        -5.7305
  24   0.0000       0.011360         0.3091
  25   0.0000       0.034511         0.9391
  26   0.0000       0.041194         1.1209
  27   0.0000       0.053227         1.4484
  28   0.0000       0.064957         1.7676

MULLIKEN ATOMIC CHARGES
-----------------------
   0 C :   -0.640904
   1 C :   -0.614822
   2 C :   -0.986568
   3 C :    0.937112
   4 N :   -0.651840
   5 N :   -0.598391
   6 H :    0.234527
   7 H :    0.228688
   8 H :    0.203212
   9 H :    0.221727
  10 H :    0.211442
  11 H :    0.326318
  12 H :    0.248759
  13 H :    0.269913
  14 H :    0.288624
  15 H :    0.322204
Sum of atomic charges:    0.0000000

LOEWDIN ATOMIC CHARGES
----------------------
   0 C :   -0.286122
   1 C :   -0.140086
   2 C :   -0.112326
   3 C :   -0.550400
   4 N :    0.091663
   5 N :    0.121349
   6 H :    0.112045
   7 H :    0.105376
   8 H :    0.068044
   9 H :    0.109231
  10 H :    0.094351
  11 H :    0.095446
  12 H :    0.102853
  13 H :    0.064320
  14 H :    0.058137
  15 H :    0.066118

  Mayer bond orders larger than 0.100000
B(  0-C ,  1-C ) :   0.5327 B(  0-C ,  2-C ) :   0.4833 B(  0-C ,  8-H ) :  -0.1048
B(  0-C , 11-H ) :   0.9451 B(  0-C , 12-H ) :   1.0646 B(  1-C ,  3-C ) :   1.3564
B(  1-C ,  4-N ) :   0.1965 B(  1-C ,  5-N ) :   0.1209 B(  1-C ,  8-H ) :   1.1412
B(  1-C , 11-H ) :  -0.1153 B(  2-C , 13-H ) :   1.0070 B(  2-C , 14-H ) :   0.9857
B(  2-C , 15-H ) :   0.9808 B(  3-C ,  4-N ) :   0.6910 B(  3-C ,  5-N ) :   0.8197
B(  3-C ,  8-H ) :  -0.1993 B(  4-N ,  9-H ) :   1.0021 B(  4-N , 10-H ) :   1.0289
B(  5-N ,  6-H ) :   0.9648 B(  5-N ,  7-H ) :   1.0045

Dispersion correction           -0.000315935
FINAL SINGLE POINT ENERGY      -267.892534505101

DIPOLE MOMENT
-------------
                                X             Y             Z
Electronic contribution:      2.97882      -2.75555      -2.86934
Nuclear contribution   :     -2.84307       1.95814       2.32378
                        -----------------------------------------
Total Dipole Moment    :      0.13575      -0.79741      -0.54556
                        -----------------------------------------
Magnitude (a.u.)       :      0.97567
Magnitude (Debye)      :      2.47995

Rotational constants in cm-1:     0.248902     0.068887     0.059904
Rotational constants in MHz :  7461.898926  2065.183281  1795.882140

                             ****ORCA TERMINATED NORMALLY****
TOTAL RUN TIME: 0 days 0 hours 0 minutes 51 seconds 478 msec
