                         Program Version 5.0.0 -  RELEASE  -
|  1> !M062X D3Zero RIJCOSX def2-TZVPD def2/J TightSCF
|  2> *xyz 0 1
|  3> C          2.49556        1.81615       -2.13636
|  4> C          1.87218        0.42790       -2.07750
|  5> H          2.61427       -0.36583       -2.19889
|  6> H          1.38995        0.27309       -1.11236
|  7> S          0.57902        0.14047       -3.29794
|  8> O          0.22886       -1.24687       -3.12787
|  9> F         -0.43927        1.11897       -3.01455
| 10> O          1.24788        0.40347       -4.59565
| 11> H          2.96535        1.95613       -3.08747
| 12> H          3.22581        1.91242       -1.36024
| 13> H          1.73350        2.55528       -2.00274
| 14> *
| 15>
| 16> %MaxCore 64000
| 17>
| 18> %pal nprocs 4
| 19> end
| 20>
| 21> %scf
| 22>   MaxIter 150
| 23> end
| 24>
| 25>
| 26>                          ****END OF INPUT****

CARTESIAN COORDINATES (ANGSTROEM)
---------------------------------
  C      2.495560    1.816150   -2.136360
  C      1.872180    0.427900   -2.077500
  H      2.614270   -0.365830   -2.198890
  H      1.389950    0.273090   -1.112360
  S      0.579020    0.140470   -3.297940
  O      0.228860   -1.246870   -3.127870
  F     -0.439270    1.118970   -3.014550
  O      1.247880    0.403470   -4.595650
  H      2.965350    1.956130   -3.087470
  H      3.225810    1.912420   -1.360240
  H      1.733500    2.555280   -2.002740

 Total Charge           Charge          ....    0
 Multiplicity           Mult            ....    1
 Number of Electrons    NEL             ....   58
 Basis Dimension        Dim             ....  285

ORBITAL ENERGIES
----------------

  NO   OCC          E(Eh)            E(eV)
   0   2.0000     -90.153171     -2453.1925
   1   2.0000     -25.371754      -690.4005
   2   2.0000     -19.643463      -534.5258
   3   2.0000     -19.629120      -534.1355
   4   2.0000     -10.596500      -288.3454
   5   2.0000     -10.554321      -287.1977
   6   2.0000      -8.478502      -230.7118
   7   2.0000      -6.403434      -174.2463
   8   2.0000      -6.398333      -174.1075
   9   2.0000      -6.397763      -174.0920
  10   2.0000      -1.535143       -41.7734
  11   2.0000      -1.230379       -33.4803
  12   2.0000      -1.127197       -30.6726
  13   2.0000      -0.923667       -25.1343
  14   2.0000      -0.836353       -22.7583
  15   2.0000      -0.770258       -20.9598
  16   2.0000      -0.697162       -18.9708
  17   2.0000      -0.691482       -18.8162
  18   2.0000      -0.636643       -17.3239
  19   2.0000      -0.567859       -15.4522
  20   2.0000      -0.558127       -15.1874
  21   2.0000      -0.532338       -14.4857
  22   2.0000      -0.505246       -13.7484
  23   2.0000      -0.478647       -13.0247
  24   2.0000      -0.466502       -12.6942
  25   2.0000      -0.449314       -12.2265
  26   2.0000      -0.408733       -11.1222
  27   2.0000      -0.391100       -10.6424
  28   2.0000      -0.385027       -10.4771
  29   0.0000      -0.001262        -0.0343
  30   0.0000       0.020474         0.5571
  31   0.0000       0.023757         0.6465
  32   0.0000       0.029202         0.7946
  33   0.0000       0.054233         1.4758

MULLIKEN ATOMIC CHARGES
-----------------------
   0 C :   -1.175791
   1 C :   -0.489863
   2 H :    0.380825
   3 H :    0.392274
   4 S :    1.315344
   5 O :   -0.632755
   6 F :   -0.135915
   7 O :   -0.668504
   8 H :    0.331745
   9 H :    0.337769
  10 H :    0.344873
Sum of atomic charges:    0.0000000

LOEWDIN ATOMIC CHARGES
----------------------
   0 C :   -0.116311
   1 C :   -0.280674
   2 H :    0.115152
   3 H :    0.100277
   4 S :    0.609464
   5 O :   -0.283187
   6 F :   -0.053946
   7 O :   -0.310913
   8 H :    0.074015
   9 H :    0.074428
  10 H :    0.071694

  Mayer bond orders larger than 0.100000
B(  0-C ,  1-C ) :   0.5412 B(  0-C ,  8-H ) :   0.9963 B(  0-C ,  9-H ) :   0.9485
B(  0-C , 10-H ) :   0.9226 B(  1-C ,  2-H ) :   0.8797 B(  1-C ,  3-H ) :   0.8812
B(  1-C ,  4-S ) :   0.8729 B(  1-C ,  5-O ) :   0.1002 B(  4-S ,  5-O ) :   1.6265
B(  4-S ,  6-F ) :   0.9317 B(  4-S ,  7-O ) :   1.6027

Dispersion correction           -0.000150730
FINAL SINGLE POINT ENERGY      -727.672624666596

DIPOLE MOMENT
-------------
                                X             Y             Z
Electronic contribution:     -7.92165      -2.38665      -3.86584
Nuclear contribution   :      8.30151       3.35500       5.26935
                        -----------------------------------------
Total Dipole Moment    :      0.37986       0.96835       1.40351
                        -----------------------------------------
Magnitude (a.u.)       :      1.74696
Magnitude (Debye)      :      4.44041

Rotational constants in cm-1:     0.152913     0.083043     0.080351
Rotational constants in MHz :  4584.227971  2489.580280  2408.872860

                             ****ORCA TERMINATED NORMALLY****
TOTAL RUN TIME: 0 days 0 hours 0 minutes 40 seconds 216 msec
