                         Program Version 5.0.0 -  RELEASE  -
|  1> !M062X D3Zero RIJCOSX def2-TZVPD def2/J TightSCF
|  2> *xyz 0 1
|  3> C          3.38093        2.08304       -3.35013
|  4> N          4.53592        1.18245       -3.42852
|  5> C          2.49556        1.81615       -2.13636
|  6> C          4.67196        0.12227       -4.22060
|  7> C          5.86602       -0.50785       -4.22428
|  8> N          3.69888       -0.31284       -4.98699
|  9> H          2.73141       -0.05009       -4.84900
| 10> H          3.89005       -1.05517       -5.64373
| 11> H          5.25193        1.30346       -2.72101
| 12> H          6.69516       -0.06232       -3.85160
| 13> H          5.97538       -1.39688       -4.69141
| 14> H          2.80646        1.98651       -4.26848
| 15> H          3.77871        3.09828       -3.30738
| 16> H          2.11090        0.81901       -2.18783
| 17> H          1.68276        2.51198       -2.12786
| 18> H          3.07216        1.93031       -1.24227
| 19> *
| 20>
| 21> %MaxCore 64000
| 22>
| 23> %pal nprocs 4
| 24> end
| 25>
| 26> %scf
| 27>   MaxIter 150
| 28> end
| 29>
| 30>
| 31>                          ****END OF INPUT****

CARTESIAN COORDINATES (ANGSTROEM)
---------------------------------
  C      3.380930    2.083040   -3.350130
  N      4.535920    1.182450   -3.428520
  C      2.495560    1.816150   -2.136360
  C      4.671960    0.122270   -4.220600
  C      5.866020   -0.507850   -4.224280
  N      3.698880   -0.312840   -4.986990
  H      2.731410   -0.050090   -4.849000
  H      3.890050   -1.055170   -5.643730
  H      5.251930    1.303460   -2.721010
  H      6.695160   -0.062320   -3.851600
  H      5.975380   -1.396880   -4.691410
  H      2.806460    1.986510   -4.268480
  H      3.778710    3.098280   -3.307380
  H      2.110900    0.819010   -2.187830
  H      1.682760    2.511980   -2.127860
  H      3.072160    1.930310   -1.242270

 Total Charge           Charge          ....    0
 Multiplicity           Mult            ....    1
 Number of Electrons    NEL             ....   48
 Basis Dimension        Dim             ....  312

ORBITAL ENERGIES
----------------

  NO   OCC          E(Eh)            E(eV)
   0   2.0000     -14.750926      -401.3931
   1   2.0000     -14.747274      -401.2937
   2   2.0000     -10.586606      -288.0762
   3   2.0000     -10.575876      -287.7842
   4   2.0000     -10.526221      -286.4330
   5   2.0000     -10.444334      -284.2048
   6   2.0000      -1.080460       -29.4008
   7   2.0000      -0.993134       -27.0246
   8   2.0000      -0.868370       -23.6295
   9   2.0000      -0.790066       -21.4988
  10   2.0000      -0.713592       -19.4178
  11   2.0000      -0.683376       -18.5956
  12   2.0000      -0.619226       -16.8500
  13   2.0000      -0.570257       -15.5175
  14   2.0000      -0.550817       -14.9885
  15   2.0000      -0.515144       -14.0178
  16   2.0000      -0.497759       -13.5447
  17   2.0000      -0.469817       -12.7844
  18   2.0000      -0.454524       -12.3682
  19   2.0000      -0.430735       -11.7209
  20   2.0000      -0.426343       -11.6014
  21   2.0000      -0.418966       -11.4007
  22   2.0000      -0.317867        -8.6496
  23   2.0000      -0.209773        -5.7082
  24   0.0000       0.009625         0.2619
  25   0.0000       0.035049         0.9537
  26   0.0000       0.039529         1.0757
  27   0.0000       0.041151         1.1198
  28   0.0000       0.067132         1.8268

MULLIKEN ATOMIC CHARGES
-----------------------
   0 C :   -0.656735
   1 N :   -0.349221
   2 C :   -0.912485
   3 C :    0.988571
   4 C :   -1.147332
   5 N :   -0.593291
   6 H :    0.243955
   7 H :    0.236292
   8 H :    0.281232
   9 H :    0.188230
  10 H :    0.193278
  11 H :    0.355829
  12 H :    0.283507
  13 H :    0.263186
  14 H :    0.324521
  15 H :    0.300461
Sum of atomic charges:    0.0000000

LOEWDIN ATOMIC CHARGES
----------------------
   0 C :   -0.239288
   1 N :    0.010293
   2 C :   -0.090790
   3 C :   -0.573647
   4 C :   -0.002674
   5 N :    0.117582
   6 H :    0.102225
   7 H :    0.116983
   8 H :    0.147827
   9 H :    0.001910
  10 H :   -0.002932
  11 H :    0.104734
  12 H :    0.110425
  13 H :    0.066545
  14 H :    0.064517
  15 H :    0.066291

  Mayer bond orders larger than 0.100000
B(  0-C ,  1-N ) :   0.8022 B(  0-C ,  2-C ) :   0.5427 B(  0-C ,  3-C ) :  -0.1383
B(  0-C ,  5-N ) :   0.1195 B(  0-C , 11-H ) :   0.9206 B(  0-C , 12-H ) :   0.9953
B(  1-N ,  3-C ) :   0.9999 B(  1-N ,  4-C ) :   0.1264 B(  1-N ,  8-H ) :   0.9443
B(  2-C , 13-H ) :   0.9974 B(  2-C , 14-H ) :   0.9885 B(  2-C , 15-H ) :   0.9691
B(  3-C ,  4-C ) :   1.0627 B(  3-C ,  5-N ) :   0.8621 B(  3-C , 10-H ) :  -0.1658
B(  4-C ,  5-N ) :   0.1256 B(  4-C ,  9-H ) :   1.0444 B(  4-C , 10-H ) :   1.1662
B(  5-N ,  6-H ) :   0.9649 B(  5-N ,  7-H ) :   0.9848

Dispersion correction           -0.000312996
FINAL SINGLE POINT ENERGY      -267.881955880708

DIPOLE MOMENT
-------------
                                X             Y             Z
Electronic contribution:      1.50656      -1.09716      -2.03538
Nuclear contribution   :     -2.56090       1.59955       2.15496
                        -----------------------------------------
Total Dipole Moment    :     -1.05434       0.50239       0.11958
                        -----------------------------------------
Magnitude (a.u.)       :      1.17402
Magnitude (Debye)      :      2.98412

Rotational constants in cm-1:     0.249834     0.071381     0.061833
Rotational constants in MHz :  7489.842787  2139.945635  1853.706310

                             ****ORCA TERMINATED NORMALLY****
TOTAL RUN TIME: 0 days 0 hours 0 minutes 54 seconds 424 msec
