                         Program Version 5.0.0 -  RELEASE  -
|  1> !M062X D3Zero RIJCOSX def2-TZVPD def2/J TightSCF
|  2> *xyz 0 1
|  3> C          2.49556        1.81615       -2.13636
|  4> C          1.87218        0.42790       -2.07750
|  5> H          2.61427       -0.36583       -2.19889
|  6> H          1.38995        0.27309       -1.11236
|  7> S          0.57902        0.14047       -3.29794
|  8> O          0.22886       -1.24687       -3.12787
|  9> O         -0.43927        1.11897       -3.01455
| 10> F          1.24788        0.40347       -4.59565
| 11> H          2.96535        1.95613       -3.08747
| 12> H          3.22581        1.91242       -1.36024
| 13> H          1.73350        2.55528       -2.00274
| 14> *
| 15>
| 16> %MaxCore 64000
| 17>
| 18> %pal nprocs 4
| 19> end
| 20>
| 21> %scf
| 22>   MaxIter 150
| 23> end
| 24>
| 25>
| 26>                          ****END OF INPUT****

CARTESIAN COORDINATES (ANGSTROEM)
---------------------------------
  C      2.495560    1.816150   -2.136360
  C      1.872180    0.427900   -2.077500
  H      2.614270   -0.365830   -2.198890
  H      1.389950    0.273090   -1.112360
  S      0.579020    0.140470   -3.297940
  O      0.228860   -1.246870   -3.127870
  O     -0.439270    1.118970   -3.014550
  F      1.247880    0.403470   -4.595650
  H      2.965350    1.956130   -3.087470
  H      3.225810    1.912420   -1.360240
  H      1.733500    2.555280   -2.002740

 Total Charge           Charge          ....    0
 Multiplicity           Mult            ....    1
 Number of Electrons    NEL             ....   58
 Basis Dimension        Dim             ....  285

ORBITAL ENERGIES
----------------

  NO   OCC          E(Eh)            E(eV)
   0   2.0000     -90.150867     -2453.1298
   1   2.0000     -25.349181      -689.7863
   2   2.0000     -19.643247      -534.5199
   3   2.0000     -19.642829      -534.5086
   4   2.0000     -10.595390      -288.3152
   5   2.0000     -10.554783      -287.2103
   6   2.0000      -8.476157      -230.6480
   7   2.0000      -6.401106      -174.1830
   8   2.0000      -6.396125      -174.0474
   9   2.0000      -6.395448      -174.0290
  10   2.0000      -1.498134       -40.7663
  11   2.0000      -1.241847       -33.7924
  12   2.0000      -1.148872       -31.2624
  13   2.0000      -0.922596       -25.1051
  14   2.0000      -0.820046       -22.3146
  15   2.0000      -0.763326       -20.7711
  16   2.0000      -0.675919       -18.3927
  17   2.0000      -0.666240       -18.1293
  18   2.0000      -0.636159       -17.3108
  19   2.0000      -0.570931       -15.5358
  20   2.0000      -0.556019       -15.1301
  21   2.0000      -0.538019       -14.6402
  22   2.0000      -0.509145       -13.8545
  23   2.0000      -0.482379       -13.1262
  24   2.0000      -0.471065       -12.8183
  25   2.0000      -0.450170       -12.2497
  26   2.0000      -0.419241       -11.4081
  27   2.0000      -0.400929       -10.9098
  28   2.0000      -0.397887       -10.8271
  29   0.0000       0.000976         0.0265
  30   0.0000       0.021739         0.5915
  31   0.0000       0.024713         0.6725
  32   0.0000       0.028714         0.7813
  33   0.0000       0.055887         1.5208

MULLIKEN ATOMIC CHARGES
-----------------------
   0 C :   -1.177994
   1 C :   -0.484118
   2 H :    0.388167
   3 H :    0.376915
   4 S :    1.347839
   5 O :   -0.640648
   6 O :   -0.650697
   7 F :   -0.174457
   8 H :    0.341199
   9 H :    0.336279
  10 H :    0.337516
Sum of atomic charges:   -0.0000000

LOEWDIN ATOMIC CHARGES
----------------------
   0 C :   -0.116143
   1 C :   -0.279531
   2 H :    0.105627
   3 H :    0.110597
   4 S :    0.609574
   5 O :   -0.283595
   6 O :   -0.277691
   7 F :   -0.088897
   8 H :    0.071034
   9 H :    0.074463
  10 H :    0.074563

  Mayer bond orders larger than 0.100000
B(  0-C ,  1-C ) :   0.5382 B(  0-C ,  8-H ) :   0.9332 B(  0-C ,  9-H ) :   0.9486
B(  0-C , 10-H ) :   0.9814 B(  1-C ,  2-H ) :   0.8831 B(  1-C ,  3-H ) :   0.8895
B(  1-C ,  4-S ) :   0.8693 B(  4-S ,  5-O ) :   1.6205 B(  4-S ,  6-O ) :   1.6388
B(  4-S ,  7-F ) :   0.8880

Dispersion correction           -0.000150936
FINAL SINGLE POINT ENERGY      -727.691104936783

DIPOLE MOMENT
-------------
                                X             Y             Z
Electronic contribution:     -5.04561      -3.59432      -6.56804
Nuclear contribution   :      6.54345       4.10057       6.91691
                        -----------------------------------------
Total Dipole Moment    :      1.49784       0.50625       0.34887
                        -----------------------------------------
Magnitude (a.u.)       :      1.61911
Magnitude (Debye)      :      4.11545

Rotational constants in cm-1:     0.152835     0.082826     0.080611
Rotational constants in MHz :  4581.878371  2483.049050  2416.647141

                             ****ORCA TERMINATED NORMALLY****
TOTAL RUN TIME: 0 days 0 hours 0 minutes 36 seconds 396 msec
