                         Program Version 5.0.0 -  RELEASE  -
|  1> !M062X D3Zero RIJCOSX def2-TZVPD def2/J TightSCF
|  2> *xyz 0 1
|  3> C          3.38093        2.08304       -3.35013
|  4> N          4.53592        1.18245       -3.42852
|  5> C          2.49556        1.81615       -2.13636
|  6> C          4.67196        0.12227       -4.22060
|  7> N          5.86602       -0.50785       -4.22428
|  8> C          3.69888       -0.31284       -4.98699
|  9> H          2.73141       -0.05009       -4.84900
| 10> H          3.89005       -1.05517       -5.64373
| 11> H          5.25193        1.30346       -2.72101
| 12> H          6.69516       -0.06232       -3.85160
| 13> H          5.97538       -1.39688       -4.69141
| 14> H          2.80646        1.98651       -4.26848
| 15> H          3.77871        3.09828       -3.30738
| 16> H          2.11090        0.81901       -2.18783
| 17> H          1.68276        2.51198       -2.12786
| 18> H          3.07216        1.93031       -1.24227
| 19> *
| 20>
| 21> %MaxCore 64000
| 22>
| 23> %pal nprocs 4
| 24> end
| 25>
| 26> %scf
| 27>   MaxIter 150
| 28> end
| 29>
| 30>
| 31>                          ****END OF INPUT****

CARTESIAN COORDINATES (ANGSTROEM)
---------------------------------
  C      3.380930    2.083040   -3.350130
  N      4.535920    1.182450   -3.428520
  C      2.495560    1.816150   -2.136360
  C      4.671960    0.122270   -4.220600
  N      5.866020   -0.507850   -4.224280
  C      3.698880   -0.312840   -4.986990
  H      2.731410   -0.050090   -4.849000
  H      3.890050   -1.055170   -5.643730
  H      5.251930    1.303460   -2.721010
  H      6.695160   -0.062320   -3.851600
  H      5.975380   -1.396880   -4.691410
  H      2.806460    1.986510   -4.268480
  H      3.778710    3.098280   -3.307380
  H      2.110900    0.819010   -2.187830
  H      1.682760    2.511980   -2.127860
  H      3.072160    1.930310   -1.242270

 Total Charge           Charge          ....    0
 Multiplicity           Mult            ....    1
 Number of Electrons    NEL             ....   48
 Basis Dimension        Dim             ....  312

ORBITAL ENERGIES
----------------

  NO   OCC          E(Eh)            E(eV)
   0   2.0000     -14.747607      -401.3028
   1   2.0000     -14.743847      -401.2005
   2   2.0000     -10.583750      -287.9985
   3   2.0000     -10.568082      -287.5721
   4   2.0000     -10.518955      -286.2353
   5   2.0000     -10.448776      -284.3256
   6   2.0000      -1.073520       -29.2120
   7   2.0000      -0.983601       -26.7652
   8   2.0000      -0.853119       -23.2145
   9   2.0000      -0.806458       -21.9448
  10   2.0000      -0.725120       -19.7315
  11   2.0000      -0.644530       -17.5385
  12   2.0000      -0.617973       -16.8159
  13   2.0000      -0.588677       -16.0187
  14   2.0000      -0.525433       -14.2978
  15   2.0000      -0.518390       -14.1061
  16   2.0000      -0.491673       -13.3791
  17   2.0000      -0.467677       -12.7261
  18   2.0000      -0.445879       -12.1330
  19   2.0000      -0.439283       -11.9535
  20   2.0000      -0.419231       -11.4079
  21   2.0000      -0.412934       -11.2365
  22   2.0000      -0.310335        -8.4446
  23   2.0000      -0.223380        -6.0785
  24   0.0000       0.014073         0.3829
  25   0.0000       0.031726         0.8633
  26   0.0000       0.041957         1.1417
  27   0.0000       0.045105         1.2274
  28   0.0000       0.067308         1.8315

MULLIKEN ATOMIC CHARGES
-----------------------
   0 C :   -0.632347
   1 N :   -0.378671
   2 C :   -0.925575
   3 C :    1.008763
   4 N :   -0.626650
   5 C :   -1.092768
   6 H :    0.213343
   7 H :    0.188588
   8 H :    0.285232
   9 H :    0.219425
  10 H :    0.218373
  11 H :    0.361520
  12 H :    0.271949
  13 H :    0.261103
  14 H :    0.317855
  15 H :    0.309859
Sum of atomic charges:   -0.0000000

LOEWDIN ATOMIC CHARGES
----------------------
   0 C :   -0.234538
   1 N :    0.001279
   2 C :   -0.087610
   3 C :   -0.565910
   4 N :    0.095889
   5 C :    0.008646
   6 H :    0.009461
   7 H :    0.010981
   8 H :    0.140067
   9 H :    0.099030
  10 H :    0.106538
  11 H :    0.107925
  12 H :    0.110326
  13 H :    0.069158
  14 H :    0.065057
  15 H :    0.063701

  Mayer bond orders larger than 0.100000
B(  0-C ,  1-N ) :   0.7977 B(  0-C ,  2-C ) :   0.5445 B(  0-C ,  5-C ) :   0.1695
B(  0-C , 11-H ) :   0.9234 B(  0-C , 12-H ) :   0.9608 B(  1-N ,  3-C ) :   0.9646
B(  1-N ,  8-H ) :   0.9538 B(  2-C , 13-H ) :   1.0116 B(  2-C , 14-H ) :   0.9793
B(  2-C , 15-H ) :   0.9556 B(  3-C ,  4-N ) :   0.7388 B(  3-C ,  5-C ) :   1.2220
B(  3-C ,  7-H ) :  -0.1847 B(  4-N ,  5-C ) :   0.1291 B(  4-N ,  9-H ) :   1.0085
B(  4-N , 10-H ) :   1.0092 B(  5-C ,  6-H ) :   0.9675 B(  5-C ,  7-H ) :   1.2001

Dispersion correction           -0.000314224
FINAL SINGLE POINT ENERGY      -267.887676132707

DIPOLE MOMENT
-------------
                                X             Y             Z
Electronic contribution:      3.62650      -1.31560      -1.36324
Nuclear contribution   :     -3.02065       1.64092       1.99316
                        -----------------------------------------
Total Dipole Moment    :      0.60585       0.32533       0.62992
                        -----------------------------------------
Magnitude (a.u.)       :      0.93257
Magnitude (Debye)      :      2.37042

Rotational constants in cm-1:     0.259304     0.069422     0.060943
Rotational constants in MHz :  7773.747720  2081.225169  1827.013389

                             ****ORCA TERMINATED NORMALLY****
TOTAL RUN TIME: 0 days 0 hours 0 minutes 51 seconds 458 msec
