                         Program Version 5.0.0 -  RELEASE  -
|  1> !M062X D3Zero RIJCOSX def2-TZVPD def2/J TightSCF xyzfile
|  2>
|  3> *xyzfile 0 1 D1.xyz
|  4>
|  5> %MaxCore 64000
|  6>
|  7> %pal nprocs 4
|  8> end
|  9>
| 10> %scf
| 11>   MaxIter 150
| 12> end
| 13>
| 14>
| 15>                          ****END OF INPUT****

CARTESIAN COORDINATES (ANGSTROEM)
---------------------------------
  C      3.380928    2.083045   -3.350127
  C      4.535924    1.182447   -3.428518
  C      2.495557    1.816150   -2.136364
  C      1.872181    0.427903   -2.077497
  H      2.614270   -0.365825   -2.198894
  H      1.389953    0.273087   -1.112360
  S      0.579024    0.140472   -3.297943
  C      4.671956    0.122273   -4.220598
  N      5.866023   -0.507849   -4.224284
  N      3.698881   -0.312844   -4.986988
  H      2.731405   -0.050091   -4.849000
  H      3.890046   -1.055172   -5.643730
  H      5.251933    1.303459   -2.721014
  H      6.695165   -0.062322   -3.851596
  H      5.975383   -1.396884   -4.691414
  F      0.228860   -1.246868   -3.127871
  O     -0.439269    1.118966   -3.014550
  O      1.247881    0.403474   -4.595647
  H      1.697003    2.561969   -2.141109
  H      3.080787    1.987436   -1.225838
  H      2.806463    1.986511   -4.268484
  H      3.778714    3.098282   -3.307383

 Total Charge           Charge          ....    0
 Multiplicity           Mult            ....    1
 Number of Electrons    NEL             ....   96
 Basis Dimension        Dim             ....  524

ORBITAL ENERGIES
----------------

  NO   OCC          E(Eh)            E(eV)
   0   2.0000     -90.162997     -2453.4599
   1   2.0000     -25.378394      -690.5812
   2   2.0000     -19.650883      -534.7277
   3   2.0000     -19.645551      -534.5826
   4   2.0000     -14.741547      -401.1379
   5   2.0000     -14.725419      -400.6990
   6   2.0000     -10.589365      -288.1513
   7   2.0000     -10.580460      -287.9089
   8   2.0000     -10.546048      -286.9725
   9   2.0000     -10.512271      -286.0534
  10   2.0000     -10.458143      -284.5805
  11   2.0000      -8.488624      -230.9872
  12   2.0000      -6.413360      -174.5164
  13   2.0000      -6.408453      -174.3829
  14   2.0000      -6.407970      -174.3697
  15   2.0000      -1.541841       -41.9556
  16   2.0000      -1.243884       -33.8478
  17   2.0000      -1.146728       -31.2041
  18   2.0000      -1.064435       -28.9648
  19   2.0000      -0.965259       -26.2660
  20   2.0000      -0.925940       -25.1961
  21   2.0000      -0.866072       -23.5670
  22   2.0000      -0.826157       -22.4809
  23   2.0000      -0.774631       -21.0788
  24   2.0000      -0.719919       -19.5900
  25   2.0000      -0.701808       -19.0972
  26   2.0000      -0.678623       -18.4663
  27   2.0000      -0.672707       -18.3053
  28   2.0000      -0.635296       -17.2873
  29   2.0000      -0.612614       -16.6701
  30   2.0000      -0.592221       -16.1151
  31   2.0000      -0.566969       -15.4280
  32   2.0000      -0.560496       -15.2519
  33   2.0000      -0.544993       -14.8300
  34   2.0000      -0.524876       -14.2826
  35   2.0000      -0.511129       -13.9085
  36   2.0000      -0.480387       -13.0720
  37   2.0000      -0.474648       -12.9158
  38   2.0000      -0.463719       -12.6184
  39   2.0000      -0.452325       -12.3084
  40   2.0000      -0.428525       -11.6607
  41   2.0000      -0.422071       -11.4851
  42   2.0000      -0.405378       -11.0309
  43   2.0000      -0.401353       -10.9214
  44   2.0000      -0.390467       -10.6252
  45   2.0000      -0.375811       -10.2263
  46   2.0000      -0.321618        -8.7517
  47   2.0000      -0.211541        -5.7563
  48   0.0000      -0.001422        -0.0387
  49   0.0000       0.016344         0.4447
  50   0.0000       0.020246         0.5509
  51   0.0000       0.027615         0.7514
  52   0.0000       0.040695         1.1074

MULLIKEN ATOMIC CHARGES
-----------------------
   0 C :   -0.650135
   1 C :   -0.791375
   2 C :   -0.681270
   3 C :   -0.742023
   4 H :    0.348137
   5 H :    0.449257
   6 S :    1.344730
   7 C :    1.031805
   8 N :   -0.672169
   9 N :   -0.582325
  10 H :    0.347191
  11 H :    0.219405
  12 H :    0.186597
  13 H :    0.227503
  14 H :    0.212891
  15 F :   -0.136899
  16 O :   -0.668018
  17 O :   -0.805068
  18 H :    0.328148
  19 H :    0.399730
  20 H :    0.316716
  21 H :    0.317169
Sum of atomic charges:   -0.0000000

LOEWDIN ATOMIC CHARGES
----------------------
   0 C :   -0.224452
   1 C :   -0.131586
   2 C :   -0.210606
   3 C :   -0.220889
   4 H :    0.108030
   5 H :    0.105343
   6 S :    0.661419
   7 C :   -0.545038
   8 N :    0.095383
   9 N :    0.137236
  10 H :    0.017239
  11 H :    0.110123
  12 H :    0.068203
  13 H :    0.107820
  14 H :    0.094717
  15 F :   -0.047027
  16 O :   -0.261935
  17 O :   -0.317811
  18 H :    0.113901
  19 H :    0.124798
  20 H :    0.101560
  21 H :    0.113573

  Mayer bond orders larger than 0.100000
B(  0-C ,  1-C ) :   0.5073 B(  0-C ,  2-C ) :   0.5678 B(  0-C , 12-H ) :  -0.1221
B(  0-C , 20-H ) :   0.9756 B(  0-C , 21-H ) :   1.0126 B(  1-C ,  7-C ) :   1.2196
B(  1-C ,  8-N ) :   0.1948 B(  1-C ,  9-N ) :   0.1028 B(  1-C , 12-H ) :   1.2044
B(  1-C , 20-H ) :  -0.1110 B(  2-C ,  3-C ) :   0.8989 B(  2-C ,  6-S ) :   0.1398
B(  2-C , 18-H ) :   0.9460 B(  2-C , 19-H ) :   0.9201 B(  3-C ,  4-H ) :   0.8922
B(  3-C ,  5-H ) :   0.8304 B(  3-C ,  6-S ) :   0.8157 B(  6-S , 15-F ) :   0.8762
B(  6-S , 16-O ) :   1.5996 B(  6-S , 17-O ) :   1.5254 B(  7-C ,  8-N ) :   0.6379
B(  7-C ,  9-N ) :   0.7735 B(  7-C , 10-H ) :  -0.1069 B(  7-C , 12-H ) :  -0.2544
B(  8-N , 13-H ) :   1.0005 B(  8-N , 14-H ) :   1.0332 B(  9-N , 10-H ) :   0.8150
B(  9-N , 11-H ) :   1.0176 B(  9-N , 17-O ) :  -0.1189 B( 10-H , 17-O ) :  -0.1004

Dispersion correction           -0.000920030
FINAL SINGLE POINT ENERGY      -955.071742443750

DIPOLE MOMENT
-------------
                                X             Y             Z
Electronic contribution:    -15.28593      -6.67244      -1.11603
Nuclear contribution   :     15.92508       5.34175       1.81950
                        -----------------------------------------
Total Dipole Moment    :      0.63915      -1.33069       0.70347
                        -----------------------------------------
Magnitude (a.u.)       :      1.63527
Magnitude (Debye)      :      4.15653

Rotational constants in cm-1:     0.058561     0.020662     0.017762
Rotational constants in MHz :  1755.621534   619.433801   532.501507

                             ****ORCA TERMINATED NORMALLY****
TOTAL RUN TIME: 0 days 0 hours 3 minutes 19 seconds 86 msec
