                         Program Version 5.0.0 -  RELEASE  -
|  1> !M062X D3Zero RIJCOSX def2-TZVPD def2/J TightSCF xyzfile
|  2>
|  3> *xyzfile 0 1 D2.xyz
|  4>
|  5> %MaxCore 64000
|  6>
|  7> %pal nprocs 4
|  8> end
|  9>
| 10> %scf
| 11>   MaxIter 150
| 12> end
| 13>
| 14>
| 15>                          ****END OF INPUT****

CARTESIAN COORDINATES (ANGSTROEM)
---------------------------------
  C      3.380928    2.083045   -3.350127
  N      4.535924    1.182447   -3.428518
  C      2.495557    1.816150   -2.136364
  C      1.872181    0.427903   -2.077497
  H      2.614270   -0.365825   -2.198894
  H      1.389953    0.273087   -1.112360
  S      0.579024    0.140472   -3.297943
  C      4.671956    0.122273   -4.220598
  C      5.866023   -0.507849   -4.224284
  N      3.698881   -0.312844   -4.986988
  H      2.731405   -0.050091   -4.849000
  H      3.890046   -1.055172   -5.643730
  H      5.251933    1.303459   -2.721014
  H      6.695165   -0.062322   -3.851596
  H      5.975383   -1.396884   -4.691414
  F      0.228860   -1.246868   -3.127871
  O     -0.439269    1.118966   -3.014550
  O      1.247881    0.403474   -4.595647
  H      1.697003    2.561969   -2.141109
  H      3.080787    1.987436   -1.225838
  H      2.806463    1.986511   -4.268484
  H      3.778714    3.098282   -3.307383

 Total Charge           Charge          ....    0
 Multiplicity           Mult            ....    1
 Number of Electrons    NEL             ....   96
 Basis Dimension        Dim             ....  524

ORBITAL ENERGIES
----------------

  NO   OCC          E(Eh)            E(eV)
   0   2.0000     -90.176626     -2453.8307
   1   2.0000     -25.389605      -690.8863
   2   2.0000     -19.663632      -535.0746
   3   2.0000     -19.657242      -534.9007
   4   2.0000     -14.749570      -401.3562
   5   2.0000     -14.722647      -400.6236
   6   2.0000     -10.608022      -288.6589
   7   2.0000     -10.580537      -287.9111
   8   2.0000     -10.579855      -287.8925
   9   2.0000     -10.573231      -287.7122
  10   2.0000     -10.438776      -284.0535
  11   2.0000      -8.502070      -231.3531
  12   2.0000      -6.426775      -174.8814
  13   2.0000      -6.421980      -174.7510
  14   2.0000      -6.421471      -174.7371
  15   2.0000      -1.552803       -42.2539
  16   2.0000      -1.256483       -34.1906
  17   2.0000      -1.158958       -31.5368
  18   2.0000      -1.074816       -29.2472
  19   2.0000      -0.986945       -26.8561
  20   2.0000      -0.936670       -25.4881
  21   2.0000      -0.872478       -23.7413
  22   2.0000      -0.824743       -22.4424
  23   2.0000      -0.781346       -21.2615
  24   2.0000      -0.729469       -19.8499
  25   2.0000      -0.712584       -19.3904
  26   2.0000      -0.692451       -18.8426
  27   2.0000      -0.679561       -18.4918
  28   2.0000      -0.668059       -18.1788
  29   2.0000      -0.624710       -16.9992
  30   2.0000      -0.584492       -15.9048
  31   2.0000      -0.571799       -15.5594
  32   2.0000      -0.562330       -15.3018
  33   2.0000      -0.552389       -15.0313
  34   2.0000      -0.542074       -14.7506
  35   2.0000      -0.518631       -14.1127
  36   2.0000      -0.490456       -13.3460
  37   2.0000      -0.481342       -13.0980
  38   2.0000      -0.475115       -12.9285
  39   2.0000      -0.456959       -12.4345
  40   2.0000      -0.451854       -12.2956
  41   2.0000      -0.436106       -11.8671
  42   2.0000      -0.428016       -11.6469
  43   2.0000      -0.416552       -11.3350
  44   2.0000      -0.406096       -11.0504
  45   2.0000      -0.399540       -10.8720
  46   2.0000      -0.312450        -8.5022
  47   2.0000      -0.204965        -5.5774
  48   0.0000      -0.007418        -0.2019
  49   0.0000       0.008579         0.2334
  50   0.0000       0.018455         0.5022
  51   0.0000       0.019358         0.5267
  52   0.0000       0.040577         1.1042

MULLIKEN ATOMIC CHARGES
-----------------------
   0 C :   -0.859281
   1 N :   -0.328092
   2 C :   -0.555776
   3 C :   -0.722470
   4 H :    0.349980
   5 H :    0.446398
   6 S :    1.347415
   7 C :    0.857952
   8 C :   -1.143440
   9 N :   -0.578235
  10 H :    0.408378
  11 H :    0.215091
  12 H :    0.307094
  13 H :    0.194343
  14 H :    0.206591
  15 F :   -0.131720
  16 O :   -0.666886
  17 O :   -0.806682
  18 H :    0.355324
  19 H :    0.384773
  20 H :    0.392369
  21 H :    0.326875
Sum of atomic charges:    0.0000000

LOEWDIN ATOMIC CHARGES
----------------------
   0 C :   -0.177919
   1 N :    0.024212
   2 C :   -0.194118
   3 C :   -0.217465
   4 H :    0.111467
   5 H :    0.107484
   6 S :    0.662650
   7 C :   -0.575400
   8 C :   -0.006146
   9 N :    0.133595
  10 H :    0.012208
  11 H :    0.121201
  12 H :    0.148773
  13 H :   -0.001898
  14 H :   -0.004125
  15 F :   -0.040956
  16 O :   -0.259752
  17 O :   -0.318057
  18 H :    0.118544
  19 H :    0.124050
  20 H :    0.110203
  21 H :    0.121450

  Mayer bond orders larger than 0.100000
B(  0-C ,  1-N ) :   0.7878 B(  0-C ,  2-C ) :   0.6443 B(  0-C ,  7-C ) :  -0.1241
B(  0-C , 20-H ) :   0.9155 B(  0-C , 21-H ) :   0.9780 B(  1-N ,  7-C ) :   0.9615
B(  1-N ,  8-C ) :   0.1527 B(  1-N , 12-H ) :   0.9118 B(  2-C ,  3-C ) :   0.8299
B(  2-C ,  6-S ) :   0.1367 B(  2-C , 18-H ) :   0.9669 B(  2-C , 19-H ) :   0.8949
B(  3-C ,  4-H ) :   0.8745 B(  3-C ,  5-H ) :   0.8360 B(  3-C ,  6-S ) :   0.8219
B(  6-S , 15-F ) :   0.8855 B(  6-S , 16-O ) :   1.5993 B(  6-S , 17-O ) :   1.5247
B(  7-C ,  8-C ) :   1.1448 B(  7-C ,  9-N ) :   0.8648 B(  7-C , 14-H ) :  -0.1503
B(  8-C ,  9-N ) :   0.1071 B(  8-C , 13-H ) :   1.0802 B(  8-C , 14-H ) :   1.1384
B(  9-N , 10-H ) :   0.7331 B(  9-N , 11-H ) :   1.0183 B(  9-N , 17-O ) :  -0.1109

Dispersion correction           -0.000916393
FINAL SINGLE POINT ENERGY      -955.056376874412

DIPOLE MOMENT
-------------
                                X             Y             Z
Electronic contribution:    -16.73474      -5.24063      -0.36092
Nuclear contribution   :     16.05479       5.17692       1.74190
                        -----------------------------------------
Total Dipole Moment    :     -0.67995      -0.06372       1.38098
                        -----------------------------------------
Magnitude (a.u.)       :      1.54061
Magnitude (Debye)      :      3.91593

Rotational constants in cm-1:     0.058652     0.021107     0.018077
Rotational constants in MHz :  1758.344290   632.763813   541.920558

                             ****ORCA TERMINATED NORMALLY****
TOTAL RUN TIME: 0 days 0 hours 3 minutes 30 seconds 640 msec
