                         Program Version 5.0.0 -  RELEASE  -
|  1> !M062X D3Zero RIJCOSX def2-TZVPD def2/J TightSCF xyzfile
|  2>
|  3> *xyzfile 0 1 D3.xyz
|  4>
|  5> %MaxCore 64000
|  6>
|  7> %pal nprocs 4
|  8> end
|  9>
| 10> %scf
| 11>   MaxIter 150
| 12> end
| 13>
| 14>
| 15>                          ****END OF INPUT****

CARTESIAN COORDINATES (ANGSTROEM)
---------------------------------
  C      3.380928    2.083045   -3.350127
  N      4.535924    1.182447   -3.428518
  C      2.495557    1.816150   -2.136364
  C      1.872181    0.427903   -2.077497
  H      2.614270   -0.365825   -2.198894
  H      1.389953    0.273087   -1.112360
  S      0.579024    0.140472   -3.297943
  C      4.671956    0.122273   -4.220598
  N      5.866023   -0.507849   -4.224284
  C      3.698881   -0.312844   -4.986988
  H      2.731405   -0.050091   -4.849000
  H      3.890046   -1.055172   -5.643730
  H      5.251933    1.303459   -2.721014
  H      6.695165   -0.062322   -3.851596
  H      5.975383   -1.396884   -4.691414
  F      0.228860   -1.246868   -3.127871
  O     -0.439269    1.118966   -3.014550
  O      1.247881    0.403474   -4.595647
  H      1.697003    2.561969   -2.141109
  H      3.080787    1.987436   -1.225838
  H      2.806463    1.986511   -4.268484
  H      3.778714    3.098282   -3.307383

 Total Charge           Charge          ....    0
 Multiplicity           Mult            ....    1
 Number of Electrons    NEL             ....   96
 Basis Dimension        Dim             ....  524

ORBITAL ENERGIES
----------------

  NO   OCC          E(Eh)            E(eV)
   0   2.0000     -90.154829     -2453.2376
   1   2.0000     -25.371135      -690.3837
   2   2.0000     -19.644101      -534.5432
   3   2.0000     -19.628061      -534.1067
   4   2.0000     -14.750453      -401.3802
   5   2.0000     -14.740193      -401.1010
   6   2.0000     -10.593740      -288.2703
   7   2.0000     -10.576719      -287.8072
   8   2.0000     -10.574329      -287.7421
   9   2.0000     -10.564933      -287.4865
  10   2.0000     -10.427503      -283.7468
  11   2.0000      -8.480280      -230.7602
  12   2.0000      -6.405053      -174.2904
  13   2.0000      -6.400035      -174.1538
  14   2.0000      -6.399770      -174.1466
  15   2.0000      -1.534265       -41.7495
  16   2.0000      -1.234349       -33.5884
  17   2.0000      -1.133804       -30.8524
  18   2.0000      -1.073509       -29.2117
  19   2.0000      -0.985657       -26.8211
  20   2.0000      -0.923305       -25.1244
  21   2.0000      -0.853857       -23.2346
  22   2.0000      -0.814341       -22.1593
  23   2.0000      -0.790066       -21.4988
  24   2.0000      -0.732480       -19.9318
  25   2.0000      -0.693528       -18.8719
  26   2.0000      -0.680611       -18.5204
  27   2.0000      -0.660512       -17.9734
  28   2.0000      -0.636057       -17.3080
  29   2.0000      -0.614193       -16.7130
  30   2.0000      -0.593597       -16.1526
  31   2.0000      -0.568270       -15.4634
  32   2.0000      -0.566635       -15.4189
  33   2.0000      -0.534669       -14.5491
  34   2.0000      -0.521597       -14.1934
  35   2.0000      -0.518247       -14.1022
  36   2.0000      -0.476509       -12.9665
  37   2.0000      -0.472050       -12.8451
  38   2.0000      -0.463783       -12.6202
  39   2.0000      -0.449263       -12.2251
  40   2.0000      -0.444950       -12.1077
  41   2.0000      -0.435578       -11.8527
  42   2.0000      -0.419252       -11.4084
  43   2.0000      -0.408333       -11.1113
  44   2.0000      -0.387534       -10.5453
  45   2.0000      -0.353985        -9.6324
  46   2.0000      -0.312681        -8.5085
  47   2.0000      -0.217079        -5.9070
  48   0.0000      -0.000601        -0.0164
  49   0.0000       0.012308         0.3349
  50   0.0000       0.020616         0.5610
  51   0.0000       0.026967         0.7338
  52   0.0000       0.040092         1.0910

MULLIKEN ATOMIC CHARGES
-----------------------
   0 C :   -0.831007
   1 N :   -0.333731
   2 C :   -0.598627
   3 C :   -0.696341
   4 H :    0.353341
   5 H :    0.445103
   6 S :    1.319210
   7 C :    1.165577
   8 N :   -0.662143
   9 C :   -0.668691
  10 H :   -0.261409
  11 H :    0.147598
  12 H :    0.298159
  13 H :    0.207676
  14 H :    0.226157
  15 F :   -0.137528
  16 O :   -0.678174
  17 O :   -0.713349
  18 H :    0.344694
  19 H :    0.381518
  20 H :    0.391040
  21 H :    0.300926
Sum of atomic charges:    0.0000000

LOEWDIN ATOMIC CHARGES
----------------------
   0 C :   -0.172521
   1 N :    0.015055
   2 C :   -0.193519
   3 C :   -0.218801
   4 H :    0.108269
   5 H :    0.104827
   6 S :    0.652753
   7 C :   -0.558733
   8 N :    0.093992
   9 C :    0.025274
  10 H :   -0.056143
  11 H :    0.024187
  12 H :    0.140807
  13 H :    0.096137
  14 H :    0.105655
  15 F :   -0.045521
  16 O :   -0.270639
  17 O :   -0.326384
  18 H :    0.118342
  19 H :    0.120907
  20 H :    0.114522
  21 H :    0.121530

  Mayer bond orders larger than 0.100000
B(  0-C ,  1-N ) :   0.8572 B(  0-C ,  2-C ) :   0.6607 B(  0-C , 10-H ) :   0.1121
B(  0-C , 20-H ) :   0.9084 B(  0-C , 21-H ) :   0.9863 B(  1-N ,  7-C ) :   0.9283
B(  1-N , 12-H ) :   0.9165 B(  2-C ,  3-C ) :   0.8451 B(  2-C ,  6-S ) :   0.1482
B(  2-C , 18-H ) :   0.9566 B(  2-C , 19-H ) :   0.9002 B(  3-C ,  4-H ) :   0.8885
B(  3-C ,  5-H ) :   0.8487 B(  3-C ,  6-S ) :   0.7905 B(  6-S , 15-F ) :   0.8641
B(  6-S , 16-O ) :   1.5994 B(  6-S , 17-O ) :   1.6187 B(  7-C ,  8-N ) :   0.6935
B(  7-C ,  9-C ) :   0.9306 B(  7-C , 10-H ) :  -0.1946 B(  7-C , 11-H ) :  -0.2661
B(  8-N ,  9-C ) :   0.1216 B(  8-N , 13-H ) :   1.0269 B(  8-N , 14-H ) :   1.0061
B(  9-C , 10-H ) :   1.2947 B(  9-C , 11-H ) :   1.3309 B( 10-H , 17-O ) :  -0.4002

Dispersion correction           -0.000916967
FINAL SINGLE POINT ENERGY      -955.040991981597

DIPOLE MOMENT
-------------
                                X             Y             Z
Electronic contribution:    -14.70640      -5.48135       0.04699
Nuclear contribution   :     15.84345       5.19593       1.66752
                        -----------------------------------------
Total Dipole Moment    :      1.13705      -0.28541       1.71451
                        -----------------------------------------
Magnitude (a.u.)       :      2.07699
Magnitude (Debye)      :      5.27929

Rotational constants in cm-1:     0.059060     0.020573     0.017713
Rotational constants in MHz :  1770.576058   616.749938   531.036486

                             ****ORCA TERMINATED NORMALLY****
TOTAL RUN TIME: 0 days 0 hours 3 minutes 31 seconds 209 msec
