                         Program Version 5.0.0 -  RELEASE  -
|  1> !M062X D3Zero RIJCOSX def2-TZVPD def2/J TightSCF xyzfile
|  2>
|  3> *xyzfile 0 1 D4.xyz
|  4>
|  5> %MaxCore 64000
|  6>
|  7> %pal nprocs 4
|  8> end
|  9>
| 10> %scf
| 11>   MaxIter 150
| 12> end
| 13>
| 14>
| 15>                          ****END OF INPUT****

CARTESIAN COORDINATES (ANGSTROEM)
---------------------------------
  C      3.380928    2.083045   -3.350127
  C      4.535924    1.182447   -3.428518
  C      2.495557    1.816150   -2.136364
  C      1.872181    0.427903   -2.077497
  H      2.614270   -0.365825   -2.198894
  H      1.389953    0.273087   -1.112360
  S      0.579024    0.140472   -3.297943
  C      4.671956    0.122273   -4.220598
  N      5.866023   -0.507849   -4.224284
  N      3.698881   -0.312844   -4.986988
  H      2.731405   -0.050091   -4.849000
  H      3.890046   -1.055172   -5.643730
  H      5.251933    1.303459   -2.721014
  H      6.695165   -0.062322   -3.851596
  H      5.975383   -1.396884   -4.691414
  O      0.228860   -1.246868   -3.127871
  F     -0.439269    1.118966   -3.014550
  O      1.247881    0.403474   -4.595647
  H      1.697003    2.561969   -2.141109
  H      3.080787    1.987436   -1.225838
  H      2.806463    1.986511   -4.268484
  H      3.778714    3.098282   -3.307383

 Total Charge           Charge          ....    0
 Multiplicity           Mult            ....    1
 Number of Electrons    NEL             ....   96
 Basis Dimension        Dim             ....  524

ORBITAL ENERGIES
----------------

  NO   OCC          E(Eh)            E(eV)
   0   2.0000     -90.163327     -2453.4689
   1   2.0000     -25.378340      -690.5797
   2   2.0000     -19.651187      -534.7360
   3   2.0000     -19.644880      -534.5644
   4   2.0000     -14.740732      -401.1157
   5   2.0000     -14.724371      -400.6705
   6   2.0000     -10.588842      -288.1370
   7   2.0000     -10.580568      -287.9119
   8   2.0000     -10.548186      -287.0307
   9   2.0000     -10.514350      -286.1100
  10   2.0000     -10.458243      -284.5833
  11   2.0000      -8.488831      -230.9928
  12   2.0000      -6.413637      -174.5239
  13   2.0000      -6.408667      -174.3887
  14   2.0000      -6.408128      -174.3740
  15   2.0000      -1.541642       -41.9502
  16   2.0000      -1.243478       -33.8368
  17   2.0000      -1.146852       -31.2074
  18   2.0000      -1.063482       -28.9388
  19   2.0000      -0.964167       -26.2363
  20   2.0000      -0.928752       -25.2726
  21   2.0000      -0.863724       -23.5031
  22   2.0000      -0.826312       -22.4851
  23   2.0000      -0.776041       -21.1172
  24   2.0000      -0.718026       -19.5385
  25   2.0000      -0.703500       -19.1432
  26   2.0000      -0.688680       -18.7399
  27   2.0000      -0.666920       -18.1478
  28   2.0000      -0.633123       -17.2282
  29   2.0000      -0.609918       -16.5967
  30   2.0000      -0.590636       -16.0720
  31   2.0000      -0.561923       -15.2907
  32   2.0000      -0.559606       -15.2276
  33   2.0000      -0.551110       -14.9965
  34   2.0000      -0.526090       -14.3156
  35   2.0000      -0.515694       -14.0327
  36   2.0000      -0.479784       -13.0556
  37   2.0000      -0.472996       -12.8709
  38   2.0000      -0.471638       -12.8339
  39   2.0000      -0.450743       -12.2653
  40   2.0000      -0.427016       -11.6197
  41   2.0000      -0.415514       -11.3067
  42   2.0000      -0.414190       -11.2707
  43   2.0000      -0.401934       -10.9372
  44   2.0000      -0.393972       -10.7205
  45   2.0000      -0.373753       -10.1703
  46   2.0000      -0.320277        -8.7152
  47   2.0000      -0.211498        -5.7552
  48   0.0000       0.000553         0.0150
  49   0.0000       0.016693         0.4542
  50   0.0000       0.020927         0.5694
  51   0.0000       0.026862         0.7310
  52   0.0000       0.041505         1.1294

MULLIKEN ATOMIC CHARGES
-----------------------
   0 C :   -0.641624
   1 C :   -0.827302
   2 C :   -0.607731
   3 C :   -0.724762
   4 H :    0.309961
   5 H :    0.436945
   6 S :    1.350024
   7 C :    1.062142
   8 N :   -0.673616
   9 N :   -0.571714
  10 H :    0.300953
  11 H :    0.219049
  12 H :    0.186614
  13 H :    0.227547
  14 H :    0.214801
  15 O :   -0.674238
  16 F :   -0.133508
  17 O :   -0.794276
  18 H :    0.320390
  19 H :    0.389638
  20 H :    0.313384
  21 H :    0.317321
Sum of atomic charges:   -0.0000000

LOEWDIN ATOMIC CHARGES
----------------------
   0 C :   -0.230172
   1 C :   -0.132177
   2 C :   -0.222352
   3 C :   -0.214447
   4 H :    0.118355
   5 H :    0.105633
   6 S :    0.659106
   7 C :   -0.541449
   8 N :    0.097036
   9 N :    0.143553
  10 H :    0.022919
  11 H :    0.112701
  12 H :    0.067941
  13 H :    0.107953
  14 H :    0.096006
  15 O :   -0.268053
  16 F :   -0.041389
  17 O :   -0.322627
  18 H :    0.108129
  19 H :    0.122386
  20 H :    0.098693
  21 H :    0.112257

  Mayer bond orders larger than 0.100000
B(  0-C ,  1-C ) :   0.5342 B(  0-C ,  2-C ) :   0.5929 B(  0-C , 12-H ) :  -0.1222
B(  0-C , 20-H ) :   0.9705 B(  0-C , 21-H ) :   1.0191 B(  1-C ,  3-C ) :   0.1105
B(  1-C ,  7-C ) :   1.2052 B(  1-C ,  8-N ) :   0.1935 B(  1-C ,  9-N ) :   0.1068
B(  1-C , 12-H ) :   1.2048 B(  2-C ,  3-C ) :   0.7985 B(  2-C , 18-H ) :   0.9368
B(  2-C , 19-H ) :   0.9373 B(  3-C ,  4-H ) :   0.9421 B(  3-C ,  5-H ) :   0.8661
B(  3-C ,  6-S ) :   0.8247 B(  6-S , 15-O ) :   1.5666 B(  6-S , 16-F ) :   0.9274
B(  6-S , 17-O ) :   1.5359 B(  7-C ,  8-N ) :   0.6410 B(  7-C ,  9-N ) :   0.7743
B(  7-C , 10-H ) :  -0.1138 B(  7-C , 12-H ) :  -0.2525 B(  8-N , 13-H ) :   1.0003
B(  8-N , 14-H ) :   1.0323 B(  9-N , 10-H ) :   0.8188 B(  9-N , 11-H ) :   1.0139
B(  9-N , 17-O ) :  -0.1099

Dispersion correction           -0.000928282
FINAL SINGLE POINT ENERGY      -955.071881586663

DIPOLE MOMENT
-------------
                                X             Y             Z
Electronic contribution:    -16.40884      -2.61239      -0.94131
Nuclear contribution   :     16.65743       2.74852       1.69529
                        -----------------------------------------
Total Dipole Moment    :      0.24859       0.13613       0.75397
                        -----------------------------------------
Magnitude (a.u.)       :      0.80548
Magnitude (Debye)      :      2.04738

Rotational constants in cm-1:     0.059907     0.020458     0.017675
Rotational constants in MHz :  1795.978106   613.328205   529.885290

                             ****ORCA TERMINATED NORMALLY****
TOTAL RUN TIME: 0 days 0 hours 3 minutes 20 seconds 315 msec
