                         Program Version 5.0.0 -  RELEASE  -
|  1> !M062X D3Zero RIJCOSX def2-TZVPD def2/J TightSCF xyzfile
|  2>
|  3> *xyzfile 0 1 D5.xyz
|  4>
|  5> %MaxCore 64000
|  6>
|  7> %pal nprocs 4
|  8> end
|  9>
| 10> %scf
| 11>   MaxIter 150
| 12> end
| 13>
| 14>
| 15>                          ****END OF INPUT****

CARTESIAN COORDINATES (ANGSTROEM)
---------------------------------
  C      3.380928    2.083045   -3.350127
  N      4.535924    1.182447   -3.428518
  C      2.495557    1.816150   -2.136364
  C      1.872181    0.427903   -2.077497
  H      2.614270   -0.365825   -2.198894
  H      1.389953    0.273087   -1.112360
  S      0.579024    0.140472   -3.297943
  C      4.671956    0.122273   -4.220598
  C      5.866023   -0.507849   -4.224284
  N      3.698881   -0.312844   -4.986988
  H      2.731405   -0.050091   -4.849000
  H      3.890046   -1.055172   -5.643730
  H      5.251933    1.303459   -2.721014
  H      6.695165   -0.062322   -3.851596
  H      5.975383   -1.396884   -4.691414
  O      0.228860   -1.246868   -3.127871
  F     -0.439269    1.118966   -3.014550
  O      1.247881    0.403474   -4.595647
  H      1.697003    2.561969   -2.141109
  H      3.080787    1.987436   -1.225838
  H      2.806463    1.986511   -4.268484
  H      3.778714    3.098282   -3.307383

 Total Charge           Charge          ....    0
 Multiplicity           Mult            ....    1
 Number of Electrons    NEL             ....   96
 Basis Dimension        Dim             ....  524

ORBITAL ENERGIES
----------------

  NO   OCC          E(Eh)            E(eV)
   0   2.0000     -90.176281     -2453.8213
   1   2.0000     -25.390812      -690.9191
   2   2.0000     -19.662634      -535.0475
   3   2.0000     -19.657000      -534.8942
   4   2.0000     -14.750286      -401.3757
   5   2.0000     -14.721121      -400.5821
   6   2.0000     -10.607759      -288.6518
   7   2.0000     -10.582760      -287.9715
   8   2.0000     -10.578767      -287.8629
   9   2.0000     -10.575612      -287.7770
  10   2.0000     -10.437510      -284.0191
  11   2.0000      -8.501673      -231.3423
  12   2.0000      -6.426478      -174.8734
  13   2.0000      -6.421570      -174.7398
  14   2.0000      -6.420989      -174.7240
  15   2.0000      -1.554157       -42.2908
  16   2.0000      -1.255123       -34.1536
  17   2.0000      -1.158516       -31.5248
  18   2.0000      -1.074462       -29.2376
  19   2.0000      -0.986617       -26.8472
  20   2.0000      -0.939037       -25.5525
  21   2.0000      -0.870373       -23.6840
  22   2.0000      -0.826349       -22.4861
  23   2.0000      -0.782012       -21.2796
  24   2.0000      -0.728281       -19.8175
  25   2.0000      -0.714608       -19.4455
  26   2.0000      -0.705258       -19.1910
  27   2.0000      -0.677211       -18.4278
  28   2.0000      -0.661057       -17.9883
  29   2.0000      -0.619596       -16.8601
  30   2.0000      -0.583480       -15.8773
  31   2.0000      -0.577075       -15.7030
  32   2.0000      -0.562613       -15.3095
  33   2.0000      -0.552691       -15.0395
  34   2.0000      -0.538573       -14.6553
  35   2.0000      -0.522368       -14.2143
  36   2.0000      -0.494479       -13.4554
  37   2.0000      -0.483098       -13.1458
  38   2.0000      -0.476484       -12.9658
  39   2.0000      -0.458845       -12.4858
  40   2.0000      -0.452002       -12.2996
  41   2.0000      -0.432134       -11.7590
  42   2.0000      -0.422844       -11.5062
  43   2.0000      -0.413112       -11.2413
  44   2.0000      -0.409950       -11.1553
  45   2.0000      -0.402086       -10.9413
  46   2.0000      -0.311883        -8.4868
  47   2.0000      -0.203774        -5.5450
  48   0.0000      -0.010553        -0.2872
  49   0.0000       0.010791         0.2936
  50   0.0000       0.014958         0.4070
  51   0.0000       0.020157         0.5485
  52   0.0000       0.039289         1.0691

MULLIKEN ATOMIC CHARGES
-----------------------
   0 C :   -0.847070
   1 N :   -0.338883
   2 C :   -0.501878
   3 C :   -0.711308
   4 H :    0.313541
   5 H :    0.434495
   6 S :    1.354516
   7 C :    0.871135
   8 C :   -1.150291
   9 N :   -0.569551
  10 H :    0.368015
  11 H :    0.214586
  12 H :    0.308899
  13 H :    0.194905
  14 H :    0.209012
  15 O :   -0.666182
  16 F :   -0.134757
  17 O :   -0.796737
  18 H :    0.352439
  19 H :    0.379617
  20 H :    0.385328
  21 H :    0.330166
Sum of atomic charges:   -0.0000000

LOEWDIN ATOMIC CHARGES
----------------------
   0 C :   -0.183246
   1 N :    0.024575
   2 C :   -0.205329
   3 C :   -0.210663
   4 H :    0.121828
   5 H :    0.107813
   6 S :    0.659033
   7 C :   -0.573182
   8 C :   -0.004766
   9 N :    0.139027
  10 H :    0.017528
  11 H :    0.123293
  12 H :    0.148841
  13 H :   -0.001848
  14 H :   -0.002928
  15 O :   -0.259972
  16 F :   -0.040123
  17 O :   -0.322355
  18 H :    0.113124
  19 H :    0.121752
  20 H :    0.107285
  21 H :    0.120314

  Mayer bond orders larger than 0.100000
B(  0-C ,  1-N ) :   0.7962 B(  0-C ,  2-C ) :   0.6616 B(  0-C ,  7-C ) :  -0.1182
B(  0-C , 20-H ) :   0.9235 B(  0-C , 21-H ) :   0.9773 B(  1-N ,  7-C ) :   0.9513
B(  1-N ,  8-C ) :   0.1541 B(  1-N , 12-H ) :   0.9119 B(  2-C ,  3-C ) :   0.7296
B(  2-C , 18-H ) :   0.9589 B(  2-C , 19-H ) :   0.9096 B(  3-C ,  4-H ) :   0.9196
B(  3-C ,  5-H ) :   0.8729 B(  3-C ,  6-S ) :   0.8373 B(  6-S , 15-O ) :   1.5768
B(  6-S , 16-F ) :   0.9287 B(  6-S , 17-O ) :   1.5315 B(  7-C ,  8-C ) :   1.1376
B(  7-C ,  9-N ) :   0.8648 B(  7-C , 14-H ) :  -0.1487 B(  8-C ,  9-N ) :   0.1082
B(  8-C , 13-H ) :   1.0830 B(  8-C , 14-H ) :   1.1350 B(  9-N , 10-H ) :   0.7343
B(  9-N , 11-H ) :   1.0138 B(  9-N , 17-O ) :  -0.1019

Dispersion correction           -0.000924973
FINAL SINGLE POINT ENERGY      -955.055091462134

DIPOLE MOMENT
-------------
                                X             Y             Z
Electronic contribution:    -17.86177      -1.17548      -0.17209
Nuclear contribution   :     16.78714       2.58368       1.61768
                        -----------------------------------------
Total Dipole Moment    :     -1.07464       1.40820       1.44559
                        -----------------------------------------
Magnitude (a.u.)       :      2.28640
Magnitude (Debye)      :      5.81156

Rotational constants in cm-1:     0.059928     0.020911     0.017993
Rotational constants in MHz :  1796.610847   626.896941   539.414615

                             ****ORCA TERMINATED NORMALLY****
TOTAL RUN TIME: 0 days 0 hours 3 minutes 29 seconds 156 msec
