                         Program Version 5.0.0 -  RELEASE  -
|  1> !M062X D3Zero RIJCOSX def2-TZVPD def2/J TightSCF xyzfile
|  2>
|  3> *xyzfile 0 1 D6.xyz
|  4>
|  5> %MaxCore 64000
|  6>
|  7> %pal nprocs 4
|  8> end
|  9>
| 10> %scf
| 11>   MaxIter 150
| 12> end
| 13>
| 14>
| 15>                          ****END OF INPUT****

CARTESIAN COORDINATES (ANGSTROEM)
---------------------------------
  C      3.380928    2.083045   -3.350127
  N      4.535924    1.182447   -3.428518
  C      2.495557    1.816150   -2.136364
  C      1.872181    0.427903   -2.077497
  H      2.614270   -0.365825   -2.198894
  H      1.389953    0.273087   -1.112360
  S      0.579024    0.140472   -3.297943
  C      4.671956    0.122273   -4.220598
  N      5.866023   -0.507849   -4.224284
  C      3.698881   -0.312844   -4.986988
  H      2.731405   -0.050091   -4.849000
  H      3.890046   -1.055172   -5.643730
  H      5.251933    1.303459   -2.721014
  H      6.695165   -0.062322   -3.851596
  H      5.975383   -1.396884   -4.691414
  O      0.228860   -1.246868   -3.127871
  F     -0.439269    1.118966   -3.014550
  O      1.247881    0.403474   -4.595647
  H      1.697003    2.561969   -2.141109
  H      3.080787    1.987436   -1.225838
  H      2.806463    1.986511   -4.268484
  H      3.778714    3.098282   -3.307383

 Total Charge           Charge          ....    0
 Multiplicity           Mult            ....    1
 Number of Electrons    NEL             ....   96
 Basis Dimension        Dim             ....  524

ORBITAL ENERGIES
----------------

  NO   OCC          E(Eh)            E(eV)
   0   2.0000     -90.153889     -2453.2120
   1   2.0000     -25.371530      -690.3944
   2   2.0000     -19.643336      -534.5224
   3   2.0000     -19.629607      -534.1488
   4   2.0000     -14.750624      -401.3849
   5   2.0000     -14.738451      -401.0536
   6   2.0000     -10.593617      -288.2670
   7   2.0000     -10.576468      -287.8003
   8   2.0000     -10.574904      -287.7578
   9   2.0000     -10.567406      -287.5537
  10   2.0000     -10.426717      -283.7254
  11   2.0000      -8.479395      -230.7361
  12   2.0000      -6.404314      -174.2702
  13   2.0000      -6.399118      -174.1289
  14   2.0000      -6.398766      -174.1193
  15   2.0000      -1.535339       -41.7787
  16   2.0000      -1.232930       -33.5497
  17   2.0000      -1.134072       -30.8597
  18   2.0000      -1.072883       -29.1946
  19   2.0000      -0.985186       -26.8083
  20   2.0000      -0.926187       -25.2028
  21   2.0000      -0.850928       -23.1549
  22   2.0000      -0.816011       -22.2048
  23   2.0000      -0.790233       -21.5033
  24   2.0000      -0.731794       -19.9131
  25   2.0000      -0.697540       -18.9810
  26   2.0000      -0.691126       -18.8065
  27   2.0000      -0.652972       -17.7683
  28   2.0000      -0.635696       -17.2982
  29   2.0000      -0.611066       -16.6280
  30   2.0000      -0.591431       -16.0937
  31   2.0000      -0.568067       -15.4579
  32   2.0000      -0.562668       -15.3110
  33   2.0000      -0.541115       -14.7245
  34   2.0000      -0.524424       -14.2703
  35   2.0000      -0.514571       -14.0022
  36   2.0000      -0.489390       -13.3170
  37   2.0000      -0.471092       -12.8191
  38   2.0000      -0.462440       -12.5836
  39   2.0000      -0.453440       -12.3387
  40   2.0000      -0.441029       -12.0010
  41   2.0000      -0.436008       -11.8644
  42   2.0000      -0.421452       -11.4683
  43   2.0000      -0.393170       -10.6987
  44   2.0000      -0.383065       -10.4237
  45   2.0000      -0.366504        -9.9731
  46   2.0000      -0.312417        -8.5013
  47   2.0000      -0.215339        -5.8597
  48   0.0000      -0.003505        -0.0954
  49   0.0000       0.012739         0.3467
  50   0.0000       0.020812         0.5663
  51   0.0000       0.024442         0.6651
  52   0.0000       0.041549         1.1306

MULLIKEN ATOMIC CHARGES
-----------------------
   0 C :   -0.819980
   1 N :   -0.342172
   2 C :   -0.541719
   3 C :   -0.674956
   4 H :    0.311187
   5 H :    0.425520
   6 S :    1.329356
   7 C :    1.170074
   8 N :   -0.663541
   9 C :   -0.604605
  10 H :   -0.361651
  11 H :    0.153385
  12 H :    0.298752
  13 H :    0.206492
  14 H :    0.226473
  15 O :   -0.679924
  16 F :   -0.138054
  17 O :   -0.700006
  18 H :    0.339816
  19 H :    0.377468
  20 H :    0.384499
  21 H :    0.303585
Sum of atomic charges:   -0.0000000

LOEWDIN ATOMIC CHARGES
----------------------
   0 C :   -0.177951
   1 N :    0.014713
   2 C :   -0.204570
   3 C :   -0.211846
   4 H :    0.118773
   5 H :    0.105241
   6 S :    0.648500
   7 C :   -0.556953
   8 N :    0.094354
   9 C :    0.032331
  10 H :   -0.050476
  11 H :    0.026880
  12 H :    0.140712
  13 H :    0.095833
  14 H :    0.106373
  15 O :   -0.267512
  16 F :   -0.048687
  17 O :   -0.329392
  18 H :    0.112987
  19 H :    0.118707
  20 H :    0.111580
  21 H :    0.120402

  Mayer bond orders larger than 0.100000
B(  0-C ,  1-N ) :   0.8653 B(  0-C ,  2-C ) :   0.6810 B(  0-C , 10-H ) :   0.1182
B(  0-C , 20-H ) :   0.9135 B(  0-C , 21-H ) :   0.9869 B(  1-N ,  7-C ) :   0.9156
B(  1-N , 12-H ) :   0.9178 B(  2-C ,  3-C ) :   0.7527 B(  2-C ,  6-S ) :   0.1054
B(  2-C , 18-H ) :   0.9485 B(  2-C , 19-H ) :   0.9124 B(  3-C ,  4-H ) :   0.9332
B(  3-C ,  5-H ) :   0.8902 B(  3-C ,  6-S ) :   0.8050 B(  3-C , 15-O ) :   0.1149
B(  6-S , 15-O ) :   1.5443 B(  6-S , 16-F ) :   0.9259 B(  6-S , 17-O ) :   1.6151
B(  7-C ,  8-N ) :   0.6869 B(  7-C ,  9-C ) :   0.9229 B(  7-C , 10-H ) :  -0.2228
B(  7-C , 11-H ) :  -0.2604 B(  8-N ,  9-C ) :   0.1289 B(  8-N , 13-H ) :   1.0279
B(  8-N , 14-H ) :   1.0067 B(  9-C , 10-H ) :   1.2335 B(  9-C , 11-H ) :   1.3053
B( 10-H , 17-O ) :  -0.2715

Dispersion correction           -0.000925972
FINAL SINGLE POINT ENERGY      -955.040250273923

DIPOLE MOMENT
-------------
                                X             Y             Z
Electronic contribution:    -15.84937      -1.40745       0.23416
Nuclear contribution   :     16.57580       2.60270       1.54331
                        -----------------------------------------
Total Dipole Moment    :      0.72643       1.19525       1.77746
                        -----------------------------------------
Magnitude (a.u.)       :      2.26179
Magnitude (Debye)      :      5.74901

Rotational constants in cm-1:     0.060402     0.020377     0.017632
Rotational constants in MHz :  1810.792194   610.900365   528.582827

                             ****ORCA TERMINATED NORMALLY****
TOTAL RUN TIME: 0 days 0 hours 3 minutes 18 seconds 872 msec
