                         Program Version 5.0.0 -  RELEASE  -
|  1> !M062X D3Zero RIJCOSX def2-TZVPD def2/J TightSCF xyzfile
|  2>
|  3> *xyzfile 0 1 D7.xyz
|  4>
|  5> %MaxCore 64000
|  6>
|  7> %pal nprocs 4
|  8> end
|  9>
| 10> %scf
| 11>   MaxIter 150
| 12> end
| 13>
| 14>
| 15>                          ****END OF INPUT****

CARTESIAN COORDINATES (ANGSTROEM)
---------------------------------
  C      3.380928    2.083045   -3.350127
  C      4.535924    1.182447   -3.428518
  C      2.495557    1.816150   -2.136364
  C      1.872181    0.427903   -2.077497
  H      2.614270   -0.365825   -2.198894
  H      1.389953    0.273087   -1.112360
  S      0.579024    0.140472   -3.297943
  C      4.671956    0.122273   -4.220598
  N      5.866023   -0.507849   -4.224284
  N      3.698881   -0.312844   -4.986988
  H      2.731405   -0.050091   -4.849000
  H      3.890046   -1.055172   -5.643730
  H      5.251933    1.303459   -2.721014
  H      6.695165   -0.062322   -3.851596
  H      5.975383   -1.396884   -4.691414
  O      0.228860   -1.246868   -3.127871
  O     -0.439269    1.118966   -3.014550
  F      1.247881    0.403474   -4.595647
  H      1.697003    2.561969   -2.141109
  H      3.080787    1.987436   -1.225838
  H      2.806463    1.986511   -4.268484
  H      3.778714    3.098282   -3.307383

 Total Charge           Charge          ....    0
 Multiplicity           Mult            ....    1
 Number of Electrons    NEL             ....   96
 Basis Dimension        Dim             ....  524

ORBITAL ENERGIES
----------------

  NO   OCC          E(Eh)            E(eV)
   0   2.0000     -90.152756     -2453.1812
   1   2.0000     -25.365634      -690.2340
   2   2.0000     -19.645776      -534.5887
   3   2.0000     -19.645229      -534.5738
   4   2.0000     -14.754936      -401.5022
   5   2.0000     -14.754519      -401.4909
   6   2.0000     -10.596980      -288.3585
   7   2.0000     -10.585337      -288.0417
   8   2.0000     -10.547748      -287.0188
   9   2.0000     -10.529254      -286.5156
  10   2.0000     -10.473636      -285.0021
  11   2.0000      -8.478672      -230.7164
  12   2.0000      -6.403913      -174.2593
  13   2.0000      -6.398207      -174.1041
  14   2.0000      -6.397758      -174.0918
  15   2.0000      -1.520057       -41.3628
  16   2.0000      -1.245620       -33.8950
  17   2.0000      -1.151138       -31.3241
  18   2.0000      -1.084222       -29.5032
  19   2.0000      -0.985206       -26.8088
  20   2.0000      -0.929689       -25.2981
  21   2.0000      -0.866344       -23.5744
  22   2.0000      -0.830390       -22.5960
  23   2.0000      -0.780591       -21.2410
  24   2.0000      -0.736019       -20.0281
  25   2.0000      -0.694879       -18.9086
  26   2.0000      -0.681661       -18.5489
  27   2.0000      -0.661701       -18.0058
  28   2.0000      -0.637767       -17.3545
  29   2.0000      -0.626891       -17.0586
  30   2.0000      -0.592021       -16.1097
  31   2.0000      -0.570194       -15.5158
  32   2.0000      -0.554771       -15.0961
  33   2.0000      -0.546696       -14.8764
  34   2.0000      -0.537040       -14.6136
  35   2.0000      -0.528708       -14.3869
  36   2.0000      -0.484409       -13.1814
  37   2.0000      -0.481822       -13.1110
  38   2.0000      -0.477615       -12.9966
  39   2.0000      -0.461445       -12.5566
  40   2.0000      -0.430536       -11.7155
  41   2.0000      -0.421857       -11.4793
  42   2.0000      -0.413840       -11.2611
  43   2.0000      -0.403499       -10.9798
  44   2.0000      -0.401223       -10.9178
  45   2.0000      -0.387911       -10.5556
  46   2.0000      -0.340928        -9.2771
  47   2.0000      -0.226952        -6.1757
  48   0.0000       0.003197         0.0870
  49   0.0000       0.016309         0.4438
  50   0.0000       0.019257         0.5240
  51   0.0000       0.026700         0.7265
  52   0.0000       0.041100         1.1184

MULLIKEN ATOMIC CHARGES
-----------------------
   0 C :   -0.632532
   1 C :   -0.779484
   2 C :   -0.671384
   3 C :   -0.671251
   4 H :    0.286547
   5 H :    0.442168
   6 S :    1.321189
   7 C :    1.054512
   8 N :   -0.680502
   9 N :   -0.610210
  10 H :    0.334693
  11 H :    0.222234
  12 H :    0.195776
  13 H :    0.230025
  14 H :    0.215069
  15 O :   -0.672042
  16 O :   -0.660896
  17 F :   -0.262724
  18 H :    0.326022
  19 H :    0.403699
  20 H :    0.301363
  21 H :    0.307728
Sum of atomic charges:    0.0000000

LOEWDIN ATOMIC CHARGES
----------------------
   0 C :   -0.225634
   1 C :   -0.127485
   2 C :   -0.221300
   3 C :   -0.216658
   4 H :    0.109150
   5 H :    0.115674
   6 S :    0.626693
   7 C :   -0.539640
   8 N :    0.100712
   9 N :    0.144402
  10 H :    0.050101
  11 H :    0.115905
  12 H :    0.072511
  13 H :    0.110911
  14 H :    0.097741
  15 O :   -0.273586
  16 O :   -0.265584
  17 F :   -0.124641
  18 H :    0.111786
  19 H :    0.123338
  20 H :    0.100311
  21 H :    0.115292

  Mayer bond orders larger than 0.100000
B(  0-C ,  1-C ) :   0.5067 B(  0-C ,  2-C ) :   0.5618 B(  0-C , 12-H ) :  -0.1234
B(  0-C , 20-H ) :   0.9439 B(  0-C , 21-H ) :   1.0259 B(  1-C ,  3-C ) :   0.1038
B(  1-C ,  7-C ) :   1.2278 B(  1-C ,  8-N ) :   0.1965 B(  1-C ,  9-N ) :   0.1140
B(  1-C , 12-H ) :   1.1896 B(  1-C , 20-H ) :  -0.1157 B(  2-C ,  3-C ) :   0.8616
B(  2-C ,  6-S ) :   0.1146 B(  2-C , 18-H ) :   0.9861 B(  2-C , 19-H ) :   0.9124
B(  3-C ,  4-H ) :   0.9924 B(  3-C ,  5-H ) :   0.8325 B(  3-C ,  6-S ) :   0.7976
B(  6-S , 15-O ) :   1.5661 B(  6-S , 16-O ) :   1.6087 B(  6-S , 17-F ) :   0.9155
B(  7-C ,  8-N ) :   0.6272 B(  7-C ,  9-N ) :   0.7533 B(  7-C , 12-H ) :  -0.2443
B(  8-N , 13-H ) :   0.9994 B(  8-N , 14-H ) :   1.0329 B(  9-N , 10-H ) :   0.8250
B(  9-N , 11-H ) :   1.0181

Dispersion correction           -0.000936018
FINAL SINGLE POINT ENERGY      -955.077714655319

DIPOLE MOMENT
-------------
                                X             Y             Z
Electronic contribution:    -13.18656      -3.80695      -3.64063
Nuclear contribution   :     14.80811       3.53278       3.42836
                        -----------------------------------------
Total Dipole Moment    :      1.62156      -0.27417      -0.21228
                        -----------------------------------------
Magnitude (a.u.)       :      1.65821
Magnitude (Debye)      :      4.21485

Rotational constants in cm-1:     0.059173     0.020923     0.018056
Rotational constants in MHz :  1773.956621   627.264018   541.303397

                             ****ORCA TERMINATED NORMALLY****
TOTAL RUN TIME: 0 days 0 hours 3 minutes 2 seconds 701 msec
