                         Program Version 5.0.0 -  RELEASE  -
|  1> !M062X D3Zero RIJCOSX def2-TZVPD def2/J TightSCF xyzfile
|  2>
|  3> *xyzfile 0 1 D8.xyz
|  4>
|  5> %MaxCore 64000
|  6>
|  7> %pal nprocs 4
|  8> end
|  9>
| 10> %scf
| 11>   MaxIter 150
| 12> end
| 13>
| 14>
| 15>                          ****END OF INPUT****

CARTESIAN COORDINATES (ANGSTROEM)
---------------------------------
  C      3.380928    2.083045   -3.350127
  N      4.535924    1.182447   -3.428518
  C      2.495557    1.816150   -2.136364
  C      1.872181    0.427903   -2.077497
  H      2.614270   -0.365825   -2.198894
  H      1.389953    0.273087   -1.112360
  S      0.579024    0.140472   -3.297943
  C      4.671956    0.122273   -4.220598
  C      5.866023   -0.507849   -4.224284
  N      3.698881   -0.312844   -4.986988
  H      2.731405   -0.050091   -4.849000
  H      3.890046   -1.055172   -5.643730
  H      5.251933    1.303459   -2.721014
  H      6.695165   -0.062322   -3.851596
  H      5.975383   -1.396884   -4.691414
  O      0.228860   -1.246868   -3.127871
  O     -0.439269    1.118966   -3.014550
  F      1.247881    0.403474   -4.595647
  H      1.697003    2.561969   -2.141109
  H      3.080787    1.987436   -1.225838
  H      2.806463    1.986511   -4.268484
  H      3.778714    3.098282   -3.307383

 Total Charge           Charge          ....    0
 Multiplicity           Mult            ....    1
 Number of Electrons    NEL             ....   96
 Basis Dimension        Dim             ....  524

ORBITAL ENERGIES
----------------

  NO   OCC          E(Eh)            E(eV)
   0   2.0000     -90.165588     -2453.5304
   1   2.0000     -25.376772      -690.5371
   2   2.0000     -19.657678      -534.9126
   3   2.0000     -19.656674      -534.8853
   4   2.0000     -14.763161      -401.7260
   5   2.0000     -14.752425      -401.4339
   6   2.0000     -10.603503      -288.5360
   7   2.0000     -10.596537      -288.3464
   8   2.0000     -10.596373      -288.3420
   9   2.0000     -10.574043      -287.7343
  10   2.0000     -10.454081      -284.4700
  11   2.0000      -8.491360      -231.0617
  12   2.0000      -6.416593      -174.6044
  13   2.0000      -6.411030      -174.4530
  14   2.0000      -6.410408      -174.4361
  15   2.0000      -1.531385       -41.6711
  16   2.0000      -1.257257       -34.2117
  17   2.0000      -1.162632       -31.6368
  18   2.0000      -1.093521       -29.7562
  19   2.0000      -1.007056       -27.4034
  20   2.0000      -0.939259       -25.5585
  21   2.0000      -0.872194       -23.7336
  22   2.0000      -0.824161       -22.4265
  23   2.0000      -0.797242       -21.6941
  24   2.0000      -0.735001       -20.0004
  25   2.0000      -0.708138       -19.2694
  26   2.0000      -0.700550       -19.0629
  27   2.0000      -0.689196       -18.7540
  28   2.0000      -0.651650       -17.7323
  29   2.0000      -0.616974       -16.7887
  30   2.0000      -0.594633       -16.1808
  31   2.0000      -0.571498       -15.5513
  32   2.0000      -0.567917       -15.4538
  33   2.0000      -0.561185       -15.2706
  34   2.0000      -0.549804       -14.9609
  35   2.0000      -0.531153       -14.4534
  36   2.0000      -0.502902       -13.6847
  37   2.0000      -0.482880       -13.1398
  38   2.0000      -0.477218       -12.9858
  39   2.0000      -0.462328       -12.5806
  40   2.0000      -0.455472       -12.3940
  41   2.0000      -0.445787       -12.1305
  42   2.0000      -0.431147       -11.7321
  43   2.0000      -0.429193       -11.6789
  44   2.0000      -0.414395       -11.2763
  45   2.0000      -0.406593       -11.0639
  46   2.0000      -0.331074        -9.0090
  47   2.0000      -0.220631        -6.0037
  48   0.0000      -0.002344        -0.0638
  49   0.0000       0.009976         0.2715
  50   0.0000       0.016392         0.4461
  51   0.0000       0.019519         0.5311
  52   0.0000       0.040992         1.1154

MULLIKEN ATOMIC CHARGES
-----------------------
   0 C :   -0.863040
   1 N :   -0.324212
   2 C :   -0.540774
   3 C :   -0.663958
   4 H :    0.293177
   5 H :    0.435699
   6 S :    1.326110
   7 C :    0.917982
   8 C :   -1.163975
   9 N :   -0.605668
  10 H :    0.404355
  11 H :    0.216243
  12 H :    0.304804
  13 H :    0.197926
  14 H :    0.210731
  15 O :   -0.663778
  16 O :   -0.659743
  17 F :   -0.271651
  18 H :    0.351699
  19 H :    0.393284
  20 H :    0.382305
  21 H :    0.322485
Sum of atomic charges:   -0.0000000

LOEWDIN ATOMIC CHARGES
----------------------
   0 C :   -0.180440
   1 N :    0.025228
   2 C :   -0.205746
   3 C :   -0.213956
   4 H :    0.112064
   5 H :    0.117604
   6 S :    0.627387
   7 C :   -0.569595
   8 C :    0.005151
   9 N :    0.139656
  10 H :    0.044267
  11 H :    0.126283
  12 H :    0.151831
  13 H :    0.003616
  14 H :    0.000695
  15 O :   -0.265849
  16 O :   -0.263500
  17 F :   -0.125341
  18 H :    0.116231
  19 H :    0.122521
  20 H :    0.109256
  21 H :    0.122637

  Mayer bond orders larger than 0.100000
B(  0-C ,  1-N ) :   0.7916 B(  0-C ,  2-C ) :   0.6180 B(  0-C ,  7-C ) :  -0.1133
B(  0-C , 20-H ) :   0.8854 B(  0-C , 21-H ) :   0.9967 B(  1-N ,  7-C ) :   0.9477
B(  1-N ,  8-C ) :   0.1557 B(  1-N , 12-H ) :   0.9134 B(  2-C ,  3-C ) :   0.7856
B(  2-C ,  6-S ) :   0.1054 B(  2-C , 18-H ) :   1.0108 B(  2-C , 19-H ) :   0.8892
B(  3-C ,  4-H ) :   0.9670 B(  3-C ,  5-H ) :   0.8443 B(  3-C ,  6-S ) :   0.8112
B(  6-S , 15-O ) :   1.5786 B(  6-S , 16-O ) :   1.6054 B(  6-S , 17-F ) :   0.9118
B(  7-C ,  8-C ) :   1.0843 B(  7-C ,  9-N ) :   0.8448 B(  7-C , 14-H ) :  -0.1587
B(  8-C ,  9-N ) :   0.1085 B(  8-C , 13-H ) :   1.0804 B(  8-C , 14-H ) :   1.1376
B(  9-N , 10-H ) :   0.7349 B(  9-N , 11-H ) :   1.0152

Dispersion correction           -0.000933719
FINAL SINGLE POINT ENERGY      -955.061962858193

DIPOLE MOMENT
-------------
                                X             Y             Z
Electronic contribution:    -14.59407      -2.41546      -2.89688
Nuclear contribution   :     14.93782       3.36795       3.35075
                        -----------------------------------------
Total Dipole Moment    :      0.34375       0.95249       0.45387
                        -----------------------------------------
Magnitude (a.u.)       :      1.10968
Magnitude (Debye)      :      2.82059

Rotational constants in cm-1:     0.059219     0.021387     0.018380
Rotational constants in MHz :  1775.354399   641.172207   551.019443

                             ****ORCA TERMINATED NORMALLY****
TOTAL RUN TIME: 0 days 0 hours 3 minutes 26 seconds 692 msec
