                         Program Version 5.0.0 -  RELEASE  -
|  1> !M062X D3Zero RIJCOSX def2-TZVPD def2/J TightSCF xyzfile
|  2>
|  3> *xyzfile 0 1 D9.xyz
|  4>
|  5> %MaxCore 64000
|  6>
|  7> %pal nprocs 4
|  8> end
|  9>
| 10> %scf
| 11>   MaxIter 150
| 12> end
| 13>
| 14>
| 15>                          ****END OF INPUT****

CARTESIAN COORDINATES (ANGSTROEM)
---------------------------------
  C      3.380928    2.083045   -3.350127
  N      4.535924    1.182447   -3.428518
  C      2.495557    1.816150   -2.136364
  C      1.872181    0.427903   -2.077497
  H      2.614270   -0.365825   -2.198894
  H      1.389953    0.273087   -1.112360
  S      0.579024    0.140472   -3.297943
  C      4.671956    0.122273   -4.220598
  N      5.866023   -0.507849   -4.224284
  C      3.698881   -0.312844   -4.986988
  H      2.731405   -0.050091   -4.849000
  H      3.890046   -1.055172   -5.643730
  H      5.251933    1.303459   -2.721014
  H      6.695165   -0.062322   -3.851596
  H      5.975383   -1.396884   -4.691414
  O      0.228860   -1.246868   -3.127871
  O     -0.439269    1.118966   -3.014550
  F      1.247881    0.403474   -4.595647
  H      1.697003    2.561969   -2.141109
  H      3.080787    1.987436   -1.225838
  H      2.806463    1.986511   -4.268484
  H      3.778714    3.098282   -3.307383

 Total Charge           Charge          ....    0
 Multiplicity           Mult            ....    1
 Number of Electrons    NEL             ....   96
 Basis Dimension        Dim             ....  524

ORBITAL ENERGIES
----------------

  NO   OCC          E(Eh)            E(eV)
   0   2.0000     -90.148335     -2453.0609
   1   2.0000     -25.346373      -689.7099
   2   2.0000     -19.641190      -534.4639
   3   2.0000     -19.639442      -534.4164
   4   2.0000     -14.765080      -401.7782
   5   2.0000     -14.754303      -401.4850
   6   2.0000     -10.595945      -288.3303
   7   2.0000     -10.590312      -288.1771
   8   2.0000     -10.590242      -288.1751
   9   2.0000     -10.566636      -287.5328
  10   2.0000     -10.453273      -284.4480
  11   2.0000      -8.473782      -230.5833
  12   2.0000      -6.398812      -174.1205
  13   2.0000      -6.393715      -173.9818
  14   2.0000      -6.392986      -173.9620
  15   2.0000      -1.502279       -40.8791
  16   2.0000      -1.239861       -33.7383
  17   2.0000      -1.146101       -31.1870
  18   2.0000      -1.088981       -29.6327
  19   2.0000      -0.999746       -27.2045
  20   2.0000      -0.925907       -25.1952
  21   2.0000      -0.847540       -23.0627
  22   2.0000      -0.830025       -22.5861
  23   2.0000      -0.790663       -21.5150
  24   2.0000      -0.740937       -20.1619
  25   2.0000      -0.680262       -18.5109
  26   2.0000      -0.678471       -18.4621
  27   2.0000      -0.653678       -17.7875
  28   2.0000      -0.637696       -17.3526
  29   2.0000      -0.626230       -17.0406
  30   2.0000      -0.594984       -16.1903
  31   2.0000      -0.573168       -15.5967
  32   2.0000      -0.556830       -15.1521
  33   2.0000      -0.543786       -14.7972
  34   2.0000      -0.535157       -14.5624
  35   2.0000      -0.522127       -14.2078
  36   2.0000      -0.491277       -13.3683
  37   2.0000      -0.480234       -13.0678
  38   2.0000      -0.473203       -12.8765
  39   2.0000      -0.450598       -12.2614
  40   2.0000      -0.448003       -12.1908
  41   2.0000      -0.441331       -12.0092
  42   2.0000      -0.426441       -11.6041
  43   2.0000      -0.414587       -11.2815
  44   2.0000      -0.398447       -10.8423
  45   2.0000      -0.391544       -10.6545
  46   2.0000      -0.325998        -8.8708
  47   2.0000      -0.236106        -6.4248
  48   0.0000      -0.000395        -0.0108
  49   0.0000       0.016657         0.4533
  50   0.0000       0.021099         0.5741
  51   0.0000       0.022312         0.6071
  52   0.0000       0.040890         1.1127

MULLIKEN ATOMIC CHARGES
-----------------------
   0 C :   -0.845376
   1 N :   -0.332150
   2 C :   -0.577548
   3 C :   -0.637186
   4 H :    0.301594
   5 H :    0.429697
   6 S :    1.323792
   7 C :    1.194078
   8 N :   -0.665300
   9 C :   -0.824955
  10 H :   -0.159576
  11 H :    0.167657
  12 H :    0.297959
  13 H :    0.211319
  14 H :    0.227219
  15 O :   -0.672793
  16 O :   -0.669209
  17 F :   -0.188062
  18 H :    0.341661
  19 H :    0.389059
  20 H :    0.390525
  21 H :    0.297592
Sum of atomic charges:    0.0000000

LOEWDIN ATOMIC CHARGES
----------------------
   0 C :   -0.175045
   1 N :    0.018503
   2 C :   -0.204527
   3 C :   -0.214737
   4 H :    0.109700
   5 H :    0.115090
   6 S :    0.624462
   7 C :   -0.551908
   8 N :    0.102674
   9 C :    0.030187
  10 H :   -0.029916
  11 H :    0.027214
  12 H :    0.144534
  13 H :    0.100364
  14 H :    0.109133
  15 O :   -0.270807
  16 O :   -0.271610
  17 F :   -0.134995
  18 H :    0.116123
  19 H :    0.119558
  20 H :    0.113200
  21 H :    0.122802

  Mayer bond orders larger than 0.100000
B(  0-C ,  1-N ) :   0.8626 B(  0-C ,  2-C ) :   0.6385 B(  0-C , 20-H ) :   0.8796
B(  0-C , 21-H ) :   1.0055 B(  1-N ,  7-C ) :   0.9229 B(  1-N , 12-H ) :   0.9176
B(  2-C ,  3-C ) :   0.8034 B(  2-C ,  6-S ) :   0.1161 B(  2-C , 18-H ) :   0.9984
B(  2-C , 19-H ) :   0.8951 B(  3-C ,  4-H ) :   0.9723 B(  3-C ,  5-H ) :   0.8613
B(  3-C ,  6-S ) :   0.7880 B(  3-C , 15-O ) :   0.1112 B(  6-S , 15-O ) :   1.5592
B(  6-S , 16-O ) :   1.5985 B(  6-S , 17-F ) :   0.9679 B(  7-C ,  8-N ) :   0.6831
B(  7-C ,  9-C ) :   0.9294 B(  7-C , 10-H ) :  -0.1571 B(  7-C , 11-H ) :  -0.2285
B(  8-N ,  9-C ) :   0.1345 B(  8-N , 13-H ) :   1.0229 B(  8-N , 14-H ) :   1.0043
B(  9-C , 10-H ) :   1.2085 B(  9-C , 11-H ) :   1.2722 B( 10-H , 17-F ) :  -0.2541

Dispersion correction           -0.000933801
FINAL SINGLE POINT ENERGY      -955.060285886068

DIPOLE MOMENT
-------------
                                X             Y             Z
Electronic contribution:    -12.63089      -2.62511      -2.44339
Nuclear contribution   :     14.72648       3.38697       3.27638
                        -----------------------------------------
Total Dipole Moment    :      2.09559       0.76185       0.83299
                        -----------------------------------------
Magnitude (a.u.)       :      2.38029
Magnitude (Debye)      :      6.05023

Rotational constants in cm-1:     0.059651     0.020833     0.018010
Rotational constants in MHz :  1788.283887   624.555661   539.921162

                             ****ORCA TERMINATED NORMALLY****
TOTAL RUN TIME: 0 days 0 hours 3 minutes 29 seconds 211 msec
