                         Program Version 5.0.0 -  RELEASE  -
|  1> !BLYP D3BJ RIJCOSX def2-TZVP def2/J TightSCF
|  2> *xyz -1 1
|  3> C          0.13297        2.38587       -4.02462
|  4> C         -1.36646        2.47911       -4.31393
|  5> C         -2.35773        2.30686       -3.13675
|  6> H         -1.63680        1.72709       -5.06399
|  7> H         -1.58235        3.44561       -4.76869
|  8> O         -3.44376        2.84652       -3.25274
|  9> O         -1.97092        1.58304       -2.15123
| 10> H          0.68084        2.52514       -4.93310
| 11> H          0.35823        1.42282       -3.61633
| 12> H          0.40851        3.14443       -3.32208
| 13> *
| 14> %MaxCore 64000
| 15>
| 16> %pal nprocs 4
| 17> end
| 18>
| 19> %scf
| 20>   MaxIter 150
| 21> end
| 22>
| 23>
| 24>                          ****END OF INPUT****

CARTESIAN COORDINATES (ANGSTROEM)
---------------------------------
  C      0.132970    2.385870   -4.024620
  C     -1.366460    2.479110   -4.313930
  C     -2.357730    2.306860   -3.136750
  H     -1.636800    1.727090   -5.063990
  H     -1.582350    3.445610   -4.768690
  O     -3.443760    2.846520   -3.252740
  O     -1.970920    1.583040   -2.151230
  H      0.680840    2.525140   -4.933100
  H      0.358230    1.422820   -3.616330
  H      0.408510    3.144430   -3.322080

 Total Charge           Charge          ....   -1
 Multiplicity           Mult            ....    1
 Number of Electrons    NEL             ....   40
 Basis Dimension        Dim             ....  185

ORBITAL ENERGIES
----------------

  NO   OCC          E(Eh)            E(eV)
   0   2.0000     -18.501819      -503.4601
   1   2.0000     -18.493232      -503.2264
   2   2.0000      -9.771274      -265.8899
   3   2.0000      -9.732327      -264.8301
   4   2.0000      -9.722004      -264.5492
   5   2.0000      -0.721410       -19.6306
   6   2.0000      -0.627457       -17.0740
   7   2.0000      -0.518010       -14.0958
   8   2.0000      -0.397134       -10.8066
   9   2.0000      -0.249998        -6.8028
  10   2.0000      -0.235241        -6.4012
  11   2.0000      -0.198999        -5.4150
  12   2.0000      -0.168701        -4.5906
  13   2.0000      -0.159076        -4.3287
  14   2.0000      -0.147645        -4.0176
  15   2.0000      -0.120519        -3.2795
  16   2.0000      -0.106750        -2.9048
  17   2.0000       0.002313         0.0630
  18   2.0000       0.014507         0.3947
  19   2.0000       0.030760         0.8370
  20   0.0000       0.163893         4.4598
  21   0.0000       0.206373         5.6157
  22   0.0000       0.214622         5.8402
  23   0.0000       0.226323         6.1586
  24   0.0000       0.239357         6.5132

MULLIKEN ATOMIC CHARGES
-----------------------
   0 C :   -0.225177
   1 C :   -0.153961
   2 C :    0.129897
   3 H :    0.019157
   4 H :    0.017335
   5 O :   -0.416779
   6 O :   -0.513316
   7 H :    0.026406
   8 H :    0.059502
   9 H :    0.056935
Sum of atomic charges:   -1.0000000

LOEWDIN ATOMIC CHARGES
----------------------
   0 C :   -0.328270
   1 C :   -0.298268
   2 C :   -0.730655
   3 H :    0.118152
   4 H :    0.113780
   5 O :   -0.035059
   6 O :   -0.132165
   7 H :    0.087077
   8 H :    0.103019
   9 H :    0.102389

  Mayer bond orders larger than 0.100000
B(  0-C ,  1-C ) :   0.9144 B(  0-C ,  7-H ) :   0.9548 B(  0-C ,  8-H ) :   0.9707
B(  0-C ,  9-H ) :   0.9774 B(  1-C ,  2-C ) :   0.9095 B(  1-C ,  3-H ) :   0.9559
B(  1-C ,  4-H ) :   0.9514 B(  1-C ,  6-O ) :  -0.1009 B(  2-C ,  5-O ) :   1.9718
B(  2-C ,  6-O ) :   1.8698

Dispersion correction           -0.013388866
FINAL SINGLE POINT ENERGY      -267.876598527344

DIPOLE MOMENT
-------------
                                X             Y             Z
Electronic contribution:     -5.42499      -0.40702       3.35398
Nuclear contribution   :      6.75610       0.63068      -4.53972
                        -----------------------------------------
Total Dipole Moment    :      1.33111       0.22365      -1.18575
                        -----------------------------------------
Magnitude (a.u.)       :      1.79663
Magnitude (Debye)      :      4.56666

Rotational constants in cm-1:     0.335096     0.130241     0.099025
Rotational constants in MHz : 10045.924902  3904.536250  2968.708333

                             ****ORCA TERMINATED NORMALLY****
TOTAL RUN TIME: 0 days 0 hours 0 minutes 8 seconds 927 msec
