                         Program Version 5.0.0 -  RELEASE  -
|  1> !BLYP D3BJ RIJCOSX def2-TZVP def2/J TightSCF
|  2> *xyz 1 1
|  3> C          0.64866        1.00359       -3.64560
|  4> N          0.28128        0.67645       -2.24018
|  5> C          0.13297        2.38587       -4.02462
|  6> H          0.39079       -0.31925       -2.02649
|  7> H         -0.69269        0.99010       -2.13812
|  8> H          0.85421        1.21221       -1.57528
|  9> H          0.19099        0.23965       -4.27575
| 10> H          1.73157        0.93173       -3.75075
| 11> H          0.40589        2.60338       -5.03610
| 12> H          0.56342        3.11797       -3.37374
| 13> H         -0.93265        2.40724       -3.93025
| 14> *
| 15> %MaxCore 64000
| 16>
| 17> %pal nprocs 4
| 18> end
| 19>
| 20> %scf
| 21>   MaxIter 150
| 22> end
| 23>
| 24>
| 25>                          ****END OF INPUT****

CARTESIAN COORDINATES (ANGSTROEM)
---------------------------------
  C      0.648660    1.003590   -3.645600
  N      0.281280    0.676450   -2.240180
  C      0.132970    2.385870   -4.024620
  H      0.390790   -0.319250   -2.026490
  H     -0.692690    0.990100   -2.138120
  H      0.854210    1.212210   -1.575280
  H      0.190990    0.239650   -4.275750
  H      1.731570    0.931730   -3.750750
  H      0.405890    2.603380   -5.036100
  H      0.563420    3.117970   -3.373740
  H     -0.932650    2.407240   -3.930250

 Total Charge           Charge          ....    1
 Multiplicity           Mult            ....    1
 Number of Electrons    NEL             ....   26
 Basis Dimension        Dim             ....  141

ORBITAL ENERGIES
----------------

  NO   OCC          E(Eh)            E(eV)
   0   2.0000     -14.338676      -390.1752
   1   2.0000     -10.157818      -276.4083
   2   2.0000     -10.082142      -274.3490
   3   2.0000      -1.130700       -30.7679
   4   2.0000      -0.890644       -24.2357
   5   2.0000      -0.780287       -21.2327
   6   2.0000      -0.745120       -20.2758
   7   2.0000      -0.737823       -20.0772
   8   2.0000      -0.643850       -17.5200
   9   2.0000      -0.592489       -16.1224
  10   2.0000      -0.538678       -14.6582
  11   2.0000      -0.526109       -14.3162
  12   2.0000      -0.509309       -13.8590
  13   0.0000      -0.221496        -6.0272
  14   0.0000      -0.162334        -4.4173
  15   0.0000      -0.158961        -4.3256
  16   0.0000      -0.137227        -3.7341
  17   0.0000      -0.099886        -2.7180

MULLIKEN ATOMIC CHARGES
-----------------------
   0 C :   -0.167413
   1 N :   -0.239154
   2 C :   -0.317235
   3 H :    0.316078
   4 H :    0.305133
   5 H :    0.308461
   6 H :    0.173945
   7 H :    0.179334
   8 H :    0.168714
   9 H :    0.136173
  10 H :    0.135964
Sum of atomic charges:    1.0000000

LOEWDIN ATOMIC CHARGES
----------------------
   0 C :   -0.273061
   1 N :    0.179534
   2 C :   -0.269295
   3 H :    0.217629
   4 H :    0.221397
   5 H :    0.218961
   6 H :    0.151017
   7 H :    0.149993
   8 H :    0.147080
   9 H :    0.128807
  10 H :    0.127937

  Mayer bond orders larger than 0.100000
B(  0-C ,  1-N ) :   0.8525 B(  0-C ,  2-C ) :   0.9753 B(  0-C ,  6-H ) :   0.9483
B(  0-C ,  7-H ) :   0.9522 B(  1-N ,  3-H ) :   0.8826 B(  1-N ,  4-H ) :   0.8836
B(  1-N ,  5-H ) :   0.8865 B(  2-C ,  8-H ) :   0.9584 B(  2-C ,  9-H ) :   0.9592
B(  2-C , 10-H ) :   0.9553

Dispersion correction           -0.012521348
FINAL SINGLE POINT ENERGY      -135.518727878394

DIPOLE MOMENT
-------------
                                X             Y             Z
Electronic contribution:      0.17165      -1.29745       1.31203
Nuclear contribution   :     -0.22655       0.48066      -0.09136
                        -----------------------------------------
Total Dipole Moment    :     -0.05490      -0.81679       1.22068
                        -----------------------------------------
Magnitude (a.u.)       :      1.46977
Magnitude (Debye)      :      3.73585

Rotational constants in cm-1:     0.998155     0.284845     0.251232
Rotational constants in MHz : 29923.943568  8539.431565  7531.732866

                             ****ORCA TERMINATED NORMALLY****
TOTAL RUN TIME: 0 days 0 hours 0 minutes 7 seconds 91 msec
