                         Program Version 5.0.0 -  RELEASE  -
|  1> !BLYP D3BJ RIJCOSX def2-TZVP def2/J TightSCF
|  2> *xyz 0 1
|  3> C          0.13297        2.38587       -4.02462
|  4> C         -1.36646        2.47911       -4.31393
|  5> C         -2.35773        2.30686       -3.13675
|  6> H         -1.63680        1.72709       -5.06399
|  7> H         -1.58235        3.44561       -4.76869
|  8> F         -3.44376        2.84652       -3.25274
|  9> O         -1.97092        1.58304       -2.15123
| 10> H          0.68084        2.52514       -4.93310
| 11> H          0.35823        1.42282       -3.61633
| 12> H          0.40851        3.14443       -3.32208
| 13> *
| 14> %MaxCore 64000
| 15>
| 16> %pal nprocs 4
| 17> end
| 18>
| 19> %scf
| 20>   MaxIter 150
| 21> end
| 22>
| 23>
| 24>                          ****END OF INPUT****

CARTESIAN COORDINATES (ANGSTROEM)
---------------------------------
  C      0.132970    2.385870   -4.024620
  C     -1.366460    2.479110   -4.313930
  C     -2.357730    2.306860   -3.136750
  H     -1.636800    1.727090   -5.063990
  H     -1.582350    3.445610   -4.768690
  F     -3.443760    2.846520   -3.252740
  O     -1.970920    1.583040   -2.151230
  H      0.680840    2.525140   -4.933100
  H      0.358230    1.422820   -3.616330
  H      0.408510    3.144430   -3.322080

 Total Charge           Charge          ....    0
 Multiplicity           Mult            ....    1
 Number of Electrons    NEL             ....   40
 Basis Dimension        Dim             ....  185

ORBITAL ENERGIES
----------------

  NO   OCC          E(Eh)            E(eV)
   0   2.0000     -24.364718      -662.9977
   1   2.0000     -18.770058      -510.7592
   2   2.0000     -10.076247      -274.1886
   3   2.0000      -9.934929      -270.3432
   4   2.0000      -9.903286      -269.4821
   5   2.0000      -1.234858       -33.6022
   6   2.0000      -0.920240       -25.0410
   7   2.0000      -0.715805       -19.4780
   8   2.0000      -0.625115       -17.0102
   9   2.0000      -0.576427       -15.6854
  10   2.0000      -0.498358       -13.5610
  11   2.0000      -0.479689       -13.0530
  12   2.0000      -0.443950       -12.0805
  13   2.0000      -0.413357       -11.2480
  14   2.0000      -0.376202       -10.2370
  15   2.0000      -0.343689        -9.3523
  16   2.0000      -0.326927        -8.8961
  17   2.0000      -0.321524        -8.7491
  18   2.0000      -0.296698        -8.0736
  19   2.0000      -0.232792        -6.3346
  20   0.0000      -0.060687        -1.6514
  21   0.0000       0.010271         0.2795
  22   0.0000       0.050408         1.3717
  23   0.0000       0.067381         1.8335
  24   0.0000       0.074551         2.0286

MULLIKEN ATOMIC CHARGES
-----------------------
   0 C :   -0.275080
   1 C :   -0.212602
   2 C :    0.332326
   3 H :    0.108880
   4 H :    0.095687
   5 F :   -0.042409
   6 O :   -0.325552
   7 H :    0.102819
   8 H :    0.115082
   9 H :    0.100848
Sum of atomic charges:    0.0000000

LOEWDIN ATOMIC CHARGES
----------------------
   0 C :   -0.284170
   1 C :   -0.262293
   2 C :   -0.540221
   3 H :    0.150819
   4 H :    0.137745
   5 F :    0.399266
   6 O :    0.043298
   7 H :    0.116307
   8 H :    0.121170
   9 H :    0.118078

  Mayer bond orders larger than 0.100000
B(  0-C ,  1-C ) :   0.9659 B(  0-C ,  7-H ) :   0.9640 B(  0-C ,  8-H ) :   0.9696
B(  0-C ,  9-H ) :   0.9761 B(  1-C ,  2-C ) :   0.9869 B(  1-C ,  3-H ) :   0.9280
B(  1-C ,  4-H ) :   0.9510 B(  2-C ,  5-F ) :   1.2125 B(  2-C ,  6-O ) :   2.0466

Dispersion correction           -0.012715676
FINAL SINGLE POINT ENERGY      -292.441452798284

DIPOLE MOMENT
-------------
                                X             Y             Z
Electronic contribution:     -8.41206       0.44958       3.63551
Nuclear contribution   :      8.54799       0.05434      -4.66633
                        -----------------------------------------
Total Dipole Moment    :      0.13593       0.50392      -1.03082
                        -----------------------------------------
Magnitude (a.u.)       :      1.15542
Magnitude (Debye)      :      2.93685

Rotational constants in cm-1:     0.325803     0.123345     0.094275
Rotational constants in MHz :  9767.324172  3697.779805  2826.305733

                             ****ORCA TERMINATED NORMALLY****
TOTAL RUN TIME: 0 days 0 hours 0 minutes 9 seconds 600 msec
