                         Program Version 5.0.0 -  RELEASE  -
|  1> !BLYP D3BJ RIJCOSX def2-TZVP def2/J TightSCF
|  2> *xyz 0 1
|  3> C          0.64866        1.00359       -3.64560
|  4> C          0.28128        0.67645       -2.24018
|  5> C          0.13297        2.38587       -4.02462
|  6> H          0.39079       -0.31925       -2.02649
|  7> H         -0.69269        0.99010       -2.13812
|  8> H          0.85421        1.21221       -1.57528
|  9> H          0.19099        0.23965       -4.27575
| 10> H          1.73157        0.93173       -3.75075
| 11> H          0.40589        2.60338       -5.03610
| 12> H          0.56342        3.11797       -3.37374
| 13> H         -0.93265        2.40724       -3.93025
| 14> *
| 15> %MaxCore 64000
| 16>
| 17> %pal nprocs 4
| 18> end
| 19>
| 20> %scf
| 21>   MaxIter 150
| 22> end
| 23>
| 24>
| 25>                          ****END OF INPUT****

CARTESIAN COORDINATES (ANGSTROEM)
---------------------------------
  C      0.648660    1.003590   -3.645600
  C      0.281280    0.676450   -2.240180
  C      0.132970    2.385870   -4.024620
  H      0.390790   -0.319250   -2.026490
  H     -0.692690    0.990100   -2.138120
  H      0.854210    1.212210   -1.575280
  H      0.190990    0.239650   -4.275750
  H      1.731570    0.931730   -3.750750
  H      0.405890    2.603380   -5.036100
  H      0.563420    3.117970   -3.373740
  H     -0.932650    2.407240   -3.930250

 Total Charge           Charge          ....    0
 Multiplicity           Mult            ....    1
 Number of Electrons    NEL             ....   26
 Basis Dimension        Dim             ....  141

ORBITAL ENERGIES
----------------

  NO   OCC          E(Eh)            E(eV)
   0   2.0000      -9.889521      -269.1075
   1   2.0000      -9.881847      -268.8987
   2   2.0000      -9.863669      -268.4041
   3   2.0000      -0.712146       -19.3785
   4   2.0000      -0.615447       -16.7472
   5   2.0000      -0.520284       -14.1576
   6   2.0000      -0.414548       -11.2804
   7   2.0000      -0.397206       -10.8085
   8   2.0000      -0.353333        -9.6147
   9   2.0000      -0.338720        -9.2170
  10   2.0000      -0.293592        -7.9890
  11   2.0000      -0.290170        -7.8959
  12   2.0000      -0.283577        -7.7165
  13   0.0000       0.021511         0.5853
  14   0.0000       0.063057         1.7159
  15   0.0000       0.069136         1.8813
  16   0.0000       0.072685         1.9779
  17   0.0000       0.091528         2.4906

MULLIKEN ATOMIC CHARGES
-----------------------
   0 C :   -0.116002
   1 C :   -0.279266
   2 C :   -0.290271
   3 H :    0.095986
   4 H :    0.082725
   5 H :    0.093205
   6 H :    0.068632
   7 H :    0.069349
   8 H :    0.095231
   9 H :    0.088896
  10 H :    0.091515
Sum of atomic charges:    0.0000000

LOEWDIN ATOMIC CHARGES
----------------------
   0 C :   -0.314427
   1 C :   -0.297183
   2 C :   -0.299355
   3 H :    0.103842
   4 H :    0.110712
   5 H :    0.105921
   6 H :    0.128061
   7 H :    0.125468
   8 H :    0.111973
   9 H :    0.112858
  10 H :    0.112130

  Mayer bond orders larger than 0.100000
B(  0-C ,  1-C ) :   0.9544 B(  0-C ,  2-C ) :   0.9686 B(  0-C ,  6-H ) :   0.9675
B(  0-C ,  7-H ) :   0.9683 B(  1-C ,  3-H ) :   0.9796 B(  1-C ,  4-H ) :   0.9784
B(  1-C ,  5-H ) :   0.9795 B(  2-C ,  8-H ) :   0.9769 B(  2-C ,  9-H ) :   0.9753
B(  2-C , 10-H ) :   0.9745

Dispersion correction           -0.012604265
FINAL SINGLE POINT ENERGY      -119.096487121334

DIPOLE MOMENT
-------------
                                X             Y             Z
Electronic contribution:      0.26116      -0.28368      -0.24471
Nuclear contribution   :     -0.24754       0.26111       0.24628
                        -----------------------------------------
Total Dipole Moment    :      0.01362      -0.02257       0.00156
                        -----------------------------------------
Magnitude (a.u.)       :      0.02641
Magnitude (Debye)      :      0.06712

Rotational constants in cm-1:     1.006509     0.299509     0.263145
Rotational constants in MHz : 30174.379724  8979.049324  7888.875355

                             ****ORCA TERMINATED NORMALLY****
TOTAL RUN TIME: 0 days 0 hours 0 minutes 7 seconds 676 msec
