                         Program Version 5.0.0 -  RELEASE  -
|  1> !BLYP D3BJ RIJCOSX def2-TZVP def2/J TightSCF
|  2> *xyz 0 1
|  3> C          0.13297        2.38587       -4.02462
|  4> C         -1.36646        2.47911       -4.31393
|  5> C         -2.35773        2.30686       -3.13675
|  6> H         -1.63680        1.72709       -5.06399
|  7> H         -1.58235        3.44561       -4.76869
|  8> O         -3.44376        2.84652       -3.25274
|  9> F         -1.97092        1.58304       -2.15123
| 10> H          0.68084        2.52514       -4.93310
| 11> H          0.35823        1.42282       -3.61633
| 12> H          0.40851        3.14443       -3.32208
| 13> *
| 14> %MaxCore 64000
| 15>
| 16> %pal nprocs 4
| 17> end
| 18>
| 19> %scf
| 20>   MaxIter 150
| 21> end
| 22>
| 23>
| 24>                          ****END OF INPUT****

CARTESIAN COORDINATES (ANGSTROEM)
---------------------------------
  C      0.132970    2.385870   -4.024620
  C     -1.366460    2.479110   -4.313930
  C     -2.357730    2.306860   -3.136750
  H     -1.636800    1.727090   -5.063990
  H     -1.582350    3.445610   -4.768690
  O     -3.443760    2.846520   -3.252740
  F     -1.970920    1.583040   -2.151230
  H      0.680840    2.525140   -4.933100
  H      0.358230    1.422820   -3.616330
  H      0.408510    3.144430   -3.322080

 Total Charge           Charge          ....    0
 Multiplicity           Mult            ....    1
 Number of Electrons    NEL             ....   40
 Basis Dimension        Dim             ....  185

ORBITAL ENERGIES
----------------

  NO   OCC          E(Eh)            E(eV)
   0   2.0000     -24.341803      -662.3741
   1   2.0000     -18.778660      -510.9933
   2   2.0000     -10.070790      -274.0401
   3   2.0000      -9.933621      -270.3076
   4   2.0000      -9.908034      -269.6113
   5   2.0000      -1.188192       -32.3324
   6   2.0000      -0.958654       -26.0863
   7   2.0000      -0.718192       -19.5430
   8   2.0000      -0.608556       -16.5596
   9   2.0000      -0.568445       -15.4682
  10   2.0000      -0.475035       -12.9264
  11   2.0000      -0.469403       -12.7731
  12   2.0000      -0.432773       -11.7763
  13   2.0000      -0.412325       -11.2199
  14   2.0000      -0.379356       -10.3228
  15   2.0000      -0.352686        -9.5971
  16   2.0000      -0.340151        -9.2560
  17   2.0000      -0.327069        -8.9000
  18   2.0000      -0.309334        -8.4174
  19   2.0000      -0.244845        -6.6626
  20   0.0000      -0.055959        -1.5227
  21   0.0000       0.005195         0.1414
  22   0.0000       0.052572         1.4306
  23   0.0000       0.070106         1.9077
  24   0.0000       0.073605         2.0029

MULLIKEN ATOMIC CHARGES
-----------------------
   0 C :   -0.285147
   1 C :   -0.217116
   2 C :    0.310409
   3 H :    0.109249
   4 H :    0.116733
   5 O :   -0.244342
   6 F :   -0.104117
   7 H :    0.107684
   8 H :    0.101953
   9 H :    0.104694
Sum of atomic charges:   -0.0000000

LOEWDIN ATOMIC CHARGES
----------------------
   0 C :   -0.295467
   1 C :   -0.257829
   2 C :   -0.525129
   3 H :    0.150872
   4 H :    0.149376
   5 O :    0.129833
   6 F :    0.297959
   7 H :    0.117981
   8 H :    0.115752
   9 H :    0.116652

  Mayer bond orders larger than 0.100000
B(  0-C ,  1-C ) :   0.9403 B(  0-C ,  7-H ) :   0.9669 B(  0-C ,  8-H ) :   0.9692
B(  0-C ,  9-H ) :   0.9746 B(  1-C ,  2-C ) :   0.9936 B(  1-C ,  3-H ) :   0.9365
B(  1-C ,  4-H ) :   0.9607 B(  2-C ,  5-O ) :   2.1326 B(  2-C ,  6-F ) :   1.1407

Dispersion correction           -0.012608481
FINAL SINGLE POINT ENERGY      -292.458080239702

DIPOLE MOMENT
-------------
                                X             Y             Z
Electronic contribution:     -5.95624      -1.62650       5.42526
Nuclear contribution   :      6.94213       1.43193      -5.86732
                        -----------------------------------------
Total Dipole Moment    :      0.98589      -0.19457      -0.44206
                        -----------------------------------------
Magnitude (a.u.)       :      1.09784
Magnitude (Debye)      :      2.79049

Rotational constants in cm-1:     0.306336     0.129048     0.095707
Rotational constants in MHz :  9183.725605  3868.769583  2869.236577

                             ****ORCA TERMINATED NORMALLY****
TOTAL RUN TIME: 0 days 0 hours 0 minutes 9 seconds 149 msec
