                         Program Version 5.0.0 -  RELEASE  -
|  1> !PBE0 D3BJ RIJCOSX def2-SVPD def2/J TightSCF
|  2> *xyz -1 1
|  3> C         -0.90349       -0.87394       -1.98739
|  4> C         -0.96015       -0.52236       -0.48987
|  5> H         -1.69039       -1.20813       -0.02168
|  6> H         -1.41449        0.48633       -0.40668
|  7> O          0.26170       -0.58031        0.13861
|  8> H         -1.88568       -0.80774       -2.40670
|  9> H         -0.53143       -1.87013       -2.10605
| 10> H         -0.25399       -0.18836       -2.49039
| 11> *
| 12>
| 13> %MaxCore 64000
| 14>
| 15> %pal nprocs 4
| 16> end
| 17>
| 18> %scf
| 19>   MaxIter 150
| 20> end
| 21>
| 22>
| 23>                          ****END OF INPUT****

CARTESIAN COORDINATES (ANGSTROEM)
---------------------------------
  C     -0.903490   -0.873940   -1.987390
  C     -0.960150   -0.522360   -0.489870
  H     -1.690390   -1.208130   -0.021680
  H     -1.414490    0.486330   -0.406680
  O      0.261700   -0.580310    0.138610
  H     -1.885680   -0.807740   -2.406700
  H     -0.531430   -1.870130   -2.106050
  H     -0.253990   -0.188360   -2.490390

 Total Charge           Charge          ....   -1
 Multiplicity           Mult            ....    1
 Number of Electrons    NEL             ....   26
 Basis Dimension        Dim             ....  103

ORBITAL ENERGIES
----------------

  NO   OCC          E(Eh)            E(eV)
   0   2.0000     -18.883161      -513.8369
   1   2.0000     -10.045179      -273.3432
   2   2.0000     -10.024249      -272.7737
   3   2.0000      -0.692488       -18.8436
   4   2.0000      -0.541021       -14.7219
   5   2.0000      -0.384219       -10.4551
   6   2.0000      -0.263747        -7.1769
   7   2.0000      -0.240876        -6.5546
   8   2.0000      -0.186271        -5.0687
   9   2.0000      -0.168874        -4.5953
  10   2.0000      -0.123673        -3.3653
  11   2.0000       0.020174         0.5490
  12   2.0000       0.023130         0.6294
  13   0.0000       0.185795         5.0557
  14   0.0000       0.217107         5.9078
  15   0.0000       0.251215         6.8359
  16   0.0000       0.263678         7.1750
  17   0.0000       0.281782         7.6677

MULLIKEN ATOMIC CHARGES
-----------------------
   0 C :    0.113812
   1 C :    0.110613
   2 H :   -0.114456
   3 H :   -0.106440
   4 O :   -0.952128
   5 H :    0.006923
   6 H :   -0.028950
   7 H :   -0.029375
Sum of atomic charges:   -1.0000000

LOEWDIN ATOMIC CHARGES
----------------------
   0 C :    0.056223
   1 C :   -0.257461
   2 H :   -0.033979
   3 H :   -0.032309
   4 O :   -0.590572
   5 H :   -0.058820
   6 H :   -0.041511
   7 H :   -0.041572

  Mayer bond orders larger than 0.100000
B(  0-C ,  1-C ) :   1.2033 B(  0-C ,  2-H ) :   0.1149 B(  0-C ,  3-H ) :   0.1132
B(  0-C ,  4-O ) :   0.1836 B(  0-C ,  5-H ) :   0.9194 B(  0-C ,  6-H ) :   0.9309
B(  0-C ,  7-H ) :   0.9308 B(  1-C ,  2-H ) :   0.9942 B(  1-C ,  3-H ) :   0.9945
B(  1-C ,  4-O ) :   1.0696 B(  1-C ,  5-H ) :   0.1084 B(  1-C ,  6-H ) :   0.1562
B(  1-C ,  7-H ) :   0.1567

Dispersion correction           -0.003046785
FINAL SINGLE POINT ENERGY      -154.140355389796

DIPOLE MOMENT
-------------
                                X             Y             Z
Electronic contribution:      1.85156       0.17399       2.11670
Nuclear contribution   :     -2.90669      -0.27617      -3.31210
                        -----------------------------------------
Total Dipole Moment    :     -1.05513      -0.10217      -1.19541
                        -----------------------------------------
Magnitude (a.u.)       :      1.59773
Magnitude (Debye)      :      4.06111

Rotational constants in cm-1:     1.291883     0.321656     0.284469
Rotational constants in MHz : 38729.676116  9643.011620  8528.167295

                             ****ORCA TERMINATED NORMALLY****
TOTAL RUN TIME: 0 days 0 hours 0 minutes 10 seconds 484 msec
