                         Program Version 5.0.0 -  RELEASE  -
|  1> !PBE0 D3BJ RIJCOSX def2-SVPD def2/J TightSCF
|  2> *xyz 1 1
|  3> C          4.36645       -0.13321       -1.41606
|  4> C          4.50829       -0.93187       -2.72425
|  5> C          3.05650       -0.32080       -0.70738
|  6> N          2.38983        0.71129       -0.24391
|  7> N          2.51600       -1.50772       -0.55023
|  8> H          2.96768       -2.32291       -0.95631
|  9> H          1.54987       -1.49063       -0.24988
| 10> H          2.74307        1.64947       -0.41280
| 11> H          1.44036        0.50278        0.03703
| 12> H          4.48784        0.93300       -1.61157
| 13> H          5.16967       -0.41443       -0.72982
| 14> H          5.46700       -0.73824       -3.15818
| 15> H          3.74074       -0.63528       -3.40821
| 16> H          4.41574       -1.97727       -2.51573
| 17> *
| 18>
| 19> %MaxCore 64000
| 20>
| 21> %pal nprocs 4
| 22> end
| 23>
| 24> %scf
| 25>   MaxIter 150
| 26> end
| 27>
| 28>
| 29>                          ****END OF INPUT****

CARTESIAN COORDINATES (ANGSTROEM)
---------------------------------
  C      4.366450   -0.133210   -1.416060
  C      4.508290   -0.931870   -2.724250
  C      3.056500   -0.320800   -0.707380
  N      2.389830    0.711290   -0.243910
  N      2.516000   -1.507720   -0.550230
  H      2.967680   -2.322910   -0.956310
  H      1.549870   -1.490630   -0.249880
  H      2.743070    1.649470   -0.412800
  H      1.440360    0.502780    0.037030
  H      4.487840    0.933000   -1.611570
  H      5.169670   -0.414430   -0.729820
  H      5.467000   -0.738240   -3.158180
  H      3.740740   -0.635280   -3.408210
  H      4.415740   -1.977270   -2.515730

 Total Charge           Charge          ....    1
 Multiplicity           Mult            ....    1
 Number of Electrons    NEL             ....   40
 Basis Dimension        Dim             ....  172

ORBITAL ENERGIES
----------------

  NO   OCC          E(Eh)            E(eV)
   0   2.0000     -14.644086      -398.4858
   1   2.0000     -14.642839      -398.4519
   2   2.0000     -10.555985      -287.2430
   3   2.0000     -10.436383      -283.9884
   4   2.0000     -10.393222      -282.8139
   5   2.0000      -1.233682       -33.5702
   6   2.0000      -1.125364       -30.6227
   7   2.0000      -0.989177       -26.9169
   8   2.0000      -0.877139       -23.8682
   9   2.0000      -0.837032       -22.7768
  10   2.0000      -0.787369       -21.4254
  11   2.0000      -0.772814       -21.0293
  12   2.0000      -0.721485       -19.6326
  13   2.0000      -0.676879       -18.4188
  14   2.0000      -0.643656       -17.5148
  15   2.0000      -0.617578       -16.8051
  16   2.0000      -0.569843       -15.5062
  17   2.0000      -0.554770       -15.0961
  18   2.0000      -0.540163       -14.6986
  19   2.0000      -0.508022       -13.8240
  20   0.0000      -0.210767        -5.7353
  21   0.0000      -0.155692        -4.2366
  22   0.0000      -0.111173        -3.0252
  23   0.0000      -0.109273        -2.9735
  24   0.0000      -0.078334        -2.1316

MULLIKEN ATOMIC CHARGES
-----------------------
   0 C :   -0.422279
   1 C :    0.557488
   2 C :    0.820009
   3 N :   -0.089939
   4 N :   -0.047111
   5 H :    0.030768
   6 H :   -0.073967
   7 H :    0.051230
   8 H :   -0.039327
   9 H :    0.136687
  10 H :    0.089776
  11 H :    0.042886
  12 H :    0.001343
  13 H :   -0.057561
Sum of atomic charges:    1.0000000

LOEWDIN ATOMIC CHARGES
----------------------
   0 C :    0.015388
   1 C :    0.165731
   2 C :   -0.038126
   3 N :    0.275858
   4 N :    0.283442
   5 H :    0.049701
   6 H :    0.045684
   7 H :    0.059893
   8 H :    0.044967
   9 H :    0.038740
  10 H :    0.059259
  11 H :    0.011206
  12 H :    0.004382
  13 H :   -0.016123

  Mayer bond orders larger than 0.100000
B(  0-C ,  1-C ) :   1.3403 B(  0-C ,  2-C ) :   1.1346 B(  0-C ,  9-H ) :   0.8802
B(  0-C , 10-H ) :   0.8630 B(  0-C , 11-H ) :   0.1510 B(  0-C , 12-H ) :   0.1693
B(  0-C , 13-H ) :   0.1625 B(  1-C ,  9-H ) :   0.1040 B(  1-C , 11-H ) :   0.8483
B(  1-C , 12-H ) :   0.8145 B(  1-C , 13-H ) :   0.8609 B(  2-C ,  3-N ) :   1.0181
B(  2-C ,  4-N ) :   1.0324 B(  2-C ,  6-H ) :  -0.1688 B(  2-C ,  8-H ) :  -0.1234
B(  2-C ,  9-H ) :   0.1193 B(  2-C , 10-H ) :   0.1152 B(  3-N ,  4-N ) :   0.2163
B(  3-N ,  7-H ) :   1.1017 B(  3-N ,  8-H ) :   1.2205 B(  4-N ,  5-H ) :   1.0653
B(  4-N ,  6-H ) :   1.2808 B(  5-H ,  6-H ) :  -0.1744 B(  7-H ,  8-H ) :  -0.1420

Dispersion correction           -0.008492465
FINAL SINGLE POINT ENERGY      -228.613129594613

DIPOLE MOMENT
-------------
                                X             Y             Z
Electronic contribution:     -2.67039       0.62667       3.11953
Nuclear contribution   :      1.78847      -0.48174      -2.67127
                        -----------------------------------------
Total Dipole Moment    :     -0.88192       0.14493       0.44826
                        -----------------------------------------
Magnitude (a.u.)       :      0.99987
Magnitude (Debye)      :      2.54146

Rotational constants in cm-1:     0.286883     0.123210     0.094446
Rotational constants in MHz :  8600.540572  3693.747366  2831.415242

                             ****ORCA TERMINATED NORMALLY****
TOTAL RUN TIME: 0 days 0 hours 0 minutes 20 seconds 457 msec
