                         Program Version 5.0.0 -  RELEASE  -
|  1> !PBE0 D3BJ RIJCOSX def2-SVPD def2/J TightSCF xyzfile
|  2>
|  3> *xyzfile 0 1 B.xyz
|  4>
|  5> %MaxCore 64000
|  6>
|  7> %pal nprocs 4
|  8> end
|  9>
| 10> %scf
| 11>   MaxIter 150
| 12> end
| 13>
| 14>
| 15>                          ****END OF INPUT****

CARTESIAN COORDINATES (ANGSTROEM)
---------------------------------
  C      4.366454   -0.133215   -1.416062
  C      4.508292   -0.931872   -2.724249
  H      4.753716   -1.972051   -2.488408
  C      3.294164   -0.918214   -3.656570
  H      5.385637   -0.536236   -3.242640
  H      2.483463   -1.477378   -3.185764
  H      3.553092   -1.478495   -4.560331
  C      2.772335    0.460100   -4.051448
  H      2.608762    1.065107   -3.155194
  C      1.465354    0.410537   -4.853644
  H      3.532940    0.988848   -4.635671
  C      0.326171   -0.375613   -4.192580
  H      1.666704   -0.022269   -5.839323
  H      1.138198    1.439246   -5.035449
  C     -0.017405    0.080588   -2.778406
  H      0.585573   -1.439385   -4.168057
  H     -0.560005   -0.311425   -4.831461
  H      0.902090    0.201296   -2.206729
  C     -0.903495   -0.873945   -1.987388
  H     -0.479549    1.074657   -2.811915
  H     -0.502554   -1.892096   -2.081204
  H     -1.917039   -0.895427   -2.406277
  C     -0.960148   -0.522365   -0.489867
  H     -1.690392   -1.208130   -0.021677
  H     -1.414490    0.486329   -0.406677
  O      0.261703   -0.580307    0.138611
  C      3.056503   -0.320797   -0.707384
  N      2.389825    0.711285   -0.243909
  N      2.515999   -1.507721   -0.550229
  H      2.967683   -2.322915   -0.956305
  H      1.549872   -1.490634   -0.249876
  H      2.743071    1.649471   -0.412802
  H      1.440364    0.502778    0.037031
  H      4.487835    0.932997   -1.611569
  H      5.169672   -0.414432   -0.729817

 Total Charge           Charge          ....    0
 Multiplicity           Mult            ....    1
 Number of Electrons    NEL             ....  104
 Basis Dimension        Dim             ....  439

ORBITAL ENERGIES
----------------

  NO   OCC          E(Eh)            E(eV)
   0   2.0000     -19.092764      -519.5405
   1   2.0000     -14.425413      -392.5354
   2   2.0000     -14.424958      -392.5230
   3   2.0000     -10.357791      -281.8498
   4   2.0000     -10.278992      -279.7056
   5   2.0000     -10.264271      -279.3050
   6   2.0000     -10.242861      -278.7224
   7   2.0000     -10.236607      -278.5522
   8   2.0000     -10.227695      -278.3097
   9   2.0000     -10.217058      -278.0203
  10   2.0000     -10.214364      -277.9470
  11   2.0000     -10.203618      -277.6546
  12   2.0000     -10.190482      -277.2971
  13   2.0000      -1.027747       -27.9664
  14   2.0000      -0.918478       -24.9930
  15   2.0000      -0.905684       -24.6449
  16   2.0000      -0.852740       -23.2042
  17   2.0000      -0.816224       -22.2106
  18   2.0000      -0.776182       -21.1210
  19   2.0000      -0.735947       -20.0261
  20   2.0000      -0.697429       -18.9780
  21   2.0000      -0.655479       -17.8365
  22   2.0000      -0.638160       -17.3652
  23   2.0000      -0.625962       -17.0333
  24   2.0000      -0.584466       -15.9041
  25   2.0000      -0.568592       -15.4722
  26   2.0000      -0.565075       -15.3765
  27   2.0000      -0.539257       -14.6739
  28   2.0000      -0.519123       -14.1261
  29   2.0000      -0.517745       -14.0886
  30   2.0000      -0.498860       -13.5747
  31   2.0000      -0.478367       -13.0170
  32   2.0000      -0.462365       -12.5816
  33   2.0000      -0.444585       -12.0978
  34   2.0000      -0.434723       -11.8294
  35   2.0000      -0.427751       -11.6397
  36   2.0000      -0.421572       -11.4716
  37   2.0000      -0.416813       -11.3421
  38   2.0000      -0.393992       -10.7211
  39   2.0000      -0.384953       -10.4751
  40   2.0000      -0.375480       -10.2173
  41   2.0000      -0.366399        -9.9702
  42   2.0000      -0.355843        -9.6830
  43   2.0000      -0.351670        -9.5694
  44   2.0000      -0.333412        -9.0726
  45   2.0000      -0.326313        -8.8794
  46   2.0000      -0.315683        -8.5902
  47   2.0000      -0.313235        -8.5235
  48   2.0000      -0.307695        -8.3728
  49   2.0000      -0.298192        -8.1142
  50   2.0000      -0.194852        -5.3022
  51   2.0000      -0.189955        -5.1689
  52   0.0000      -0.022017        -0.5991
  53   0.0000       0.003913         0.1065
  54   0.0000       0.019634         0.5343
  55   0.0000       0.035835         0.9751
  56   0.0000       0.042684         1.1615

MULLIKEN ATOMIC CHARGES
-----------------------
   0 C :    0.198259
   1 C :    0.271016
   2 H :    0.060313
   3 C :   -0.215470
   4 H :   -0.079498
   5 H :    0.094803
   6 H :   -0.086711
   7 C :   -0.204388
   8 H :    0.168115
   9 C :    0.595345
  10 H :   -0.307007
  11 C :   -0.045823
  12 H :    0.030562
  13 H :    0.057997
  14 C :    0.287904
  15 H :    0.202724
  16 H :   -0.358868
  17 H :   -0.612330
  18 C :   -0.063192
  19 H :    0.053468
  20 H :    0.045846
  21 H :   -0.131450
  22 C :    0.830890
  23 H :   -0.096044
  24 H :   -0.032480
  25 O :   -1.158959
  26 C :    0.384244
  27 N :    0.217081
  28 N :    0.240178
  29 H :   -0.053548
  30 H :   -0.209866
  31 H :   -0.061740
  32 H :   -0.131958
  33 H :    0.302424
  34 H :   -0.191840
Sum of atomic charges:    0.0000000

LOEWDIN ATOMIC CHARGES
----------------------
   0 C :    0.038331
   1 C :   -0.020099
   2 H :    0.020077
   3 C :   -0.031722
   4 H :    0.027849
   5 H :   -0.004437
   6 H :    0.033768
   7 C :   -0.035982
   8 H :    0.000400
   9 C :   -0.030056
  10 H :    0.025676
  11 C :   -0.041501
  12 H :    0.022111
  13 H :    0.024104
  14 C :   -0.039134
  15 H :    0.011037
  16 H :    0.023697
  17 H :   -0.027898
  18 C :   -0.038676
  19 H :    0.035608
  20 H :    0.019644
  21 H :    0.020312
  22 C :   -0.055512
  23 H :    0.008408
  24 H :    0.013029
  25 O :   -0.442376
  26 C :   -0.064379
  27 N :    0.280760
  28 N :    0.291920
  29 H :    0.031276
  30 H :   -0.092546
  31 H :    0.034078
  32 H :   -0.098824
  33 H :    0.022958
  34 H :    0.038097

  Mayer bond orders larger than 0.100000
B(  0-C ,  1-C ) :   1.2508 B(  0-C ,  4-H ) :   0.1422 B(  0-C , 26-C ) :   1.1436
B(  0-C , 33-H ) :   0.7218 B(  0-C , 34-H ) :   0.7512 B(  1-C ,  2-H ) :   0.7243
B(  1-C ,  3-C ) :   1.3090 B(  1-C ,  4-H ) :   0.8421 B(  1-C , 33-H ) :   0.1163
B(  1-C , 34-H ) :   0.1129 B(  2-H ,  3-C ) :   0.2127 B(  2-H ,  4-H ) :  -0.1114
B(  3-C ,  4-H ) :   0.1691 B(  3-C ,  5-H ) :   0.8420 B(  3-C ,  6-H ) :   0.8742
B(  3-C ,  7-C ) :   1.2755 B(  3-C , 10-H ) :   0.1637 B(  5-H ,  7-C ) :   0.1143
B(  5-H , 15-H ) :   0.1593 B(  6-H ,  7-C ) :   0.1426 B(  7-C ,  8-H ) :   0.8272
B(  7-C ,  9-C ) :   1.1556 B(  7-C , 10-H ) :   1.0497 B(  7-C , 11-C ) :   0.1100
B(  7-C , 12-H ) :   0.1215 B(  7-C , 13-H ) :   0.2156 B(  8-H , 17-H ) :   0.1909
B(  9-C , 11-C ) :   1.1495 B(  9-C , 12-H ) :   0.7454 B(  9-C , 13-H ) :   0.7073
B( 11-C , 12-H ) :   0.1676 B( 11-C , 13-H ) :   0.1418 B( 11-C , 14-C ) :   1.1593
B( 11-C , 15-H ) :   0.8198 B( 11-C , 16-H ) :   1.0494 B( 11-C , 17-H ) :   0.1360
B( 11-C , 19-H ) :   0.1119 B( 14-C , 15-H ) :   0.1248 B( 14-C , 16-H ) :   0.2258
B( 14-C , 17-H ) :   0.5937 B( 14-C , 18-C ) :   1.1918 B( 14-C , 19-H ) :   0.7014
B( 14-C , 20-H ) :   0.1257 B( 14-C , 21-H ) :   0.2345 B( 17-H , 18-C ) :   0.1540
B( 17-H , 19-H ) :   0.2238 B( 17-H , 26-C ) :   0.1094 B( 18-C , 19-H ) :   0.1063
B( 18-C , 20-H ) :   0.9214 B( 18-C , 21-H ) :   0.9077 B( 18-C , 22-C ) :   1.0553
B( 18-C , 23-H ) :   0.1829 B( 18-C , 24-H ) :   0.1004 B( 18-C , 25-O ) :   0.1344
B( 22-C , 23-H ) :   0.7846 B( 22-C , 24-H ) :   0.8430 B( 22-C , 25-O ) :   0.9723
B( 24-H , 25-O ) :   0.1572 B( 25-O , 26-C ) :   0.1070 B( 25-O , 30-H ) :   0.3062
B( 25-O , 32-H ) :   0.2813 B( 26-C , 27-N ) :   1.0377 B( 26-C , 28-N ) :   1.0241
B( 26-C , 31-H ) :  -0.1050 B( 26-C , 33-H ) :   0.1538 B( 26-C , 34-H ) :   0.2812
B( 27-N , 28-N ) :   0.1937 B( 27-N , 31-H ) :   1.1450 B( 27-N , 32-H ) :   1.0498
B( 28-N , 29-H ) :   1.1044 B( 28-N , 30-H ) :   1.1221 B( 29-H , 30-H ) :  -0.2288
B( 31-H , 32-H ) :  -0.1729

Dispersion correction           -0.034612361
FINAL SINGLE POINT ENERGY      -578.002968409184

DIPOLE MOMENT
-------------
                                X             Y             Z
Electronic contribution:      2.77830      -0.26920       7.53881
Nuclear contribution   :     -0.17996       0.53390      -8.68067
                        -----------------------------------------
Total Dipole Moment    :      2.59834       0.26470      -1.14185
                        -----------------------------------------
Magnitude (a.u.)       :      2.85049
Magnitude (Debye)      :      7.24536

Rotational constants in cm-1:     0.028240     0.022734     0.014600
Rotational constants in MHz :   846.611263   681.554306   437.693928

                             ****ORCA TERMINATED NORMALLY****
TOTAL RUN TIME: 0 days 0 hours 3 minutes 4 seconds 750 msec
