                         Program Version 5.0.0 -  RELEASE  -
|  1> !PBE0 D3BJ RIJCOSX def2-SVPD def2/J TightSCF
|  2> *xyz 0 1
|  3> C         -0.90349       -0.87394       -1.98739
|  4> C         -0.96015       -0.52236       -0.48987
|  5> H         -1.69039       -1.20813       -0.02168
|  6> H         -1.41449        0.48633       -0.40668
|  7> F          0.26170       -0.58031        0.13861
|  8> H         -1.88568       -0.80774       -2.40670
|  9> H         -0.53143       -1.87013       -2.10605
| 10> H         -0.25399       -0.18836       -2.49039
| 11> *
| 12>
| 13> %MaxCore 64000
| 14>
| 15> %pal nprocs 4
| 16> end
| 17>
| 18> %scf
| 19>   MaxIter 150
| 20> end
| 21>
| 22>
| 23>                          ****END OF INPUT****

CARTESIAN COORDINATES (ANGSTROEM)
---------------------------------
  C     -0.903490   -0.873940   -1.987390
  C     -0.960150   -0.522360   -0.489870
  H     -1.690390   -1.208130   -0.021680
  H     -1.414490    0.486330   -0.406680
  F      0.261700   -0.580310    0.138610
  H     -1.885680   -0.807740   -2.406700
  H     -0.531430   -1.870130   -2.106050
  H     -0.253990   -0.188360   -2.490390

 Total Charge           Charge          ....    0
 Multiplicity           Mult            ....    1
 Number of Electrons    NEL             ....   26
 Basis Dimension        Dim             ....  103

ORBITAL ENERGIES
----------------

  NO   OCC          E(Eh)            E(eV)
   0   2.0000     -24.772097      -674.0830
   1   2.0000     -10.313813      -280.6531
   2   2.0000     -10.230471      -278.3853
   3   2.0000      -1.213657       -33.0253
   4   2.0000      -0.782468       -21.2920
   5   2.0000      -0.647446       -17.6179
   6   2.0000      -0.526217       -14.3191
   7   2.0000      -0.513035       -13.9604
   8   2.0000      -0.476247       -12.9593
   9   2.0000      -0.421540       -11.4707
  10   2.0000      -0.416150       -11.3240
  11   2.0000      -0.352803        -9.6003
  12   2.0000      -0.345925        -9.4131
  13   0.0000       0.029902         0.8137
  14   0.0000       0.061940         1.6855
  15   0.0000       0.083483         2.2717
  16   0.0000       0.090182         2.4540
  17   0.0000       0.114687         3.1208

MULLIKEN ATOMIC CHARGES
-----------------------
   0 C :    0.153509
   1 C :    0.365656
   2 H :   -0.022593
   3 H :   -0.014702
   4 F :   -0.485450
   5 H :    0.018583
   6 H :   -0.007343
   7 H :   -0.007661
Sum of atomic charges:   -0.0000000

LOEWDIN ATOMIC CHARGES
----------------------
   0 C :    0.130925
   1 C :    0.069141
   2 H :    0.030136
   3 H :    0.032273
   4 F :   -0.225244
   5 H :   -0.011009
   6 H :   -0.013084
   7 H :   -0.013138

  Mayer bond orders larger than 0.100000
B(  0-C ,  1-C ) :   1.3485 B(  0-C ,  5-H ) :   0.8799 B(  0-C ,  6-H ) :   0.9126
B(  0-C ,  7-H ) :   0.9126 B(  1-C ,  2-H ) :   0.9562 B(  1-C ,  3-H ) :   0.9553
B(  1-C ,  4-F ) :   0.6923 B(  1-C ,  5-H ) :   0.1021 B(  1-C ,  6-H ) :   0.1182
B(  1-C ,  7-H ) :   0.1184

Dispersion correction           -0.002808289
FINAL SINGLE POINT ENERGY      -178.742461246016

DIPOLE MOMENT
-------------
                                X             Y             Z
Electronic contribution:      3.20998       0.37598       3.97246
Nuclear contribution   :     -3.84149      -0.36812      -4.38946
                        -----------------------------------------
Total Dipole Moment    :     -0.63151       0.00786      -0.41700
                        -----------------------------------------
Magnitude (a.u.)       :      0.75681
Magnitude (Debye)      :      1.92365

Rotational constants in cm-1:     1.270659     0.299196     0.265842
Rotational constants in MHz : 38093.410361  8969.665806  7969.741481

                             ****ORCA TERMINATED NORMALLY****
TOTAL RUN TIME: 0 days 0 hours 0 minutes 9 seconds 329 msec
