                         Program Version 5.0.0 -  RELEASE  -
|  1> !PBE0 D3BJ RIJCOSX def2-SVPD def2/J TightSCF
|  2> *xyz 0 1
|  3> C          4.36645       -0.13321       -1.41606
|  4> C          4.50829       -0.93187       -2.72425
|  5> C          3.05650       -0.32080       -0.70738
|  6> C          2.38983        0.71129       -0.24391
|  7> N          2.51600       -1.50772       -0.55023
|  8> H          2.96768       -2.32291       -0.95631
|  9> H          1.54987       -1.49063       -0.24988
| 10> H          2.74307        1.64947       -0.41280
| 11> H          1.44036        0.50278        0.03703
| 12> H          4.48784        0.93300       -1.61157
| 13> H          5.16967       -0.41443       -0.72982
| 14> H          5.46700       -0.73824       -3.15818
| 15> H          3.74074       -0.63528       -3.40821
| 16> H          4.41574       -1.97727       -2.51573
| 17> *
| 18>
| 19> %MaxCore 64000
| 20>
| 21> %pal nprocs 4
| 22> end
| 23>
| 24> %scf
| 25>   MaxIter 150
| 26> end
| 27>
| 28>
| 29>                          ****END OF INPUT****

CARTESIAN COORDINATES (ANGSTROEM)
---------------------------------
  C      4.366450   -0.133210   -1.416060
  C      4.508290   -0.931870   -2.724250
  C      3.056500   -0.320800   -0.707380
  C      2.389830    0.711290   -0.243910
  N      2.516000   -1.507720   -0.550230
  H      2.967680   -2.322910   -0.956310
  H      1.549870   -1.490630   -0.249880
  H      2.743070    1.649470   -0.412800
  H      1.440360    0.502780    0.037030
  H      4.487840    0.933000   -1.611570
  H      5.169670   -0.414430   -0.729820
  H      5.467000   -0.738240   -3.158180
  H      3.740740   -0.635280   -3.408210
  H      4.415740   -1.977270   -2.515730

 Total Charge           Charge          ....    0
 Multiplicity           Mult            ....    1
 Number of Electrons    NEL             ....   40
 Basis Dimension        Dim             ....  172

ORBITAL ENERGIES
----------------

  NO   OCC          E(Eh)            E(eV)
   0   2.0000     -14.395270      -391.7152
   1   2.0000     -10.250293      -278.9247
   2   2.0000     -10.235053      -278.5100
   3   2.0000     -10.225491      -278.2497
   4   2.0000     -10.163631      -276.5665
   5   2.0000      -0.952016       -25.9057
   6   2.0000      -0.795038       -21.6341
   7   2.0000      -0.738734       -20.1020
   8   2.0000      -0.651002       -17.7147
   9   2.0000      -0.577861       -15.7244
  10   2.0000      -0.549917       -14.9640
  11   2.0000      -0.484699       -13.1893
  12   2.0000      -0.454949       -12.3798
  13   2.0000      -0.444149       -12.0859
  14   2.0000      -0.407053       -11.0765
  15   2.0000      -0.394050       -10.7226
  16   2.0000      -0.370318       -10.0769
  17   2.0000      -0.357616        -9.7312
  18   2.0000      -0.338559        -9.2127
  19   2.0000      -0.199920        -5.4401
  20   0.0000       0.022828         0.6212
  21   0.0000       0.044327         1.2062
  22   0.0000       0.058778         1.5994
  23   0.0000       0.065122         1.7721
  24   0.0000       0.080900         2.2014

MULLIKEN ATOMIC CHARGES
-----------------------
   0 C :   -0.258429
   1 C :    0.566506
   2 C :   -0.154047
   3 C :    0.350138
   4 N :    0.120609
   5 H :   -0.131144
   6 H :   -0.114803
   7 H :   -0.082595
   8 H :   -0.333006
   9 H :    0.165340
  10 H :   -0.013557
  11 H :   -0.016690
  12 H :   -0.003236
  13 H :   -0.095084
Sum of atomic charges:    0.0000000

LOEWDIN ATOMIC CHARGES
----------------------
   0 C :   -0.027016
   1 C :    0.126085
   2 C :   -0.263736
   3 C :    0.165029
   4 N :    0.163924
   5 H :   -0.002811
   6 H :    0.006809
   7 H :   -0.076521
   8 H :   -0.083546
   9 H :    0.023056
  10 H :    0.027800
  11 H :   -0.016183
  12 H :   -0.009728
  13 H :   -0.033161

  Mayer bond orders larger than 0.100000
B(  0-C ,  1-C ) :   1.3072 B(  0-C ,  2-C ) :   1.1331 B(  0-C ,  9-H ) :   0.8848
B(  0-C , 10-H ) :   0.8430 B(  0-C , 11-H ) :   0.1918 B(  0-C , 12-H ) :   0.1731
B(  0-C , 13-H ) :   0.1872 B(  1-C , 11-H ) :   0.8244 B(  1-C , 12-H ) :   0.8169
B(  1-C , 13-H ) :   0.8494 B(  2-C ,  3-C ) :   1.8430 B(  2-C ,  4-N ) :   1.1805
B(  2-C ,  8-H ) :   0.2634 B(  2-C , 10-H ) :   0.1979 B(  3-C ,  4-N ) :   0.2615
B(  3-C ,  7-H ) :   0.9920 B(  3-C ,  8-H ) :   0.7093 B(  4-N ,  5-H ) :   1.1177
B(  4-N ,  6-H ) :   1.1902 B(  5-H ,  6-H ) :  -0.1443

Dispersion correction           -0.008822803
FINAL SINGLE POINT ENERGY      -212.164608568052

DIPOLE MOMENT
-------------
                                X             Y             Z
Electronic contribution:     -1.49666      -0.43352       2.07534
Nuclear contribution   :      1.56827      -0.21459      -2.46657
                        -----------------------------------------
Total Dipole Moment    :      0.07161      -0.64811      -0.39123
                        -----------------------------------------
Magnitude (a.u.)       :      0.76042
Magnitude (Debye)      :      1.93282

Rotational constants in cm-1:     0.294070     0.127722     0.097792
Rotational constants in MHz :  8815.983970  3829.010547  2931.715816

                             ****ORCA TERMINATED NORMALLY****
TOTAL RUN TIME: 0 days 0 hours 0 minutes 21 seconds 742 msec
