                         Program Version 5.0.0 -  RELEASE  -
|  1> !PBE0 D3BJ RIJCOSX def2-SVPD def2/J TightSCF
|  2> *xyz 0 1
|  3> C          4.36645       -0.13321       -1.41606
|  4> C          4.50829       -0.93187       -2.72425
|  5> C          3.05650       -0.32080       -0.70738
|  6> N          2.38983        0.71129       -0.24391
|  7> C          2.51600       -1.50772       -0.55023
|  8> H          2.96768       -2.32291       -0.95631
|  9> H          1.54987       -1.49063       -0.24988
| 10> H          2.74307        1.64947       -0.41280
| 11> H          1.44036        0.50278        0.03703
| 12> H          4.48784        0.93300       -1.61157
| 13> H          5.16967       -0.41443       -0.72982
| 14> H          5.46700       -0.73824       -3.15818
| 15> H          3.74074       -0.63528       -3.40821
| 16> H          4.41574       -1.97727       -2.51573
| 17> *
| 18>
| 19> %MaxCore 64000
| 20>
| 21> %pal nprocs 4
| 22> end
| 23>
| 24> %scf
| 25>   MaxIter 150
| 26> end
| 27>
| 28>
| 29>                          ****END OF INPUT****

CARTESIAN COORDINATES (ANGSTROEM)
---------------------------------
  C      4.366450   -0.133210   -1.416060
  C      4.508290   -0.931870   -2.724250
  C      3.056500   -0.320800   -0.707380
  N      2.389830    0.711290   -0.243910
  C      2.516000   -1.507720   -0.550230
  H      2.967680   -2.322910   -0.956310
  H      1.549870   -1.490630   -0.249880
  H      2.743070    1.649470   -0.412800
  H      1.440360    0.502780    0.037030
  H      4.487840    0.933000   -1.611570
  H      5.169670   -0.414430   -0.729820
  H      5.467000   -0.738240   -3.158180
  H      3.740740   -0.635280   -3.408210
  H      4.415740   -1.977270   -2.515730

 Total Charge           Charge          ....    0
 Multiplicity           Mult            ....    1
 Number of Electrons    NEL             ....   40
 Basis Dimension        Dim             ....  172

ORBITAL ENERGIES
----------------

  NO   OCC          E(Eh)            E(eV)
   0   2.0000     -14.395989      -391.7348
   1   2.0000     -10.250505      -278.9304
   2   2.0000     -10.236404      -278.5467
   3   2.0000     -10.219101      -278.0759
   4   2.0000     -10.162197      -276.5274
   5   2.0000      -0.952468       -25.9180
   6   2.0000      -0.796632       -21.6774
   7   2.0000      -0.727751       -19.8031
   8   2.0000      -0.660559       -17.9747
   9   2.0000      -0.568667       -15.4742
  10   2.0000      -0.547263       -14.8918
  11   2.0000      -0.492996       -13.4151
  12   2.0000      -0.464612       -12.6427
  13   2.0000      -0.421356       -11.4657
  14   2.0000      -0.404407       -11.0045
  15   2.0000      -0.393891       -10.7183
  16   2.0000      -0.371690       -10.1142
  17   2.0000      -0.354664        -9.6509
  18   2.0000      -0.340145        -9.2558
  19   2.0000      -0.198412        -5.3991
  20   0.0000       0.026978         0.7341
  21   0.0000       0.040783         1.1098
  22   0.0000       0.057760         1.5717
  23   0.0000       0.063432         1.7261
  24   0.0000       0.083896         2.2829

MULLIKEN ATOMIC CHARGES
-----------------------
   0 C :   -0.159531
   1 C :    0.549571
   2 C :   -0.013677
   3 N :    0.039768
   4 C :    0.321472
   5 H :   -0.136626
   6 H :   -0.370165
   7 H :   -0.094375
   8 H :   -0.063849
   9 H :    0.021280
  10 H :   -0.008930
  11 H :    0.014199
  12 H :   -0.025758
  13 H :   -0.073379
Sum of atomic charges:    0.0000000

LOEWDIN ATOMIC CHARGES
----------------------
   0 C :   -0.028536
   1 C :    0.130212
   2 C :   -0.257691
   3 N :    0.155582
   4 C :    0.169686
   5 H :   -0.082839
   6 H :   -0.083515
   7 H :    0.004001
   8 H :    0.006185
   9 H :    0.011269
  10 H :    0.030026
  11 H :   -0.018021
  12 H :   -0.010263
  13 H :   -0.026096

  Mayer bond orders larger than 0.100000
B(  0-C ,  1-C ) :   1.3319 B(  0-C ,  2-C ) :   1.0707 B(  0-C ,  9-H ) :   0.8201
B(  0-C , 10-H ) :   0.8792 B(  0-C , 11-H ) :   0.1632 B(  0-C , 12-H ) :   0.1740
B(  0-C , 13-H ) :   0.1679 B(  1-C , 11-H ) :   0.8198 B(  1-C , 12-H ) :   0.8353
B(  1-C , 13-H ) :   0.8690 B(  2-C ,  3-N ) :   1.0789 B(  2-C ,  4-C ) :   1.8133
B(  2-C ,  5-H ) :   0.1164 B(  2-C ,  6-H ) :   0.2215 B(  2-C ,  9-H ) :   0.1692
B(  2-C , 10-H ) :   0.1375 B(  3-N ,  4-C ) :   0.2783 B(  3-N ,  7-H ) :   1.1345
B(  3-N ,  8-H ) :   1.1500 B(  4-C ,  5-H ) :   0.8614 B(  4-C ,  6-H ) :   0.8297
B(  7-H ,  8-H ) :  -0.1196

Dispersion correction           -0.008849645
FINAL SINGLE POINT ENERGY      -212.163362033236

DIPOLE MOMENT
-------------
                                X             Y             Z
Electronic contribution:     -1.60944       1.46234       2.35474
Nuclear contribution   :      1.59749      -0.72853      -2.53752
                        -----------------------------------------
Total Dipole Moment    :     -0.01195       0.73381      -0.18278
                        -----------------------------------------
Magnitude (a.u.)       :      0.75632
Magnitude (Debye)      :      1.92242

Rotational constants in cm-1:     0.304597     0.124127     0.096828
Rotational constants in MHz :  9131.600925  3721.227051  2902.830760

                             ****ORCA TERMINATED NORMALLY****
TOTAL RUN TIME: 0 days 0 hours 0 minutes 21 seconds 522 msec
