                         Program Version 5.0.0 -  RELEASE  -
|  1> !wB97X-D3 RIJCOSX def2-SVP def2/J TightSCF
|  2> *xyz -1 1
|  3> C          2.09343        1.86104       -4.65684
|  4> S          1.87964        0.07859       -4.46297
|  5> O          3.20757       -0.46611       -4.42026
|  6> O          1.07506       -0.05616       -3.26876
|  7> O          1.13166       -0.31996       -5.67903
|  8> H          2.68437        2.05681       -5.52711
|  9> H          2.58708        2.25699       -3.79404
| 10> H          1.13553        2.32556       -4.76426
| 11> *
| 12>
| 13> %MaxCore 64000
| 14>
| 15> %pal nprocs 8
| 16> end
| 17>
| 18> %scf
| 19>   MaxIter 150
| 20> end
| 21>
| 22>
| 23>                          ****END OF INPUT****

CARTESIAN COORDINATES (ANGSTROEM)
---------------------------------
  C      2.093430    1.861040   -4.656840
  S      1.879640    0.078590   -4.462970
  O      3.207570   -0.466110   -4.420260
  O      1.075060   -0.056160   -3.268760
  O      1.131660   -0.319960   -5.679030
  H      2.684370    2.056810   -5.527110
  H      2.587080    2.256990   -3.794040
  H      1.135530    2.325560   -4.764260

 Total Charge           Charge          ....   -1
 Multiplicity           Mult            ....    1
 Number of Electrons    NEL             ....   50
 Basis Dimension        Dim             ....   89

ORBITAL ENERGIES
----------------

  NO   OCC          E(Eh)            E(eV)
   0   2.0000     -88.936739     -2420.0917
   1   2.0000     -18.989524      -516.7312
   2   2.0000     -18.984647      -516.5985
   3   2.0000     -18.971219      -516.2331
   4   2.0000     -10.121502      -275.4201
   5   2.0000      -8.017028      -218.1544
   6   2.0000      -5.976121      -162.6185
   7   2.0000      -5.975907      -162.6127
   8   2.0000      -5.975750      -162.6084
   9   2.0000      -1.018701       -27.7203
  10   2.0000      -0.877048       -23.8657
  11   2.0000      -0.849594       -23.1186
  12   2.0000      -0.675096       -18.3703
  13   2.0000      -0.467515       -12.7217
  14   2.0000      -0.381139       -10.3713
  15   2.0000      -0.372114       -10.1257
  16   2.0000      -0.371191       -10.1006
  17   2.0000      -0.322828        -8.7846
  18   2.0000      -0.320967        -8.7340
  19   2.0000      -0.218974        -5.9586
  20   2.0000      -0.217315        -5.9134
  21   2.0000      -0.182898        -4.9769
  22   2.0000      -0.174510        -4.7487
  23   2.0000      -0.163966        -4.4617
  24   2.0000      -0.127465        -3.4685
  25   0.0000       0.314045         8.5456
  26   0.0000       0.364821         9.9273
  27   0.0000       0.366570         9.9749
  28   0.0000       0.400139        10.8883
  29   0.0000       0.469180        12.7670

MULLIKEN ATOMIC CHARGES
-----------------------
   0 C :   -0.077463
   1 S :    0.865840
   2 O :   -0.583419
   3 O :   -0.597001
   4 O :   -0.635364
   5 H :    0.009431
   6 H :    0.005183
   7 H :    0.012793
Sum of atomic charges:   -1.0000000

LOEWDIN ATOMIC CHARGES
----------------------
   0 C :   -0.215884
   1 S :    1.099198
   2 O :   -0.612125
   3 O :   -0.624746
   4 O :   -0.664471
   5 H :    0.006201
   6 H :    0.003674
   7 H :    0.008152

  Mayer bond orders larger than 0.100000
B(  0-C ,  1-S ) :   0.9104 B(  0-C ,  5-H ) :   0.9666 B(  0-C ,  6-H ) :   0.9644
B(  0-C ,  7-H ) :   0.9676 B(  1-S ,  2-O ) :   1.6454 B(  1-S ,  3-O ) :   1.6321
B(  1-S ,  4-O ) :   1.5924

Dispersion correction           -0.001526375
FINAL SINGLE POINT ENERGY      -663.357695673537

DIPOLE MOMENT
-------------
                                X             Y             Z
Electronic contribution:     -0.43723      -4.40215       0.57771
Nuclear contribution   :      0.72475       5.67579      -0.57287
                        -----------------------------------------
Total Dipole Moment    :      0.28752       1.27365       0.00484
                        -----------------------------------------
Magnitude (a.u.)       :      1.30571
Magnitude (Debye)      :      3.31884

Rotational constants in cm-1:     0.171646     0.157781     0.155534
Rotational constants in MHz :  5145.813281  4730.160232  4662.792719

                             ****ORCA TERMINATED NORMALLY****
TOTAL RUN TIME: 0 days 0 hours 0 minutes 6 seconds 90 msec
