                         Program Version 5.0.0 -  RELEASE  -
|  1> !wB97X-D3 RIJCOSX def2-SVP def2/J TightSCF
|  2> *xyz 1 1
|  3> C         -0.46129        2.23469       -4.98962
|  4> C         -0.42384        2.39877       -6.47432
|  5> N         -0.95947        3.49265       -7.00740
|  6> N          0.14558        1.48689       -7.20399
|  7> H          0.56537        0.69681       -6.72386
|  8> H          0.22068        1.58177       -8.20752
|  9> H         -1.40624        4.18151       -6.40326
| 10> H         -0.93421        3.68160       -7.99947
| 11> H          0.00645        1.31059       -4.72100
| 12> H         -1.47822        2.22967       -4.65687
| 13> H          0.06109        3.04632       -4.52779
| 14> *
| 15>
| 16> %MaxCore 64000
| 17>
| 18> %pal nprocs 8
| 19> end
| 20>
| 21> %scf
| 22>   MaxIter 150
| 23> end
| 24>
| 25>
| 26>                          ****END OF INPUT****

CARTESIAN COORDINATES (ANGSTROEM)
---------------------------------
  C     -0.461290    2.234690   -4.989620
  C     -0.423840    2.398770   -6.474320
  N     -0.959470    3.492650   -7.007400
  N      0.145580    1.486890   -7.203990
  H      0.565370    0.696810   -6.723860
  H      0.220680    1.581770   -8.207520
  H     -1.406240    4.181510   -6.403260
  H     -0.934210    3.681600   -7.999470
  H      0.006450    1.310590   -4.721000
  H     -1.478220    2.229670   -4.656870
  H      0.061090    3.046320   -4.527790

 Total Charge           Charge          ....    1
 Multiplicity           Mult            ....    1
 Number of Electrons    NEL             ....   32
 Basis Dimension        Dim             ....   91

ORBITAL ENERGIES
----------------

  NO   OCC          E(Eh)            E(eV)
   0   2.0000     -14.691511      -399.7763
   1   2.0000     -14.684297      -399.5800
   2   2.0000     -10.623070      -289.0684
   3   2.0000     -10.488403      -285.4039
   4   2.0000      -1.321120       -35.9495
   5   2.0000      -1.221637       -33.2424
   6   2.0000      -1.066177       -29.0122
   7   2.0000      -0.948166       -25.8009
   8   2.0000      -0.888329       -24.1727
   9   2.0000      -0.873127       -23.7590
  10   2.0000      -0.806025       -21.9331
  11   2.0000      -0.766646       -20.8615
  12   2.0000      -0.716712       -19.5027
  13   2.0000      -0.701527       -19.0895
  14   2.0000      -0.675285       -18.3754
  15   2.0000      -0.591703       -16.1011
  16   0.0000      -0.123438        -3.3589
  17   0.0000      -0.058684        -1.5969
  18   0.0000      -0.014130        -0.3845
  19   0.0000      -0.005582        -0.1519
  20   0.0000       0.014991         0.4079

MULLIKEN ATOMIC CHARGES
-----------------------
   0 C :    0.036800
   1 C :   -0.074430
   2 N :   -0.050827
   3 N :   -0.002064
   4 H :    0.201855
   5 H :    0.189450
   6 H :    0.200283
   7 H :    0.186636
   8 H :    0.073739
   9 H :    0.118497
  10 H :    0.120061
Sum of atomic charges:    1.0000000

LOEWDIN ATOMIC CHARGES
----------------------
   0 C :   -0.027444
   1 C :    0.158901
   2 N :    0.075662
   3 N :    0.104987
   4 H :    0.126698
   5 H :    0.118306
   6 H :    0.126727
   7 H :    0.113684
   8 H :    0.056382
   9 H :    0.072846
  10 H :    0.073252

  Mayer bond orders larger than 0.100000
B(  0-C ,  1-C ) :   1.0422 B(  0-C ,  8-H ) :   0.9479 B(  0-C ,  9-H ) :   0.9418
B(  0-C , 10-H ) :   0.9427 B(  1-C ,  2-N ) :   1.4814 B(  1-C ,  3-N ) :   1.5363
B(  2-N ,  6-H ) :   0.9250 B(  2-N ,  7-H ) :   0.9309 B(  3-N ,  4-H ) :   0.9126
B(  3-N ,  5-H ) :   0.9270

Dispersion correction           -0.001673264
FINAL SINGLE POINT ENERGY      -189.529695830804

DIPOLE MOMENT
-------------
                                X             Y             Z
Electronic contribution:      0.06166       0.18492      -2.18010
Nuclear contribution   :     -0.00094      -0.11553       1.69525
                        -----------------------------------------
Total Dipole Moment    :      0.06072       0.06939      -0.48485
                        -----------------------------------------
Magnitude (a.u.)       :      0.49354
Magnitude (Debye)      :      1.25447

Rotational constants in cm-1:     0.329971     0.303414     0.162776
Rotational constants in MHz :  9892.292308  9096.128349  4879.901854

                             ****ORCA TERMINATED NORMALLY****
TOTAL RUN TIME: 0 days 0 hours 0 minutes 6 seconds 338 msec
