                         Program Version 5.0.0 -  RELEASE  -
|  1> !wB97X-D3 RIJCOSX def2-SVP def2/J TightSCF
|  2> *xyz 0 1
|  3> C          2.09343        1.86104       -4.65684
|  4> S          1.87964        0.07859       -4.46297
|  5> F          3.20757       -0.46611       -4.42026
|  6> O          1.07506       -0.05616       -3.26876
|  7> O          1.13166       -0.31996       -5.67903
|  8> H          2.68437        2.05681       -5.52711
|  9> H          2.58708        2.25699       -3.79404
| 10> H          1.13553        2.32556       -4.76426
| 11> *
| 12>
| 13> %MaxCore 64000
| 14>
| 15> %pal nprocs 8
| 16> end
| 17>
| 18> %scf
| 19>   MaxIter 150
| 20> end
| 21>
| 22>
| 23>                          ****END OF INPUT****

CARTESIAN COORDINATES (ANGSTROEM)
---------------------------------
  C      2.093430    1.861040   -4.656840
  S      1.879640    0.078590   -4.462970
  F      3.207570   -0.466110   -4.420260
  O      1.075060   -0.056160   -3.268760
  O      1.131660   -0.319960   -5.679030
  H      2.684370    2.056810   -5.527110
  H      2.587080    2.256990   -3.794040
  H      1.135530    2.325560   -4.764260

 Total Charge           Charge          ....    0
 Multiplicity           Mult            ....    1
 Number of Electrons    NEL             ....   50
 Basis Dimension        Dim             ....   89

ORBITAL ENERGIES
----------------

  NO   OCC          E(Eh)            E(eV)
   0   2.0000     -89.219336     -2427.7816
   1   2.0000     -24.915035      -677.9726
   2   2.0000     -19.243830      -523.6512
   3   2.0000     -19.231014      -523.3025
   4   2.0000     -10.342039      -281.4212
   5   2.0000      -8.301875      -225.9055
   6   2.0000      -6.265075      -170.4814
   7   2.0000      -6.258217      -170.2947
   8   2.0000      -6.257451      -170.2739
   9   2.0000      -1.497803       -40.7573
  10   2.0000      -1.216945       -33.1147
  11   2.0000      -1.108827       -30.1727
  12   2.0000      -0.908889       -24.7321
  13   2.0000      -0.826116       -22.4798
  14   2.0000      -0.712433       -19.3863
  15   2.0000      -0.696563       -18.9545
  16   2.0000      -0.653485       -17.7822
  17   2.0000      -0.574931       -15.6447
  18   2.0000      -0.572041       -15.5660
  19   2.0000      -0.562573       -15.3084
  20   2.0000      -0.526724       -14.3329
  21   2.0000      -0.478268       -13.0143
  22   2.0000      -0.423407       -11.5215
  23   2.0000      -0.411506       -11.1976
  24   2.0000      -0.392717       -10.6864
  25   0.0000       0.117597         3.2000
  26   0.0000       0.148845         4.0503
  27   0.0000       0.154884         4.2146
  28   0.0000       0.175862         4.7855
  29   0.0000       0.190731         5.1901

MULLIKEN ATOMIC CHARGES
-----------------------
   0 C :   -0.098077
   1 S :    0.930741
   2 F :   -0.168152
   3 O :   -0.449612
   4 O :   -0.487603
   5 H :    0.080788
   6 H :    0.079948
   7 H :    0.111967
Sum of atomic charges:   -0.0000000

LOEWDIN ATOMIC CHARGES
----------------------
   0 C :   -0.157089
   1 S :    1.157244
   2 F :   -0.111637
   3 O :   -0.489358
   4 O :   -0.528685
   5 H :    0.037083
   6 H :    0.036068
   7 H :    0.056375

  Mayer bond orders larger than 0.100000
B(  0-C ,  1-S ) :   0.9402 B(  0-C ,  5-H ) :   0.9561 B(  0-C ,  6-H ) :   0.9551
B(  0-C ,  7-H ) :   0.9599 B(  1-S ,  2-F ) :   1.0320 B(  1-S ,  3-O ) :   1.7825
B(  1-S ,  4-O ) :   1.7434

Dispersion correction           -0.001536585
FINAL SINGLE POINT ENERGY      -687.853085861913

DIPOLE MOMENT
-------------
                                X             Y             Z
Electronic contribution:      1.82894      -5.22249       0.66508
Nuclear contribution   :     -0.60459       6.33153      -0.64388
                        -----------------------------------------
Total Dipole Moment    :      1.22436       1.10904       0.02120
                        -----------------------------------------
Magnitude (a.u.)       :      1.65211
Magnitude (Debye)      :      4.19933

Rotational constants in cm-1:     0.163601     0.155191     0.147098
Rotational constants in MHz :  4904.622287  4652.507792  4409.891356

                             ****ORCA TERMINATED NORMALLY****
TOTAL RUN TIME: 0 days 0 hours 0 minutes 6 seconds 144 msec
