                         Program Version 5.0.0 -  RELEASE  -
|  1> !wB97X-D3 RIJCOSX def2-SVP def2/J TightSCF
|  2> *xyz 0 1
|  3> C         -0.46129        2.23469       -4.98962
|  4> C         -0.42384        2.39877       -6.47432
|  5> C         -0.95947        3.49265       -7.00740
|  6> N          0.14558        1.48689       -7.20399
|  7> H          0.56537        0.69681       -6.72386
|  8> H          0.22068        1.58177       -8.20752
|  9> H         -1.40624        4.18151       -6.40326
| 10> H         -0.93421        3.68160       -7.99947
| 11> H          0.00645        1.31059       -4.72100
| 12> H         -1.47822        2.22967       -4.65687
| 13> H          0.06109        3.04632       -4.52779
| 14> *
| 15>
| 16> %MaxCore 64000
| 17>
| 18> %pal nprocs 8
| 19> end
| 20>
| 21> %scf
| 22>   MaxIter 150
| 23> end
| 24>
| 25>
| 26>                          ****END OF INPUT****

CARTESIAN COORDINATES (ANGSTROEM)
---------------------------------
  C     -0.461290    2.234690   -4.989620
  C     -0.423840    2.398770   -6.474320
  C     -0.959470    3.492650   -7.007400
  N      0.145580    1.486890   -7.203990
  H      0.565370    0.696810   -6.723860
  H      0.220680    1.581770   -8.207520
  H     -1.406240    4.181510   -6.403260
  H     -0.934210    3.681600   -7.999470
  H      0.006450    1.310590   -4.721000
  H     -1.478220    2.229670   -4.656870
  H      0.061090    3.046320   -4.527790

 Total Charge           Charge          ....    0
 Multiplicity           Mult            ....    1
 Number of Electrons    NEL             ....   32
 Basis Dimension        Dim             ....   91

ORBITAL ENERGIES
----------------

  NO   OCC          E(Eh)            E(eV)
   0   2.0000     -14.432623      -392.7316
   1   2.0000     -10.305611      -280.4299
   2   2.0000     -10.278151      -279.6827
   3   2.0000     -10.210095      -277.8308
   4   2.0000      -1.037993       -28.2452
   5   2.0000      -0.860790       -23.4233
   6   2.0000      -0.788528       -21.4569
   7   2.0000      -0.672539       -18.3007
   8   2.0000      -0.627613       -17.0782
   9   2.0000      -0.569216       -15.4892
  10   2.0000      -0.529916       -14.4198
  11   2.0000      -0.492222       -13.3940
  12   2.0000      -0.479726       -13.0540
  13   2.0000      -0.443559       -12.0698
  14   2.0000      -0.432338       -11.7645
  15   2.0000      -0.264165        -7.1883
  16   0.0000       0.140061         3.8112
  17   0.0000       0.147027         4.0008
  18   0.0000       0.186093         5.0638
  19   0.0000       0.194038         5.2801
  20   0.0000       0.229855         6.2547

MULLIKEN ATOMIC CHARGES
-----------------------
   0 C :    0.072474
   1 C :   -0.190411
   2 C :   -0.086363
   3 N :   -0.087734
   4 H :    0.120850
   5 H :    0.128490
   6 H :   -0.024425
   7 H :   -0.036971
   8 H :   -0.001571
   9 H :    0.052303
  10 H :    0.053358
Sum of atomic charges:   -0.0000000

LOEWDIN ATOMIC CHARGES
----------------------
   0 C :   -0.041865
   1 C :    0.000792
   2 C :   -0.199447
   3 N :   -0.003504
   4 H :    0.072842
   5 H :    0.081526
   6 H :   -0.000014
   7 H :   -0.008668
   8 H :    0.017279
   9 H :    0.040597
  10 H :    0.040463

  Mayer bond orders larger than 0.100000
B(  0-C ,  1-C ) :   1.0112 B(  0-C ,  8-H ) :   0.9614 B(  0-C ,  9-H ) :   0.9631
B(  0-C , 10-H ) :   0.9642 B(  1-C ,  2-C ) :   1.8574 B(  1-C ,  3-N ) :   1.2731
B(  2-C ,  6-H ) :   0.9580 B(  2-C ,  7-H ) :   0.9648 B(  3-N ,  4-H ) :   0.9485
B(  3-N ,  5-H ) :   0.9497

Dispersion correction           -0.001670730
FINAL SINGLE POINT ENERGY      -173.069626062320

DIPOLE MOMENT
-------------
                                X             Y             Z
Electronic contribution:      0.57574      -0.88462      -1.51023
Nuclear contribution   :     -0.12116       0.12783       1.56719
                        -----------------------------------------
Total Dipole Moment    :      0.45458      -0.75679       0.05696
                        -----------------------------------------
Magnitude (a.u.)       :      0.88466
Magnitude (Debye)      :      2.24861

Rotational constants in cm-1:     0.350065     0.307664     0.168807
Rotational constants in MHz : 10494.676477  9223.531181  5060.697310

                             ****ORCA TERMINATED NORMALLY****
TOTAL RUN TIME: 0 days 0 hours 0 minutes 6 seconds 842 msec
