                         Program Version 5.0.0 -  RELEASE  -
|  1> !wB97X-D3 RIJCOSX def2-SVP def2/J TightSCF
|  2> *xyz 0 1
|  3> C          2.09343        1.86104       -4.65684
|  4> S          1.87964        0.07859       -4.46297
|  5> O          3.20757       -0.46611       -4.42026
|  6> F          1.07506       -0.05616       -3.26876
|  7> O          1.13166       -0.31996       -5.67903
|  8> H          2.68437        2.05681       -5.52711
|  9> H          2.58708        2.25699       -3.79404
| 10> H          1.13553        2.32556       -4.76426
| 11> *
| 12>
| 13> %MaxCore 64000
| 14>
| 15> %pal nprocs 8
| 16> end
| 17>
| 18> %scf
| 19>   MaxIter 150
| 20> end
| 21>
| 22>
| 23>                          ****END OF INPUT****

CARTESIAN COORDINATES (ANGSTROEM)
---------------------------------
  C      2.093430    1.861040   -4.656840
  S      1.879640    0.078590   -4.462970
  O      3.207570   -0.466110   -4.420260
  F      1.075060   -0.056160   -3.268760
  O      1.131660   -0.319960   -5.679030
  H      2.684370    2.056810   -5.527110
  H      2.587080    2.256990   -3.794040
  H      1.135530    2.325560   -4.764260

 Total Charge           Charge          ....    0
 Multiplicity           Mult            ....    1
 Number of Electrons    NEL             ....   50
 Basis Dimension        Dim             ....   89

ORBITAL ENERGIES
----------------

  NO   OCC          E(Eh)            E(eV)
   0   2.0000     -89.219010     -2427.7727
   1   2.0000     -24.909078      -677.8105
   2   2.0000     -19.248466      -523.7774
   3   2.0000     -19.230947      -523.3007
   4   2.0000     -10.341896      -281.4173
   5   2.0000      -8.301508      -225.8955
   6   2.0000      -6.264654      -170.4699
   7   2.0000      -6.257941      -170.2872
   8   2.0000      -6.257123      -170.2650
   9   2.0000      -1.488227       -40.4967
  10   2.0000      -1.221882       -33.2491
  11   2.0000      -1.112512       -30.2730
  12   2.0000      -0.908902       -24.7325
  13   2.0000      -0.821081       -22.3428
  14   2.0000      -0.707350       -19.2480
  15   2.0000      -0.689804       -18.7705
  16   2.0000      -0.653050       -17.7704
  17   2.0000      -0.574993       -15.6463
  18   2.0000      -0.573927       -15.6173
  19   2.0000      -0.561873       -15.2893
  20   2.0000      -0.529200       -14.4003
  21   2.0000      -0.481260       -13.0958
  22   2.0000      -0.428349       -11.6560
  23   2.0000      -0.412069       -11.2130
  24   2.0000      -0.395701       -10.7676
  25   0.0000       0.118872         3.2347
  26   0.0000       0.150541         4.0964
  27   0.0000       0.154195         4.1959
  28   0.0000       0.177029         4.8172
  29   0.0000       0.189095         5.1455

MULLIKEN ATOMIC CHARGES
-----------------------
   0 C :   -0.099871
   1 S :    0.933459
   2 O :   -0.437636
   3 F :   -0.179908
   4 O :   -0.488925
   5 H :    0.110143
   6 H :    0.078713
   7 H :    0.084026
Sum of atomic charges:   -0.0000000

LOEWDIN ATOMIC CHARGES
----------------------
   0 C :   -0.158269
   1 S :    1.159128
   2 O :   -0.478046
   3 F :   -0.122747
   4 O :   -0.529807
   5 H :    0.055205
   6 H :    0.035449
   7 H :    0.039086

  Mayer bond orders larger than 0.100000
B(  0-C ,  1-S ) :   0.9399 B(  0-C ,  5-H ) :   0.9602 B(  0-C ,  6-H ) :   0.9550
B(  0-C ,  7-H ) :   0.9562 B(  1-S ,  2-O ) :   1.7967 B(  1-S ,  3-F ) :   1.0191
B(  1-S ,  4-O ) :   1.7445

Dispersion correction           -0.001537547
FINAL SINGLE POINT ENERGY      -687.858622024248

DIPOLE MOMENT
-------------
                                X             Y             Z
Electronic contribution:     -1.75180      -4.53478       2.60337
Nuclear contribution   :      1.52593       5.92196      -1.79430
                        -----------------------------------------
Total Dipole Moment    :     -0.22587       1.38718       0.80907
                        -----------------------------------------
Magnitude (a.u.)       :      1.62169
Magnitude (Debye)      :      4.12202

Rotational constants in cm-1:     0.162837     0.155564     0.147443
Rotational constants in MHz :  4881.731197  4663.686927  4420.233103

                             ****ORCA TERMINATED NORMALLY****
TOTAL RUN TIME: 0 days 0 hours 0 minutes 6 seconds 71 msec
