                         Program Version 5.0.0 -  RELEASE  -
|  1> !wB97X-D3 RIJCOSX def2-SVP def2/J TightSCF
|  2> *xyz 0 1
|  3> C         -0.46129        2.23469       -4.98962
|  4> C         -0.42384        2.39877       -6.47432
|  5> N         -0.95947        3.49265       -7.00740
|  6> C          0.14558        1.48689       -7.20399
|  7> H          0.56537        0.69681       -6.72386
|  8> H          0.22068        1.58177       -8.20752
|  9> H         -1.40624        4.18151       -6.40326
| 10> H         -0.93421        3.68160       -7.99947
| 11> H          0.00645        1.31059       -4.72100
| 12> H         -1.47822        2.22967       -4.65687
| 13> H          0.06109        3.04632       -4.52779
| 14> *
| 15>
| 16> %MaxCore 64000
| 17>
| 18> %pal nprocs 8
| 19> end
| 20>
| 21> %scf
| 22>   MaxIter 150
| 23> end
| 24>
| 25>
| 26>                          ****END OF INPUT****

CARTESIAN COORDINATES (ANGSTROEM)
---------------------------------
  C     -0.461290    2.234690   -4.989620
  C     -0.423840    2.398770   -6.474320
  N     -0.959470    3.492650   -7.007400
  C      0.145580    1.486890   -7.203990
  H      0.565370    0.696810   -6.723860
  H      0.220680    1.581770   -8.207520
  H     -1.406240    4.181510   -6.403260
  H     -0.934210    3.681600   -7.999470
  H      0.006450    1.310590   -4.721000
  H     -1.478220    2.229670   -4.656870
  H      0.061090    3.046320   -4.527790

 Total Charge           Charge          ....    0
 Multiplicity           Mult            ....    1
 Number of Electrons    NEL             ....   32
 Basis Dimension        Dim             ....   91

ORBITAL ENERGIES
----------------

  NO   OCC          E(Eh)            E(eV)
   0   2.0000     -14.427845      -392.6016
   1   2.0000     -10.303848      -280.3820
   2   2.0000     -10.276687      -279.6429
   3   2.0000     -10.214889      -277.9613
   4   2.0000      -1.025110       -27.8947
   5   2.0000      -0.864523       -23.5249
   6   2.0000      -0.792883       -21.5754
   7   2.0000      -0.668519       -18.1913
   8   2.0000      -0.617735       -16.8094
   9   2.0000      -0.571823       -15.5601
  10   2.0000      -0.530007       -14.4222
  11   2.0000      -0.489594       -13.3225
  12   2.0000      -0.485933       -13.2229
  13   2.0000      -0.444083       -12.0841
  14   2.0000      -0.424524       -11.5519
  15   2.0000      -0.274341        -7.4652
  16   0.0000       0.142371         3.8741
  17   0.0000       0.154416         4.2019
  18   0.0000       0.186899         5.0858
  19   0.0000       0.202973         5.5232
  20   0.0000       0.212532         5.7833

MULLIKEN ATOMIC CHARGES
-----------------------
   0 C :    0.077499
   1 C :   -0.152624
   2 N :   -0.132203
   3 C :   -0.065903
   4 H :   -0.024200
   5 H :   -0.035691
   6 H :    0.119319
   7 H :    0.125223
   8 H :    0.026004
   9 H :    0.030453
  10 H :    0.032122
Sum of atomic charges:   -0.0000000

LOEWDIN ATOMIC CHARGES
----------------------
   0 C :   -0.042127
   1 C :    0.006818
   2 N :   -0.029012
   3 C :   -0.174610
   4 H :    0.002138
   5 H :   -0.005027
   6 H :    0.073115
   7 H :    0.076776
   8 H :    0.035697
   9 H :    0.027801
  10 H :    0.028429

  Mayer bond orders larger than 0.100000
B(  0-C ,  1-C ) :   1.0321 B(  0-C ,  8-H ) :   0.9591 B(  0-C ,  9-H ) :   0.9574
B(  0-C , 10-H ) :   0.9581 B(  1-C ,  2-N ) :   1.2307 B(  1-C ,  3-C ) :   1.8874
B(  2-N ,  6-H ) :   0.9578 B(  2-N ,  7-H ) :   0.9541 B(  3-C ,  4-H ) :   0.9388
B(  3-C ,  5-H ) :   0.9651

Dispersion correction           -0.001683463
FINAL SINGLE POINT ENERGY      -173.073409882490

DIPOLE MOMENT
-------------
                                X             Y             Z
Electronic contribution:     -0.48463       1.02103      -1.36896
Nuclear contribution   :      0.12666      -0.32199       1.52310
                        -----------------------------------------
Total Dipole Moment    :     -0.35796       0.69904       0.15414
                        -----------------------------------------
Magnitude (a.u.)       :      0.80034
Magnitude (Debye)      :      2.03431

Rotational constants in cm-1:     0.352483     0.305471     0.168700
Rotational constants in MHz : 10567.165953  9157.779739  5057.501411

                             ****ORCA TERMINATED NORMALLY****
TOTAL RUN TIME: 0 days 0 hours 0 minutes 6 seconds 212 msec
