                         Program Version 5.0.0 -  RELEASE  -
|  1> !wB97X-D3 RIJCOSX def2-SVP def2/J TightSCF
|  2> *xyz 0 1
|  3> C          2.09343        1.86104       -4.65684
|  4> S          1.87964        0.07859       -4.46297
|  5> O          3.20757       -0.46611       -4.42026
|  6> O          1.07506       -0.05616       -3.26876
|  7> F          1.13166       -0.31996       -5.67903
|  8> H          2.68437        2.05681       -5.52711
|  9> H          2.58708        2.25699       -3.79404
| 10> H          1.13553        2.32556       -4.76426
| 11> *
| 12>
| 13> %MaxCore 64000
| 14>
| 15> %pal nprocs 8
| 16> end
| 17>
| 18> %scf
| 19>   MaxIter 150
| 20> end
| 21>
| 22>
| 23>                          ****END OF INPUT****

CARTESIAN COORDINATES (ANGSTROEM)
---------------------------------
  C      2.093430    1.861040   -4.656840
  S      1.879640    0.078590   -4.462970
  O      3.207570   -0.466110   -4.420260
  O      1.075060   -0.056160   -3.268760
  F      1.131660   -0.319960   -5.679030
  H      2.684370    2.056810   -5.527110
  H      2.587080    2.256990   -3.794040
  H      1.135530    2.325560   -4.764260

 Total Charge           Charge          ....    0
 Multiplicity           Mult            ....    1
 Number of Electrons    NEL             ....   50
 Basis Dimension        Dim             ....   89

ORBITAL ENERGIES
----------------

  NO   OCC          E(Eh)            E(eV)
   0   2.0000     -89.217869     -2427.7416
   1   2.0000     -24.890817      -677.3136
   2   2.0000     -19.248605      -523.7812
   3   2.0000     -19.243819      -523.6509
   4   2.0000     -10.341243      -281.3995
   5   2.0000      -8.300210      -225.8602
   6   2.0000      -6.263148      -170.4289
   7   2.0000      -6.256829      -170.2570
   8   2.0000      -6.256061      -170.2361
   9   2.0000      -1.457520       -39.6611
  10   2.0000      -1.230187       -33.4751
  11   2.0000      -1.132340       -30.8125
  12   2.0000      -0.906937       -24.6790
  13   2.0000      -0.805707       -21.9244
  14   2.0000      -0.693200       -18.8629
  15   2.0000      -0.668355       -18.1869
  16   2.0000      -0.650131       -17.6910
  17   2.0000      -0.576119       -15.6770
  18   2.0000      -0.574596       -15.6355
  19   2.0000      -0.560694       -15.2573
  20   2.0000      -0.535300       -14.5663
  21   2.0000      -0.486600       -13.2411
  22   2.0000      -0.432931       -11.7807
  23   2.0000      -0.424511       -11.5515
  24   2.0000      -0.410054       -11.1581
  25   0.0000       0.119675         3.2565
  26   0.0000       0.150403         4.0927
  27   0.0000       0.154800         4.2123
  28   0.0000       0.182171         4.9571
  29   0.0000       0.187841         5.1114

MULLIKEN ATOMIC CHARGES
-----------------------
   0 C :   -0.102114
   1 S :    0.942551
   2 O :   -0.442274
   3 O :   -0.455822
   4 F :   -0.215095
   5 H :    0.081651
   6 H :    0.108359
   7 H :    0.082744
Sum of atomic charges:   -0.0000000

LOEWDIN ATOMIC CHARGES
----------------------
   0 C :   -0.159154
   1 S :    1.163958
   2 O :   -0.481436
   3 O :   -0.494133
   4 F :   -0.158991
   5 H :    0.037485
   6 H :    0.053794
   7 H :    0.038476

  Mayer bond orders larger than 0.100000
B(  0-C ,  1-S ) :   0.9414 B(  0-C ,  5-H ) :   0.9563 B(  0-C ,  6-H ) :   0.9600
B(  0-C ,  7-H ) :   0.9563 B(  1-S ,  2-O ) :   1.7997 B(  1-S ,  3-O ) :   1.7865
B(  1-S ,  4-F ) :   0.9791

Dispersion correction           -0.001535974
FINAL SINGLE POINT ENERGY      -687.874687090510

DIPOLE MOMENT
-------------
                                X             Y             Z
Electronic contribution:     -1.66447      -4.97832      -1.46442
Nuclear contribution   :      1.46938       6.18552       0.61372
                        -----------------------------------------
Total Dipole Moment    :     -0.19509       1.20720      -0.85070
                        -----------------------------------------
Magnitude (a.u.)       :      1.48966
Magnitude (Debye)      :      3.78640

Rotational constants in cm-1:     0.163578     0.153284     0.148718
Rotational constants in MHz :  4903.939615  4595.352658  4458.447794

                             ****ORCA TERMINATED NORMALLY****
TOTAL RUN TIME: 0 days 0 hours 0 minutes 6 seconds 74 msec
