                         Program Version 5.0.0 -  RELEASE  -
|  1> !wB97X-D3 RIJCOSX def2-SVP def2/J TightSCF xyzfile
|  2>
|  3> *xyzfile 0 1 D1.xyz
|  4>
|  5> %MaxCore 64000
|  6>
|  7> %pal nprocs 18
|  8> end
|  9>
| 10> %scf
| 11>   MaxIter 150
| 12> end
| 13>
| 14>
| 15>                          ****END OF INPUT****

CARTESIAN COORDINATES (ANGSTROEM)
---------------------------------
  C     -0.461293    2.234686   -4.989619
  C      0.848883    2.667967   -4.302351
  C      2.093434    1.861037   -4.656845
  H      2.444814    2.041567   -5.674990
  H      2.901748    2.137864   -3.980338
  S      1.879644    0.078594   -4.462965
  C     -0.423841    2.398772   -6.474317
  C     -0.959467    3.492647   -7.007401
  N      0.145585    1.486891   -7.203987
  H      0.565371    0.696807   -6.723858
  H      0.220682    1.581768   -8.207520
  H     -1.406243    4.181507   -6.403261
  H     -0.934215    3.681601   -7.999468
  F      3.207574   -0.466111   -4.420259
  O      1.075064   -0.056160   -3.268758
  O      1.131661   -0.319960   -5.679031
  H      0.668432    2.559427   -3.232850
  H      1.034074    3.729426   -4.497081
  H     -1.288884    2.826737   -4.594997
  H     -0.651696    1.186343   -4.756552

 Total Charge           Charge          ....    0
 Multiplicity           Mult            ....    1
 Number of Electrons    NEL             ....   88
 Basis Dimension        Dim             ....  194

ORBITAL ENERGIES
----------------

  NO   OCC          E(Eh)            E(eV)
   0   2.0000     -89.237408     -2428.2733
   1   2.0000     -24.931605      -678.4235
   2   2.0000     -19.263477      -524.1859
   3   2.0000     -19.259211      -524.0698
   4   2.0000     -14.401409      -391.8823
   5   2.0000     -10.354319      -281.7553
   6   2.0000     -10.317398      -280.7507
   7   2.0000     -10.296227      -280.1746
   8   2.0000     -10.287631      -279.9407
   9   2.0000     -10.206745      -277.7396
  10   2.0000      -8.320274      -226.4062
  11   2.0000      -6.283234      -170.9755
  12   2.0000      -6.277116      -170.8090
  13   2.0000      -6.275454      -170.7638
  14   2.0000      -1.514160       -41.2024
  15   2.0000      -1.240938       -33.7676
  16   2.0000      -1.138265       -30.9738
  17   2.0000      -1.021874       -27.8066
  18   2.0000      -0.947697       -25.7881
  19   2.0000      -0.878642       -23.9091
  20   2.0000      -0.843911       -22.9640
  21   2.0000      -0.798404       -21.7257
  22   2.0000      -0.753129       -20.4937
  23   2.0000      -0.715763       -19.4769
  24   2.0000      -0.702931       -19.1277
  25   2.0000      -0.680929       -18.5290
  26   2.0000      -0.655522       -17.8377
  27   2.0000      -0.625524       -17.0214
  28   2.0000      -0.604376       -16.4459
  29   2.0000      -0.589332       -16.0365
  30   2.0000      -0.572227       -15.5711
  31   2.0000      -0.551399       -15.0043
  32   2.0000      -0.543615       -14.7925
  33   2.0000      -0.509635       -13.8679
  34   2.0000      -0.493319       -13.4239
  35   2.0000      -0.488518       -13.2933
  36   2.0000      -0.471781       -12.8378
  37   2.0000      -0.457770       -12.4566
  38   2.0000      -0.440659       -11.9909
  39   2.0000      -0.434276       -11.8172
  40   2.0000      -0.420258       -11.4358
  41   2.0000      -0.417334       -11.3562
  42   2.0000      -0.408458       -11.1147
  43   2.0000      -0.256365        -6.9760
  44   0.0000       0.102163         2.7800
  45   0.0000       0.123227         3.3532
  46   0.0000       0.141164         3.8413
  47   0.0000       0.149516         4.0685
  48   0.0000       0.160346         4.3632

MULLIKEN ATOMIC CHARGES
-----------------------
   0 C :    0.024751
   1 C :   -0.024190
   2 C :   -0.132020
   3 H :    0.095958
   4 H :    0.080105
   5 S :    0.977495
   6 C :   -0.133837
   7 C :   -0.092483
   8 N :   -0.087256
   9 H :    0.120851
  10 H :    0.115875
  11 H :   -0.032827
  12 H :   -0.040309
  13 F :   -0.156435
  14 O :   -0.429272
  15 O :   -0.486023
  16 H :    0.057215
  17 H :    0.055923
  18 H :    0.036326
  19 H :    0.050152
Sum of atomic charges:   -0.0000000

LOEWDIN ATOMIC CHARGES
----------------------
   0 C :   -0.032788
   1 C :   -0.033305
   2 C :   -0.150218
   3 H :    0.040234
   4 H :    0.036788
   5 S :    1.178308
   6 C :    0.001136
   7 C :   -0.202810
   8 N :   -0.010833
   9 H :    0.015729
  10 H :    0.073648
  11 H :   -0.004332
  12 H :   -0.009557
  13 F :   -0.102432
  14 O :   -0.470329
  15 O :   -0.473491
  16 H :    0.034489
  17 H :    0.042699
  18 H :    0.041562
  19 H :    0.025502

  Mayer bond orders larger than 0.100000
B(  0-C ,  1-C ) :   1.0819 B(  0-C ,  6-C ) :   1.0032 B(  0-C , 18-H ) :   0.9327
B(  0-C , 19-H ) :   0.9292 B(  1-C ,  2-C ) :   1.0472 B(  1-C , 16-H ) :   0.9458
B(  1-C , 17-H ) :   0.9420 B(  2-C ,  3-H ) :   0.9215 B(  2-C ,  4-H ) :   0.9316
B(  2-C ,  5-S ) :   0.9328 B(  5-S , 13-F ) :   1.0522 B(  5-S , 14-O ) :   1.7900
B(  5-S , 15-O ) :   1.6240 B(  6-C ,  7-C ) :   1.8325 B(  6-C ,  8-N ) :   1.3023
B(  7-C , 11-H ) :   0.9470 B(  7-C , 12-H ) :   0.9639 B(  8-N ,  9-H ) :   0.8956
B(  8-N , 10-H ) :   0.9473 B(  9-H , 15-O ) :   0.1268

Dispersion correction           -0.008655788
FINAL SINGLE POINT ENERGY      -899.014195658385

DIPOLE MOMENT
-------------
                                X             Y             Z
Electronic contribution:     10.26439     -14.01377       5.49917
Nuclear contribution   :     -8.53047      14.15581      -5.17613
                        -----------------------------------------
Total Dipole Moment    :      1.73392       0.14204       0.32304
                        -----------------------------------------
Magnitude (a.u.)       :      1.76947
Magnitude (Debye)      :      4.49762

Rotational constants in cm-1:     0.081196     0.024861     0.022477
Rotational constants in MHz :  2434.181666   745.320670   673.846846

                             ****ORCA TERMINATED NORMALLY****
TOTAL RUN TIME: 0 days 0 hours 0 minutes 16 seconds 651 msec
