                         Program Version 5.0.0 -  RELEASE  -
|  1> !wB97X-D3 RIJCOSX def2-SVP def2/J TightSCF xyzfile
|  2>
|  3> *xyzfile 0 1 D3.xyz
|  4>
|  5> %MaxCore 64000
|  6>
|  7> %pal nprocs 18
|  8> end
|  9>
| 10> %scf
| 11>   MaxIter 150
| 12> end
| 13>
| 14>
| 15>                          ****END OF INPUT****

CARTESIAN COORDINATES (ANGSTROEM)
---------------------------------
  C     -0.461293    2.234686   -4.989619
  C      0.848883    2.667967   -4.302351
  C      2.093434    1.861037   -4.656845
  H      2.444814    2.041567   -5.674990
  H      2.901748    2.137864   -3.980338
  S      1.879644    0.078594   -4.462965
  C     -0.423841    2.398772   -6.474317
  C     -0.959467    3.492647   -7.007401
  N      0.145585    1.486891   -7.203987
  H      0.565371    0.696807   -6.723858
  H      0.220682    1.581768   -8.207520
  H     -1.406243    4.181507   -6.403261
  H     -0.934215    3.681601   -7.999468
  O      3.207574   -0.466111   -4.420259
  F      1.075064   -0.056160   -3.268758
  O      1.131661   -0.319960   -5.679031
  H      0.668432    2.559427   -3.232850
  H      1.034074    3.729426   -4.497081
  H     -1.288884    2.826737   -4.594997
  H     -0.651696    1.186343   -4.756552

 Total Charge           Charge          ....    0
 Multiplicity           Mult            ....    1
 Number of Electrons    NEL             ....   88
 Basis Dimension        Dim             ....  194

ORBITAL ENERGIES
----------------

  NO   OCC          E(Eh)            E(eV)
   0   2.0000     -89.236406     -2428.2461
   1   2.0000     -24.925774      -678.2648
   2   2.0000     -19.266114      -524.2576
   3   2.0000     -19.258475      -524.0497
   4   2.0000     -14.404400      -391.9637
   5   2.0000     -10.353775      -281.7406
   6   2.0000     -10.323677      -280.9215
   7   2.0000     -10.302346      -280.3411
   8   2.0000     -10.299467      -280.2628
   9   2.0000     -10.211986      -277.8823
  10   2.0000      -8.319215      -226.3773
  11   2.0000      -6.282416      -170.9532
  12   2.0000      -6.275979      -170.7781
  13   2.0000      -6.274280      -170.7318
  14   2.0000      -1.504607       -40.9424
  15   2.0000      -1.243567       -33.8392
  16   2.0000      -1.141777       -31.0693
  17   2.0000      -1.026169       -27.9235
  18   2.0000      -0.954132       -25.9633
  19   2.0000      -0.877508       -23.8782
  20   2.0000      -0.843250       -22.9460
  21   2.0000      -0.803457       -21.8632
  22   2.0000      -0.754765       -20.5382
  23   2.0000      -0.713608       -19.4183
  24   2.0000      -0.709820       -19.3152
  25   2.0000      -0.674848       -18.3636
  26   2.0000      -0.661278       -17.9943
  27   2.0000      -0.619398       -16.8547
  28   2.0000      -0.603294       -16.4165
  29   2.0000      -0.593909       -16.1611
  30   2.0000      -0.574742       -15.6395
  31   2.0000      -0.556915       -15.1544
  32   2.0000      -0.549057       -14.9406
  33   2.0000      -0.517846       -14.0913
  34   2.0000      -0.500424       -13.6172
  35   2.0000      -0.494779       -13.4636
  36   2.0000      -0.475576       -12.9411
  37   2.0000      -0.473323       -12.8798
  38   2.0000      -0.438518       -11.9327
  39   2.0000      -0.436245       -11.8708
  40   2.0000      -0.429996       -11.7008
  41   2.0000      -0.419543       -11.4163
  42   2.0000      -0.410551       -11.1717
  43   2.0000      -0.260756        -7.0955
  44   0.0000       0.099035         2.6949
  45   0.0000       0.131661         3.5827
  46   0.0000       0.134506         3.6601
  47   0.0000       0.144522         3.9326
  48   0.0000       0.164299         4.4708

MULLIKEN ATOMIC CHARGES
-----------------------
   0 C :    0.021065
   1 C :   -0.049976
   2 C :   -0.129398
   3 H :    0.117905
   4 H :    0.090670
   5 S :    0.978794
   6 C :   -0.128908
   7 C :   -0.090411
   8 N :   -0.086052
   9 H :    0.125775
  10 H :    0.118339
  11 H :   -0.032204
  12 H :   -0.036601
  13 O :   -0.412094
  14 F :   -0.170059
  15 O :   -0.486478
  16 H :    0.042340
  17 H :    0.058913
  18 H :    0.039735
  19 H :    0.028646
Sum of atomic charges:    0.0000000

LOEWDIN ATOMIC CHARGES
----------------------
   0 C :   -0.036588
   1 C :   -0.047480
   2 C :   -0.145000
   3 H :    0.054773
   4 H :    0.041921
   5 S :    1.181118
   6 C :    0.000830
   7 C :   -0.199822
   8 N :   -0.009100
   9 H :    0.016678
  10 H :    0.075260
  11 H :   -0.004074
  12 H :   -0.007838
  13 O :   -0.462097
  14 F :   -0.109812
  15 O :   -0.473296
  16 H :    0.025044
  17 H :    0.043003
  18 H :    0.042184
  19 H :    0.014297

  Mayer bond orders larger than 0.100000
B(  0-C ,  1-C ) :   1.0721 B(  0-C ,  6-C ) :   1.0018 B(  0-C , 18-H ) :   0.9323
B(  0-C , 19-H ) :   0.9317 B(  1-C ,  2-C ) :   1.0291 B(  1-C , 16-H ) :   0.9537
B(  1-C , 17-H ) :   0.9398 B(  2-C ,  3-H ) :   0.9244 B(  2-C ,  4-H ) :   0.9364
B(  2-C ,  5-S ) :   0.9422 B(  5-S , 13-O ) :   1.8265 B(  5-S , 14-F ) :   1.0248
B(  5-S , 15-O ) :   1.6185 B(  6-C ,  7-C ) :   1.8322 B(  6-C ,  8-N ) :   1.3088
B(  7-C , 11-H ) :   0.9466 B(  7-C , 12-H ) :   0.9646 B(  8-N ,  9-H ) :   0.8955
B(  8-N , 10-H ) :   0.9465 B(  9-H , 15-O ) :   0.1249

Dispersion correction           -0.008640544
FINAL SINGLE POINT ENERGY      -899.019125443634

DIPOLE MOMENT
-------------
                                X             Y             Z
Electronic contribution:      6.54030     -13.23772       7.42649
Nuclear contribution   :     -6.19944      13.70770      -6.43483
                        -----------------------------------------
Total Dipole Moment    :      0.34086       0.46997       0.99166
                        -----------------------------------------
Magnitude (a.u.)       :      1.14911
Magnitude (Debye)      :      2.92081

Rotational constants in cm-1:     0.079903     0.025241     0.022805
Rotational constants in MHz :  2395.439281   756.708181   683.680583

                             ****ORCA TERMINATED NORMALLY****
TOTAL RUN TIME: 0 days 0 hours 0 minutes 16 seconds 934 msec
