                         Program Version 5.0.0 -  RELEASE  -
|  1> !wB97X-D3 RIJCOSX def2-SVP def2/J TightSCF xyzfile
|  2>
|  3> *xyzfile 0 1 D6.xyz
|  4>
|  5> %MaxCore 64000
|  6>
|  7> %pal nprocs 18
|  8> end
|  9>
| 10> %scf
| 11>   MaxIter 150
| 12> end
| 13>
| 14>
| 15>                          ****END OF INPUT****

CARTESIAN COORDINATES (ANGSTROEM)
---------------------------------
  C     -0.461293    2.234686   -4.989619
  C      0.848883    2.667967   -4.302351
  C      2.093434    1.861037   -4.656845
  H      2.444814    2.041567   -5.674990
  H      2.901748    2.137864   -3.980338
  S      1.879644    0.078594   -4.462965
  C     -0.423841    2.398772   -6.474317
  N     -0.959467    3.492647   -7.007401
  C      0.145585    1.486891   -7.203987
  H      0.565371    0.696807   -6.723858
  H      0.220682    1.581768   -8.207520
  H     -1.406243    4.181507   -6.403261
  H     -0.934215    3.681601   -7.999468
  O      3.207574   -0.466111   -4.420259
  O      1.075064   -0.056160   -3.268758
  F      1.131661   -0.319960   -5.679031
  H      0.668432    2.559427   -3.232850
  H      1.034074    3.729426   -4.497081
  H     -1.288884    2.826737   -4.594997
  H     -0.651696    1.186343   -4.756552

 Total Charge           Charge          ....    0
 Multiplicity           Mult            ....    1
 Number of Electrons    NEL             ....   88
 Basis Dimension        Dim             ....  194

ORBITAL ENERGIES
----------------

  NO   OCC          E(Eh)            E(eV)
   0   2.0000     -89.212919     -2427.6070
   1   2.0000     -24.891115      -677.3217
   2   2.0000     -19.246504      -523.7240
   3   2.0000     -19.244665      -523.6740
   4   2.0000     -14.438856      -392.9013
   5   2.0000     -10.339011      -281.3388
   6   2.0000     -10.316291      -280.7205
   7   2.0000     -10.313721      -280.6506
   8   2.0000     -10.302752      -280.3521
   9   2.0000     -10.216933      -278.0169
  10   2.0000      -8.295609      -225.7350
  11   2.0000      -6.258770      -170.3098
  12   2.0000      -6.252239      -170.1321
  13   2.0000      -6.251012      -170.0987
  14   2.0000      -1.462297       -39.7911
  15   2.0000      -1.229849       -33.4659
  16   2.0000      -1.131681       -30.7946
  17   2.0000      -1.037436       -28.2301
  18   2.0000      -0.943900       -25.6848
  19   2.0000      -0.878778       -23.9128
  20   2.0000      -0.829487       -22.5715
  21   2.0000      -0.818112       -22.2620
  22   2.0000      -0.745137       -20.2762
  23   2.0000      -0.703670       -19.1478
  24   2.0000      -0.672486       -18.2993
  25   2.0000      -0.658048       -17.9064
  26   2.0000      -0.649460       -17.6727
  27   2.0000      -0.629663       -17.1340
  28   2.0000      -0.598917       -16.2974
  29   2.0000      -0.587577       -15.9888
  30   2.0000      -0.569787       -15.5047
  31   2.0000      -0.554440       -15.0871
  32   2.0000      -0.543054       -14.7773
  33   2.0000      -0.507128       -13.7997
  34   2.0000      -0.498781       -13.5725
  35   2.0000      -0.489749       -13.3267
  36   2.0000      -0.474499       -12.9118
  37   2.0000      -0.464723       -12.6458
  38   2.0000      -0.437887       -11.9155
  39   2.0000      -0.431858       -11.7515
  40   2.0000      -0.427175       -11.6240
  41   2.0000      -0.413390       -11.2489
  42   2.0000      -0.409066       -11.1313
  43   2.0000      -0.283598        -7.7171
  44   0.0000       0.115226         3.1355
  45   0.0000       0.129402         3.5212
  46   0.0000       0.134652         3.6641
  47   0.0000       0.157607         4.2887
  48   0.0000       0.161785         4.4024

MULLIKEN ATOMIC CHARGES
-----------------------
   0 C :    0.002827
   1 C :   -0.022196
   2 C :   -0.124463
   3 H :    0.090878
   4 H :    0.100992
   5 S :    0.961361
   6 C :   -0.099453
   7 N :   -0.120656
   8 C :   -0.114432
   9 H :    0.005399
  10 H :   -0.035186
  11 H :    0.119688
  12 H :    0.127017
  13 O :   -0.428840
  14 O :   -0.447664
  15 F :   -0.192423
  16 H :    0.062316
  17 H :    0.041217
  18 H :    0.019592
  19 H :    0.054025
Sum of atomic charges:   -0.0000000

LOEWDIN ATOMIC CHARGES
----------------------
   0 C :   -0.036857
   1 C :   -0.041049
   2 C :   -0.148029
   3 H :    0.038422
   4 H :    0.051925
   5 S :    1.172413
   6 C :    0.002738
   7 N :   -0.022990
   8 C :   -0.187526
   9 H :   -0.031190
  10 H :   -0.005220
  11 H :    0.072039
  12 H :    0.078033
  13 O :   -0.476845
  14 O :   -0.487820
  15 F :   -0.106963
  16 H :    0.035486
  17 H :    0.034610
  18 H :    0.028515
  19 H :    0.030310

  Mayer bond orders larger than 0.100000
B(  0-C ,  1-C ) :   1.0815 B(  0-C ,  6-C ) :   0.9894 B(  0-C , 18-H ) :   0.9342
B(  0-C , 19-H ) :   0.9363 B(  1-C ,  2-C ) :   1.0422 B(  1-C , 16-H ) :   0.9453
B(  1-C , 17-H ) :   0.9400 B(  2-C ,  3-H ) :   0.9236 B(  2-C ,  4-H ) :   0.9361
B(  2-C ,  5-S ) :   0.9284 B(  5-S , 13-O ) :   1.8103 B(  5-S , 14-O ) :   1.7628
B(  5-S , 15-F ) :   0.9380 B(  6-C ,  7-N ) :   1.2452 B(  6-C ,  8-C ) :   1.8719
B(  7-N , 11-H ) :   0.9509 B(  7-N , 12-H ) :   0.9525 B(  8-C ,  9-H ) :   0.9283
B(  8-C , 10-H ) :   0.9603

Dispersion correction           -0.008588891
FINAL SINGLE POINT ENERGY      -899.014554825183

DIPOLE MOMENT
-------------
                                X             Y             Z
Electronic contribution:      5.55765     -11.98154       3.19522
Nuclear contribution   :     -6.15577      13.80449      -3.81895
                        -----------------------------------------
Total Dipole Moment    :     -0.59812       1.82296      -0.62374
                        -----------------------------------------
Magnitude (a.u.)       :      2.01741
Magnitude (Debye)      :      5.12786

Rotational constants in cm-1:     0.081431     0.024887     0.022470
Rotational constants in MHz :  2441.231544   746.086417   673.646914

                             ****ORCA TERMINATED NORMALLY****
TOTAL RUN TIME: 0 days 0 hours 0 minutes 16 seconds 792 msec
