                         Program Version 5.0.0 -  RELEASE  -
|  1> !LC-PBE RIJCOSX def2-SVPD def2/J TightSCF
|  2> *xyz -1 1
|  3> C          0.61188        1.65763       -4.50029
|  4> C          1.69499        1.54179       -5.57045
|  5> H          2.69733        1.73466       -5.18400
|  6> H          1.50666        2.27224       -6.35808
|  7> S          1.78029       -0.03313       -6.42874
|  8> O          2.56929        0.21366       -7.60736
|  9> O          0.41688       -0.46297       -6.61859
| 10> O          2.50513       -0.93326       -5.48257
| 11> H         -0.34424        1.45871       -4.93752
| 12> H          0.61845        2.64655       -4.09174
| 13> H          0.80247        0.94882       -3.72173
| 14> *
| 15> %MaxCore 64000
| 16>
| 17> %pal nprocs 4
| 18> end
| 19>
| 20> %scf
| 21>   MaxIter 150
| 22> end
| 23>
| 24>
| 25>                          ****END OF INPUT****

CARTESIAN COORDINATES (ANGSTROEM)
---------------------------------
  C      0.611880    1.657630   -4.500290
  C      1.694990    1.541790   -5.570450
  H      2.697330    1.734660   -5.184000
  H      1.506660    2.272240   -6.358080
  S      1.780290   -0.033130   -6.428740
  O      2.569290    0.213660   -7.607360
  O      0.416880   -0.462970   -6.618590
  O      2.505130   -0.933260   -5.482570
  H     -0.344240    1.458710   -4.937520
  H      0.618450    2.646550   -4.091740
  H      0.802470    0.948820   -3.721730

 Total Charge           Charge          ....   -1
 Multiplicity           Mult            ....    1
 Number of Electrons    NEL             ....   58
 Basis Dimension        Dim             ....  176

ORBITAL ENERGIES
----------------

  NO   OCC          E(Eh)            E(eV)
   0   2.0000     -88.314184     -2403.1511
   1   2.0000     -18.777021      -510.9487
   2   2.0000     -18.776436      -510.9328
   3   2.0000     -18.756681      -510.3952
   4   2.0000      -9.995148      -271.9818
   5   2.0000      -9.987246      -271.7668
   6   2.0000      -7.936251      -215.9564
   7   2.0000      -5.958604      -162.1419
   8   2.0000      -5.958411      -162.1366
   9   2.0000      -5.958163      -162.1299
  10   2.0000      -1.111042       -30.2330
  11   2.0000      -0.960283       -26.1306
  12   2.0000      -0.925452       -25.1828
  13   2.0000      -0.810177       -22.0460
  14   2.0000      -0.674099       -18.3432
  15   2.0000      -0.535559       -14.5733
  16   2.0000      -0.471501       -12.8302
  17   2.0000      -0.468901       -12.7594
  18   2.0000      -0.427629       -11.6364
  19   2.0000      -0.413166       -11.2428
  20   2.0000      -0.402642       -10.9564
  21   2.0000      -0.370183       -10.0732
  22   2.0000      -0.350106        -9.5269
  23   2.0000      -0.296399        -8.0654
  24   2.0000      -0.293198        -7.9783
  25   2.0000      -0.256910        -6.9909
  26   2.0000      -0.242330        -6.5941
  27   2.0000      -0.229977        -6.2580
  28   2.0000      -0.197574        -5.3763
  29   0.0000       0.204463         5.5637
  30   0.0000       0.225678         6.1410
  31   0.0000       0.227755         6.1975
  32   0.0000       0.235376         6.4049
  33   0.0000       0.256343         6.9754

MULLIKEN ATOMIC CHARGES
-----------------------
   0 C :    0.511528
   1 C :   -0.506332
   2 H :    0.026899
   3 H :    0.067441
   4 S :    1.206823
   5 O :   -0.743379
   6 O :   -0.760116
   7 O :   -0.808964
   8 H :    0.020135
   9 H :   -0.027130
  10 H :    0.013095
Sum of atomic charges:   -1.0000000

LOEWDIN ATOMIC CHARGES
----------------------
   0 C :    0.073278
   1 C :   -0.160316
   2 H :    0.019751
   3 H :    0.012311
   4 S :    0.835680
   5 O :   -0.571937
   6 O :   -0.567661
   7 O :   -0.605403
   8 H :   -0.012326
   9 H :   -0.020602
  10 H :   -0.002774

  Mayer bond orders larger than 0.100000
B(  0-C ,  1-C ) :   1.2757 B(  0-C ,  8-H ) :   0.8572 B(  0-C ,  9-H ) :   0.8050
B(  0-C , 10-H ) :   0.8544 B(  1-C ,  2-H ) :   1.0015 B(  1-C ,  3-H ) :   0.9941
B(  1-C ,  4-S ) :   0.9490 B(  1-C ,  8-H ) :   0.1679 B(  1-C ,  9-H ) :   0.1682
B(  1-C , 10-H ) :   0.1566 B(  4-S ,  5-O ) :   1.3852 B(  4-S ,  6-O ) :   1.3425
B(  4-S ,  7-O ) :   1.2985

FINAL SINGLE POINT ENERGY      -701.576463451400

DIPOLE MOMENT
-------------
                                X             Y             Z
Electronic contribution:      2.20320      -5.47883      -4.92299
Nuclear contribution   :     -2.69163       7.29476       5.86550
                        -----------------------------------------
Total Dipole Moment    :     -0.48843       1.81593       0.94251
                        -----------------------------------------
Magnitude (a.u.)       :      2.10344
Magnitude (Debye)      :      5.34653

Rotational constants in cm-1:     0.163060     0.082831     0.081111
Rotational constants in MHz :  4888.419330  2483.225008  2431.646841

                             ****ORCA TERMINATED NORMALLY****
TOTAL RUN TIME: 0 days 0 hours 0 minutes 17 seconds 930 msec
