                         Program Version 5.0.0 -  RELEASE  -
|  1> !LC-PBE RIJCOSX def2-SVPD def2/J TightSCF
|  2> *xyz 1 1
|  3> C          1.96337       -1.74915       -1.89689
|  4> N          2.73849       -2.01517       -3.09711
|  5> C          4.04974       -2.15472       -3.15204
|  6> N          4.65821       -1.98629       -4.31866
|  7> N          4.76423       -2.45444       -2.05049
|  8> H          4.28736       -2.77626       -1.21750
|  9> H          5.75082       -2.65835       -2.12599
| 10> H          2.34518       -1.69027       -3.97145
| 11> H          4.10900       -1.59268       -5.07176
| 12> H          5.64910       -2.15646       -4.42724
| 13> C          2.08852       -0.30091       -1.41520
| 14> H          2.23127       -2.45162       -1.10264
| 15> H          0.93025       -1.97780       -2.15544
| 16> H          1.82118        0.36368       -2.21003
| 17> H          3.09792       -0.11068       -1.11551
| 18> H          1.43391       -0.14382       -0.58352
| 19> *
| 20> %MaxCore 64000
| 21>
| 22> %pal nprocs 4
| 23> end
| 24>
| 25> %scf
| 26>   MaxIter 150
| 27> end
| 28>
| 29>
| 30>                          ****END OF INPUT****

CARTESIAN COORDINATES (ANGSTROEM)
---------------------------------
  C      1.963370   -1.749150   -1.896890
  N      2.738490   -2.015170   -3.097110
  C      4.049740   -2.154720   -3.152040
  N      4.658210   -1.986290   -4.318660
  N      4.764230   -2.454440   -2.050490
  H      4.287360   -2.776260   -1.217500
  H      5.750820   -2.658350   -2.125990
  H      2.345180   -1.690270   -3.971450
  H      4.109000   -1.592680   -5.071760
  H      5.649100   -2.156460   -4.427240
  C      2.088520   -0.300910   -1.415200
  H      2.231270   -2.451620   -1.102640
  H      0.930250   -1.977800   -2.155440
  H      1.821180    0.363680   -2.210030
  H      3.097920   -0.110680   -1.115510
  H      1.433910   -0.143820   -0.583520

 Total Charge           Charge          ....    1
 Multiplicity           Mult            ....    1
 Number of Electrons    NEL             ....   48
 Basis Dimension        Dim             ....  200

ORBITAL ENERGIES
----------------

  NO   OCC          E(Eh)            E(eV)
   0   2.0000     -14.457057      -393.3965
   1   2.0000     -14.456502      -393.3814
   2   2.0000     -14.453895      -393.3105
   3   2.0000     -10.474152      -285.0162
   4   2.0000     -10.336000      -281.2569
   5   2.0000     -10.262207      -279.2489
   6   2.0000      -1.392868       -37.9019
   7   2.0000      -1.272209       -34.6186
   8   2.0000      -1.256701       -34.1966
   9   2.0000      -1.099396       -29.9161
  10   2.0000      -0.999189       -27.1893
  11   2.0000      -0.962767       -26.1982
  12   2.0000      -0.939578       -25.5672
  13   2.0000      -0.895617       -24.3710
  14   2.0000      -0.840079       -22.8597
  15   2.0000      -0.829523       -22.5725
  16   2.0000      -0.809109       -22.0170
  17   2.0000      -0.775233       -21.0952
  18   2.0000      -0.742989       -20.2178
  19   2.0000      -0.705225       -19.1901
  20   2.0000      -0.665666       -18.1137
  21   2.0000      -0.642360       -17.4795
  22   2.0000      -0.612840       -16.6762
  23   2.0000      -0.579593       -15.7715
  24   0.0000      -0.080833        -2.1996
  25   0.0000      -0.074833        -2.0363
  26   0.0000      -0.041574        -1.1313
  27   0.0000      -0.034925        -0.9504
  28   0.0000      -0.004666        -0.1270

MULLIKEN ATOMIC CHARGES
-----------------------
   0 C :    0.099644
   1 N :   -0.421113
   2 C :    1.329881
   3 N :   -0.169230
   4 N :   -0.079294
   5 H :    0.010731
   6 H :   -0.089436
   7 H :   -0.107850
   8 H :    0.038485
   9 H :   -0.016117
  10 C :    0.427213
  11 H :   -0.016100
  12 H :   -0.151524
  13 H :    0.032543
  14 H :    0.015798
  15 H :    0.096368
Sum of atomic charges:    1.0000000

LOEWDIN ATOMIC CHARGES
----------------------
   0 C :    0.017040
   1 N :    0.030452
   2 C :   -0.033627
   3 N :    0.248045
   4 N :    0.265260
   5 H :    0.030766
   6 H :    0.045470
   7 H :    0.065893
   8 H :    0.047336
   9 H :    0.052685
  10 C :    0.129492
  11 H :    0.037583
  12 H :    0.051503
  13 H :    0.004090
  14 H :   -0.005247
  15 H :    0.013259

  Mayer bond orders larger than 0.100000
B(  0-C ,  1-N ) :   0.9575 B(  0-C ,  7-H ) :  -0.1181 B(  0-C , 10-C ) :   1.2387
B(  0-C , 11-H ) :   0.9406 B(  0-C , 12-H ) :   0.9334 B(  0-C , 13-H ) :   0.1780
B(  0-C , 14-H ) :   0.1454 B(  0-C , 15-H ) :   0.1259 B(  1-N ,  2-C ) :   1.0430
B(  1-N ,  3-N ) :   0.2905 B(  1-N ,  4-N ) :   0.1909 B(  1-N ,  7-H ) :   1.2363
B(  1-N , 11-H ) :   0.1089 B(  1-N , 12-H ) :   0.1824 B(  2-C ,  3-N ) :   0.8339
B(  2-C ,  4-N ) :   0.9387 B(  2-C ,  5-H ) :  -0.1146 B(  2-C ,  6-H ) :  -0.1562
B(  2-C ,  7-H ) :  -0.2083 B(  2-C ,  8-H ) :  -0.1364 B(  2-C ,  9-H ) :  -0.1335
B(  3-N ,  4-N ) :   0.1490 B(  3-N ,  8-H ) :   1.1402 B(  3-N ,  9-H ) :   1.2287
B(  4-N ,  5-H ) :   1.0794 B(  4-N ,  6-H ) :   1.2594 B(  5-H ,  6-H ) :  -0.1938
B(  8-H ,  9-H ) :  -0.1655 B( 10-C , 13-H ) :   0.8489 B( 10-C , 14-H ) :   0.8806
B( 10-C , 15-H ) :   0.8318

FINAL SINGLE POINT ENERGY      -283.314969860525

DIPOLE MOMENT
-------------
                                X             Y             Z
Electronic contribution:      3.02516      -2.71773      -3.10421
Nuclear contribution   :     -2.17768       2.37118       2.44574
                        -----------------------------------------
Total Dipole Moment    :      0.84747      -0.34655      -0.65848
                        -----------------------------------------
Magnitude (a.u.)       :      1.12778
Magnitude (Debye)      :      2.86660

Rotational constants in cm-1:     0.215650     0.075183     0.066454
Rotational constants in MHz :  6465.033740  2253.919004  1992.232519

                             ****ORCA TERMINATED NORMALLY****
TOTAL RUN TIME: 0 days 0 hours 0 minutes 25 seconds 677 msec
