                         Program Version 5.0.0 -  RELEASE  -
|  1> !LC-PBE RIJCOSX def2-SVPD def2/J TightSCF
|  2> *xyz 0 1
|  3> C          0.61188        1.65763       -4.50029
|  4> C          1.69499        1.54179       -5.57045
|  5> H          2.69733        1.73466       -5.18400
|  6> H          1.50666        2.27224       -6.35808
|  7> S          1.78029       -0.03313       -6.42874
|  8> F          2.56929        0.21366       -7.60736
|  9> O          0.41688       -0.46297       -6.61859
| 10> O          2.50513       -0.93326       -5.48257
| 11> H         -0.34424        1.45871       -4.93752
| 12> H          0.61845        2.64655       -4.09174
| 13> H          0.80247        0.94882       -3.72173
| 14> *
| 15> %MaxCore 64000
| 16>
| 17> %pal nprocs 4
| 18> end
| 19>
| 20> %scf
| 21>   MaxIter 150
| 22> end
| 23>
| 24>
| 25>                          ****END OF INPUT****

CARTESIAN COORDINATES (ANGSTROEM)
---------------------------------
  C      0.611880    1.657630   -4.500290
  C      1.694990    1.541790   -5.570450
  H      2.697330    1.734660   -5.184000
  H      1.506660    2.272240   -6.358080
  S      1.780290   -0.033130   -6.428740
  F      2.569290    0.213660   -7.607360
  O      0.416880   -0.462970   -6.618590
  O      2.505130   -0.933260   -5.482570
  H     -0.344240    1.458710   -4.937520
  H      0.618450    2.646550   -4.091740
  H      0.802470    0.948820   -3.721730

 Total Charge           Charge          ....    0
 Multiplicity           Mult            ....    1
 Number of Electrons    NEL             ....   58
 Basis Dimension        Dim             ....  176

ORBITAL ENERGIES
----------------

  NO   OCC          E(Eh)            E(eV)
   0   2.0000     -88.576771     -2410.2965
   1   2.0000     -24.635524      -670.3667
   2   2.0000     -19.012633      -517.3600
   3   2.0000     -18.992100      -516.8013
   4   2.0000     -10.198839      -277.5245
   5   2.0000     -10.149865      -276.1919
   6   2.0000      -8.199689      -223.1249
   7   2.0000      -6.226762      -169.4388
   8   2.0000      -6.219457      -169.2400
   9   2.0000      -6.218196      -169.2057
  10   2.0000      -1.547347       -42.1055
  11   2.0000      -1.282652       -34.9027
  12   2.0000      -1.164930       -31.6994
  13   2.0000      -1.002897       -27.2902
  14   2.0000      -0.905247       -24.6330
  15   2.0000      -0.843506       -22.9530
  16   2.0000      -0.751822       -20.4581
  17   2.0000      -0.750180       -20.4134
  18   2.0000      -0.711832       -19.3699
  19   2.0000      -0.647299       -17.6139
  20   2.0000      -0.636566       -17.3218
  21   2.0000      -0.588390       -16.0109
  22   2.0000      -0.577239       -15.7075
  23   2.0000      -0.550319       -14.9750
  24   2.0000      -0.530400       -14.4329
  25   2.0000      -0.524758       -14.2794
  26   2.0000      -0.474742       -12.9184
  27   2.0000      -0.454331       -12.3630
  28   2.0000      -0.441523       -12.0145
  29   0.0000       0.061533         1.6744
  30   0.0000       0.085601         2.3293
  31   0.0000       0.091403         2.4872
  32   0.0000       0.095489         2.5984
  33   0.0000       0.121149         3.2966

MULLIKEN ATOMIC CHARGES
-----------------------
   0 C :    0.485704
   1 C :   -0.558285
   2 H :    0.086879
   3 H :    0.126587
   4 S :    1.394333
   5 F :   -0.357969
   6 O :   -0.617954
   7 O :   -0.668524
   8 H :    0.048774
   9 H :    0.020578
  10 H :    0.039878
Sum of atomic charges:   -0.0000000

LOEWDIN ATOMIC CHARGES
----------------------
   0 C :    0.116605
   1 C :   -0.122926
   2 H :    0.038004
   3 H :    0.028883
   4 S :    1.100891
   5 F :   -0.240197
   6 O :   -0.457767
   7 O :   -0.490312
   8 H :    0.004488
   9 H :    0.008490
  10 H :    0.013841

  Mayer bond orders larger than 0.100000
B(  0-C ,  1-C ) :   1.3350 B(  0-C ,  8-H ) :   0.8523 B(  0-C ,  9-H ) :   0.8143
B(  0-C , 10-H ) :   0.8548 B(  1-C ,  2-H ) :   0.9856 B(  1-C ,  3-H ) :   0.9569
B(  1-C ,  4-S ) :   0.9861 B(  1-C ,  8-H ) :   0.1614 B(  1-C ,  9-H ) :   0.1587
B(  1-C , 10-H ) :   0.1504 B(  4-S ,  5-F ) :   0.7391 B(  4-S ,  6-O ) :   1.5610
B(  4-S ,  7-O ) :   1.5088

FINAL SINGLE POINT ENERGY      -726.028530850786

DIPOLE MOMENT
-------------
                                X             Y             Z
Electronic contribution:      3.86945      -5.52388      -7.52795
Nuclear contribution   :     -3.66946       7.33549       7.42434
                        -----------------------------------------
Total Dipole Moment    :      0.19999       1.81161      -0.10361
                        -----------------------------------------
Magnitude (a.u.)       :      1.82556
Magnitude (Debye)      :      4.64020

Rotational constants in cm-1:     0.158379     0.080294     0.077843
Rotational constants in MHz :  4748.076444  2407.152850  2333.668303

                             ****ORCA TERMINATED NORMALLY****
TOTAL RUN TIME: 0 days 0 hours 0 minutes 17 seconds 993 msec
