                         Program Version 5.0.0 -  RELEASE  -
|  1> !LC-PBE RIJCOSX def2-SVPD def2/J TightSCF
|  2> *xyz 0 1
|  3> C          1.96337       -1.74915       -1.89689
|  4> C          2.73849       -2.01517       -3.09711
|  5> C          4.04974       -2.15472       -3.15204
|  6> N          4.65821       -1.98629       -4.31866
|  7> N          4.76423       -2.45444       -2.05049
|  8> H          4.28736       -2.77626       -1.21750
|  9> H          5.75082       -2.65835       -2.12599
| 10> H          2.34518       -1.69027       -3.97145
| 11> H          4.10900       -1.59268       -5.07176
| 12> H          5.64910       -2.15646       -4.42724
| 13> C          2.08852       -0.30091       -1.41520
| 14> H          2.23127       -2.45162       -1.10264
| 15> H          0.93025       -1.97780       -2.15544
| 16> H          1.82118        0.36368       -2.21003
| 17> H          3.09792       -0.11068       -1.11551
| 18> H          1.43391       -0.14382       -0.58352
| 19> *
| 20> %MaxCore 64000
| 21>
| 22> %pal nprocs 4
| 23> end
| 24>
| 25> %scf
| 26>   MaxIter 150
| 27> end
| 28>
| 29>
| 30>                          ****END OF INPUT****

CARTESIAN COORDINATES (ANGSTROEM)
---------------------------------
  C      1.963370   -1.749150   -1.896890
  C      2.738490   -2.015170   -3.097110
  C      4.049740   -2.154720   -3.152040
  N      4.658210   -1.986290   -4.318660
  N      4.764230   -2.454440   -2.050490
  H      4.287360   -2.776260   -1.217500
  H      5.750820   -2.658350   -2.125990
  H      2.345180   -1.690270   -3.971450
  H      4.109000   -1.592680   -5.071760
  H      5.649100   -2.156460   -4.427240
  C      2.088520   -0.300910   -1.415200
  H      2.231270   -2.451620   -1.102640
  H      0.930250   -1.977800   -2.155440
  H      1.821180    0.363680   -2.210030
  H      3.097920   -0.110680   -1.115510
  H      1.433910   -0.143820   -0.583520

 Total Charge           Charge          ....    0
 Multiplicity           Mult            ....    1
 Number of Electrons    NEL             ....   48
 Basis Dimension        Dim             ....  200

ORBITAL ENERGIES
----------------

  NO   OCC          E(Eh)            E(eV)
   0   2.0000     -14.230638      -387.2354
   1   2.0000     -14.227845      -387.1594
   2   2.0000     -10.175671      -276.8941
   3   2.0000     -10.101973      -274.8887
   4   2.0000     -10.090015      -274.5633
   5   2.0000     -10.046800      -273.3873
   6   2.0000      -1.129993       -30.7487
   7   2.0000      -1.030996       -28.0548
   8   2.0000      -0.945336       -25.7239
   9   2.0000      -0.856349       -23.3024
  10   2.0000      -0.772719       -21.0267
  11   2.0000      -0.732617       -19.9355
  12   2.0000      -0.692329       -18.8392
  13   2.0000      -0.656100       -17.8534
  14   2.0000      -0.613005       -16.6807
  15   2.0000      -0.581741       -15.8300
  16   2.0000      -0.566710       -15.4210
  17   2.0000      -0.530469       -14.4348
  18   2.0000      -0.516882       -14.0651
  19   2.0000      -0.492011       -13.3883
  20   2.0000      -0.457836       -12.4583
  21   2.0000      -0.444244       -12.0885
  22   2.0000      -0.400609       -10.9011
  23   2.0000      -0.276113        -7.5134
  24   0.0000       0.089376         2.4320
  25   0.0000       0.113379         3.0852
  26   0.0000       0.121479         3.3056
  27   0.0000       0.130124         3.5409
  28   0.0000       0.153394         4.1741

MULLIKEN ATOMIC CHARGES
-----------------------
   0 C :   -0.309193
   1 C :   -0.401617
   2 C :    0.818941
   3 N :   -0.102846
   4 N :   -0.143070
   5 H :    0.027973
   6 H :   -0.209953
   7 H :   -0.101062
   8 H :    0.032531
   9 H :   -0.120852
  10 C :    0.463850
  11 H :   -0.015233
  12 H :   -0.004452
  13 H :    0.014722
  14 H :    0.001241
  15 H :    0.049019
Sum of atomic charges:   -0.0000000

LOEWDIN ATOMIC CHARGES
----------------------
   0 C :   -0.124239
   1 C :   -0.067690
   2 C :   -0.227156
   3 N :    0.160473
   4 N :    0.184139
   5 H :    0.001412
   6 H :   -0.001538
   7 H :   -0.038017
   8 H :    0.015218
   9 H :    0.004317
  10 C :    0.091190
  11 H :    0.014420
  12 H :    0.024074
  13 H :   -0.007394
  14 H :   -0.013954
  15 H :   -0.015256

  Mayer bond orders larger than 0.100000
B(  0-C ,  1-C ) :   1.2728 B(  0-C ,  7-H ) :   0.2494 B(  0-C , 10-C ) :   1.2299
B(  0-C , 11-H ) :   0.9217 B(  0-C , 12-H ) :   0.8618 B(  0-C , 13-H ) :   0.1881
B(  0-C , 14-H ) :   0.1616 B(  0-C , 15-H ) :   0.1400 B(  1-C ,  2-C ) :   1.8553
B(  1-C ,  3-N ) :   0.3091 B(  1-C ,  4-N ) :   0.2142 B(  1-C ,  7-H ) :   0.8239
B(  1-C , 11-H ) :   0.1683 B(  1-C , 12-H ) :   0.2264 B(  2-C ,  3-N ) :   0.8763
B(  2-C ,  4-N ) :   0.8705 B(  2-C ,  6-H ) :  -0.1942 B(  2-C ,  7-H ) :   0.2286
B(  3-N ,  4-N ) :   0.1052 B(  3-N ,  8-H ) :   1.1300 B(  3-N ,  9-H ) :   1.2472
B(  4-N ,  5-H ) :   1.0385 B(  4-N ,  6-H ) :   1.3551 B(  5-H ,  6-H ) :  -0.1973
B(  8-H ,  9-H ) :  -0.1613 B( 10-C , 13-H ) :   0.8613 B( 10-C , 14-H ) :   0.8762
B( 10-C , 15-H ) :   0.8245

FINAL SINGLE POINT ENERGY      -266.862433491714

DIPOLE MOMENT
-------------
                                X             Y             Z
Electronic contribution:      3.28260      -2.42917      -2.51313
Nuclear contribution   :     -2.31778       2.31977       2.35294
                        -----------------------------------------
Total Dipole Moment    :      0.96482      -0.10940      -0.16019
                        -----------------------------------------
Magnitude (a.u.)       :      0.98413
Magnitude (Debye)      :      2.50146

Rotational constants in cm-1:     0.219415     0.075373     0.066689
Rotational constants in MHz :  6577.897266  2259.621393  1999.290981

                             ****ORCA TERMINATED NORMALLY****
TOTAL RUN TIME: 0 days 0 hours 0 minutes 26 seconds 627 msec
