                         Program Version 5.0.0 -  RELEASE  -
|  1> !LC-PBE RIJCOSX def2-SVPD def2/J TightSCF
|  2> *xyz 0 1
|  3> C          0.61188        1.65763       -4.50029
|  4> C          1.69499        1.54179       -5.57045
|  5> H          2.69733        1.73466       -5.18400
|  6> H          1.50666        2.27224       -6.35808
|  7> S          1.78029       -0.03313       -6.42874
|  8> O          2.56929        0.21366       -7.60736
|  9> F          0.41688       -0.46297       -6.61859
| 10> O          2.50513       -0.93326       -5.48257
| 11> H         -0.34424        1.45871       -4.93752
| 12> H          0.61845        2.64655       -4.09174
| 13> H          0.80247        0.94882       -3.72173
| 14> *
| 15> %MaxCore 64000
| 16>
| 17> %pal nprocs 4
| 18> end
| 19>
| 20> %scf
| 21>   MaxIter 150
| 22> end
| 23>
| 24>
| 25>                          ****END OF INPUT****

CARTESIAN COORDINATES (ANGSTROEM)
---------------------------------
  C      0.611880    1.657630   -4.500290
  C      1.694990    1.541790   -5.570450
  H      2.697330    1.734660   -5.184000
  H      1.506660    2.272240   -6.358080
  S      1.780290   -0.033130   -6.428740
  O      2.569290    0.213660   -7.607360
  F      0.416880   -0.462970   -6.618590
  O      2.505130   -0.933260   -5.482570
  H     -0.344240    1.458710   -4.937520
  H      0.618450    2.646550   -4.091740
  H      0.802470    0.948820   -3.721730

 Total Charge           Charge          ....    0
 Multiplicity           Mult            ....    1
 Number of Electrons    NEL             ....   58
 Basis Dimension        Dim             ....  176

ORBITAL ENERGIES
----------------

  NO   OCC          E(Eh)            E(eV)
   0   2.0000     -88.576422     -2410.2870
   1   2.0000     -24.634739      -670.3453
   2   2.0000     -19.012294      -517.3508
   3   2.0000     -18.992138      -516.8023
   4   2.0000     -10.198565      -277.5171
   5   2.0000     -10.156164      -276.3633
   6   2.0000      -8.199345      -223.1155
   7   2.0000      -6.226557      -169.4332
   8   2.0000      -6.219064      -169.2293
   9   2.0000      -6.217793      -169.1948
  10   2.0000      -1.545412       -42.0528
  11   2.0000      -1.283778       -34.9334
  12   2.0000      -1.164712       -31.6934
  13   2.0000      -1.007063       -27.4036
  14   2.0000      -0.899979       -24.4897
  15   2.0000      -0.849400       -23.1133
  16   2.0000      -0.763376       -20.7725
  17   2.0000      -0.749610       -20.3979
  18   2.0000      -0.700435       -19.0598
  19   2.0000      -0.648138       -17.6367
  20   2.0000      -0.629407       -17.1270
  21   2.0000      -0.601032       -16.3549
  22   2.0000      -0.583693       -15.8831
  23   2.0000      -0.554981       -15.1018
  24   2.0000      -0.536583       -14.6012
  25   2.0000      -0.524045       -14.2600
  26   2.0000      -0.472993       -12.8708
  27   2.0000      -0.454796       -12.3756
  28   2.0000      -0.441803       -12.0221
  29   0.0000       0.060189         1.6378
  30   0.0000       0.086457         2.3526
  31   0.0000       0.092229         2.5097
  32   0.0000       0.095649         2.6028
  33   0.0000       0.122438         3.3317

MULLIKEN ATOMIC CHARGES
-----------------------
   0 C :    0.497108
   1 C :   -0.532324
   2 H :    0.088099
   3 H :    0.123060
   4 S :    1.364999
   5 O :   -0.597642
   6 F :   -0.366309
   7 O :   -0.667136
   8 H :    0.031413
   9 H :    0.018120
  10 H :    0.040612
Sum of atomic charges:    0.0000000

LOEWDIN ATOMIC CHARGES
----------------------
   0 C :    0.101760
   1 C :   -0.110918
   2 H :    0.050144
   3 H :    0.032616
   4 S :    1.097768
   5 O :   -0.458156
   6 F :   -0.239759
   7 O :   -0.489696
   8 H :   -0.001086
   9 H :    0.007374
  10 H :    0.009953

  Mayer bond orders larger than 0.100000
B(  0-C ,  1-C ) :   1.2836 B(  0-C ,  8-H ) :   0.8556 B(  0-C ,  9-H ) :   0.8129
B(  0-C , 10-H ) :   0.8634 B(  1-C ,  2-H ) :   0.9890 B(  1-C ,  3-H ) :   0.9871
B(  1-C ,  4-S ) :   1.0130 B(  1-C ,  8-H ) :   0.1500 B(  1-C ,  9-H ) :   0.1629
B(  1-C , 10-H ) :   0.1478 B(  4-S ,  5-O ) :   1.6000 B(  4-S ,  6-F ) :   0.7201
B(  4-S ,  7-O ) :   1.5206

FINAL SINGLE POINT ENERGY      -726.028657309588

DIPOLE MOMENT
-------------
                                X             Y             Z
Electronic contribution:      0.18701      -6.66608      -5.80872
Nuclear contribution   :     -1.42658       8.04056       6.39401
                        -----------------------------------------
Total Dipole Moment    :     -1.23958       1.37448       0.58530
                        -----------------------------------------
Magnitude (a.u.)       :      1.94121
Magnitude (Debye)      :      4.93418

Rotational constants in cm-1:     0.153659     0.082363     0.078978
Rotational constants in MHz :  4606.587369  2469.179541  2367.702074

                             ****ORCA TERMINATED NORMALLY****
TOTAL RUN TIME: 0 days 0 hours 0 minutes 18 seconds 780 msec
