                         Program Version 5.0.0 -  RELEASE  -
|  1> !LC-PBE RIJCOSX def2-SVPD def2/J TightSCF
|  2> *xyz 0 1
|  3> C          1.96337       -1.74915       -1.89689
|  4> N          2.73849       -2.01517       -3.09711
|  5> C          4.04974       -2.15472       -3.15204
|  6> C          4.65821       -1.98629       -4.31866
|  7> N          4.76423       -2.45444       -2.05049
|  8> H          4.28736       -2.77626       -1.21750
|  9> H          5.75082       -2.65835       -2.12599
| 10> H          2.34518       -1.69027       -3.97145
| 11> H          4.10900       -1.59268       -5.07176
| 12> H          5.64910       -2.15646       -4.42724
| 13> C          2.08852       -0.30091       -1.41520
| 14> H          2.23127       -2.45162       -1.10264
| 15> H          0.93025       -1.97780       -2.15544
| 16> H          1.82118        0.36368       -2.21003
| 17> H          3.09792       -0.11068       -1.11551
| 18> H          1.43391       -0.14382       -0.58352
| 19> *
| 20> %MaxCore 64000
| 21>
| 22> %pal nprocs 4
| 23> end
| 24>
| 25> %scf
| 26>   MaxIter 150
| 27> end
| 28>
| 29>
| 30>                          ****END OF INPUT****

CARTESIAN COORDINATES (ANGSTROEM)
---------------------------------
  C      1.963370   -1.749150   -1.896890
  N      2.738490   -2.015170   -3.097110
  C      4.049740   -2.154720   -3.152040
  C      4.658210   -1.986290   -4.318660
  N      4.764230   -2.454440   -2.050490
  H      4.287360   -2.776260   -1.217500
  H      5.750820   -2.658350   -2.125990
  H      2.345180   -1.690270   -3.971450
  H      4.109000   -1.592680   -5.071760
  H      5.649100   -2.156460   -4.427240
  C      2.088520   -0.300910   -1.415200
  H      2.231270   -2.451620   -1.102640
  H      0.930250   -1.977800   -2.155440
  H      1.821180    0.363680   -2.210030
  H      3.097920   -0.110680   -1.115510
  H      1.433910   -0.143820   -0.583520

 Total Charge           Charge          ....    0
 Multiplicity           Mult            ....    1
 Number of Electrons    NEL             ....   48
 Basis Dimension        Dim             ....  200

ORBITAL ENERGIES
----------------

  NO   OCC          E(Eh)            E(eV)
   0   2.0000     -14.229368      -387.2008
   1   2.0000     -14.229297      -387.1988
   2   2.0000     -10.178005      -276.9576
   3   2.0000     -10.168318      -276.6940
   4   2.0000     -10.115135      -275.2468
   5   2.0000     -10.037464      -273.1333
   6   2.0000      -1.140064       -31.0227
   7   2.0000      -1.046310       -28.4715
   8   2.0000      -0.940411       -25.5899
   9   2.0000      -0.865043       -23.5390
  10   2.0000      -0.787501       -21.4290
  11   2.0000      -0.752252       -20.4698
  12   2.0000      -0.685988       -18.6667
  13   2.0000      -0.643357       -17.5066
  14   2.0000      -0.621605       -16.9147
  15   2.0000      -0.582296       -15.8451
  16   2.0000      -0.576046       -15.6750
  17   2.0000      -0.541069       -14.7232
  18   2.0000      -0.520029       -14.1507
  19   2.0000      -0.509744       -13.8708
  20   2.0000      -0.496798       -13.5186
  21   2.0000      -0.486245       -13.2314
  22   2.0000      -0.386110       -10.5066
  23   2.0000      -0.281349        -7.6559
  24   0.0000       0.084783         2.3071
  25   0.0000       0.113633         3.0921
  26   0.0000       0.116740         3.1767
  27   0.0000       0.121563         3.3079
  28   0.0000       0.151930         4.1342

MULLIKEN ATOMIC CHARGES
-----------------------
   0 C :    0.115730
   1 N :   -0.369189
   2 C :    0.669245
   3 C :    0.165855
   4 N :    0.035780
   5 H :   -0.081724
   6 H :   -0.122710
   7 H :   -0.144551
   8 H :   -0.185382
   9 H :   -0.320714
  10 C :    0.424908
  11 H :   -0.052540
  12 H :   -0.196301
  13 H :    0.003887
  14 H :    0.012477
  15 H :    0.045230
Sum of atomic charges:   -0.0000000

LOEWDIN ATOMIC CHARGES
----------------------
   0 C :   -0.013763
   1 N :   -0.032102
   2 C :   -0.244951
   3 C :    0.112194
   4 N :    0.183237
   5 H :   -0.012623
   6 H :    0.014264
   7 H :    0.040991
   8 H :   -0.087408
   9 H :   -0.085664
  10 C :    0.102634
  11 H :    0.020526
  12 H :    0.029554
  13 H :   -0.006297
  14 H :   -0.011116
  15 H :   -0.009476

  Mayer bond orders larger than 0.100000
B(  0-C ,  1-N ) :   0.9374 B(  0-C ,  7-H ) :  -0.1252 B(  0-C , 10-C ) :   1.2165
B(  0-C , 11-H ) :   0.9405 B(  0-C , 12-H ) :   0.9402 B(  0-C , 13-H ) :   0.1911
B(  0-C , 14-H ) :   0.1526 B(  0-C , 15-H ) :   0.1299 B(  1-N ,  2-C ) :   1.0804
B(  1-N ,  3-C ) :   0.2640 B(  1-N ,  4-N ) :   0.1263 B(  1-N ,  7-H ) :   1.1892
B(  1-N , 11-H ) :   0.1207 B(  1-N , 12-H ) :   0.1782 B(  2-C ,  3-C ) :   1.4935
B(  2-C ,  4-N ) :   0.9652 B(  2-C ,  6-H ) :  -0.1092 B(  2-C ,  7-H ) :  -0.1582
B(  2-C ,  9-H ) :   0.1238 B(  3-C ,  4-N ) :   0.1813 B(  3-C ,  8-H ) :   0.9181
B(  3-C ,  9-H ) :   0.8613 B(  4-N ,  5-H ) :   1.0683 B(  4-N ,  6-H ) :   1.2264
B(  5-H ,  6-H ) :  -0.1920 B( 10-C , 13-H ) :   0.8479 B( 10-C , 14-H ) :   0.8750
B( 10-C , 15-H ) :   0.8508

FINAL SINGLE POINT ENERGY      -266.855282938539

DIPOLE MOMENT
-------------
                                X             Y             Z
Electronic contribution:      1.39417      -2.33025      -1.19698
Nuclear contribution   :     -1.91052       2.32590       2.09379
                        -----------------------------------------
Total Dipole Moment    :     -0.51635      -0.00435       0.89682
                        -----------------------------------------
Magnitude (a.u.)       :      1.03485
Magnitude (Debye)      :      2.63038

Rotational constants in cm-1:     0.219448     0.077923     0.068804
Rotational constants in MHz :  6578.886179  2336.083179  2062.700476

                             ****ORCA TERMINATED NORMALLY****
TOTAL RUN TIME: 0 days 0 hours 0 minutes 26 seconds 738 msec
