                         Program Version 5.0.0 -  RELEASE  -
|  1> !LC-PBE RIJCOSX def2-SVPD def2/J TightSCF
|  2> *xyz 0 1
|  3> C          0.61188        1.65763       -4.50029
|  4> C          1.69499        1.54179       -5.57045
|  5> H          2.69733        1.73466       -5.18400
|  6> H          1.50666        2.27224       -6.35808
|  7> S          1.78029       -0.03313       -6.42874
|  8> O          2.56929        0.21366       -7.60736
|  9> O          0.41688       -0.46297       -6.61859
| 10> F          2.50513       -0.93326       -5.48257
| 11> H         -0.34424        1.45871       -4.93752
| 12> H          0.61845        2.64655       -4.09174
| 13> H          0.80247        0.94882       -3.72173
| 14> *
| 15> %MaxCore 64000
| 16>
| 17> %pal nprocs 4
| 18> end
| 19>
| 20> %scf
| 21>   MaxIter 150
| 22> end
| 23>
| 24>
| 25>                          ****END OF INPUT****

CARTESIAN COORDINATES (ANGSTROEM)
---------------------------------
  C      0.611880    1.657630   -4.500290
  C      1.694990    1.541790   -5.570450
  H      2.697330    1.734660   -5.184000
  H      1.506660    2.272240   -6.358080
  S      1.780290   -0.033130   -6.428740
  O      2.569290    0.213660   -7.607360
  O      0.416880   -0.462970   -6.618590
  F      2.505130   -0.933260   -5.482570
  H     -0.344240    1.458710   -4.937520
  H      0.618450    2.646550   -4.091740
  H      0.802470    0.948820   -3.721730

 Total Charge           Charge          ....    0
 Multiplicity           Mult            ....    1
 Number of Electrons    NEL             ....   58
 Basis Dimension        Dim             ....  176

ORBITAL ENERGIES
----------------

  NO   OCC          E(Eh)            E(eV)
   0   2.0000     -88.574305     -2410.2294
   1   2.0000     -24.606771      -669.5843
   2   2.0000     -19.012353      -517.3524
   3   2.0000     -19.011740      -517.3357
   4   2.0000     -10.197269      -277.4818
   5   2.0000     -10.150796      -276.2172
   6   2.0000      -8.196988      -223.0514
   7   2.0000      -6.223901      -169.3610
   8   2.0000      -6.217018      -169.1737
   9   2.0000      -6.215752      -169.1392
  10   2.0000      -1.501928       -40.8695
  11   2.0000      -1.293921       -35.2094
  12   2.0000      -1.193111       -32.4662
  13   2.0000      -1.003357       -27.3027
  14   2.0000      -0.886452       -24.1216
  15   2.0000      -0.835045       -22.7227
  16   2.0000      -0.737425       -20.0663
  17   2.0000      -0.718451       -19.5500
  18   2.0000      -0.703153       -19.1338
  19   2.0000      -0.647453       -17.6181
  20   2.0000      -0.630060       -17.1448
  21   2.0000      -0.607482       -16.5304
  22   2.0000      -0.579822       -15.7777
  23   2.0000      -0.549743       -14.9593
  24   2.0000      -0.544832       -14.8256
  25   2.0000      -0.520786       -14.1713
  26   2.0000      -0.484092       -13.1728
  27   2.0000      -0.468928       -12.7602
  28   2.0000      -0.462924       -12.5968
  29   0.0000       0.063516         1.7284
  30   0.0000       0.089553         2.4369
  31   0.0000       0.092617         2.5202
  32   0.0000       0.094272         2.5653
  33   0.0000       0.123451         3.3593

MULLIKEN ATOMIC CHARGES
-----------------------
   0 C :    0.514830
   1 C :   -0.554132
   2 H :    0.079521
   3 H :    0.131211
   4 S :    1.378584
   5 O :   -0.614705
   6 O :   -0.634743
   7 F :   -0.388986
   8 H :    0.051017
   9 H :    0.018950
  10 H :    0.018452
Sum of atomic charges:   -0.0000000

LOEWDIN ATOMIC CHARGES
----------------------
   0 C :    0.103609
   1 C :   -0.113806
   2 H :    0.036647
   3 H :    0.043066
   4 S :    1.095655
   5 O :   -0.459446
   6 O :   -0.456209
   7 F :   -0.265861
   8 H :    0.003418
   9 H :    0.006508
  10 H :    0.006420

  Mayer bond orders larger than 0.100000
B(  0-C ,  1-C ) :   1.3029 B(  0-C ,  8-H ) :   0.8593 B(  0-C ,  9-H ) :   0.8096
B(  0-C , 10-H ) :   0.8504 B(  1-C ,  2-H ) :   0.9826 B(  1-C ,  3-H ) :   0.9798
B(  1-C ,  4-S ) :   1.0132 B(  1-C ,  8-H ) :   0.1620 B(  1-C ,  9-H ) :   0.1590
B(  1-C , 10-H ) :   0.1504 B(  4-S ,  5-O ) :   1.5953 B(  4-S ,  6-O ) :   1.5647
B(  4-S ,  7-F ) :   0.6610

FINAL SINGLE POINT ENERGY      -726.053575580478

DIPOLE MOMENT
-------------
                                X             Y             Z
Electronic contribution:      3.78079      -7.51532      -3.84777
Nuclear contribution   :     -3.60260       8.53062       5.21025
                        -----------------------------------------
Total Dipole Moment    :      0.17819       1.01529       1.36247
                        -----------------------------------------
Magnitude (a.u.)       :      1.70848
Magnitude (Debye)      :      4.34261

Rotational constants in cm-1:     0.154011     0.080858     0.079602
Rotational constants in MHz :  4617.134198  2424.070332  2386.404775

                             ****ORCA TERMINATED NORMALLY****
TOTAL RUN TIME: 0 days 0 hours 0 minutes 16 seconds 814 msec
