                         Program Version 5.0.0 -  RELEASE  -
|  1> !LC-PBE RIJCOSX def2-SVPD def2/J TightSCF
|  2> *xyz 0 1
|  3> C          1.96337       -1.74915       -1.89689
|  4> N          2.73849       -2.01517       -3.09711
|  5> C          4.04974       -2.15472       -3.15204
|  6> N          4.65821       -1.98629       -4.31866
|  7> C          4.76423       -2.45444       -2.05049
|  8> H          4.28736       -2.77626       -1.21750
|  9> H          5.75082       -2.65835       -2.12599
| 10> H          2.34518       -1.69027       -3.97145
| 11> H          4.10900       -1.59268       -5.07176
| 12> H          5.64910       -2.15646       -4.42724
| 13> C          2.08852       -0.30091       -1.41520
| 14> H          2.23127       -2.45162       -1.10264
| 15> H          0.93025       -1.97780       -2.15544
| 16> H          1.82118        0.36368       -2.21003
| 17> H          3.09792       -0.11068       -1.11551
| 18> H          1.43391       -0.14382       -0.58352
| 19> *
| 20> %MaxCore 64000
| 21>
| 22> %pal nprocs 4
| 23> end
| 24>
| 25> %scf
| 26>   MaxIter 150
| 27> end
| 28>
| 29>
| 30>                          ****END OF INPUT****

CARTESIAN COORDINATES (ANGSTROEM)
---------------------------------
  C      1.963370   -1.749150   -1.896890
  N      2.738490   -2.015170   -3.097110
  C      4.049740   -2.154720   -3.152040
  N      4.658210   -1.986290   -4.318660
  C      4.764230   -2.454440   -2.050490
  H      4.287360   -2.776260   -1.217500
  H      5.750820   -2.658350   -2.125990
  H      2.345180   -1.690270   -3.971450
  H      4.109000   -1.592680   -5.071760
  H      5.649100   -2.156460   -4.427240
  C      2.088520   -0.300910   -1.415200
  H      2.231270   -2.451620   -1.102640
  H      0.930250   -1.977800   -2.155440
  H      1.821180    0.363680   -2.210030
  H      3.097920   -0.110680   -1.115510
  H      1.433910   -0.143820   -0.583520

 Total Charge           Charge          ....    0
 Multiplicity           Mult            ....    1
 Number of Electrons    NEL             ....   48
 Basis Dimension        Dim             ....  200

ORBITAL ENERGIES
----------------

  NO   OCC          E(Eh)            E(eV)
   0   2.0000     -14.234050      -387.3282
   1   2.0000     -14.231631      -387.2624
   2   2.0000     -10.180284      -277.0196
   3   2.0000     -10.161280      -276.5025
   4   2.0000     -10.108222      -275.0587
   5   2.0000     -10.037998      -273.1478
   6   2.0000      -1.145865       -31.1806
   7   2.0000      -1.051573       -28.6147
   8   2.0000      -0.920996       -25.0616
   9   2.0000      -0.871787       -23.7225
  10   2.0000      -0.802117       -21.8267
  11   2.0000      -0.712265       -19.3817
  12   2.0000      -0.698931       -19.0189
  13   2.0000      -0.671247       -18.2656
  14   2.0000      -0.613986       -16.7074
  15   2.0000      -0.582411       -15.8482
  16   2.0000      -0.563413       -15.3312
  17   2.0000      -0.536931       -14.6106
  18   2.0000      -0.515760       -14.0345
  19   2.0000      -0.504851       -13.7377
  20   2.0000      -0.498986       -13.5781
  21   2.0000      -0.475324       -12.9342
  22   2.0000      -0.382887       -10.4189
  23   2.0000      -0.282909        -7.6983
  24   0.0000       0.086687         2.3589
  25   0.0000       0.109310         2.9745
  26   0.0000       0.119670         3.2564
  27   0.0000       0.122473         3.3327
  28   0.0000       0.153335         4.1725

MULLIKEN ATOMIC CHARGES
-----------------------
   0 C :    0.081330
   1 N :   -0.369715
   2 C :    0.687975
   3 N :   -0.049588
   4 C :    0.198266
   5 H :   -0.063850
   6 H :   -0.464846
   7 H :   -0.222972
   8 H :   -0.089914
   9 H :   -0.047380
  10 C :    0.453900
  11 H :    0.068015
  12 H :   -0.210046
  13 H :   -0.006659
  14 H :   -0.005421
  15 H :    0.040904
Sum of atomic charges:    0.0000000

LOEWDIN ATOMIC CHARGES
----------------------
   0 C :   -0.005762
   1 N :   -0.034480
   2 C :   -0.245235
   3 N :    0.167663
   4 C :    0.127365
   5 H :   -0.099413
   6 H :   -0.093093
   7 H :    0.028577
   8 H :    0.001367
   9 H :    0.021476
  10 C :    0.105568
  11 H :    0.028122
  12 H :    0.029040
  13 H :   -0.010597
  14 H :   -0.011906
  15 H :   -0.008692

  Mayer bond orders larger than 0.100000
B(  0-C ,  1-N ) :   0.9371 B(  0-C ,  7-H ) :  -0.1098 B(  0-C , 10-C ) :   1.2000
B(  0-C , 11-H ) :   0.9119 B(  0-C , 12-H ) :   0.9783 B(  0-C , 13-H ) :   0.1811
B(  0-C , 14-H ) :   0.1582 B(  0-C , 15-H ) :   0.1378 B(  1-N ,  2-C ) :   0.9474
B(  1-N ,  3-N ) :   0.1922 B(  1-N ,  4-C ) :   0.3131 B(  1-N ,  7-H ) :   1.2591
B(  1-N , 12-H ) :   0.1534 B(  2-C ,  3-N ) :   0.8943 B(  2-C ,  4-C ) :   1.7377
B(  2-C ,  5-H ) :   0.2251 B(  2-C ,  6-H ) :   0.1021 B(  2-C ,  7-H ) :  -0.2101
B(  3-N ,  4-C ) :   0.1951 B(  3-N ,  8-H ) :   1.1741 B(  3-N ,  9-H ) :   1.2179
B(  4-C ,  5-H ) :   0.6843 B(  4-C ,  6-H ) :   0.9916 B(  8-H ,  9-H ) :  -0.1617
B( 10-C , 13-H ) :   0.8551 B( 10-C , 14-H ) :   0.8899 B( 10-C , 15-H ) :   0.8467

FINAL SINGLE POINT ENERGY      -266.854731090248

DIPOLE MOMENT
-------------
                                X             Y             Z
Electronic contribution:      1.33191      -1.81806      -3.43015
Nuclear contribution   :     -1.88803       2.22658       2.57497
                        -----------------------------------------
Total Dipole Moment    :     -0.55612       0.40852      -0.85518
                        -----------------------------------------
Magnitude (a.u.)       :      1.09886
Magnitude (Debye)      :      2.79307

Rotational constants in cm-1:     0.226509     0.075782     0.067928
Rotational constants in MHz :  6790.555051  2271.890226  2036.439218

                             ****ORCA TERMINATED NORMALLY****
TOTAL RUN TIME: 0 days 0 hours 0 minutes 26 seconds 833 msec
