                         Program Version 5.0.0 -  RELEASE  -
|  1> !LC-PBE RIJCOSX def2-SVPD def2/J TightSCF xyzfile
|  2>
|  3> *xyzfile 0 1 D2.xyz
|  4>
|  5> %MaxCore 64000
|  6>
|  7> %pal nprocs 4
|  8> end
|  9>
| 10> %scf
| 11>   MaxIter 150
| 12> end
| 13>
| 14>
| 15>                          ****END OF INPUT****

CARTESIAN COORDINATES (ANGSTROEM)
---------------------------------
  C      1.963365   -1.749150   -1.896887
  N      2.738490   -2.015170   -3.097113
  C      0.611877    1.657634   -4.500288
  C      1.694991    1.541794   -5.570447
  H      2.697326    1.734659   -5.183996
  H      1.506656    2.272239   -6.358076
  S      1.780287   -0.033128   -6.428739
  C      4.049736   -2.154717   -3.152044
  C      4.658206   -1.986293   -4.318655
  N      4.764231   -2.454435   -2.050491
  H      4.287363   -2.776259   -1.217496
  H      5.750825   -2.658351   -2.125988
  H      2.345176   -1.690274   -3.971447
  H      4.109004   -1.592677   -5.071760
  H      5.649095   -2.156462   -4.427237
  F      2.569287    0.213657   -7.607360
  O      0.416880   -0.462969   -6.618595
  C      2.088520   -0.300912   -1.415204
  H      2.231272   -2.451616   -1.102643
  H      0.930249   -1.977801   -2.155438
  C      0.680356    0.655418   -3.348038
  H     -0.356865    1.549231   -4.991128
  H      0.650228    2.675438   -4.096000
  C      1.968993    0.733582   -2.535654
  H      3.051356   -0.168602   -0.911868
  H      1.316501   -0.136231   -0.657252
  O      2.505129   -0.933263   -5.482570
  H      2.824195    0.624726   -3.208464
  H      2.058919    1.730331   -2.093112
  H      0.542252   -0.344731   -3.766662
  H     -0.174219    0.829692   -2.685182

 Total Charge           Charge          ....    0
 Multiplicity           Mult            ....    1
 Number of Electrons    NEL             ....  120
 Basis Dimension        Dim             ....  432

ORBITAL ENERGIES
----------------

  NO   OCC          E(Eh)            E(eV)
   0   2.0000     -88.591000     -2410.6837
   1   2.0000     -24.645025      -670.6252
   2   2.0000     -19.023339      -517.6514
   3   2.0000     -19.007824      -517.2292
   4   2.0000     -14.209918      -386.6715
   5   2.0000     -14.195325      -386.2744
   6   2.0000     -10.202512      -277.6245
   7   2.0000     -10.163755      -276.5698
   8   2.0000     -10.153087      -276.2795
   9   2.0000     -10.150562      -276.2108
  10   2.0000     -10.136645      -275.8321
  11   2.0000     -10.126292      -275.5504
  12   2.0000     -10.120744      -275.3994
  13   2.0000     -10.005909      -272.2746
  14   2.0000      -8.212264      -223.4671
  15   2.0000      -6.239235      -169.7782
  16   2.0000      -6.232411      -169.5925
  17   2.0000      -6.230781      -169.5482
  18   2.0000      -1.556110       -42.3439
  19   2.0000      -1.295562       -35.2540
  20   2.0000      -1.183157       -32.1953
  21   2.0000      -1.116060       -30.3695
  22   2.0000      -1.029228       -28.0067
  23   2.0000      -1.021400       -27.7937
  24   2.0000      -0.966892       -26.3105
  25   2.0000      -0.930033       -25.3075
  26   2.0000      -0.888235       -24.1701
  27   2.0000      -0.863315       -23.4920
  28   2.0000      -0.822670       -22.3860
  29   2.0000      -0.789684       -21.4884
  30   2.0000      -0.767289       -20.8790
  31   2.0000      -0.753039       -20.4912
  32   2.0000      -0.745351       -20.2820
  33   2.0000      -0.718771       -19.5588
  34   2.0000      -0.710682       -19.3386
  35   2.0000      -0.666684       -18.1414
  36   2.0000      -0.655731       -17.8433
  37   2.0000      -0.651211       -17.7204
  38   2.0000      -0.626025       -17.0350
  39   2.0000      -0.623407       -16.9638
  40   2.0000      -0.611473       -16.6390
  41   2.0000      -0.601239       -16.3605
  42   2.0000      -0.587254       -15.9800
  43   2.0000      -0.574035       -15.6203
  44   2.0000      -0.558313       -15.1925
  45   2.0000      -0.543118       -14.7790
  46   2.0000      -0.528354       -14.3772
  47   2.0000      -0.521066       -14.1789
  48   2.0000      -0.508075       -13.8254
  49   2.0000      -0.503252       -13.6942
  50   2.0000      -0.490084       -13.3359
  51   2.0000      -0.488478       -13.2922
  52   2.0000      -0.483295       -13.1511
  53   2.0000      -0.468286       -12.7427
  54   2.0000      -0.457537       -12.4502
  55   2.0000      -0.452240       -12.3061
  56   2.0000      -0.446424       -12.1478
  57   2.0000      -0.435259       -11.8440
  58   2.0000      -0.362533        -9.8650
  59   2.0000      -0.256216        -6.9720
  60   0.0000       0.058106         1.5811
  61   0.0000       0.079769         2.1706
  62   0.0000       0.085247         2.3197
  63   0.0000       0.092673         2.5218
  64   0.0000       0.106814         2.9065

MULLIKEN ATOMIC CHARGES
-----------------------
   0 C :    0.714138
   1 N :    0.005655
   2 C :    0.230380
   3 C :   -0.125175
   4 H :    0.214597
   5 H :    0.053727
   6 S :    1.507132
   7 C :    0.685977
   8 C :    0.448241
   9 N :    0.088639
  10 H :   -0.028381
  11 H :   -0.148997
  12 H :   -0.623960
  13 H :   -0.246290
  14 H :   -0.566008
  15 F :   -0.419047
  16 O :   -0.651630
  17 C :    0.257646
  18 H :   -0.308145
  19 H :   -0.059110
  20 C :   -0.113654
  21 H :    0.093198
  22 H :    0.058280
  23 C :   -0.131998
  24 H :    0.053694
  25 H :   -0.009635
  26 O :   -0.783433
  27 H :    0.145334
  28 H :   -0.225741
  29 H :   -0.034480
  30 H :   -0.080954
Sum of atomic charges:   -0.0000000

LOEWDIN ATOMIC CHARGES
----------------------
   0 C :    0.035492
   1 N :    0.001720
   2 C :   -0.040853
   3 C :   -0.064824
   4 H :    0.037424
   5 H :    0.032788
   6 S :    1.171583
   7 C :   -0.223799
   8 C :    0.133168
   9 N :    0.178673
  10 H :   -0.016871
  11 H :    0.009896
  12 H :   -0.070254
  13 H :   -0.157984
  14 H :   -0.087486
  15 F :   -0.222044
  16 O :   -0.439280
  17 C :   -0.038957
  18 H :    0.018691
  19 H :    0.028732
  20 C :   -0.043522
  21 H :    0.041481
  22 H :    0.050864
  23 C :   -0.048587
  24 H :    0.030059
  25 H :    0.030258
  26 O :   -0.470020
  27 H :    0.021850
  28 H :    0.036285
  29 H :    0.019047
  30 H :    0.046474

  Mayer bond orders larger than 0.100000
B(  0-C ,  1-N ) :   0.9530 B(  0-C , 12-H ) :  -0.3291 B(  0-C , 17-C ) :   1.0758
B(  0-C , 18-H ) :   0.9594 B(  0-C , 19-H ) :   0.7265 B(  1-N ,  7-C ) :   1.0509
B(  1-N ,  8-C ) :   0.2227 B(  1-N ,  9-N ) :   0.2039 B(  1-N , 12-H ) :   1.1749
B(  1-N , 19-H ) :   0.1196 B(  2-C ,  3-C ) :   1.3083 B(  2-C ,  5-H ) :   0.1648
B(  2-C , 20-C ) :   1.2619 B(  2-C , 21-H ) :   0.7253 B(  2-C , 22-H ) :   0.8358
B(  3-C ,  4-H ) :   0.8725 B(  3-C ,  5-H ) :   0.8418 B(  3-C ,  6-S ) :   1.0443
B(  3-C , 22-H ) :   0.1108 B(  6-S , 15-F ) :   0.6787 B(  6-S , 16-O ) :   1.5358
B(  6-S , 26-O ) :   1.3658 B(  7-C ,  8-C ) :   1.4985 B(  7-C ,  9-N ) :   0.9465
B(  7-C , 11-H ) :  -0.1280 B(  7-C , 12-H ) :  -0.3553 B(  7-C , 14-H ) :   0.1997
B(  8-C ,  9-N ) :   0.2515 B(  8-C , 13-H ) :   0.7000 B(  8-C , 14-H ) :   0.7731
B(  9-N , 10-H ) :   0.9698 B(  9-N , 11-H ) :   1.2534 B( 10-H , 11-H ) :  -0.1977
B( 12-H , 19-H ) :   0.1655 B( 12-H , 24-H ) :   0.1129 B( 12-H , 26-O ) :   0.1605
B( 13-H , 14-H ) :  -0.1818 B( 13-H , 26-O ) :   0.2565 B( 17-C , 18-H ) :   0.1073
B( 17-C , 23-C ) :   1.2721 B( 17-C , 24-H ) :   0.7994 B( 17-C , 25-H ) :   0.9152
B( 18-H , 19-H ) :  -0.1192 B( 20-C , 21-H ) :   0.2362 B( 20-C , 23-C ) :   1.1685
B( 20-C , 28-H ) :   0.1258 B( 20-C , 29-H ) :   0.9905 B( 20-C , 30-H ) :   0.9035
B( 23-C , 24-H ) :   0.1801 B( 23-C , 27-H ) :   0.8971 B( 23-C , 28-H ) :   0.9909
B( 23-C , 30-H ) :   0.1287

FINAL SINGLE POINT ENERGY     -1069.993493859216

DIPOLE MOMENT
-------------
                                X             Y             Z
Electronic contribution:     -0.89411      -0.69820     -22.46991
Nuclear contribution   :      0.43347       2.59110      22.83150
                        -----------------------------------------
Total Dipole Moment    :     -0.46064       1.89290       0.36159
                        -----------------------------------------
Magnitude (a.u.)       :      1.98142
Magnitude (Debye)      :      5.03637

Rotational constants in cm-1:     0.029257     0.014415     0.010996
Rotational constants in MHz :   877.098782   432.159206   329.643335

                             ****ORCA TERMINATED NORMALLY****
TOTAL RUN TIME: 0 days 0 hours 3 minutes 24 seconds 292 msec
