                         Program Version 5.0.0 -  RELEASE  -
|  1> !LC-PBE RIJCOSX def2-SVPD def2/J TightSCF xyzfile
|  2>
|  3> *xyzfile 0 1 D3.xyz
|  4>
|  5> %MaxCore 64000
|  6>
|  7> %pal nprocs 4
|  8> end
|  9>
| 10> %scf
| 11>   MaxIter 150
| 12> end
| 13>
| 14>
| 15>                          ****END OF INPUT****

CARTESIAN COORDINATES (ANGSTROEM)
---------------------------------
  C      1.963365   -1.749150   -1.896887
  N      2.738490   -2.015170   -3.097113
  C      0.611877    1.657634   -4.500288
  C      1.694991    1.541794   -5.570447
  H      2.697326    1.734659   -5.183996
  H      1.506656    2.272239   -6.358076
  S      1.780287   -0.033128   -6.428739
  C      4.049736   -2.154717   -3.152044
  N      4.658206   -1.986293   -4.318655
  C      4.764231   -2.454435   -2.050491
  H      4.287363   -2.776259   -1.217496
  H      5.750825   -2.658351   -2.125988
  H      2.345176   -1.690274   -3.971447
  H      4.109004   -1.592677   -5.071760
  H      5.649095   -2.156462   -4.427237
  F      2.569287    0.213657   -7.607360
  O      0.416880   -0.462969   -6.618595
  C      2.088520   -0.300912   -1.415204
  H      2.231272   -2.451616   -1.102643
  H      0.930249   -1.977801   -2.155438
  C      0.680356    0.655418   -3.348038
  H     -0.356865    1.549231   -4.991128
  H      0.650228    2.675438   -4.096000
  C      1.968993    0.733582   -2.535654
  H      3.051356   -0.168602   -0.911868
  H      1.316501   -0.136231   -0.657252
  O      2.505129   -0.933263   -5.482570
  H      2.824195    0.624726   -3.208464
  H      2.058919    1.730331   -2.093112
  H      0.542252   -0.344731   -3.766662
  H     -0.174219    0.829692   -2.685182

 Total Charge           Charge          ....    0
 Multiplicity           Mult            ....    1
 Number of Electrons    NEL             ....  120
 Basis Dimension        Dim             ....  432

ORBITAL ENERGIES
----------------

  NO   OCC          E(Eh)            E(eV)
   0   2.0000     -88.607656     -2411.1369
   1   2.0000     -24.660170      -671.0373
   2   2.0000     -19.038109      -518.0533
   3   2.0000     -19.030266      -517.8399
   4   2.0000     -14.197580      -386.3358
   5   2.0000     -14.196402      -386.3037
   6   2.0000     -10.213541      -277.9246
   7   2.0000     -10.170014      -276.7401
   8   2.0000     -10.155901      -276.3561
   9   2.0000     -10.143456      -276.0175
  10   2.0000     -10.139773      -275.9172
  11   2.0000     -10.127101      -275.5724
  12   2.0000     -10.114995      -275.2430
  13   2.0000     -10.014938      -272.5203
  14   2.0000      -8.228956      -223.9213
  15   2.0000      -6.255986      -170.2340
  16   2.0000      -6.249232      -170.0502
  17   2.0000      -6.247308      -169.9979
  18   2.0000      -1.571492       -42.7625
  19   2.0000      -1.312230       -35.7076
  20   2.0000      -1.202368       -32.7181
  21   2.0000      -1.117360       -30.4049
  22   2.0000      -1.034273       -28.1440
  23   2.0000      -1.024021       -27.8650
  24   2.0000      -0.970384       -26.4055
  25   2.0000      -0.929356       -25.2891
  26   2.0000      -0.890858       -24.2415
  27   2.0000      -0.853298       -23.2194
  28   2.0000      -0.845116       -22.9968
  29   2.0000      -0.803039       -21.8518
  30   2.0000      -0.778916       -21.1954
  31   2.0000      -0.763688       -20.7810
  32   2.0000      -0.747325       -20.3357
  33   2.0000      -0.725311       -19.7367
  34   2.0000      -0.692824       -18.8527
  35   2.0000      -0.676818       -18.4171
  36   2.0000      -0.667904       -18.1746
  37   2.0000      -0.659364       -17.9422
  38   2.0000      -0.645395       -17.5621
  39   2.0000      -0.630347       -17.1526
  40   2.0000      -0.607270       -16.5247
  41   2.0000      -0.604019       -16.4362
  42   2.0000      -0.586691       -15.9647
  43   2.0000      -0.567935       -15.4543
  44   2.0000      -0.561536       -15.2802
  45   2.0000      -0.560162       -15.2428
  46   2.0000      -0.530309       -14.4304
  47   2.0000      -0.523112       -14.2346
  48   2.0000      -0.512852       -13.9554
  49   2.0000      -0.504758       -13.7352
  50   2.0000      -0.498165       -13.5558
  51   2.0000      -0.486249       -13.2315
  52   2.0000      -0.483199       -13.1485
  53   2.0000      -0.476754       -12.9731
  54   2.0000      -0.470885       -12.8134
  55   2.0000      -0.458588       -12.4788
  56   2.0000      -0.454189       -12.3591
  57   2.0000      -0.441401       -12.0111
  58   2.0000      -0.354043        -9.6340
  59   2.0000      -0.259071        -7.0497
  60   0.0000       0.048032         1.3070
  61   0.0000       0.071117         1.9352
  62   0.0000       0.075937         2.0664
  63   0.0000       0.090547         2.4639
  64   0.0000       0.098804         2.6886

MULLIKEN ATOMIC CHARGES
-----------------------
   0 C :    0.672768
   1 N :    0.119155
   2 C :    0.229078
   3 C :   -0.121985
   4 H :    0.216484
   5 H :    0.049303
   6 S :    1.503580
   7 C :    0.717379
   8 N :    0.288875
   9 C :    0.244380
  10 H :    0.012770
  11 H :   -0.572785
  12 H :   -0.816384
  13 H :   -0.267764
  14 H :   -0.183821
  15 F :   -0.415441
  16 O :   -0.640266
  17 C :    0.314074
  18 H :   -0.205507
  19 H :   -0.082465
  20 C :   -0.122377
  21 H :    0.092904
  22 H :    0.060140
  23 C :   -0.133297
  24 H :   -0.019516
  25 H :    0.040751
  26 O :   -0.761569
  27 H :    0.105887
  28 H :   -0.205861
  29 H :   -0.033500
  30 H :   -0.084991
Sum of atomic charges:    0.0000000

LOEWDIN ATOMIC CHARGES
----------------------
   0 C :    0.043969
   1 N :    0.001271
   2 C :   -0.040151
   3 C :   -0.063410
   4 H :    0.037138
   5 H :    0.034391
   6 S :    1.174366
   7 C :   -0.225306
   8 N :    0.190128
   9 C :    0.117737
  10 H :   -0.106465
  11 H :   -0.099826
  12 H :   -0.080066
  13 H :   -0.087409
  14 H :    0.018297
  15 F :   -0.221984
  16 O :   -0.430188
  17 C :   -0.032348
  18 H :    0.026116
  19 H :    0.028192
  20 C :   -0.043694
  21 H :    0.041973
  22 H :    0.052302
  23 C :   -0.050624
  24 H :    0.030789
  25 H :    0.032119
  26 O :   -0.469366
  27 H :    0.019436
  28 H :    0.036437
  29 H :    0.018356
  30 H :    0.047821

  Mayer bond orders larger than 0.100000
B(  0-C ,  1-N ) :   0.9826 B(  0-C , 12-H ) :  -0.3577 B(  0-C , 17-C ) :   1.0480
B(  0-C , 18-H ) :   0.9664 B(  0-C , 19-H ) :   0.7910 B(  1-N ,  7-C ) :   0.9506
B(  1-N ,  9-C ) :   0.4338 B(  1-N , 12-H ) :   1.0546 B(  1-N , 13-H ) :   0.1034
B(  1-N , 19-H ) :   0.1341 B(  2-C ,  3-C ) :   1.3083 B(  2-C ,  5-H ) :   0.1664
B(  2-C , 20-C ) :   1.2580 B(  2-C , 21-H ) :   0.7224 B(  2-C , 22-H ) :   0.8406
B(  3-C ,  4-H ) :   0.8700 B(  3-C ,  5-H ) :   0.8409 B(  3-C ,  6-S ) :   1.0459
B(  3-C , 22-H ) :   0.1047 B(  6-S , 15-F ) :   0.6802 B(  6-S , 16-O ) :   1.5442
B(  6-S , 26-O ) :   1.3406 B(  7-C ,  8-N ) :   0.8421 B(  7-C ,  9-C ) :   1.6048
B(  7-C , 10-H ) :   0.2690 B(  7-C , 11-H ) :   0.2202 B(  7-C , 12-H ) :  -0.3910
B(  7-C , 14-H ) :  -0.1775 B(  8-N ,  9-C ) :   0.2103 B(  8-N , 13-H ) :   1.0811
B(  8-N , 14-H ) :   1.3079 B(  9-C , 10-H ) :   0.6239 B(  9-C , 11-H ) :   0.8515
B(  9-C , 12-H ) :  -0.1152 B( 10-H , 18-H ) :   0.1413 B( 12-H , 26-O ) :   0.1829
B( 13-H , 14-H ) :  -0.1940 B( 13-H , 26-O ) :   0.2006 B( 16-O , 26-O ) :   0.1014
B( 17-C , 23-C ) :   1.2690 B( 17-C , 24-H ) :   0.8422 B( 17-C , 25-H ) :   0.8629
B( 18-H , 19-H ) :  -0.1583 B( 20-C , 21-H ) :   0.2353 B( 20-C , 23-C ) :   1.1785
B( 20-C , 28-H ) :   0.1421 B( 20-C , 29-H ) :   0.9926 B( 20-C , 30-H ) :   0.9030
B( 23-C , 24-H ) :   0.1900 B( 23-C , 25-H ) :   0.1017 B( 23-C , 27-H ) :   0.8889
B( 23-C , 28-H ) :   0.9655 B( 23-C , 30-H ) :   0.1316

FINAL SINGLE POINT ENERGY     -1070.005844645206

DIPOLE MOMENT
-------------
                                X             Y             Z
Electronic contribution:     -1.13115      -0.11080     -24.52476
Nuclear contribution   :      0.44707       2.53104      23.12246
                        -----------------------------------------
Total Dipole Moment    :     -0.68408       2.42024      -1.40230
                        -----------------------------------------
Magnitude (a.u.)       :      2.87958
Magnitude (Debye)      :      7.31931

Rotational constants in cm-1:     0.028906     0.014696     0.011110
Rotational constants in MHz :   866.591909   440.585554   333.081943

                             ****ORCA TERMINATED NORMALLY****
TOTAL RUN TIME: 0 days 0 hours 3 minutes 23 seconds 980 msec
