                         Program Version 5.0.0 -  RELEASE  -
|  1> !LC-PBE RIJCOSX def2-SVPD def2/J TightSCF xyzfile
|  2>
|  3> *xyzfile 0 1 D8.xyz
|  4>
|  5> %MaxCore 64000
|  6>
|  7> %pal nprocs 4
|  8> end
|  9>
| 10> %scf
| 11>   MaxIter 150
| 12> end
| 13>
| 14>
| 15>                          ****END OF INPUT****

CARTESIAN COORDINATES (ANGSTROEM)
---------------------------------
  C      1.963365   -1.749150   -1.896887
  N      2.738490   -2.015170   -3.097113
  C      0.611877    1.657634   -4.500288
  C      1.694991    1.541794   -5.570447
  H      2.697326    1.734659   -5.183996
  H      1.506656    2.272239   -6.358076
  S      1.780287   -0.033128   -6.428739
  C      4.049736   -2.154717   -3.152044
  C      4.658206   -1.986293   -4.318655
  N      4.764231   -2.454435   -2.050491
  H      4.287363   -2.776259   -1.217496
  H      5.750825   -2.658351   -2.125988
  H      2.345176   -1.690274   -3.971447
  H      4.109004   -1.592677   -5.071760
  H      5.649095   -2.156462   -4.427237
  O      2.569287    0.213657   -7.607360
  O      0.416880   -0.462969   -6.618595
  C      2.088520   -0.300912   -1.415204
  H      2.231272   -2.451616   -1.102643
  H      0.930249   -1.977801   -2.155438
  C      0.680356    0.655418   -3.348038
  H     -0.356865    1.549231   -4.991128
  H      0.650228    2.675438   -4.096000
  C      1.968993    0.733582   -2.535654
  H      3.051356   -0.168602   -0.911868
  H      1.316501   -0.136231   -0.657252
  F      2.505129   -0.933263   -5.482570
  H      2.824195    0.624726   -3.208464
  H      2.058919    1.730331   -2.093112
  H      0.542252   -0.344731   -3.766662
  H     -0.174219    0.829692   -2.685182

 Total Charge           Charge          ....    0
 Multiplicity           Mult            ....    1
 Number of Electrons    NEL             ....  120
 Basis Dimension        Dim             ....  432

ORBITAL ENERGIES
----------------

  NO   OCC          E(Eh)            E(eV)
   0   2.0000     -88.580116     -2410.3875
   1   2.0000     -24.619210      -669.9228
   2   2.0000     -19.016665      -517.4698
   3   2.0000     -19.014866      -517.4208
   4   2.0000     -14.230453      -387.2303
   5   2.0000     -14.226796      -387.1308
   6   2.0000     -10.196302      -277.4555
   7   2.0000     -10.179181      -276.9896
   8   2.0000     -10.169737      -276.7326
   9   2.0000     -10.161946      -276.5206
  10   2.0000     -10.147823      -276.1363
  11   2.0000     -10.140305      -275.9317
  12   2.0000     -10.135551      -275.8024
  13   2.0000     -10.035466      -273.0789
  14   2.0000      -8.201313      -223.1691
  15   2.0000      -6.228534      -169.4870
  16   2.0000      -6.221280      -169.2896
  17   2.0000      -6.219986      -169.2544
  18   2.0000      -1.516057       -41.2540
  19   2.0000      -1.299139       -35.3514
  20   2.0000      -1.196243       -32.5514
  21   2.0000      -1.142380       -31.0857
  22   2.0000      -1.050920       -28.5970
  23   2.0000      -1.024809       -27.8865
  24   2.0000      -0.975625       -26.5481
  25   2.0000      -0.937260       -25.5041
  26   2.0000      -0.886607       -24.1258
  27   2.0000      -0.878784       -23.9129
  28   2.0000      -0.836522       -22.7629
  29   2.0000      -0.798943       -21.7404
  30   2.0000      -0.756592       -20.5879
  31   2.0000      -0.752994       -20.4900
  32   2.0000      -0.732930       -19.9440
  33   2.0000      -0.727150       -19.7867
  34   2.0000      -0.705599       -19.2003
  35   2.0000      -0.684169       -18.6172
  36   2.0000      -0.656747       -17.8710
  37   2.0000      -0.652278       -17.7494
  38   2.0000      -0.636889       -17.3306
  39   2.0000      -0.630717       -17.1627
  40   2.0000      -0.618881       -16.8406
  41   2.0000      -0.611383       -16.6366
  42   2.0000      -0.594445       -16.1757
  43   2.0000      -0.581078       -15.8119
  44   2.0000      -0.567048       -15.4302
  45   2.0000      -0.553070       -15.0498
  46   2.0000      -0.544566       -14.8184
  47   2.0000      -0.534541       -14.5456
  48   2.0000      -0.521685       -14.1958
  49   2.0000      -0.514042       -13.9878
  50   2.0000      -0.505925       -13.7669
  51   2.0000      -0.500076       -13.6078
  52   2.0000      -0.486985       -13.2515
  53   2.0000      -0.478542       -13.0218
  54   2.0000      -0.470964       -12.8156
  55   2.0000      -0.465208       -12.6590
  56   2.0000      -0.462068       -12.5735
  57   2.0000      -0.459035       -12.4910
  58   2.0000      -0.386574       -10.5192
  59   2.0000      -0.282557        -7.6888
  60   0.0000       0.070607         1.9213
  61   0.0000       0.082754         2.2518
  62   0.0000       0.087083         2.3696
  63   0.0000       0.091007         2.4764
  64   0.0000       0.106605         2.9009

MULLIKEN ATOMIC CHARGES
-----------------------
   0 C :    0.714254
   1 N :   -0.002805
   2 C :    0.285361
   3 C :   -0.120346
   4 H :    0.220498
   5 H :   -0.008161
   6 S :    1.417017
   7 C :    0.777860
   8 C :    0.464497
   9 N :    0.080372
  10 H :   -0.011293
  11 H :   -0.145046
  12 H :   -0.588088
  13 H :   -0.317573
  14 H :   -0.536016
  15 O :   -0.632394
  16 O :   -0.675354
  17 C :    0.252707
  18 H :   -0.301561
  19 H :   -0.055610
  20 C :   -0.107665
  21 H :    0.086441
  22 H :    0.058871
  23 C :   -0.148051
  24 H :    0.056414
  25 H :   -0.012129
  26 F :   -0.543601
  27 H :    0.142888
  28 H :   -0.209008
  29 H :   -0.090070
  30 H :   -0.052409
Sum of atomic charges:   -0.0000000

LOEWDIN ATOMIC CHARGES
----------------------
   0 C :    0.037669
   1 N :   -0.003406
   2 C :   -0.051410
   3 C :   -0.058623
   4 H :    0.035547
   5 H :    0.045941
   6 S :    1.118488
   7 C :   -0.221085
   8 C :    0.138218
   9 N :    0.185941
  10 H :   -0.012308
  11 H :    0.014787
  12 H :   -0.042383
  13 H :   -0.131662
  14 H :   -0.079073
  15 O :   -0.439619
  16 O :   -0.443692
  17 C :   -0.037235
  18 H :    0.022200
  19 H :    0.030761
  20 C :   -0.047586
  21 H :    0.041632
  22 H :    0.048685
  23 C :   -0.050722
  24 H :    0.031345
  25 H :    0.033217
  26 F :   -0.287136
  27 H :    0.019028
  28 H :    0.039777
  29 H :    0.014645
  30 H :    0.048057

  Mayer bond orders larger than 0.100000
B(  0-C ,  1-N ) :   0.9524 B(  0-C , 12-H ) :  -0.3123 B(  0-C , 17-C ) :   1.0732
B(  0-C , 18-H ) :   0.9581 B(  0-C , 19-H ) :   0.7298 B(  1-N ,  7-C ) :   1.0692
B(  1-N ,  8-C ) :   0.2186 B(  1-N ,  9-N ) :   0.2005 B(  1-N , 12-H ) :   1.1730
B(  1-N , 19-H ) :   0.1311 B(  2-C ,  3-C ) :   1.2642 B(  2-C ,  5-H ) :   0.1412
B(  2-C , 20-C ) :   1.2631 B(  2-C , 21-H ) :   0.7282 B(  2-C , 22-H ) :   0.8190
B(  3-C ,  4-H ) :   0.8752 B(  3-C ,  5-H ) :   0.8747 B(  3-C ,  6-S ) :   1.0740
B(  3-C , 21-H ) :   0.1109 B(  3-C , 22-H ) :   0.1048 B(  6-S , 15-O ) :   1.5859
B(  6-S , 16-O ) :   1.5013 B(  6-S , 26-F ) :   0.6579 B(  7-C ,  8-C ) :   1.4578
B(  7-C ,  9-N ) :   0.9244 B(  7-C , 11-H ) :  -0.1443 B(  7-C , 12-H ) :  -0.3471
B(  7-C , 14-H ) :   0.2273 B(  8-C ,  9-N ) :   0.2724 B(  8-C , 13-H ) :   0.6193
B(  8-C , 14-H ) :   0.7907 B(  9-N , 10-H ) :   0.9626 B(  9-N , 11-H ) :   1.2552
B( 10-H , 11-H ) :  -0.1993 B( 12-H , 19-H ) :   0.1539 B( 13-H , 14-H ) :  -0.2382
B( 13-H , 26-F ) :   0.2950 B( 17-C , 18-H ) :   0.1086 B( 17-C , 23-C ) :   1.2611
B( 17-C , 24-H ) :   0.8062 B( 17-C , 25-H ) :   0.9277 B( 18-H , 19-H ) :  -0.1224
B( 20-C , 21-H ) :   0.2386 B( 20-C , 23-C ) :   1.1783 B( 20-C , 28-H ) :   0.1330
B( 20-C , 29-H ) :   1.0032 B( 20-C , 30-H ) :   0.8887 B( 23-C , 24-H ) :   0.1804
B( 23-C , 27-H ) :   0.8937 B( 23-C , 28-H ) :   1.0002 B( 23-C , 30-H ) :   0.1376

FINAL SINGLE POINT ENERGY     -1070.011884514967

DIPOLE MOMENT
-------------
                                X             Y             Z
Electronic contribution:     -0.86748      -2.86048     -18.23954
Nuclear contribution   :      0.50676       3.90127      20.40426
                        -----------------------------------------
Total Dipole Moment    :     -0.36072       1.04080       2.16472
                        -----------------------------------------
Magnitude (a.u.)       :      2.42887
Magnitude (Debye)      :      6.17369

Rotational constants in cm-1:     0.029548     0.014706     0.011197
Rotational constants in MHz :   885.834387   440.871746   335.667619

                             ****ORCA TERMINATED NORMALLY****
TOTAL RUN TIME: 0 days 0 hours 3 minutes 24 seconds 628 msec
