                         Program Version 5.0.0 -  RELEASE  -
|  1> !M062X D3Zero RIJCOSX def2-TZVPD def2/J TightSCF
|  2> *xyz -1 1
|  3> C         -1.10433        0.25137       -2.86006
|  4> C         -0.71189        0.84252       -4.21834
|  5> H          0.15463        1.49980       -4.13091
|  6> H         -1.53813        1.45922       -4.58267
|  7> C         -0.39762       -0.20587       -5.28802
|  8> O          0.61717       -0.00535       -5.99827
|  9> O         -1.13317       -1.22138       -5.34147
| 10> H         -1.95489       -0.38644       -2.98099
| 11> H         -1.34603        1.04362       -2.18269
| 12> H         -0.28606       -0.31581       -2.46809
| 13> *
| 14>
| 15> %MaxCore 64000
| 16>
| 17> %pal nprocs 4
| 18> end
| 19>
| 20> %scf
| 21>   MaxIter 150
| 22> end
| 23>
| 24>
| 25>                          ****END OF INPUT****

CARTESIAN COORDINATES (ANGSTROEM)
---------------------------------
  C     -1.104330    0.251370   -2.860060
  C     -0.711890    0.842520   -4.218340
  H      0.154630    1.499800   -4.130910
  H     -1.538130    1.459220   -4.582670
  C     -0.397620   -0.205870   -5.288020
  O      0.617170   -0.005350   -5.998270
  O     -1.133170   -1.221380   -5.341470
  H     -1.954890   -0.386440   -2.980990
  H     -1.346030    1.043620   -2.182690
  H     -0.286060   -0.315810   -2.468090

 Total Charge           Charge          ....   -1
 Multiplicity           Mult            ....    1
 Number of Electrons    NEL             ....   40
 Basis Dimension        Dim             ....  236

ORBITAL ENERGIES
----------------

  NO   OCC          E(Eh)            E(eV)
   0   2.0000     -19.360378      -526.8227
   1   2.0000     -19.359553      -526.8002
   2   2.0000     -10.421214      -283.5756
   3   2.0000     -10.368158      -282.1319
   4   2.0000     -10.359146      -281.8867
   5   2.0000      -0.943452       -25.6726
   6   2.0000      -0.844991       -22.9934
   7   2.0000      -0.700872       -19.0717
   8   2.0000      -0.561956       -15.2916
   9   2.0000      -0.397668       -10.8211
  10   2.0000      -0.362435        -9.8624
  11   2.0000      -0.337927        -9.1955
  12   2.0000      -0.301128        -8.1941
  13   2.0000      -0.284444        -7.7401
  14   2.0000      -0.279182        -7.5969
  15   2.0000      -0.245786        -6.6882
  16   2.0000      -0.228756        -6.2248
  17   2.0000      -0.113665        -3.0930
  18   2.0000      -0.111205        -3.0260
  19   2.0000      -0.105181        -2.8621
  20   0.0000       0.141398         3.8476
  21   0.0000       0.163646         4.4530
  22   0.0000       0.171751         4.6736
  23   0.0000       0.187464         5.1011
  24   0.0000       0.206043         5.6067

MULLIKEN ATOMIC CHARGES
-----------------------
   0 C :   -1.034503
   1 C :   -0.333437
   2 H :    0.261919
   3 H :    0.264819
   4 C :    0.595967
   5 O :   -0.800890
   6 O :   -0.794904
   7 H :    0.237497
   8 H :    0.305422
   9 H :    0.298111
Sum of atomic charges:   -1.0000000

LOEWDIN ATOMIC CHARGES
----------------------
   0 C :   -0.135868
   1 C :   -0.210587
   2 H :    0.090154
   3 H :    0.097097
   4 C :   -0.774485
   5 O :   -0.116866
   6 O :   -0.108956
   7 H :    0.054989
   8 H :    0.043096
   9 H :    0.061424

  Mayer bond orders larger than 0.100000
B(  0-C ,  1-C ) :   0.4661 B(  0-C ,  7-H ) :   1.0510 B(  0-C ,  8-H ) :   0.9494
B(  0-C ,  9-H ) :   0.9726 B(  1-C ,  2-H ) :   0.9999 B(  1-C ,  3-H ) :   0.9562
B(  1-C ,  4-C ) :   0.9457 B(  4-C ,  5-O ) :   1.3378 B(  4-C ,  6-O ) :   1.3651

Dispersion correction           -0.000088286
FINAL SINGLE POINT ENERGY      -267.831963112228

DIPOLE MOMENT
-------------
                                X             Y             Z
Electronic contribution:      1.54095      -2.35137      -5.20425
Nuclear contribution   :     -2.09607       3.44215       6.87744
                        -----------------------------------------
Total Dipole Moment    :     -0.55512       1.09077       1.67319
                        -----------------------------------------
Magnitude (a.u.)       :      2.07304
Magnitude (Debye)      :      5.26925

Rotational constants in cm-1:     0.324698     0.133739     0.103466
Rotational constants in MHz :  9734.203431  4009.406827  3101.846422

                             ****ORCA TERMINATED NORMALLY****
TOTAL RUN TIME: 0 days 0 hours 0 minutes 40 seconds 676 msec
