                         Program Version 5.0.0 -  RELEASE  -
|  1> !M062X D3Zero RIJCOSX def2-TZVPD def2/J TightSCF
|  2> *xyz 1 1
|  3> C          2.23447       -2.98975       -2.39762
|  4> N          2.75680       -2.94555       -3.76503
|  5> C          1.98721       -2.59045       -4.81898
|  6> N          0.74322       -3.01749       -4.91352
|  7> N          2.49964       -1.84860       -5.80324
|  8> H          3.30978       -1.29282       -5.55895
|  9> H          1.80103       -1.30430       -6.28913
| 10> H          3.71612       -2.62880       -3.82953
| 11> H          0.39583       -3.62775       -4.18502
| 12> H          0.03920       -2.45438       -5.37137
| 13> C          2.19120       -1.61950       -1.71549
| 14> H          2.87278       -3.66637       -1.82801
| 15> H          1.24619       -3.44744       -2.40784
| 16> H          1.56387       -0.96046       -2.27853
| 17> H          3.18033       -1.21449       -1.66568
| 18> H          1.79916       -1.72608       -0.72562
| 19> *
| 20>
| 21> %MaxCore 64000
| 22>
| 23> %pal nprocs 4
| 24> end
| 25>
| 26> %scf
| 27>   MaxIter 150
| 28> end
| 29>
| 30>
| 31>                          ****END OF INPUT****

CARTESIAN COORDINATES (ANGSTROEM)
---------------------------------
  C      2.234470   -2.989750   -2.397620
  N      2.756800   -2.945550   -3.765030
  C      1.987210   -2.590450   -4.818980
  N      0.743220   -3.017490   -4.913520
  N      2.499640   -1.848600   -5.803240
  H      3.309780   -1.292820   -5.558950
  H      1.801030   -1.304300   -6.289130
  H      3.716120   -2.628800   -3.829530
  H      0.395830   -3.627750   -4.185020
  H      0.039200   -2.454380   -5.371370
  C      2.191200   -1.619500   -1.715490
  H      2.872780   -3.666370   -1.828010
  H      1.246190   -3.447440   -2.407840
  H      1.563870   -0.960460   -2.278530
  H      3.180330   -1.214490   -1.665680
  H      1.799160   -1.726080   -0.725620

 Total Charge           Charge          ....    1
 Multiplicity           Mult            ....    1
 Number of Electrons    NEL             ....   48
 Basis Dimension        Dim             ....  312

ORBITAL ENERGIES
----------------

  NO   OCC          E(Eh)            E(eV)
   0   2.0000     -14.979012      -407.5996
   1   2.0000     -14.974559      -407.4785
   2   2.0000     -14.972293      -407.4168
   3   2.0000     -10.883201      -296.1470
   4   2.0000     -10.746529      -292.4279
   5   2.0000     -10.675676      -290.4999
   6   2.0000      -1.335757       -36.3478
   7   2.0000      -1.213573       -33.0230
   8   2.0000      -1.208660       -32.8893
   9   2.0000      -1.025727       -27.9115
  10   2.0000      -0.931187       -25.3389
  11   2.0000      -0.890182       -24.2231
  12   2.0000      -0.863753       -23.5039
  13   2.0000      -0.817750       -22.2521
  14   2.0000      -0.775477       -21.1018
  15   2.0000      -0.755428       -20.5562
  16   2.0000      -0.721238       -19.6259
  17   2.0000      -0.694810       -18.9068
  18   2.0000      -0.672308       -18.2944
  19   2.0000      -0.636924       -17.3316
  20   2.0000      -0.600850       -16.3499
  21   2.0000      -0.580910       -15.8074
  22   2.0000      -0.556507       -15.1433
  23   2.0000      -0.513608       -13.9760
  24   0.0000      -0.161133        -4.3846
  25   0.0000      -0.142985        -3.8908
  26   0.0000      -0.116015        -3.1569
  27   0.0000      -0.104261        -2.8371
  28   0.0000      -0.085929        -2.3383

MULLIKEN ATOMIC CHARGES
-----------------------
   0 C :   -0.487900
   1 N :   -0.361561
   2 C :    1.029239
   3 N :   -0.583973
   4 N :   -0.675855
   5 H :    0.291144
   6 H :    0.302230
   7 H :    0.324447
   8 H :    0.308330
   9 H :    0.286424
  10 C :   -1.057482
  11 H :    0.345212
  12 H :    0.294973
  13 H :    0.285464
  14 H :    0.338503
  15 H :    0.360804
Sum of atomic charges:    1.0000000

LOEWDIN ATOMIC CHARGES
----------------------
   0 C :   -0.208726
   1 N :    0.078362
   2 C :   -0.436611
   3 N :    0.221634
   4 N :    0.204064
   5 H :    0.138841
   6 H :    0.138301
   7 H :    0.160597
   8 H :    0.133980
   9 H :    0.149176
  10 C :   -0.055417
  11 H :    0.130614
  12 H :    0.109958
  13 H :    0.073235
  14 H :    0.077792
  15 H :    0.084199

  Mayer bond orders larger than 0.100000
B(  0-C ,  1-N ) :   0.7326 B(  0-C , 10-C ) :   0.5898 B(  0-C , 11-H ) :   0.9349
B(  0-C , 12-H ) :   0.9121 B(  1-N ,  2-C ) :   1.1994 B(  1-N ,  7-H ) :   0.8697
B(  2-C ,  3-N ) :   0.9787 B(  2-C ,  4-N ) :   0.9381 B(  3-N ,  8-H ) :   0.8754
B(  3-N ,  9-H ) :   0.9474 B(  4-N ,  5-H ) :   0.9190 B(  4-N ,  6-H ) :   0.9006
B( 10-C , 13-H ) :   0.9567 B( 10-C , 14-H ) :   0.9713 B( 10-C , 15-H ) :   0.9546

Dispersion correction           -0.000319792
FINAL SINGLE POINT ENERGY      -284.360355688313

DIPOLE MOMENT
-------------
                                X             Y             Z
Electronic contribution:      0.17676      -1.68065      -5.17752
Nuclear contribution   :     -0.59121       2.30298       4.63196
                        -----------------------------------------
Total Dipole Moment    :     -0.41444       0.62233      -0.54556
                        -----------------------------------------
Magnitude (a.u.)       :      0.92558
Magnitude (Debye)      :      2.35264

Rotational constants in cm-1:     0.205874     0.074757     0.066901
Rotational constants in MHz :  6171.937773  2241.151057  2005.629823

                             ****ORCA TERMINATED NORMALLY****
TOTAL RUN TIME: 0 days 0 hours 1 minutes 6 seconds 897 msec
