                         Program Version 5.0.0 -  RELEASE  -
|  1> !M062X D3Zero RIJCOSX def2-TZVPD def2/J TightSCF xyzfile
|  2>
|  3> *xyzfile 0 1 B.xyz
|  4>
|  5> %MaxCore 64000
|  6>
|  7> %pal nprocs 4
|  8> end
|  9>
| 10> %scf
| 11>   MaxIter 150
| 12> end
| 13>
| 14>
| 15>                          ****END OF INPUT****

CARTESIAN COORDINATES (ANGSTROEM)
---------------------------------
  C      2.234473   -2.989754   -2.397622
  N      2.756799   -2.945553   -3.765029
  C     -1.104325    0.251374   -2.860056
  C     -0.711893    0.842517   -4.218344
  H      0.154626    1.499800   -4.130909
  H     -1.538134    1.459222   -4.582671
  C     -0.397624   -0.205875   -5.288018
  C      1.987208   -2.590451   -4.818975
  N      0.743221   -3.017493   -4.913524
  N      2.499636   -1.848598   -5.803241
  H      3.309780   -1.292818   -5.558947
  H      1.801025   -1.304298   -6.289129
  H      3.716116   -2.628797   -3.829533
  H      0.395828   -3.627747   -4.185024
  H      0.039201   -2.454383   -5.371367
  O      0.617165   -0.005348   -5.998273
  O     -1.133173   -1.221380   -5.341465
  C      2.191199   -1.619503   -1.715492
  H      2.872783   -3.666368   -1.828014
  H      1.246188   -3.447444   -2.407842
  C      1.298729   -0.554314   -2.359773
  H      1.872917   -1.787955   -0.681310
  H      3.216809   -1.238432   -1.654428
  C     -0.196255   -0.863365   -2.325763
  H      1.612531   -0.371346   -3.393065
  H      1.480944    0.388638   -1.834444
  H     -0.404105   -1.761825   -2.909448
  H     -0.490439   -1.087880   -1.294131
  H     -1.143842    1.066711   -2.129680
  H     -2.114401   -0.156834   -2.930323

 Total Charge           Charge          ....    0
 Multiplicity           Mult            ....    1
 Number of Electrons    NEL             ....  102
 Basis Dimension        Dim             ....  640

ORBITAL ENERGIES
----------------

  NO   OCC          E(Eh)            E(eV)
   0   2.0000     -19.543982      -531.8188
   1   2.0000     -19.541837      -531.7604
   2   2.0000     -14.817253      -403.1979
   3   2.0000     -14.788217      -402.4078
   4   2.0000     -14.786372      -402.3576
   5   2.0000     -10.709516      -291.4208
   6   2.0000     -10.612621      -288.7841
   7   2.0000     -10.599395      -288.4242
   8   2.0000     -10.560225      -287.3583
   9   2.0000     -10.540495      -286.8215
  10   2.0000     -10.526638      -286.4444
  11   2.0000     -10.517059      -286.1837
  12   2.0000     -10.503778      -285.8223
  13   2.0000      -1.164440       -31.6860
  14   2.0000      -1.131460       -30.7886
  15   2.0000      -1.051458       -28.6116
  16   2.0000      -1.038404       -28.2564
  17   2.0000      -1.020781       -27.7769
  18   2.0000      -0.919639       -25.0246
  19   2.0000      -0.874738       -23.8028
  20   2.0000      -0.819674       -22.3045
  21   2.0000      -0.772247       -21.0139
  22   2.0000      -0.740903       -20.1610
  23   2.0000      -0.706081       -19.2134
  24   2.0000      -0.691874       -18.8269
  25   2.0000      -0.660551       -17.9745
  26   2.0000      -0.636074       -17.3085
  27   2.0000      -0.610295       -16.6070
  28   2.0000      -0.584839       -15.9143
  29   2.0000      -0.572833       -15.5876
  30   2.0000      -0.554356       -15.0848
  31   2.0000      -0.545458       -14.8427
  32   2.0000      -0.540188       -14.6993
  33   2.0000      -0.522602       -14.2207
  34   2.0000      -0.509076       -13.8527
  35   2.0000      -0.497051       -13.5255
  36   2.0000      -0.483703       -13.1622
  37   2.0000      -0.480848       -13.0845
  38   2.0000      -0.464060       -12.6277
  39   2.0000      -0.449865       -12.2415
  40   2.0000      -0.435480       -11.8500
  41   2.0000      -0.422408       -11.4943
  42   2.0000      -0.409630       -11.1466
  43   2.0000      -0.392043       -10.6680
  44   2.0000      -0.376600       -10.2478
  45   2.0000      -0.371476       -10.1084
  46   2.0000      -0.366562        -9.9747
  47   2.0000      -0.357093        -9.7170
  48   2.0000      -0.298250        -8.1158
  49   2.0000      -0.291686        -7.9372
  50   2.0000      -0.289256        -7.8711
  51   0.0000      -0.012109        -0.3295
  52   0.0000       0.002863         0.0779
  53   0.0000       0.010492         0.2855
  54   0.0000       0.019415         0.5283
  55   0.0000       0.026390         0.7181

MULLIKEN ATOMIC CHARGES
-----------------------
   0 C :   -0.844127
   1 N :   -0.373530
   2 C :   -0.880780
   3 C :   -0.759966
   4 H :    0.291877
   5 H :    0.398044
   6 C :    1.058121
   7 C :    0.814425
   8 N :   -0.635296
   9 N :   -0.734064
  10 H :    0.276142
  11 H :    0.443476
  12 H :    0.337324
  13 H :    0.300105
  14 H :    0.417177
  15 O :   -0.946577
  16 O :   -0.969843
  17 C :   -0.780780
  18 H :    0.350826
  19 H :    0.322078
  20 C :   -0.354668
  21 H :    0.390809
  22 H :    0.348031
  23 C :   -0.289180
  24 H :    0.141368
  25 H :    0.454379
  26 H :    0.084112
  27 H :    0.429964
  28 H :    0.374308
  29 H :    0.336247
Sum of atomic charges:   -0.0000000

LOEWDIN ATOMIC CHARGES
----------------------
   0 C :   -0.179108
   1 N :    0.068170
   2 C :   -0.202562
   3 C :   -0.127001
   4 H :    0.108537
   5 H :    0.119165
   6 C :   -0.680836
   7 C :   -0.454389
   8 N :    0.230115
   9 N :    0.191083
  10 H :    0.127494
  11 H :    0.076834
  12 H :    0.148700
  13 H :    0.125257
  14 H :    0.068921
  15 O :   -0.070280
  16 O :   -0.063799
  17 C :   -0.185989
  18 H :    0.120880
  19 H :    0.109265
  20 C :   -0.203050
  21 H :    0.117864
  22 H :    0.112276
  23 C :   -0.212384
  24 H :    0.103547
  25 H :    0.123459
  26 H :    0.089161
  27 H :    0.116690
  28 H :    0.109877
  29 H :    0.112102

  Mayer bond orders larger than 0.100000
B(  0-C ,  1-N ) :   0.7835 B(  0-C ,  8-N ) :   0.1278 B(  0-C , 17-C ) :   0.5566
B(  0-C , 18-H ) :   0.9680 B(  0-C , 19-H ) :   0.9482 B(  1-N ,  7-C ) :   0.9961
B(  1-N , 12-H ) :   0.8376 B(  2-C ,  3-C ) :   0.6489 B(  2-C , 20-C ) :   0.1814
B(  2-C , 23-C ) :   0.6941 B(  2-C , 28-H ) :   0.9530 B(  2-C , 29-H ) :   0.9593
B(  3-C ,  4-H ) :   1.0587 B(  3-C ,  5-H ) :   0.8682 B(  3-C ,  6-C ) :   0.8872
B(  3-C , 20-C ) :   0.1432 B(  3-C , 23-C ) :  -0.1135 B(  6-C , 15-O ) :   0.8747
B(  6-C , 16-O ) :   0.9736 B(  7-C ,  8-N ) :   1.1031 B(  7-C ,  9-N ) :   0.8895
B(  7-C , 15-O ) :   0.1310 B(  7-C , 20-C ) :   0.1264 B(  8-N , 13-H ) :   0.8801
B(  8-N , 14-H ) :   0.6422 B(  9-N , 10-H ) :   0.9196 B(  9-N , 11-H ) :   0.7099
B( 17-C , 20-C ) :   0.5969 B( 17-C , 21-H ) :   0.9676 B( 17-C , 22-H ) :   0.9772
B( 17-C , 23-C ) :   0.2006 B( 20-C , 23-C ) :   0.2328 B( 20-C , 24-H ) :   1.1301
B( 20-C , 25-H ) :   0.7394 B( 20-C , 26-H ) :  -0.2200 B( 23-C , 24-H ) :  -0.1081
B( 23-C , 26-H ) :   1.2031 B( 23-C , 27-H ) :   0.7959

Dispersion correction           -0.001701386
FINAL SINGLE POINT ENERGY      -629.803768117077

DIPOLE MOMENT
-------------
                                X             Y             Z
Electronic contribution:      0.58284      -2.84288     -10.21134
Nuclear contribution   :      1.76912       1.50070      12.36652
                        -----------------------------------------
Total Dipole Moment    :      2.35195      -1.34218       2.15519
                        -----------------------------------------
Magnitude (a.u.)       :      3.46092
Magnitude (Debye)      :      8.79696

Rotational constants in cm-1:     0.033272     0.023886     0.017112
Rotational constants in MHz :   997.469575   716.074432   513.001395

                             ****ORCA TERMINATED NORMALLY****
TOTAL RUN TIME: 0 days 0 hours 7 minutes 0 seconds 269 msec
