                         Program Version 5.0.0 -  RELEASE  -
|  1> !M062X D3Zero RIJCOSX def2-TZVPD def2/J TightSCF
|  2> *xyz 0 1
|  3> C         -1.10433        0.25137       -2.86006
|  4> C         -0.71189        0.84252       -4.21834
|  5> H          0.15463        1.49980       -4.13091
|  6> H         -1.53813        1.45922       -4.58267
|  7> C         -0.39762       -0.20587       -5.28802
|  8> F          0.61717       -0.00535       -5.99827
|  9> O         -1.13317       -1.22138       -5.34147
| 10> H         -1.95489       -0.38644       -2.98099
| 11> H         -1.34603        1.04362       -2.18269
| 12> H         -0.28606       -0.31581       -2.46809
| 13> *
| 14>
| 15> %MaxCore 64000
| 16>
| 17> %pal nprocs 4
| 18> end
| 19>
| 20> %scf
| 21>   MaxIter 150
| 22> end
| 23>
| 24>
| 25>                          ****END OF INPUT****

CARTESIAN COORDINATES (ANGSTROEM)
---------------------------------
  C     -1.104330    0.251370   -2.860060
  C     -0.711890    0.842520   -4.218340
  H      0.154630    1.499800   -4.130910
  H     -1.538130    1.459220   -4.582670
  C     -0.397620   -0.205870   -5.288020
  F      0.617170   -0.005350   -5.998270
  O     -1.133170   -1.221380   -5.341470
  H     -1.954890   -0.386440   -2.980990
  H     -1.346030    1.043620   -2.182690
  H     -0.286060   -0.315810   -2.468090

 Total Charge           Charge          ....    0
 Multiplicity           Mult            ....    1
 Number of Electrons    NEL             ....   40
 Basis Dimension        Dim             ....  236

ORBITAL ENERGIES
----------------

  NO   OCC          E(Eh)            E(eV)
   0   2.0000     -25.316008      -688.8836
   1   2.0000     -19.635401      -534.3064
   2   2.0000     -10.721341      -291.7425
   3   2.0000     -10.568532      -287.5844
   4   2.0000     -10.537387      -286.7369
   5   2.0000      -1.465940       -39.8903
   6   2.0000      -1.157351       -31.4931
   7   2.0000      -0.899308       -24.4714
   8   2.0000      -0.789770       -21.4907
   9   2.0000      -0.730580       -19.8801
  10   2.0000      -0.645033       -17.5522
  11   2.0000      -0.631917       -17.1953
  12   2.0000      -0.595095       -16.1934
  13   2.0000      -0.538397       -14.6505
  14   2.0000      -0.510999       -13.9050
  15   2.0000      -0.463571       -12.6144
  16   2.0000      -0.446832       -12.1589
  17   2.0000      -0.440761       -11.9937
  18   2.0000      -0.415680       -11.3112
  19   2.0000      -0.372420       -10.1341
  20   0.0000       0.006088         0.1657
  21   0.0000       0.016480         0.4484
  22   0.0000       0.035198         0.9578
  23   0.0000       0.042016         1.1433
  24   0.0000       0.053183         1.4472

MULLIKEN ATOMIC CHARGES
-----------------------
   0 C :   -1.082743
   1 C :   -0.372935
   2 H :    0.314026
   3 H :    0.307458
   4 C :    0.726076
   5 F :   -0.249251
   6 O :   -0.580866
   7 H :    0.289351
   8 H :    0.320780
   9 H :    0.328105
Sum of atomic charges:    0.0000000

LOEWDIN ATOMIC CHARGES
----------------------
   0 C :   -0.089221
   1 C :   -0.155991
   2 H :    0.110599
   3 H :    0.123143
   4 C :   -0.476414
   5 F :    0.195834
   6 O :    0.074768
   7 H :    0.072233
   8 H :    0.069420
   9 H :    0.075629

  Mayer bond orders larger than 0.100000
B(  0-C ,  1-C ) :   0.5500 B(  0-C ,  7-H ) :   1.0094 B(  0-C ,  8-H ) :   0.9484
B(  0-C ,  9-H ) :   0.9403 B(  1-C ,  2-H ) :   0.9326 B(  1-C ,  3-H ) :   0.9421
B(  1-C ,  4-C ) :   0.9164 B(  4-C ,  5-F ) :   0.9169 B(  4-C ,  6-O ) :   1.6452

Dispersion correction           -0.000089542
FINAL SINGLE POINT ENERGY      -292.394513935683

DIPOLE MOMENT
-------------
                                X             Y             Z
Electronic contribution:      3.59616      -2.34590      -7.68624
Nuclear contribution   :     -3.36368       3.36392       8.24820
                        -----------------------------------------
Total Dipole Moment    :      0.23247       1.01801       0.56195
                        -----------------------------------------
Magnitude (a.u.)       :      1.18583
Magnitude (Debye)      :      3.01414

Rotational constants in cm-1:     0.315013     0.126712     0.098430
Rotational constants in MHz :  9443.861322  3798.734540  2950.846388

                             ****ORCA TERMINATED NORMALLY****
TOTAL RUN TIME: 0 days 0 hours 0 minutes 40 seconds 46 msec
