                         Program Version 5.0.0 -  RELEASE  -
|  1> !M062X D3Zero RIJCOSX def2-TZVPD def2/J TightSCF
|  2> *xyz 0 1
|  3> C          2.23447       -2.98975       -2.39762
|  4> C          2.75680       -2.94555       -3.76503
|  5> C          1.98721       -2.59045       -4.81898
|  6> N          0.74322       -3.01749       -4.91352
|  7> N          2.49964       -1.84860       -5.80324
|  8> H          3.30978       -1.29282       -5.55895
|  9> H          1.80103       -1.30430       -6.28913
| 10> H          3.71612       -2.62880       -3.82953
| 11> H          0.39583       -3.62775       -4.18502
| 12> H          0.03920       -2.45438       -5.37137
| 13> C          2.19120       -1.61950       -1.71549
| 14> H          2.87278       -3.66637       -1.82801
| 15> H          1.24619       -3.44744       -2.40784
| 16> H          1.56387       -0.96046       -2.27853
| 17> H          3.18033       -1.21449       -1.66568
| 18> H          1.79916       -1.72608       -0.72562
| 19> *
| 20>
| 21> %MaxCore 64000
| 22>
| 23> %pal nprocs 4
| 24> end
| 25>
| 26> %scf
| 27>   MaxIter 150
| 28> end
| 29>
| 30>
| 31>                          ****END OF INPUT****

CARTESIAN COORDINATES (ANGSTROEM)
---------------------------------
  C      2.234470   -2.989750   -2.397620
  C      2.756800   -2.945550   -3.765030
  C      1.987210   -2.590450   -4.818980
  N      0.743220   -3.017490   -4.913520
  N      2.499640   -1.848600   -5.803240
  H      3.309780   -1.292820   -5.558950
  H      1.801030   -1.304300   -6.289130
  H      3.716120   -2.628800   -3.829530
  H      0.395830   -3.627750   -4.185020
  H      0.039200   -2.454380   -5.371370
  C      2.191200   -1.619500   -1.715490
  H      2.872780   -3.666370   -1.828010
  H      1.246190   -3.447440   -2.407840
  H      1.563870   -0.960460   -2.278530
  H      3.180330   -1.214490   -1.665680
  H      1.799160   -1.726080   -0.725620

 Total Charge           Charge          ....    0
 Multiplicity           Mult            ....    1
 Number of Electrons    NEL             ....   48
 Basis Dimension        Dim             ....  312

ORBITAL ENERGIES
----------------

  NO   OCC          E(Eh)            E(eV)
   0   2.0000     -14.754629      -401.4939
   1   2.0000     -14.750425      -401.3795
   2   2.0000     -10.588205      -288.1197
   3   2.0000     -10.512168      -286.0506
   4   2.0000     -10.502482      -285.7871
   5   2.0000     -10.463281      -284.7204
   6   2.0000      -1.084235       -29.5035
   7   2.0000      -0.985310       -26.8117
   8   2.0000      -0.873825       -23.7780
   9   2.0000      -0.786076       -21.3902
  10   2.0000      -0.705537       -19.1986
  11   2.0000      -0.660474       -17.9724
  12   2.0000      -0.619035       -16.8448
  13   2.0000      -0.582539       -15.8517
  14   2.0000      -0.539487       -14.6802
  15   2.0000      -0.523078       -14.2337
  16   2.0000      -0.481649       -13.1063
  17   2.0000      -0.465938       -12.6788
  18   2.0000      -0.440813       -11.9951
  19   2.0000      -0.422440       -11.4952
  20   2.0000      -0.390055       -10.6139
  21   2.0000      -0.383189       -10.4271
  22   2.0000      -0.344402        -9.3717
  23   2.0000      -0.214276        -5.8307
  24   0.0000       0.007986         0.2173
  25   0.0000       0.034267         0.9325
  26   0.0000       0.038855         1.0573
  27   0.0000       0.047640         1.2963
  28   0.0000       0.066057         1.7975

MULLIKEN ATOMIC CHARGES
-----------------------
   0 C :   -0.318680
   1 C :   -0.645874
   2 C :    0.737934
   3 N :   -0.639272
   4 N :   -0.773527
   5 H :    0.278383
   6 H :    0.265120
   7 H :    0.298741
   8 H :    0.272462
   9 H :    0.219283
  10 C :   -1.224989
  11 H :    0.275322
  12 H :    0.325789
  13 H :    0.268396
  14 H :    0.326030
  15 H :    0.334882
Sum of atomic charges:   -0.0000000

LOEWDIN ATOMIC CHARGES
----------------------
   0 C :   -0.296912
   1 C :   -0.132910
   2 C :   -0.558690
   3 N :    0.121163
   4 N :    0.106623
   5 H :    0.110141
   6 H :    0.099580
   7 H :    0.059555
   8 H :    0.107529
   9 H :    0.107956
  10 C :   -0.102465
  11 H :    0.100424
  12 H :    0.087739
  13 H :    0.064981
  14 H :    0.065929
  15 H :    0.059357

  Mayer bond orders larger than 0.100000
B(  0-C ,  1-C ) :   0.4588 B(  0-C , 10-C ) :   0.4189 B(  0-C , 11-H ) :   1.0639
B(  0-C , 12-H ) :   0.9443 B(  1-C ,  2-C ) :   1.4351 B(  1-C ,  7-H ) :   1.0849
B(  1-C , 12-H ) :  -0.1023 B(  2-C ,  3-N ) :   0.7826 B(  2-C ,  4-N ) :   0.7895
B(  2-C ,  7-H ) :  -0.2348 B(  2-C , 10-C ) :   0.1140 B(  3-N ,  8-H ) :   0.9159
B(  3-N ,  9-H ) :   0.9997 B(  4-N ,  5-H ) :   0.9159 B(  4-N ,  6-H ) :   0.9346
B( 10-C , 13-H ) :   1.0269 B( 10-C , 14-H ) :   1.0032 B( 10-C , 15-H ) :   0.9598
B( 11-H , 12-H ) :   0.1119

Dispersion correction           -0.000318004
FINAL SINGLE POINT ENERGY      -267.882539658181

DIPOLE MOMENT
-------------
                                X             Y             Z
Electronic contribution:     -0.30834      -1.38342      -4.95371
Nuclear contribution   :     -0.44240       2.20379       4.66256
                        -----------------------------------------
Total Dipole Moment    :     -0.75074       0.82037      -0.29114
                        -----------------------------------------
Magnitude (a.u.)       :      1.14952
Magnitude (Debye)      :      2.92184

Rotational constants in cm-1:     0.209447     0.075194     0.066975
Rotational constants in MHz :  6279.068019  2254.272519  2007.845458

                             ****ORCA TERMINATED NORMALLY****
TOTAL RUN TIME: 0 days 0 hours 1 minutes 9 seconds 729 msec
