                         Program Version 5.0.0 -  RELEASE  -
|  1> !M062X D3Zero RIJCOSX def2-TZVPD def2/J TightSCF
|  2> *xyz 0 1
|  3> C         -1.10433        0.25137       -2.86006
|  4> C         -0.71189        0.84252       -4.21834
|  5> H          0.15463        1.49980       -4.13091
|  6> H         -1.53813        1.45922       -4.58267
|  7> C         -0.39762       -0.20587       -5.28802
|  8> O          0.61717       -0.00535       -5.99827
|  9> F         -1.13317       -1.22138       -5.34147
| 10> H         -1.95489       -0.38644       -2.98099
| 11> H         -1.34603        1.04362       -2.18269
| 12> H         -0.28606       -0.31581       -2.46809
| 13> *
| 14>
| 15> %MaxCore 64000
| 16>
| 17> %pal nprocs 4
| 18> end
| 19>
| 20> %scf
| 21>   MaxIter 150
| 22> end
| 23>
| 24>
| 25>                          ****END OF INPUT****

CARTESIAN COORDINATES (ANGSTROEM)
---------------------------------
  C     -1.104330    0.251370   -2.860060
  C     -0.711890    0.842520   -4.218340
  H      0.154630    1.499800   -4.130910
  H     -1.538130    1.459220   -4.582670
  C     -0.397620   -0.205870   -5.288020
  O      0.617170   -0.005350   -5.998270
  F     -1.133170   -1.221380   -5.341470
  H     -1.954890   -0.386440   -2.980990
  H     -1.346030    1.043620   -2.182690
  H     -0.286060   -0.315810   -2.468090

 Total Charge           Charge          ....    0
 Multiplicity           Mult            ....    1
 Number of Electrons    NEL             ....   40
 Basis Dimension        Dim             ....  236

ORBITAL ENERGIES
----------------

  NO   OCC          E(Eh)            E(eV)
   0   2.0000     -25.316874      -688.9072
   1   2.0000     -19.634274      -534.2757
   2   2.0000     -10.720627      -291.7231
   3   2.0000     -10.567887      -287.5668
   4   2.0000     -10.543071      -286.8915
   5   2.0000      -1.466410       -39.9030
   6   2.0000      -1.156490       -31.4697
   7   2.0000      -0.903596       -24.5881
   8   2.0000      -0.784648       -21.3514
   9   2.0000      -0.737890       -20.0790
  10   2.0000      -0.646996       -17.6056
  11   2.0000      -0.639768       -17.4090
  12   2.0000      -0.584298       -15.8996
  13   2.0000      -0.540292       -14.7021
  14   2.0000      -0.509521       -13.8648
  15   2.0000      -0.471977       -12.8431
  16   2.0000      -0.455720       -12.4008
  17   2.0000      -0.444124       -12.0852
  18   2.0000      -0.416142       -11.3238
  19   2.0000      -0.367070        -9.9885
  20   0.0000       0.005863         0.1595
  21   0.0000       0.017935         0.4880
  22   0.0000       0.034767         0.9461
  23   0.0000       0.039975         1.0878
  24   0.0000       0.053278         1.4498

MULLIKEN ATOMIC CHARGES
-----------------------
   0 C :   -1.093819
   1 C :   -0.357374
   2 H :    0.276678
   3 H :    0.318964
   4 C :    0.723896
   5 O :   -0.585870
   6 F :   -0.241680
   7 H :    0.308250
   8 H :    0.310239
   9 H :    0.340716
Sum of atomic charges:    0.0000000

LOEWDIN ATOMIC CHARGES
----------------------
   0 C :   -0.093949
   1 C :   -0.151084
   2 H :    0.119109
   3 H :    0.121787
   4 C :   -0.480134
   5 O :    0.071216
   6 F :    0.198738
   7 H :    0.069022
   8 H :    0.069832
   9 H :    0.075464

  Mayer bond orders larger than 0.100000
B(  0-C ,  1-C ) :   0.4984 B(  0-C ,  7-H ) :   0.9723 B(  0-C ,  8-H ) :   0.9720
B(  0-C ,  9-H ) :   0.9483 B(  1-C ,  2-H ) :   0.9747 B(  1-C ,  3-H ) :   0.9273
B(  1-C ,  4-C ) :   0.9372 B(  4-C ,  5-O ) :   1.6306 B(  4-C ,  6-F ) :   0.9260

Dispersion correction           -0.000094616
FINAL SINGLE POINT ENERGY      -292.393562711340

DIPOLE MOMENT
-------------
                                X             Y             Z
Electronic contribution:      0.67493      -4.35474      -6.56798
Nuclear contribution   :     -1.45527       4.68977       7.53208
                        -----------------------------------------
Total Dipole Moment    :     -0.78034       0.33503       0.96410
                        -----------------------------------------
Magnitude (a.u.)       :      1.28478
Magnitude (Debye)      :      3.26564

Rotational constants in cm-1:     0.298240     0.132464     0.099915
Rotational constants in MHz :  8940.998095  3971.171647  2995.369122

                             ****ORCA TERMINATED NORMALLY****
TOTAL RUN TIME: 0 days 0 hours 0 minutes 28 seconds 757 msec
