                         Program Version 5.0.0 -  RELEASE  -
|  1> !M062X D3Zero RIJCOSX def2-TZVPD def2/J TightSCF
|  2> *xyz 0 1
|  3> C          2.23447       -2.98975       -2.39762
|  4> N          2.75680       -2.94555       -3.76503
|  5> C          1.98721       -2.59045       -4.81898
|  6> C          0.74322       -3.01749       -4.91352
|  7> N          2.49964       -1.84860       -5.80324
|  8> H          3.30978       -1.29282       -5.55895
|  9> H          1.80103       -1.30430       -6.28913
| 10> H          3.71612       -2.62880       -3.82953
| 11> H          0.39583       -3.62775       -4.18502
| 12> H          0.03920       -2.45438       -5.37137
| 13> C          2.19120       -1.61950       -1.71549
| 14> H          2.87278       -3.66637       -1.82801
| 15> H          1.24619       -3.44744       -2.40784
| 16> H          1.56387       -0.96046       -2.27853
| 17> H          3.18033       -1.21449       -1.66568
| 18> H          1.79916       -1.72608       -0.72562
| 19> *
| 20>
| 21> %MaxCore 64000
| 22>
| 23> %pal nprocs 4
| 24> end
| 25>
| 26> %scf
| 27>   MaxIter 150
| 28> end
| 29>
| 30>
| 31>                          ****END OF INPUT****

CARTESIAN COORDINATES (ANGSTROEM)
---------------------------------
  C      2.234470   -2.989750   -2.397620
  N      2.756800   -2.945550   -3.765030
  C      1.987210   -2.590450   -4.818980
  C      0.743220   -3.017490   -4.913520
  N      2.499640   -1.848600   -5.803240
  H      3.309780   -1.292820   -5.558950
  H      1.801030   -1.304300   -6.289130
  H      3.716120   -2.628800   -3.829530
  H      0.395830   -3.627750   -4.185020
  H      0.039200   -2.454380   -5.371370
  C      2.191200   -1.619500   -1.715490
  H      2.872780   -3.666370   -1.828010
  H      1.246190   -3.447440   -2.407840
  H      1.563870   -0.960460   -2.278530
  H      3.180330   -1.214490   -1.665680
  H      1.799160   -1.726080   -0.725620

 Total Charge           Charge          ....    0
 Multiplicity           Mult            ....    1
 Number of Electrons    NEL             ....   48
 Basis Dimension        Dim             ....  312

ORBITAL ENERGIES
----------------

  NO   OCC          E(Eh)            E(eV)
   0   2.0000     -14.749976      -401.3673
   1   2.0000     -14.748391      -401.3241
   2   2.0000     -10.584820      -288.0276
   3   2.0000     -10.568929      -287.5952
   4   2.0000     -10.522615      -286.3349
   5   2.0000     -10.454800      -284.4896
   6   2.0000      -1.080133       -29.3919
   7   2.0000      -0.994294       -27.0561
   8   2.0000      -0.852788       -23.2055
   9   2.0000      -0.810449       -22.0534
  10   2.0000      -0.727279       -19.7903
  11   2.0000      -0.642873       -17.4935
  12   2.0000      -0.618512       -16.8306
  13   2.0000      -0.586726       -15.9656
  14   2.0000      -0.531818       -14.4715
  15   2.0000      -0.516159       -14.0454
  16   2.0000      -0.485959       -13.2236
  17   2.0000      -0.463217       -12.6048
  18   2.0000      -0.461092       -12.5470
  19   2.0000      -0.435300       -11.8451
  20   2.0000      -0.426772       -11.6131
  21   2.0000      -0.411716       -11.2033
  22   2.0000      -0.317900        -8.6505
  23   2.0000      -0.232081        -6.3153
  24   0.0000       0.010992         0.2991
  25   0.0000       0.032414         0.8820
  26   0.0000       0.040352         1.0980
  27   0.0000       0.042397         1.1537
  28   0.0000       0.068110         1.8534

MULLIKEN ATOMIC CHARGES
-----------------------
   0 C :   -0.472939
   1 N :   -0.421283
   2 C :    0.786694
   3 C :   -0.918640
   4 N :   -0.734569
   5 H :    0.262589
   6 H :    0.261432
   7 H :    0.310069
   8 H :    0.307542
   9 H :    0.138640
  10 C :   -1.037545
  11 H :    0.326259
  12 H :    0.276953
  13 H :    0.260968
  14 H :    0.300658
  15 H :    0.353172
Sum of atomic charges:   -0.0000000

LOEWDIN ATOMIC CHARGES
----------------------
   0 C :   -0.241655
   1 N :    0.003674
   2 C :   -0.569971
   3 C :    0.015539
   4 N :    0.103509
   5 H :    0.098143
   6 H :    0.107774
   7 H :    0.130021
   8 H :    0.009977
   9 H :    0.018935
  10 C :   -0.084183
  11 H :    0.111010
  12 H :    0.101764
  13 H :    0.067233
  14 H :    0.063025
  15 H :    0.065205

  Mayer bond orders larger than 0.100000
B(  0-C ,  1-N ) :   0.6935 B(  0-C , 10-C ) :   0.5286 B(  0-C , 11-H ) :   0.9250
B(  0-C , 12-H ) :   0.9563 B(  1-N ,  2-C ) :   0.8782 B(  1-N ,  7-H ) :   0.8937
B(  2-C ,  3-C ) :   1.4946 B(  2-C ,  4-N ) :   0.6684 B(  2-C ,  9-H ) :  -0.1351
B(  3-C ,  4-N ) :   0.1148 B(  3-C ,  8-H ) :   0.9123 B(  3-C ,  9-H ) :   1.2011
B(  4-N ,  5-H ) :   0.9391 B(  4-N ,  6-H ) :   0.9346 B( 10-C , 13-H ) :   1.0105
B( 10-C , 14-H ) :   0.9894 B( 10-C , 15-H ) :   0.9432

Dispersion correction           -0.000316330
FINAL SINGLE POINT ENERGY      -267.878995315512

DIPOLE MOMENT
-------------
                                X             Y             Z
Electronic contribution:      1.46477      -1.26802      -3.83200
Nuclear contribution   :     -0.86957       2.18853       4.41892
                        -----------------------------------------
Total Dipole Moment    :      0.59520       0.92051       0.58692
                        -----------------------------------------
Magnitude (a.u.)       :      1.24341
Magnitude (Debye)      :      3.16051

Rotational constants in cm-1:     0.214718     0.075736     0.068547
Rotational constants in MHz :  6437.075121  2270.519635  2054.974198

                             ****ORCA TERMINATED NORMALLY****
TOTAL RUN TIME: 0 days 0 hours 1 minutes 3 seconds 236 msec
