                         Program Version 5.0.0 -  RELEASE  -
|  1> !M062X D3Zero RIJCOSX def2-TZVPD def2/J TightSCF
|  2> *xyz 0 1
|  3> C          2.23447       -2.98975       -2.39762
|  4> N          2.75680       -2.94555       -3.76503
|  5> C          1.98721       -2.59045       -4.81898
|  6> N          0.74322       -3.01749       -4.91352
|  7> C          2.49964       -1.84860       -5.80324
|  8> H          3.30978       -1.29282       -5.55895
|  9> H          1.80103       -1.30430       -6.28913
| 10> H          3.71612       -2.62880       -3.82953
| 11> H          0.39583       -3.62775       -4.18502
| 12> H          0.03920       -2.45438       -5.37137
| 13> C          2.19120       -1.61950       -1.71549
| 14> H          2.87278       -3.66637       -1.82801
| 15> H          1.24619       -3.44744       -2.40784
| 16> H          1.56387       -0.96046       -2.27853
| 17> H          3.18033       -1.21449       -1.66568
| 18> H          1.79916       -1.72608       -0.72562
| 19> *
| 20>
| 21> %MaxCore 64000
| 22>
| 23> %pal nprocs 4
| 24> end
| 25>
| 26> %scf
| 27>   MaxIter 150
| 28> end
| 29>
| 30>
| 31>                          ****END OF INPUT****

CARTESIAN COORDINATES (ANGSTROEM)
---------------------------------
  C      2.234470   -2.989750   -2.397620
  N      2.756800   -2.945550   -3.765030
  C      1.987210   -2.590450   -4.818980
  N      0.743220   -3.017490   -4.913520
  C      2.499640   -1.848600   -5.803240
  H      3.309780   -1.292820   -5.558950
  H      1.801030   -1.304300   -6.289130
  H      3.716120   -2.628800   -3.829530
  H      0.395830   -3.627750   -4.185020
  H      0.039200   -2.454380   -5.371370
  C      2.191200   -1.619500   -1.715490
  H      2.872780   -3.666370   -1.828010
  H      1.246190   -3.447440   -2.407840
  H      1.563870   -0.960460   -2.278530
  H      3.180330   -1.214490   -1.665680
  H      1.799160   -1.726080   -0.725620

 Total Charge           Charge          ....    0
 Multiplicity           Mult            ....    1
 Number of Electrons    NEL             ....   48
 Basis Dimension        Dim             ....  312

ORBITAL ENERGIES
----------------

  NO   OCC          E(Eh)            E(eV)
   0   2.0000     -14.751555      -401.4102
   1   2.0000     -14.749026      -401.3414
   2   2.0000     -10.588706      -288.1334
   3   2.0000     -10.576804      -287.8095
   4   2.0000     -10.526469      -286.4398
   5   2.0000     -10.449676      -284.3501
   6   2.0000      -1.082526       -29.4570
   7   2.0000      -0.994580       -27.0639
   8   2.0000      -0.865477       -23.5508
   9   2.0000      -0.802921       -21.8486
  10   2.0000      -0.717050       -19.5119
  11   2.0000      -0.681985       -18.5578
  12   2.0000      -0.615238       -16.7415
  13   2.0000      -0.563249       -15.3268
  14   2.0000      -0.561815       -15.2878
  15   2.0000      -0.506546       -13.7838
  16   2.0000      -0.498138       -13.5550
  17   2.0000      -0.469854       -12.7854
  18   2.0000      -0.442338       -12.0366
  19   2.0000      -0.432765       -11.7761
  20   2.0000      -0.430658       -11.7188
  21   2.0000      -0.419546       -11.4164
  22   2.0000      -0.320321        -8.7164
  23   2.0000      -0.226454        -6.1621
  24   0.0000       0.009396         0.2557
  25   0.0000       0.031604         0.8600
  26   0.0000       0.036865         1.0031
  27   0.0000       0.043641         1.1875
  28   0.0000       0.071297         1.9401

MULLIKEN ATOMIC CHARGES
-----------------------
   0 C :   -0.515446
   1 N :   -0.388589
   2 C :    0.772671
   3 N :   -0.647612
   4 C :   -0.916715
   5 H :    0.178671
   6 H :    0.202202
   7 H :    0.320835
   8 H :    0.272670
   9 H :    0.236669
  10 C :   -1.017568
  11 H :    0.322285
  12 H :    0.264308
  13 H :    0.267368
  14 H :    0.300239
  15 H :    0.348012
Sum of atomic charges:    0.0000000

LOEWDIN ATOMIC CHARGES
----------------------
   0 C :   -0.245800
   1 N :    0.006923
   2 C :   -0.572752
   3 N :    0.119080
   4 C :   -0.003105
   5 H :    0.007539
   6 H :    0.008966
   7 H :    0.137469
   8 H :    0.097686
   9 H :    0.119161
  10 C :   -0.082490
  11 H :    0.110284
  12 H :    0.096956
  13 H :    0.068532
  14 H :    0.066942
  15 H :    0.064610

  Mayer bond orders larger than 0.100000
B(  0-C ,  1-N ) :   0.7610 B(  0-C , 10-C ) :   0.5647 B(  0-C , 11-H ) :   0.9516
B(  0-C , 12-H ) :   0.9477 B(  1-N ,  2-C ) :   0.9443 B(  1-N ,  7-H ) :   0.8453
B(  2-C ,  3-N ) :   0.7410 B(  2-C ,  4-C ) :   1.3439 B(  2-C ,  5-H ) :  -0.1360
B(  3-N ,  8-H ) :   0.9187 B(  3-N ,  9-H ) :   0.9758 B(  4-C ,  5-H ) :   1.1696
B(  4-C ,  6-H ) :   1.0995 B( 10-C , 13-H ) :   0.9906 B( 10-C , 14-H ) :   0.9890
B( 10-C , 15-H ) :   0.9544

Dispersion correction           -0.000314679
FINAL SINGLE POINT ENERGY      -267.872706441326

DIPOLE MOMENT
-------------
                                X             Y             Z
Electronic contribution:     -0.11476      -2.37698      -2.96918
Nuclear contribution   :     -0.49695       2.43650       4.23017
                        -----------------------------------------
Total Dipole Moment    :     -0.61171       0.05952       1.26099
                        -----------------------------------------
Magnitude (a.u.)       :      1.40279
Magnitude (Debye)      :      3.56562

Rotational constants in cm-1:     0.211102     0.077011     0.069221
Rotational constants in MHz :  6328.667765  2308.731604  2075.192956

                             ****ORCA TERMINATED NORMALLY****
TOTAL RUN TIME: 0 days 0 hours 1 minutes 8 seconds 115 msec
