                         Program Version 5.0.0 -  RELEASE  -
|  1> !M062X D3Zero RIJCOSX def2-TZVPD def2/J TightSCF xyzfile
|  2>
|  3> *xyzfile 0 1 D1.xyz
|  4>
|  5> %MaxCore 64000
|  6>
|  7> %pal nprocs 4
|  8> end
|  9>
| 10> %scf
| 11>   MaxIter 150
| 12> end
| 13>
| 14>
| 15>                          ****END OF INPUT****

CARTESIAN COORDINATES (ANGSTROEM)
---------------------------------
  C      2.234473   -2.989754   -2.397622
  C      2.756799   -2.945553   -3.765029
  C     -1.104325    0.251374   -2.860056
  C     -0.711893    0.842517   -4.218344
  H      0.154626    1.499800   -4.130909
  H     -1.538134    1.459222   -4.582671
  C     -0.397624   -0.205875   -5.288018
  C      1.987208   -2.590451   -4.818975
  N      0.743221   -3.017493   -4.913524
  N      2.499636   -1.848598   -5.803241
  H      3.309780   -1.292818   -5.558947
  H      1.801025   -1.304298   -6.289129
  H      3.716116   -2.628797   -3.829533
  H      0.395828   -3.627747   -4.185024
  H      0.039201   -2.454383   -5.371367
  F      0.617165   -0.005348   -5.998273
  O     -1.133173   -1.221380   -5.341465
  C      2.191199   -1.619503   -1.715492
  H      2.872783   -3.666368   -1.828014
  H      1.246188   -3.447444   -2.407842
  C      1.298729   -0.554314   -2.359773
  H      1.872917   -1.787955   -0.681310
  H      3.216809   -1.238432   -1.654428
  C     -0.196255   -0.863365   -2.325763
  H      1.612531   -0.371346   -3.393065
  H      1.480944    0.388638   -1.834444
  H     -0.404105   -1.761825   -2.909448
  H     -0.490439   -1.087880   -1.294131
  H     -1.143842    1.066711   -2.129680
  H     -2.114401   -0.156834   -2.930323

 Total Charge           Charge          ....    0
 Multiplicity           Mult            ....    1
 Number of Electrons    NEL             ....  102
 Basis Dimension        Dim             ....  640

ORBITAL ENERGIES
----------------

  NO   OCC          E(Eh)            E(eV)
   0   2.0000     -25.350793      -689.8301
   1   2.0000     -19.666708      -535.1583
   2   2.0000     -14.736110      -400.9899
   3   2.0000     -14.726910      -400.7396
   4   2.0000     -10.751110      -292.5526
   5   2.0000     -10.581494      -287.9371
   6   2.0000     -10.576732      -287.8075
   7   2.0000     -10.555480      -287.2292
   8   2.0000     -10.534706      -286.6639
   9   2.0000     -10.530936      -286.5613
  10   2.0000     -10.518390      -286.2200
  11   2.0000     -10.507747      -285.9303
  12   2.0000     -10.451569      -284.4017
  13   2.0000      -1.503262       -40.9058
  14   2.0000      -1.195048       -32.5189
  15   2.0000      -1.070210       -29.1219
  16   2.0000      -0.970228       -26.4012
  17   2.0000      -0.932484       -25.3742
  18   2.0000      -0.890700       -24.2372
  19   2.0000      -0.853075       -23.2133
  20   2.0000      -0.808952       -22.0127
  21   2.0000      -0.783291       -21.3144
  22   2.0000      -0.744877       -20.2691
  23   2.0000      -0.701898       -19.0996
  24   2.0000      -0.685046       -18.6411
  25   2.0000      -0.669308       -18.2128
  26   2.0000      -0.661344       -17.9961
  27   2.0000      -0.634925       -17.2772
  28   2.0000      -0.625453       -17.0194
  29   2.0000      -0.596585       -16.2339
  30   2.0000      -0.568909       -15.4808
  31   2.0000      -0.556207       -15.1352
  32   2.0000      -0.548088       -14.9142
  33   2.0000      -0.528976       -14.3942
  34   2.0000      -0.517489       -14.0816
  35   2.0000      -0.508635       -13.8407
  36   2.0000      -0.492177       -13.3928
  37   2.0000      -0.479677       -13.0527
  38   2.0000      -0.463328       -12.6078
  39   2.0000      -0.455502       -12.3948
  40   2.0000      -0.444282       -12.0895
  41   2.0000      -0.437311       -11.8998
  42   2.0000      -0.422905       -11.5078
  43   2.0000      -0.410073       -11.1586
  44   2.0000      -0.402030       -10.9398
  45   2.0000      -0.394092       -10.7238
  46   2.0000      -0.379694       -10.3320
  47   2.0000      -0.371332       -10.1045
  48   2.0000      -0.365198        -9.9376
  49   2.0000      -0.325102        -8.8465
  50   2.0000      -0.203033        -5.5248
  51   0.0000      -0.018317        -0.4984
  52   0.0000       0.001506         0.0410
  53   0.0000       0.018466         0.5025
  54   0.0000       0.022795         0.6203
  55   0.0000       0.028904         0.7865

MULLIKEN ATOMIC CHARGES
-----------------------
   0 C :   -0.486383
   1 C :   -0.897828
   2 C :   -0.918199
   3 C :   -0.678115
   4 H :    0.371677
   5 H :    0.408110
   6 C :    0.841272
   7 C :    0.620912
   8 N :   -0.694629
   9 N :   -0.886797
  10 H :    0.279164
  11 H :    0.436122
  12 H :    0.335575
  13 H :    0.296014
  14 H :    0.401106
  15 F :   -0.322254
  16 O :   -0.723224
  17 C :   -1.030322
  18 H :    0.306781
  19 H :    0.380636
  20 C :   -0.362129
  21 H :    0.362490
  22 H :    0.390672
  23 C :   -0.293552
  24 H :    0.097826
  25 H :    0.440730
  26 H :    0.136344
  27 H :    0.445308
  28 H :    0.396100
  29 H :    0.346592
Sum of atomic charges:    0.0000000

LOEWDIN ATOMIC CHARGES
----------------------
   0 C :   -0.245721
   1 C :   -0.124578
   2 C :   -0.191621
   3 C :   -0.096755
   4 H :    0.119103
   5 H :    0.130186
   6 C :   -0.446069
   7 C :   -0.553572
   8 N :    0.146057
   9 N :    0.121384
  10 H :    0.114557
  11 H :    0.074717
  12 H :    0.059877
  13 H :    0.113899
  14 H :    0.051313
  15 F :    0.183424
  16 O :    0.071306
  17 C :   -0.200915
  18 H :    0.104284
  19 H :    0.093576
  20 C :   -0.206880
  21 H :    0.109177
  22 H :    0.113025
  23 C :   -0.207278
  24 H :    0.099694
  25 H :    0.117872
  26 H :    0.093215
  27 H :    0.122348
  28 H :    0.118559
  29 H :    0.115818

  Mayer bond orders larger than 0.100000
B(  0-C ,  1-C ) :   0.4771 B(  0-C ,  7-C ) :   0.1265 B(  0-C , 17-C ) :   0.5723
B(  0-C , 18-H ) :   1.0911 B(  0-C , 19-H ) :   0.8909 B(  0-C , 23-C ) :   0.1133
B(  1-C ,  7-C ) :   1.2984 B(  1-C , 12-H ) :   1.1703 B(  2-C ,  3-C ) :   0.6534
B(  2-C , 20-C ) :   0.1902 B(  2-C , 23-C ) :   0.6232 B(  2-C , 28-H ) :   0.9364
B(  2-C , 29-H ) :   0.9538 B(  3-C ,  4-H ) :   0.9583 B(  3-C ,  5-H ) :   0.8810
B(  3-C ,  6-C ) :   0.8534 B(  3-C , 20-C ) :   0.1494 B(  3-C , 23-C ) :  -0.1409
B(  6-C ,  8-N ) :   0.1032 B(  6-C , 15-F ) :   0.6889 B(  6-C , 16-O ) :   1.3753
B(  7-C ,  8-N ) :   0.8205 B(  7-C ,  9-N ) :   0.6043 B(  7-C , 12-H ) :  -0.2109
B(  8-N , 13-H ) :   0.8803 B(  8-N , 14-H ) :   0.6421 B(  9-N , 10-H ) :   0.9214
B(  9-N , 11-H ) :   0.6433 B( 17-C , 20-C ) :   0.7917 B( 17-C , 21-H ) :   0.9482
B( 17-C , 22-H ) :   0.9499 B( 17-C , 23-C ) :   0.2201 B( 20-C , 23-C ) :   0.1165
B( 20-C , 24-H ) :   1.1966 B( 20-C , 25-H ) :   0.7685 B( 20-C , 26-H ) :  -0.1818
B( 23-C , 24-H ) :  -0.2100 B( 23-C , 26-H ) :   1.2364 B( 23-C , 27-H ) :   0.7690

Dispersion correction           -0.001673400
FINAL SINGLE POINT ENERGY      -637.693724656007

DIPOLE MOMENT
-------------
                                X             Y             Z
Electronic contribution:     -3.09942       2.24805     -14.47910
Nuclear contribution   :      2.31842      -0.27661      14.74721
                        -----------------------------------------
Total Dipole Moment    :     -0.78099       1.97145       0.26810
                        -----------------------------------------
Magnitude (a.u.)       :      2.13739
Magnitude (Debye)      :      5.43281

Rotational constants in cm-1:     0.032691     0.023990     0.017099
Rotational constants in MHz :   980.050971   719.190545   512.606858

                             ****ORCA TERMINATED NORMALLY****
TOTAL RUN TIME: 0 days 0 hours 6 minutes 21 seconds 833 msec
