                         Program Version 5.0.0 -  RELEASE  -
|  1> !M062X D3Zero RIJCOSX def2-TZVPD def2/J TightSCF xyzfile
|  2>
|  3> *xyzfile 0 1 D2.xyz
|  4>
|  5> %MaxCore 64000
|  6>
|  7> %pal nprocs 4
|  8> end
|  9>
| 10> %scf
| 11>   MaxIter 150
| 12> end
| 13>
| 14>
| 15>                          ****END OF INPUT****

CARTESIAN COORDINATES (ANGSTROEM)
---------------------------------
  C      2.234473   -2.989754   -2.397622
  N      2.756799   -2.945553   -3.765029
  C     -1.104325    0.251374   -2.860056
  C     -0.711893    0.842517   -4.218344
  H      0.154626    1.499800   -4.130909
  H     -1.538134    1.459222   -4.582671
  C     -0.397624   -0.205875   -5.288018
  C      1.987208   -2.590451   -4.818975
  C      0.743221   -3.017493   -4.913524
  N      2.499636   -1.848598   -5.803241
  H      3.309780   -1.292818   -5.558947
  H      1.801025   -1.304298   -6.289129
  H      3.716116   -2.628797   -3.829533
  H      0.395828   -3.627747   -4.185024
  H      0.039201   -2.454383   -5.371367
  F      0.617165   -0.005348   -5.998273
  O     -1.133173   -1.221380   -5.341465
  C      2.191199   -1.619503   -1.715492
  H      2.872783   -3.666368   -1.828014
  H      1.246188   -3.447444   -2.407842
  C      1.298729   -0.554314   -2.359773
  H      1.872917   -1.787955   -0.681310
  H      3.216809   -1.238432   -1.654428
  C     -0.196255   -0.863365   -2.325763
  H      1.612531   -0.371346   -3.393065
  H      1.480944    0.388638   -1.834444
  H     -0.404105   -1.761825   -2.909448
  H     -0.490439   -1.087880   -1.294131
  H     -1.143842    1.066711   -2.129680
  H     -2.114401   -0.156834   -2.930323

 Total Charge           Charge          ....    0
 Multiplicity           Mult            ....    1
 Number of Electrons    NEL             ....  102
 Basis Dimension        Dim             ....  640

ORBITAL ENERGIES
----------------

  NO   OCC          E(Eh)            E(eV)
   0   2.0000     -25.334112      -689.3762
   1   2.0000     -19.642326      -534.4949
   2   2.0000     -14.740926      -401.1210
   3   2.0000     -14.733286      -400.9131
   4   2.0000     -10.730011      -291.9784
   5   2.0000     -10.571093      -287.6541
   6   2.0000     -10.570423      -287.6358
   7   2.0000     -10.564530      -287.4755
   8   2.0000     -10.549200      -287.0583
   9   2.0000     -10.537416      -286.7377
  10   2.0000     -10.536430      -286.7108
  11   2.0000     -10.530889      -286.5601
  12   2.0000     -10.432780      -283.8904
  13   2.0000      -1.486447       -40.4483
  14   2.0000      -1.170763       -31.8581
  15   2.0000      -1.070216       -29.1221
  16   2.0000      -0.986284       -26.8381
  17   2.0000      -0.924975       -25.1699
  18   2.0000      -0.884501       -24.0685
  19   2.0000      -0.832072       -22.6418
  20   2.0000      -0.805852       -21.9284
  21   2.0000      -0.786276       -21.3957
  22   2.0000      -0.755569       -20.5601
  23   2.0000      -0.705632       -19.2012
  24   2.0000      -0.678134       -18.4530
  25   2.0000      -0.661500       -18.0003
  26   2.0000      -0.639704       -17.4072
  27   2.0000      -0.629975       -17.1425
  28   2.0000      -0.607560       -16.5325
  29   2.0000      -0.604759       -16.4563
  30   2.0000      -0.570708       -15.5298
  31   2.0000      -0.555968       -15.1287
  32   2.0000      -0.541652       -14.7391
  33   2.0000      -0.521884       -14.2012
  34   2.0000      -0.515258       -14.0209
  35   2.0000      -0.494000       -13.4424
  36   2.0000      -0.484624       -13.1873
  37   2.0000      -0.477042       -12.9810
  38   2.0000      -0.469044       -12.7633
  39   2.0000      -0.450920       -12.2702
  40   2.0000      -0.441868       -12.0238
  41   2.0000      -0.430070       -11.7028
  42   2.0000      -0.428042       -11.6476
  43   2.0000      -0.419323       -11.4104
  44   2.0000      -0.412827       -11.2336
  45   2.0000      -0.392082       -10.6691
  46   2.0000      -0.383356       -10.4316
  47   2.0000      -0.378618       -10.3027
  48   2.0000      -0.359495        -9.7823
  49   2.0000      -0.308098        -8.3838
  50   2.0000      -0.217886        -5.9290
  51   0.0000      -0.001288        -0.0350
  52   0.0000       0.004367         0.1188
  53   0.0000       0.018597         0.5061
  54   0.0000       0.021421         0.5829
  55   0.0000       0.029924         0.8143

MULLIKEN ATOMIC CHARGES
-----------------------
   0 C :   -0.845371
   1 N :   -0.422446
   2 C :   -0.945798
   3 C :   -0.699669
   4 H :    0.375294
   5 H :    0.414592
   6 C :    0.808659
   7 C :    0.515530
   8 C :   -1.235252
   9 N :   -0.807764
  10 H :    0.266345
  11 H :    0.380252
  12 H :    0.333553
  13 H :    0.495658
  14 H :    0.563898
  15 F :   -0.339524
  16 O :   -0.668316
  17 C :   -0.756654
  18 H :    0.341392
  19 H :    0.291056
  20 C :   -0.425598
  21 H :    0.386892
  22 H :    0.340261
  23 C :   -0.212026
  24 H :    0.145632
  25 H :    0.452116
  26 H :    0.061770
  27 H :    0.446496
  28 H :    0.387974
  29 H :    0.351044
Sum of atomic charges:    0.0000000

LOEWDIN ATOMIC CHARGES
----------------------
   0 C :   -0.191331
   1 N :    0.020877
   2 C :   -0.190922
   3 C :   -0.098734
   4 H :    0.116557
   5 H :    0.128329
   6 C :   -0.453010
   7 C :   -0.561594
   8 C :    0.024371
   9 N :    0.113943
  10 H :    0.102040
  11 H :    0.081192
  12 H :    0.130951
  13 H :    0.030477
  14 H :   -0.013712
  15 F :    0.180602
  16 O :    0.067525
  17 C :   -0.187975
  18 H :    0.115031
  19 H :    0.106764
  20 C :   -0.206734
  21 H :    0.113155
  22 H :    0.109522
  23 C :   -0.205410
  24 H :    0.099535
  25 H :    0.118315
  26 H :    0.095908
  27 H :    0.121221
  28 H :    0.116583
  29 H :    0.116525

  Mayer bond orders larger than 0.100000
B(  0-C ,  1-N ) :   0.7625 B(  0-C , 17-C ) :   0.5884 B(  0-C , 18-H ) :   0.9661
B(  0-C , 19-H ) :   0.9682 B(  1-N ,  7-C ) :   0.7550 B(  1-N , 12-H ) :   0.8442
B(  2-C ,  3-C ) :   0.6682 B(  2-C , 20-C ) :   0.1800 B(  2-C , 23-C ) :   0.6609
B(  2-C , 28-H ) :   0.9468 B(  2-C , 29-H ) :   0.9364 B(  3-C ,  4-H ) :   0.9543
B(  3-C ,  5-H ) :   0.8769 B(  3-C ,  6-C ) :   0.8410 B(  3-C , 20-C ) :   0.1521
B(  3-C , 23-C ) :  -0.1525 B(  6-C , 15-F ) :   0.6429 B(  6-C , 16-O ) :   1.5406
B(  7-C ,  8-C ) :   1.7013 B(  7-C ,  9-N ) :   0.5685 B(  7-C , 14-H ) :  -0.2522
B(  8-C , 13-H ) :   0.9047 B(  8-C , 14-H ) :   0.6082 B(  8-C , 20-C ) :   0.1264
B(  8-C , 23-C ) :  -0.1441 B(  9-N , 10-H ) :   0.9202 B(  9-N , 11-H ) :   0.7284
B( 13-H , 14-H ) :   0.1737 B( 14-H , 16-O ) :  -0.1009 B( 17-C , 20-C ) :   0.6306
B( 17-C , 21-H ) :   0.9565 B( 17-C , 22-H ) :   0.9748 B( 17-C , 23-C ) :   0.1888
B( 20-C , 23-C ) :   0.2224 B( 20-C , 24-H ) :   1.1425 B( 20-C , 25-H ) :   0.7561
B( 20-C , 26-H ) :  -0.1599 B( 23-C , 24-H ) :  -0.1530 B( 23-C , 26-H ) :   1.2391
B( 23-C , 27-H ) :   0.7705

Dispersion correction           -0.001681020
FINAL SINGLE POINT ENERGY      -637.675788309840

DIPOLE MOMENT
-------------
                                X             Y             Z
Electronic contribution:     -1.53063       2.16266     -13.51027
Nuclear contribution   :      2.00823      -0.28769      14.57028
                        -----------------------------------------
Total Dipole Moment    :      0.47760       1.87497       1.06001
                        -----------------------------------------
Magnitude (a.u.)       :      2.20618
Magnitude (Debye)      :      5.60767

Rotational constants in cm-1:     0.033070     0.023715     0.016943
Rotational constants in MHz :   991.423248   710.957140   507.940500

                             ****ORCA TERMINATED NORMALLY****
TOTAL RUN TIME: 0 days 0 hours 6 minutes 19 seconds 19 msec
