                         Program Version 5.0.0 -  RELEASE  -
|  1> !M062X D3Zero RIJCOSX def2-TZVPD def2/J TightSCF xyzfile
|  2>
|  3> *xyzfile 0 1 D3.xyz
|  4>
|  5> %MaxCore 64000
|  6>
|  7> %pal nprocs 4
|  8> end
|  9>
| 10> %scf
| 11>   MaxIter 150
| 12> end
| 13>
| 14>
| 15>                          ****END OF INPUT****

CARTESIAN COORDINATES (ANGSTROEM)
---------------------------------
  C      2.234473   -2.989754   -2.397622
  N      2.756799   -2.945553   -3.765029
  C     -1.104325    0.251374   -2.860056
  C     -0.711893    0.842517   -4.218344
  H      0.154626    1.499800   -4.130909
  H     -1.538134    1.459222   -4.582671
  C     -0.397624   -0.205875   -5.288018
  C      1.987208   -2.590451   -4.818975
  N      0.743221   -3.017493   -4.913524
  C      2.499636   -1.848598   -5.803241
  H      3.309780   -1.292818   -5.558947
  H      1.801025   -1.304298   -6.289129
  H      3.716116   -2.628797   -3.829533
  H      0.395828   -3.627747   -4.185024
  H      0.039201   -2.454383   -5.371367
  F      0.617165   -0.005348   -5.998273
  O     -1.133173   -1.221380   -5.341465
  C      2.191199   -1.619503   -1.715492
  H      2.872783   -3.666368   -1.828014
  H      1.246188   -3.447444   -2.407842
  C      1.298729   -0.554314   -2.359773
  H      1.872917   -1.787955   -0.681310
  H      3.216809   -1.238432   -1.654428
  C     -0.196255   -0.863365   -2.325763
  H      1.612531   -0.371346   -3.393065
  H      1.480944    0.388638   -1.834444
  H     -0.404105   -1.761825   -2.909448
  H     -0.490439   -1.087880   -1.294131
  H     -1.143842    1.066711   -2.129680
  H     -2.114401   -0.156834   -2.930323

 Total Charge           Charge          ....    0
 Multiplicity           Mult            ....    1
 Number of Electrons    NEL             ....  102
 Basis Dimension        Dim             ....  640

ORBITAL ENERGIES
----------------

  NO   OCC          E(Eh)            E(eV)
   0   2.0000     -25.327290      -689.1906
   1   2.0000     -19.655686      -534.8584
   2   2.0000     -14.740823      -401.1182
   3   2.0000     -14.723865      -400.6567
   4   2.0000     -10.740683      -292.2688
   5   2.0000     -10.576454      -287.7999
   6   2.0000     -10.576234      -287.7940
   7   2.0000     -10.571504      -287.6652
   8   2.0000     -10.555780      -287.2374
   9   2.0000     -10.540085      -286.8103
  10   2.0000     -10.539819      -286.8031
  11   2.0000     -10.539416      -286.7921
  12   2.0000     -10.435475      -283.9637
  13   2.0000      -1.480616       -40.2896
  14   2.0000      -1.184502       -32.2319
  15   2.0000      -1.070145       -29.1201
  16   2.0000      -0.981704       -26.7135
  17   2.0000      -0.931386       -25.3443
  18   2.0000      -0.890043       -24.2193
  19   2.0000      -0.842628       -22.9291
  20   2.0000      -0.805664       -21.9232
  21   2.0000      -0.784675       -21.3521
  22   2.0000      -0.746987       -20.3265
  23   2.0000      -0.704808       -19.1788
  24   2.0000      -0.681291       -18.5389
  25   2.0000      -0.664763       -18.0891
  26   2.0000      -0.653431       -17.7808
  27   2.0000      -0.638111       -17.3639
  28   2.0000      -0.614584       -16.7237
  29   2.0000      -0.600787       -16.3483
  30   2.0000      -0.567406       -15.4399
  31   2.0000      -0.554130       -15.0786
  32   2.0000      -0.545896       -14.8546
  33   2.0000      -0.536329       -14.5943
  34   2.0000      -0.521136       -14.1808
  35   2.0000      -0.504583       -13.7304
  36   2.0000      -0.488172       -13.2838
  37   2.0000      -0.477047       -12.9811
  38   2.0000      -0.458407       -12.4739
  39   2.0000      -0.450732       -12.2650
  40   2.0000      -0.444770       -12.1028
  41   2.0000      -0.434206       -11.8153
  42   2.0000      -0.428342       -11.6558
  43   2.0000      -0.425011       -11.5651
  44   2.0000      -0.412365       -11.2210
  45   2.0000      -0.398367       -10.8401
  46   2.0000      -0.396260       -10.7828
  47   2.0000      -0.384834       -10.4719
  48   2.0000      -0.380161       -10.3447
  49   2.0000      -0.305427        -8.3111
  50   2.0000      -0.214430        -5.8349
  51   0.0000      -0.009081        -0.2471
  52   0.0000       0.006854         0.1865
  53   0.0000       0.016220         0.4414
  54   0.0000       0.019250         0.5238
  55   0.0000       0.027030         0.7355

MULLIKEN ATOMIC CHARGES
-----------------------
   0 C :   -0.835469
   1 N :   -0.430012
   2 C :   -0.921897
   3 C :   -0.684171
   4 H :    0.367442
   5 H :    0.416664
   6 C :    0.790362
   7 C :    0.513802
   8 N :   -0.714691
   9 C :   -0.978543
  10 H :    0.230614
  11 H :    0.415310
  12 H :    0.361640
  13 H :    0.313370
  14 H :    0.375926
  15 F :   -0.296665
  16 O :   -0.743875
  17 C :   -0.793037
  18 H :    0.324075
  19 H :    0.308014
  20 C :   -0.373170
  21 H :    0.378485
  22 H :    0.346667
  23 C :   -0.223199
  24 H :    0.123015
  25 H :    0.442018
  26 H :    0.105165
  27 H :    0.439487
  28 H :    0.392548
  29 H :    0.350125
Sum of atomic charges:   -0.0000000

LOEWDIN ATOMIC CHARGES
----------------------
   0 C :   -0.195747
   1 N :    0.026089
   2 C :   -0.191285
   3 C :   -0.094849
   4 H :    0.119838
   5 H :    0.129972
   6 C :   -0.444462
   7 C :   -0.566667
   8 N :    0.141296
   9 C :    0.001272
  10 H :    0.016710
  11 H :   -0.005270
  12 H :    0.138285
  13 H :    0.105393
  14 H :    0.058282
  15 F :    0.182153
  16 O :    0.067418
  17 C :   -0.187758
  18 H :    0.114183
  19 H :    0.102799
  20 C :   -0.203739
  21 H :    0.112197
  22 H :    0.112489
  23 C :   -0.209184
  24 H :    0.103355
  25 H :    0.119581
  26 H :    0.092518
  27 H :    0.120990
  28 H :    0.118059
  29 H :    0.116081

  Mayer bond orders larger than 0.100000
B(  0-C ,  1-N ) :   0.8251 B(  0-C ,  8-N ) :   0.1155 B(  0-C , 17-C ) :   0.5557
B(  0-C , 18-H ) :   1.0107 B(  0-C , 19-H ) :   0.9534 B(  1-N ,  7-C ) :   0.8223
B(  1-N , 12-H ) :   0.7920 B(  1-N , 17-C ) :  -0.1030 B(  2-C ,  3-C ) :   0.6696
B(  2-C , 20-C ) :   0.1910 B(  2-C , 23-C ) :   0.6404 B(  2-C , 28-H ) :   0.9424
B(  2-C , 29-H ) :   0.9449 B(  3-C ,  4-H ) :   0.9564 B(  3-C ,  5-H ) :   0.8698
B(  3-C ,  6-C ) :   0.8620 B(  3-C , 20-C ) :   0.1229 B(  3-C , 23-C ) :  -0.1468
B(  6-C , 15-F ) :   0.7478 B(  6-C , 16-O ) :   1.3549 B(  7-C ,  8-N ) :   0.6622
B(  7-C ,  9-C ) :   1.5609 B(  7-C , 10-H ) :  -0.1965 B(  7-C , 11-H ) :  -0.1319
B(  8-N , 13-H ) :   0.8520 B(  8-N , 14-H ) :   0.6991 B(  9-C , 10-H ) :   1.3223
B(  9-C , 11-H ) :   0.7203 B( 17-C , 20-C ) :   0.6726 B( 17-C , 21-H ) :   0.9843
B( 17-C , 22-H ) :   0.9605 B( 17-C , 23-C ) :   0.2052 B( 20-C , 23-C ) :   0.1008
B( 20-C , 24-H ) :   1.1736 B( 20-C , 25-H ) :   0.7575 B( 20-C , 26-H ) :  -0.2047
B( 23-C , 24-H ) :  -0.2083 B( 23-C , 26-H ) :   1.2289 B( 23-C , 27-H ) :   0.7828

Dispersion correction           -0.001673557
FINAL SINGLE POINT ENERGY      -637.680092885108

DIPOLE MOMENT
-------------
                                X             Y             Z
Electronic contribution:     -2.86940       1.36747     -12.72496
Nuclear contribution   :      2.27881      -0.10762      14.43322
                        -----------------------------------------
Total Dipole Moment    :     -0.59059       1.25985       1.70826
                        -----------------------------------------
Magnitude (a.u.)       :      2.20322
Magnitude (Debye)      :      5.60014

Rotational constants in cm-1:     0.033336     0.023673     0.017062
Rotational constants in MHz :   999.388459   709.685364   511.514310

                             ****ORCA TERMINATED NORMALLY****
TOTAL RUN TIME: 0 days 0 hours 6 minutes 17 seconds 776 msec
