                         Program Version 5.0.0 -  RELEASE  -
|  1> !M062X D3Zero RIJCOSX def2-TZVPD def2/J TightSCF xyzfile
|  2>
|  3> *xyzfile 0 1 D4.xyz
|  4>
|  5> %MaxCore 64000
|  6>
|  7> %pal nprocs 4
|  8> end
|  9>
| 10> %scf
| 11>   MaxIter 150
| 12> end
| 13>
| 14>
| 15>                          ****END OF INPUT****

CARTESIAN COORDINATES (ANGSTROEM)
---------------------------------
  C      2.234473   -2.989754   -2.397622
  C      2.756799   -2.945553   -3.765029
  C     -1.104325    0.251374   -2.860056
  C     -0.711893    0.842517   -4.218344
  H      0.154626    1.499800   -4.130909
  H     -1.538134    1.459222   -4.582671
  C     -0.397624   -0.205875   -5.288018
  C      1.987208   -2.590451   -4.818975
  N      0.743221   -3.017493   -4.913524
  N      2.499636   -1.848598   -5.803241
  H      3.309780   -1.292818   -5.558947
  H      1.801025   -1.304298   -6.289129
  H      3.716116   -2.628797   -3.829533
  H      0.395828   -3.627747   -4.185024
  H      0.039201   -2.454383   -5.371367
  O      0.617165   -0.005348   -5.998273
  F     -1.133173   -1.221380   -5.341465
  C      2.191199   -1.619503   -1.715492
  H      2.872783   -3.666368   -1.828014
  H      1.246188   -3.447444   -2.407842
  C      1.298729   -0.554314   -2.359773
  H      1.872917   -1.787955   -0.681310
  H      3.216809   -1.238432   -1.654428
  C     -0.196255   -0.863365   -2.325763
  H      1.612531   -0.371346   -3.393065
  H      1.480944    0.388638   -1.834444
  H     -0.404105   -1.761825   -2.909448
  H     -0.490439   -1.087880   -1.294131
  H     -1.143842    1.066711   -2.129680
  H     -2.114401   -0.156834   -2.930323

 Total Charge           Charge          ....    0
 Multiplicity           Mult            ....    1
 Number of Electrons    NEL             ....  102
 Basis Dimension        Dim             ....  640

ORBITAL ENERGIES
----------------

  NO   OCC          E(Eh)            E(eV)
   0   2.0000     -25.350952      -689.8345
   1   2.0000     -19.666719      -535.1586
   2   2.0000     -14.739173      -401.0733
   3   2.0000     -14.721231      -400.5851
   4   2.0000     -10.750070      -292.5243
   5   2.0000     -10.580438      -287.9083
   6   2.0000     -10.575234      -287.7667
   7   2.0000     -10.559013      -287.3254
   8   2.0000     -10.540263      -286.8151
   9   2.0000     -10.529212      -286.5144
  10   2.0000     -10.517772      -286.2031
  11   2.0000     -10.507897      -285.9344
  12   2.0000     -10.450196      -284.3643
  13   2.0000      -1.504477       -40.9389
  14   2.0000      -1.192928       -32.4612
  15   2.0000      -1.068439       -29.0737
  16   2.0000      -0.968000       -26.3406
  17   2.0000      -0.936316       -25.4784
  18   2.0000      -0.890821       -24.2405
  19   2.0000      -0.851812       -23.1790
  20   2.0000      -0.805215       -21.9110
  21   2.0000      -0.783978       -21.3331
  22   2.0000      -0.747758       -20.3475
  23   2.0000      -0.702962       -19.1286
  24   2.0000      -0.692731       -18.8502
  25   2.0000      -0.675110       -18.3707
  26   2.0000      -0.660068       -17.9614
  27   2.0000      -0.642337       -17.4789
  28   2.0000      -0.609877       -16.5956
  29   2.0000      -0.596060       -16.2196
  30   2.0000      -0.564182       -15.3522
  31   2.0000      -0.556833       -15.1522
  32   2.0000      -0.548510       -14.9257
  33   2.0000      -0.521934       -14.2026
  34   2.0000      -0.516155       -14.0453
  35   2.0000      -0.509014       -13.8510
  36   2.0000      -0.500337       -13.6149
  37   2.0000      -0.473971       -12.8974
  38   2.0000      -0.468139       -12.7387
  39   2.0000      -0.462512       -12.5856
  40   2.0000      -0.449454       -12.2303
  41   2.0000      -0.431581       -11.7439
  42   2.0000      -0.426861       -11.6155
  43   2.0000      -0.410155       -11.1609
  44   2.0000      -0.402363       -10.9489
  45   2.0000      -0.391188       -10.6448
  46   2.0000      -0.380630       -10.3575
  47   2.0000      -0.369049       -10.0423
  48   2.0000      -0.366076        -9.9614
  49   2.0000      -0.324538        -8.8311
  50   2.0000      -0.201643        -5.4870
  51   0.0000      -0.014707        -0.4002
  52   0.0000       0.000974         0.0265
  53   0.0000       0.017122         0.4659
  54   0.0000       0.022798         0.6204
  55   0.0000       0.028486         0.7752

MULLIKEN ATOMIC CHARGES
-----------------------
   0 C :   -0.480894
   1 C :   -0.863427
   2 C :   -0.924929
   3 C :   -0.644235
   4 H :    0.313952
   5 H :    0.407207
   6 C :    0.855372
   7 C :    0.561620
   8 N :   -0.719796
   9 N :   -0.868641
  10 H :    0.274450
  11 H :    0.467464
  12 H :    0.332281
  13 H :    0.305326
  14 H :    0.420288
  15 O :   -0.696321
  16 F :   -0.354948
  17 C :   -1.026523
  18 H :    0.302020
  19 H :    0.374160
  20 C :   -0.331472
  21 H :    0.363122
  22 H :    0.390814
  23 C :   -0.331543
  24 H :    0.116523
  25 H :    0.438619
  26 H :    0.140122
  27 H :    0.439400
  28 H :    0.390133
  29 H :    0.349856
Sum of atomic charges:   -0.0000000

LOEWDIN ATOMIC CHARGES
----------------------
   0 C :   -0.247333
   1 C :   -0.123637
   2 C :   -0.198259
   3 C :   -0.091817
   4 H :    0.126946
   5 H :    0.128694
   6 C :   -0.448480
   7 C :   -0.551878
   8 N :    0.147525
   9 N :    0.120926
  10 H :    0.115077
  11 H :    0.057564
  12 H :    0.061142
  13 H :    0.112940
  14 H :    0.071745
  15 O :    0.067280
  16 F :    0.183255
  17 C :   -0.201127
  18 H :    0.104015
  19 H :    0.091990
  20 C :   -0.204810
  21 H :    0.108392
  22 H :    0.113775
  23 C :   -0.209884
  24 H :    0.102608
  25 H :    0.118698
  26 H :    0.091666
  27 H :    0.121949
  28 H :    0.118662
  29 H :    0.112378

  Mayer bond orders larger than 0.100000
B(  0-C ,  1-C ) :   0.4792 B(  0-C ,  7-C ) :   0.1204 B(  0-C , 17-C ) :   0.5655
B(  0-C , 18-H ) :   1.0968 B(  0-C , 19-H ) :   0.8908 B(  0-C , 23-C ) :   0.1087
B(  1-C ,  7-C ) :   1.2958 B(  1-C , 12-H ) :   1.1672 B(  2-C ,  3-C ) :   0.5816
B(  2-C , 20-C ) :   0.1860 B(  2-C , 23-C ) :   0.5223 B(  2-C , 28-H ) :   0.9412
B(  2-C , 29-H ) :   0.9826 B(  3-C ,  4-H ) :   1.0334 B(  3-C ,  5-H ) :   0.8893
B(  3-C ,  6-C ) :   0.8748 B(  3-C , 20-C ) :   0.1464 B(  3-C , 23-C ) :  -0.1803
B(  6-C ,  8-N ) :   0.1125 B(  6-C , 15-O ) :   1.3460 B(  6-C , 16-F ) :   0.6752
B(  7-C ,  8-N ) :   0.8631 B(  7-C ,  9-N ) :   0.6346 B(  7-C , 12-H ) :  -0.2018
B(  8-N , 13-H ) :   0.8766 B(  8-N , 14-H ) :   0.6034 B(  9-N , 10-H ) :   0.9162
B(  9-N , 11-H ) :   0.6373 B( 17-C , 20-C ) :   0.7957 B( 17-C , 21-H ) :   0.9509
B( 17-C , 22-H ) :   0.9498 B( 17-C , 23-C ) :   0.2321 B( 20-C , 23-C ) :   0.1390
B( 20-C , 24-H ) :   1.1934 B( 20-C , 25-H ) :   0.7575 B( 20-C , 26-H ) :  -0.1814
B( 23-C , 24-H ) :  -0.1802 B( 23-C , 26-H ) :   1.2374 B( 23-C , 27-H ) :   0.7835

Dispersion correction           -0.001680681
FINAL SINGLE POINT ENERGY      -637.693945187769

DIPOLE MOMENT
-------------
                                X             Y             Z
Electronic contribution:     -6.01619       0.23537     -13.38056
Nuclear contribution   :      4.38568       1.15960      13.97148
                        -----------------------------------------
Total Dipole Moment    :     -1.63051       1.39497       0.59092
                        -----------------------------------------
Magnitude (a.u.)       :      2.22569
Magnitude (Debye)      :      5.65725

Rotational constants in cm-1:     0.032892     0.023844     0.017123
Rotational constants in MHz :   986.091711   714.821905   513.334630

                             ****ORCA TERMINATED NORMALLY****
TOTAL RUN TIME: 0 days 0 hours 6 minutes 18 seconds 214 msec
