                         Program Version 5.0.0 -  RELEASE  -
|  1> !M062X D3Zero RIJCOSX def2-TZVPD def2/J TightSCF xyzfile
|  2>
|  3> *xyzfile 0 1 D5.xyz
|  4>
|  5> %MaxCore 64000
|  6>
|  7> %pal nprocs 4
|  8> end
|  9>
| 10> %scf
| 11>   MaxIter 150
| 12> end
| 13>
| 14>
| 15>                          ****END OF INPUT****

CARTESIAN COORDINATES (ANGSTROEM)
---------------------------------
  C      2.234473   -2.989754   -2.397622
  N      2.756799   -2.945553   -3.765029
  C     -1.104325    0.251374   -2.860056
  C     -0.711893    0.842517   -4.218344
  H      0.154626    1.499800   -4.130909
  H     -1.538134    1.459222   -4.582671
  C     -0.397624   -0.205875   -5.288018
  C      1.987208   -2.590451   -4.818975
  C      0.743221   -3.017493   -4.913524
  N      2.499636   -1.848598   -5.803241
  H      3.309780   -1.292818   -5.558947
  H      1.801025   -1.304298   -6.289129
  H      3.716116   -2.628797   -3.829533
  H      0.395828   -3.627747   -4.185024
  H      0.039201   -2.454383   -5.371367
  O      0.617165   -0.005348   -5.998273
  F     -1.133173   -1.221380   -5.341465
  C      2.191199   -1.619503   -1.715492
  H      2.872783   -3.666368   -1.828014
  H      1.246188   -3.447444   -2.407842
  C      1.298729   -0.554314   -2.359773
  H      1.872917   -1.787955   -0.681310
  H      3.216809   -1.238432   -1.654428
  C     -0.196255   -0.863365   -2.325763
  H      1.612531   -0.371346   -3.393065
  H      1.480944    0.388638   -1.834444
  H     -0.404105   -1.761825   -2.909448
  H     -0.490439   -1.087880   -1.294131
  H     -1.143842    1.066711   -2.129680
  H     -2.114401   -0.156834   -2.930323

 Total Charge           Charge          ....    0
 Multiplicity           Mult            ....    1
 Number of Electrons    NEL             ....  102
 Basis Dimension        Dim             ....  640

ORBITAL ENERGIES
----------------

  NO   OCC          E(Eh)            E(eV)
   0   2.0000     -25.323196      -689.0792
   1   2.0000     -19.649555      -534.6916
   2   2.0000     -14.741091      -401.1255
   3   2.0000     -14.720721      -400.5712
   4   2.0000     -10.734270      -292.0943
   5   2.0000     -10.572327      -287.6876
   6   2.0000     -10.571242      -287.6581
   7   2.0000     -10.565272      -287.4957
   8   2.0000     -10.553317      -287.1704
   9   2.0000     -10.536471      -286.7120
  10   2.0000     -10.536140      -286.7030
  11   2.0000     -10.535753      -286.6924
  12   2.0000     -10.439610      -284.0762
  13   2.0000      -1.477698       -40.2102
  14   2.0000      -1.176122       -32.0039
  15   2.0000      -1.066514       -29.0213
  16   2.0000      -0.980091       -26.6696
  17   2.0000      -0.929199       -25.2848
  18   2.0000      -0.884631       -24.0720
  19   2.0000      -0.831957       -22.6387
  20   2.0000      -0.801650       -21.8140
  21   2.0000      -0.783294       -21.3145
  22   2.0000      -0.756652       -20.5895
  23   2.0000      -0.705723       -19.2037
  24   2.0000      -0.675046       -18.3689
  25   2.0000      -0.662047       -18.0152
  26   2.0000      -0.649029       -17.6610
  27   2.0000      -0.625135       -17.0108
  28   2.0000      -0.604028       -16.4364
  29   2.0000      -0.598686       -16.2911
  30   2.0000      -0.563544       -15.3348
  31   2.0000      -0.554935       -15.1005
  32   2.0000      -0.546096       -14.8600
  33   2.0000      -0.522426       -14.2159
  34   2.0000      -0.514746       -14.0069
  35   2.0000      -0.495846       -13.4926
  36   2.0000      -0.481626       -13.1057
  37   2.0000      -0.477449       -12.9920
  38   2.0000      -0.462600       -12.5880
  39   2.0000      -0.459782       -12.5113
  40   2.0000      -0.443708       -12.0739
  41   2.0000      -0.436069       -11.8660
  42   2.0000      -0.423711       -11.5298
  43   2.0000      -0.421587       -11.4720
  44   2.0000      -0.411122       -11.1872
  45   2.0000      -0.394585       -10.7372
  46   2.0000      -0.390087       -10.6148
  47   2.0000      -0.380791       -10.3618
  48   2.0000      -0.372995       -10.1497
  49   2.0000      -0.302708        -8.2371
  50   2.0000      -0.220606        -6.0030
  51   0.0000      -0.000941        -0.0256
  52   0.0000       0.007668         0.2087
  53   0.0000       0.017960         0.4887
  54   0.0000       0.021268         0.5787
  55   0.0000       0.030221         0.8223

MULLIKEN ATOMIC CHARGES
-----------------------
   0 C :   -0.846087
   1 N :   -0.415738
   2 C :   -0.953189
   3 C :   -0.659447
   4 H :    0.319881
   5 H :    0.411583
   6 C :    0.863480
   7 C :    0.523291
   8 C :   -1.230507
   9 N :   -0.793334
  10 H :    0.265389
  11 H :    0.408493
  12 H :    0.333487
  13 H :    0.523650
  14 H :    0.467094
  15 O :   -0.717403
  16 F :   -0.314693
  17 C :   -0.745412
  18 H :    0.342501
  19 H :    0.284999
  20 C :   -0.419122
  21 H :    0.387654
  22 H :    0.341185
  23 C :   -0.233784
  24 H :    0.160029
  25 H :    0.450219
  26 H :    0.071195
  27 H :    0.442730
  28 H :    0.382416
  29 H :    0.349439
Sum of atomic charges:   -0.0000000

LOEWDIN ATOMIC CHARGES
----------------------
   0 C :   -0.191907
   1 N :    0.024071
   2 C :   -0.196670
   3 C :   -0.092080
   4 H :    0.124887
   5 H :    0.127656
   6 C :   -0.449424
   7 C :   -0.557378
   8 C :    0.019981
   9 N :    0.118006
  10 H :    0.103819
  11 H :    0.064543
  12 H :    0.132618
  13 H :    0.026293
  14 H :    0.000403
  15 O :    0.060236
  16 F :    0.175784
  17 C :   -0.187805
  18 H :    0.114952
  19 H :    0.105761
  20 C :   -0.204804
  21 H :    0.112614
  22 H :    0.110281
  23 C :   -0.208463
  24 H :    0.102150
  25 H :    0.119107
  26 H :    0.094300
  27 H :    0.120767
  28 H :    0.116877
  29 H :    0.113427

  Mayer bond orders larger than 0.100000
B(  0-C ,  1-N ) :   0.7649 B(  0-C , 17-C ) :   0.5846 B(  0-C , 18-H ) :   0.9657
B(  0-C , 19-H ) :   0.9699 B(  1-N ,  7-C ) :   0.7635 B(  1-N , 12-H ) :   0.8404
B(  2-C ,  3-C ) :   0.5912 B(  2-C , 20-C ) :   0.1800 B(  2-C , 23-C ) :   0.5586
B(  2-C , 28-H ) :   0.9524 B(  2-C , 29-H ) :   0.9675 B(  3-C ,  4-H ) :   1.0287
B(  3-C ,  5-H ) :   0.8837 B(  3-C ,  6-C ) :   0.8730 B(  3-C , 20-C ) :   0.1455
B(  3-C , 23-C ) :  -0.1959 B(  6-C , 15-O ) :   1.2960 B(  6-C , 16-F ) :   0.7628
B(  7-C ,  8-C ) :   1.6828 B(  7-C ,  9-N ) :   0.6234 B(  7-C , 14-H ) :  -0.1980
B(  7-C , 15-O ) :   0.1088 B(  8-C , 13-H ) :   0.8756 B(  8-C , 14-H ) :   0.6081
B(  8-C , 20-C ) :   0.1251 B(  8-C , 23-C ) :  -0.1533 B(  9-N , 10-H ) :   0.9104
B(  9-N , 11-H ) :   0.7125 B( 13-H , 14-H ) :   0.1449 B( 17-C , 20-C ) :   0.6286
B( 17-C , 21-H ) :   0.9566 B( 17-C , 22-H ) :   0.9748 B( 17-C , 23-C ) :   0.1894
B( 20-C , 23-C ) :   0.2409 B( 20-C , 24-H ) :   1.1362 B( 20-C , 25-H ) :   0.7467
B( 20-C , 26-H ) :  -0.1602 B( 23-C , 24-H ) :  -0.1397 B( 23-C , 26-H ) :   1.2449
B( 23-C , 27-H ) :   0.7781

Dispersion correction           -0.001688026
FINAL SINGLE POINT ENERGY      -637.686249325742

DIPOLE MOMENT
-------------
                                X             Y             Z
Electronic contribution:     -4.40223       0.19642     -12.38407
Nuclear contribution   :      4.07548       1.14852      13.79455
                        -----------------------------------------
Total Dipole Moment    :     -0.32674       1.34494       1.41048
                        -----------------------------------------
Magnitude (a.u.)       :      1.97613
Magnitude (Debye)      :      5.02291

Rotational constants in cm-1:     0.033274     0.023559     0.016968
Rotational constants in MHz :   997.539108   706.293545   508.690532

                             ****ORCA TERMINATED NORMALLY****
TOTAL RUN TIME: 0 days 0 hours 5 minutes 52 seconds 763 msec
