                         Program Version 5.0.0 -  RELEASE  -
|  1> !M062X D3Zero RIJCOSX def2-TZVPD def2/J TightSCF xyzfile
|  2>
|  3> *xyzfile 0 1 D6.xyz
|  4>
|  5> %MaxCore 64000
|  6>
|  7> %pal nprocs 4
|  8> end
|  9>
| 10> %scf
| 11>   MaxIter 150
| 12> end
| 13>
| 14>
| 15>                          ****END OF INPUT****

CARTESIAN COORDINATES (ANGSTROEM)
---------------------------------
  C      2.234473   -2.989754   -2.397622
  N      2.756799   -2.945553   -3.765029
  C     -1.104325    0.251374   -2.860056
  C     -0.711893    0.842517   -4.218344
  H      0.154626    1.499800   -4.130909
  H     -1.538134    1.459222   -4.582671
  C     -0.397624   -0.205875   -5.288018
  C      1.987208   -2.590451   -4.818975
  N      0.743221   -3.017493   -4.913524
  C      2.499636   -1.848598   -5.803241
  H      3.309780   -1.292818   -5.558947
  H      1.801025   -1.304298   -6.289129
  H      3.716116   -2.628797   -3.829533
  H      0.395828   -3.627747   -4.185024
  H      0.039201   -2.454383   -5.371367
  O      0.617165   -0.005348   -5.998273
  F     -1.133173   -1.221380   -5.341465
  C      2.191199   -1.619503   -1.715492
  H      2.872783   -3.666368   -1.828014
  H      1.246188   -3.447444   -2.407842
  C      1.298729   -0.554314   -2.359773
  H      1.872917   -1.787955   -0.681310
  H      3.216809   -1.238432   -1.654428
  C     -0.196255   -0.863365   -2.325763
  H      1.612531   -0.371346   -3.393065
  H      1.480944    0.388638   -1.834444
  H     -0.404105   -1.761825   -2.909448
  H     -0.490439   -1.087880   -1.294131
  H     -1.143842    1.066711   -2.129680
  H     -2.114401   -0.156834   -2.930323

 Total Charge           Charge          ....    0
 Multiplicity           Mult            ....    1
 Number of Electrons    NEL             ....  102
 Basis Dimension        Dim             ....  640

ORBITAL ENERGIES
----------------

  NO   OCC          E(Eh)            E(eV)
   0   2.0000     -25.337413      -689.4661
   1   2.0000     -19.646851      -534.6180
   2   2.0000     -14.738757      -401.0620
   3   2.0000     -14.735960      -400.9859
   4   2.0000     -10.731036      -292.0063
   5   2.0000     -10.572644      -287.6963
   6   2.0000     -10.572101      -287.6815
   7   2.0000     -10.571048      -287.6528
   8   2.0000     -10.557388      -287.2811
   9   2.0000     -10.544518      -286.9309
  10   2.0000     -10.538718      -286.7731
  11   2.0000     -10.537563      -286.7417
  12   2.0000     -10.426445      -283.7180
  13   2.0000      -1.491384       -40.5826
  14   2.0000      -1.172365       -31.9017
  15   2.0000      -1.071696       -29.1623
  16   2.0000      -0.985834       -26.8259
  17   2.0000      -0.933712       -25.4076
  18   2.0000      -0.889477       -24.2039
  19   2.0000      -0.839658       -22.8483
  20   2.0000      -0.806322       -21.9411
  21   2.0000      -0.780574       -21.2405
  22   2.0000      -0.754093       -20.5199
  23   2.0000      -0.704868       -19.1804
  24   2.0000      -0.694107       -18.8876
  25   2.0000      -0.669369       -18.2145
  26   2.0000      -0.655811       -17.8455
  27   2.0000      -0.651367       -17.7246
  28   2.0000      -0.605457       -16.4753
  29   2.0000      -0.592993       -16.1362
  30   2.0000      -0.566001       -15.4017
  31   2.0000      -0.553731       -15.0678
  32   2.0000      -0.542909       -14.7733
  33   2.0000      -0.533703       -14.5228
  34   2.0000      -0.518145       -14.0994
  35   2.0000      -0.506692       -13.7878
  36   2.0000      -0.488426       -13.2907
  37   2.0000      -0.477514       -12.9938
  38   2.0000      -0.458211       -12.4686
  39   2.0000      -0.450658       -12.2630
  40   2.0000      -0.447381       -12.1739
  41   2.0000      -0.437617       -11.9082
  42   2.0000      -0.432124       -11.7587
  43   2.0000      -0.425855       -11.5881
  44   2.0000      -0.406981       -11.0745
  45   2.0000      -0.394981       -10.7480
  46   2.0000      -0.392398       -10.6777
  47   2.0000      -0.385215       -10.4822
  48   2.0000      -0.359804        -9.7908
  49   2.0000      -0.309271        -8.4157
  50   2.0000      -0.209308        -5.6956
  51   0.0000      -0.002088        -0.0568
  52   0.0000       0.005204         0.1416
  53   0.0000       0.016578         0.4511
  54   0.0000       0.017330         0.4716
  55   0.0000       0.026926         0.7327

MULLIKEN ATOMIC CHARGES
-----------------------
   0 C :   -0.829845
   1 N :   -0.430683
   2 C :   -0.933011
   3 C :   -0.636306
   4 H :    0.311126
   5 H :    0.407183
   6 C :    0.744849
   7 C :    0.431019
   8 N :   -0.737960
   9 C :   -0.898358
  10 H :    0.208013
  11 H :    0.465690
  12 H :    0.364620
  13 H :    0.326059
  14 H :    0.390074
  15 O :   -0.627698
  16 F :   -0.369844
  17 C :   -0.789916
  18 H :    0.321812
  19 H :    0.302586
  20 C :   -0.337015
  21 H :    0.377673
  22 H :    0.348164
  23 C :   -0.274671
  24 H :    0.124554
  25 H :    0.446891
  26 H :    0.121155
  27 H :    0.435482
  28 H :    0.387245
  29 H :    0.351111
Sum of atomic charges:   -0.0000000

LOEWDIN ATOMIC CHARGES
----------------------
   0 C :   -0.197616
   1 N :    0.024229
   2 C :   -0.198781
   3 C :   -0.092470
   4 H :    0.126743
   5 H :    0.127325
   6 C :   -0.455029
   7 C :   -0.566070
   8 N :    0.142986
   9 C :    0.005698
  10 H :    0.021122
  11 H :   -0.016472
  12 H :    0.138811
  13 H :    0.104331
  14 H :    0.079265
  15 O :    0.071342
  16 F :    0.177985
  17 C :   -0.188173
  18 H :    0.113847
  19 H :    0.101289
  20 C :   -0.201494
  21 H :    0.111446
  22 H :    0.113093
  23 C :   -0.211956
  24 H :    0.106452
  25 H :    0.120476
  26 H :    0.090982
  27 H :    0.120461
  28 H :    0.117726
  29 H :    0.112453

  Mayer bond orders larger than 0.100000
B(  0-C ,  1-N ) :   0.8259 B(  0-C ,  8-N ) :   0.1100 B(  0-C , 17-C ) :   0.5520
B(  0-C , 18-H ) :   1.0162 B(  0-C , 19-H ) :   0.9534 B(  1-N ,  7-C ) :   0.8153
B(  1-N , 12-H ) :   0.7862 B(  1-N , 17-C ) :  -0.1050 B(  2-C ,  3-C ) :   0.5948
B(  2-C , 20-C ) :   0.1843 B(  2-C , 23-C ) :   0.5431 B(  2-C , 28-H ) :   0.9455
B(  2-C , 29-H ) :   0.9772 B(  3-C ,  4-H ) :   1.0247 B(  3-C ,  5-H ) :   0.8908
B(  3-C ,  6-C ) :   0.8801 B(  3-C , 20-C ) :   0.1229 B(  3-C , 23-C ) :  -0.1906
B(  6-C ,  8-N ) :   0.1075 B(  6-C , 15-O ) :   1.4895 B(  6-C , 16-F ) :   0.6404
B(  7-C ,  8-N ) :   0.6961 B(  7-C ,  9-C ) :   1.6205 B(  7-C , 10-H ) :  -0.1810
B(  7-C , 11-H ) :  -0.1383 B(  8-N , 13-H ) :   0.8433 B(  8-N , 14-H ) :   0.6653
B(  9-C , 10-H ) :   1.3254 B(  9-C , 11-H ) :   0.7066 B( 11-H , 15-O ) :  -0.1239
B( 17-C , 20-C ) :   0.6758 B( 17-C , 21-H ) :   0.9865 B( 17-C , 22-H ) :   0.9601
B( 17-C , 23-C ) :   0.2181 B( 20-C , 23-C ) :   0.1288 B( 20-C , 24-H ) :   1.1634
B( 20-C , 25-H ) :   0.7451 B( 20-C , 26-H ) :  -0.2039 B( 23-C , 24-H ) :  -0.1814
B( 23-C , 26-H ) :   1.2274 B( 23-C , 27-H ) :   0.7956

Dispersion correction           -0.001679901
FINAL SINGLE POINT ENERGY      -637.670159759478

DIPOLE MOMENT
-------------
                                X             Y             Z
Electronic contribution:     -5.70952      -0.67106     -11.69680
Nuclear contribution   :      4.34606       1.32859      13.65749
                        -----------------------------------------
Total Dipole Moment    :     -1.36346       0.65753       1.96068
                        -----------------------------------------
Magnitude (a.u.)       :      2.47702
Magnitude (Debye)      :      6.29609

Rotational constants in cm-1:     0.033551     0.023540     0.017085
Rotational constants in MHz :  1005.818710   705.725032   512.192443

                             ****ORCA TERMINATED NORMALLY****
TOTAL RUN TIME: 0 days 0 hours 6 minutes 17 seconds 732 msec
