                         Program Version 5.0.0 -  RELEASE  -
|  1> !LC-PBE RIJCOSX def2-SVPD def2/J TightSCF
|  2> *xyz -1 1
|  3> C         -0.98480        1.28474       -2.92869
|  4> C         -0.10608        1.76991       -4.08984
|  5> H         -0.34774        2.82220       -4.26294
|  6> H          0.94968        1.74588       -3.80878
|  7> C         -0.25875        1.00432       -5.40983
|  8> C          0.39596       -0.37070       -5.33994
|  9> H          0.23915        1.56939       -6.20125
| 10> H         -1.30936        0.88869       -5.68245
| 11> O         -0.32633       -1.39040       -5.49128
| 12> O          1.61941       -0.40073       -5.03683
| 13> H         -2.01317        1.31546       -3.22263
| 14> H         -0.83724        1.91975       -2.08023
| 15> H         -0.71656        0.28077       -2.67373
| 16> *
| 17> %MaxCore 64000
| 18>
| 19> %pal nprocs 4
| 20> end
| 21>
| 22> %scf
| 23>   MaxIter 150
| 24> end
| 25>
| 26>
| 27>                          ****END OF INPUT****

CARTESIAN COORDINATES (ANGSTROEM)
---------------------------------
  C     -0.984800    1.284740   -2.928690
  C     -0.106080    1.769910   -4.089840
  H     -0.347740    2.822200   -4.262940
  H      0.949680    1.745880   -3.808780
  C     -0.258750    1.004320   -5.409830
  C      0.395960   -0.370700   -5.339940
  H      0.239150    1.569390   -6.201250
  H     -1.309360    0.888690   -5.682450
  O     -0.326330   -1.390400   -5.491280
  O      1.619410   -0.400730   -5.036830
  H     -2.013170    1.315460   -3.222630
  H     -0.837240    1.919750   -2.080230
  H     -0.716560    0.280770   -2.673730

 Total Charge           Charge          ....   -1
 Multiplicity           Mult            ....    1
 Number of Electrons    NEL             ....   48
 Basis Dimension        Dim             ....  182

ORBITAL ENERGIES
----------------

  NO   OCC          E(Eh)            E(eV)
   0   2.0000     -18.729987      -509.6689
   1   2.0000     -18.728817      -509.6370
   2   2.0000     -10.021283      -272.6930
   3   2.0000      -9.981457      -271.6093
   4   2.0000      -9.978201      -271.5207
   5   2.0000      -9.957587      -270.9597
   6   2.0000      -0.982186       -26.7267
   7   2.0000      -0.877333       -23.8734
   8   2.0000      -0.813429       -22.1345
   9   2.0000      -0.712627       -19.3916
  10   2.0000      -0.604122       -16.4390
  11   2.0000      -0.482417       -13.1272
  12   2.0000      -0.452739       -12.3197
  13   2.0000      -0.432284       -11.7631
  14   2.0000      -0.401913       -10.9366
  15   2.0000      -0.380915       -10.3652
  16   2.0000      -0.361752        -9.8438
  17   2.0000      -0.347869        -9.4660
  18   2.0000      -0.325954        -8.8697
  19   2.0000      -0.308560        -8.3963
  20   2.0000      -0.301301        -8.1988
  21   2.0000      -0.180631        -4.9152
  22   2.0000      -0.177831        -4.8390
  23   2.0000      -0.165140        -4.4937
  24   0.0000       0.211970         5.7680
  25   0.0000       0.236127         6.4254
  26   0.0000       0.250330         6.8118
  27   0.0000       0.261467         7.1149
  28   0.0000       0.294684         8.0188

MULLIKEN ATOMIC CHARGES
-----------------------
   0 C :    0.430749
   1 C :   -0.554321
   2 H :   -0.043477
   3 H :    0.052980
   4 C :   -0.061257
   5 C :    0.298896
   6 H :    0.070651
   7 H :    0.056037
   8 O :   -0.629935
   9 O :   -0.667796
  10 H :    0.035225
  11 H :   -0.000860
  12 H :    0.013109
Sum of atomic charges:   -1.0000000

LOEWDIN ATOMIC CHARGES
----------------------
   0 C :    0.083465
   1 C :   -0.108685
   2 H :    0.009195
   3 H :    0.021365
   4 C :   -0.025511
   5 C :   -0.325246
   6 H :    0.024579
   7 H :    0.017876
   8 O :   -0.327349
   9 O :   -0.325127
  10 H :   -0.015953
  11 H :   -0.024297
  12 H :   -0.004311

  Mayer bond orders larger than 0.100000
B(  0-C ,  1-C ) :   1.2907 B(  0-C , 10-H ) :   0.8272 B(  0-C , 11-H ) :   0.8173
B(  0-C , 12-H ) :   0.8744 B(  1-C ,  2-H ) :   0.9856 B(  1-C ,  3-H ) :   0.9580
B(  1-C ,  4-C ) :   1.2478 B(  1-C ,  6-H ) :   0.1085 B(  1-C ,  7-H ) :   0.1129
B(  1-C , 10-H ) :   0.1687 B(  1-C , 11-H ) :   0.1697 B(  1-C , 12-H ) :   0.1796
B(  3-H ,  4-C ) :   0.1226 B(  4-C ,  5-C ) :   0.9967 B(  4-C ,  6-H ) :   0.8638
B(  4-C ,  7-H ) :   0.9135 B(  5-C ,  7-H ) :   0.1725 B(  5-C ,  8-O ) :   1.5753
B(  5-C ,  9-O ) :   1.5817

FINAL SINGLE POINT ENERGY      -306.023423958322

DIPOLE MOMENT
-------------
                                X             Y             Z
Electronic contribution:      3.08346      -5.56171      -3.86776
Nuclear contribution   :     -4.15791       7.87420       4.69333
                        -----------------------------------------
Total Dipole Moment    :     -1.07445       2.31249       0.82557
                        -----------------------------------------
Magnitude (a.u.)       :      2.68023
Magnitude (Debye)      :      6.81260

Rotational constants in cm-1:     0.200385     0.078723     0.072676
Rotational constants in MHz :  6007.394681  2360.059351  2178.761275

                             ****ORCA TERMINATED NORMALLY****
TOTAL RUN TIME: 0 days 0 hours 0 minutes 19 seconds 794 msec
