                         Program Version 5.0.0 -  RELEASE  -
|  1> !LC-PBE RIJCOSX def2-SVPD def2/J TightSCF
|  2> *xyz 1 1
|  3> C          0.81607       -2.10149       -2.18655
|  4> H          1.69623       -2.36869       -1.60046
|  5> N          1.10055       -2.46749       -3.59927
|  6> C          0.51624       -0.61363       -2.03937
|  7> H         -0.02007       -2.71285       -1.84084
|  8> C         -0.86862       -0.19392       -2.54630
|  9> H          1.70061       -1.75723       -4.07838
| 10> H          0.29386       -2.35977       -4.25632
| 11> H          1.50132       -3.42848       -3.69491
| 12> H          1.29904       -0.05680       -2.55898
| 13> H          0.61239       -0.36558       -0.97917
| 14> H         -0.95781       -0.43872       -3.58410
| 15> H         -0.99113        0.86113       -2.41690
| 16> H         -1.62334       -0.71130       -1.99167
| 17> *
| 18> %MaxCore 64000
| 19>
| 20> %pal nprocs 4
| 21> end
| 22>
| 23> %scf
| 24>   MaxIter 150
| 25> end
| 26>
| 27>
| 28>                          ****END OF INPUT****

CARTESIAN COORDINATES (ANGSTROEM)
---------------------------------
  C      0.816070   -2.101490   -2.186550
  H      1.696230   -2.368690   -1.600460
  N      1.100550   -2.467490   -3.599270
  C      0.516240   -0.613630   -2.039370
  H     -0.020070   -2.712850   -1.840840
  C     -0.868620   -0.193920   -2.546300
  H      1.700610   -1.757230   -4.078380
  H      0.293860   -2.359770   -4.256320
  H      1.501320   -3.428480   -3.694910
  H      1.299040   -0.056800   -2.558980
  H      0.612390   -0.365580   -0.979170
  H     -0.957810   -0.438720   -3.584100
  H     -0.991130    0.861130   -2.416900
  H     -1.623340   -0.711300   -1.991670

 Total Charge           Charge          ....    1
 Multiplicity           Mult            ....    1
 Number of Electrons    NEL             ....   34
 Basis Dimension        Dim             ....  160

ORBITAL ENERGIES
----------------

  NO   OCC          E(Eh)            E(eV)
   0   2.0000     -14.563347      -396.2888
   1   2.0000     -10.374975      -282.3174
   2   2.0000     -10.307238      -280.4742
   3   2.0000     -10.269777      -279.4548
   4   2.0000      -1.372137       -37.3377
   5   2.0000      -1.144071       -31.1318
   6   2.0000      -1.047891       -28.5146
   7   2.0000      -0.959411       -26.1069
   8   2.0000      -0.927776       -25.2461
   9   2.0000      -0.908106       -24.7108
  10   2.0000      -0.838484       -22.8163
  11   2.0000      -0.767307       -20.8795
  12   2.0000      -0.749685       -20.4000
  13   2.0000      -0.721886       -19.6435
  14   2.0000      -0.655320       -17.8322
  15   2.0000      -0.648534       -17.6475
  16   2.0000      -0.642865       -17.4933
  17   0.0000      -0.107417        -2.9230
  18   0.0000      -0.052714        -1.4344
  19   0.0000      -0.050012        -1.3609
  20   0.0000      -0.038256        -1.0410
  21   0.0000      -0.009839        -0.2677

MULLIKEN ATOMIC CHARGES
-----------------------
   0 C :    0.435635
   1 H :    0.048531
   2 N :   -0.982969
   3 C :   -0.460298
   4 H :    0.037811
   5 C :    0.493974
   6 H :    0.498268
   7 H :    0.386652
   8 H :    0.429988
   9 H :    0.014571
  10 H :    0.035667
  11 H :   -0.078156
  12 H :    0.058977
  13 H :    0.081349
Sum of atomic charges:    1.0000000

LOEWDIN ATOMIC CHARGES
----------------------
   0 C :    0.059119
   1 H :    0.062681
   2 N :    0.294076
   3 C :   -0.071348
   4 H :    0.065452
   5 C :    0.118743
   6 H :    0.120401
   7 H :    0.115497
   8 H :    0.130383
   9 H :    0.039457
  10 H :    0.055710
  11 H :   -0.014227
  12 H :    0.014827
  13 H :    0.009231

  Mayer bond orders larger than 0.100000
B(  0-C ,  1-H ) :   0.9296 B(  0-C ,  2-N ) :   0.7117 B(  0-C ,  3-C ) :   1.1442
B(  0-C ,  4-H ) :   0.9259 B(  2-N ,  4-H ) :   0.1079 B(  2-N ,  6-H ) :   0.6136
B(  2-N ,  7-H ) :   0.7736 B(  2-N ,  8-H ) :   0.6735 B(  3-C ,  5-C ) :   1.2583
B(  3-C ,  9-H ) :   0.9714 B(  3-C , 10-H ) :   0.9966 B(  3-C , 11-H ) :   0.1463
B(  3-C , 12-H ) :   0.1589 B(  3-C , 13-H ) :   0.1430 B(  5-C , 11-H ) :   0.8713
B(  5-C , 12-H ) :   0.8390 B(  5-C , 13-H ) :   0.8311

FINAL SINGLE POINT ENERGY      -174.139045642396

DIPOLE MOMENT
-------------
                                X             Y             Z
Electronic contribution:      1.50303      -1.86091      -0.72912
Nuclear contribution   :     -0.52914       0.42437      -0.52967
                        -----------------------------------------
Total Dipole Moment    :      0.97389      -1.43654      -1.25880
                        -----------------------------------------
Magnitude (a.u.)       :      2.14399
Magnitude (Debye)      :      5.44958

Rotational constants in cm-1:     0.462856     0.150885     0.132529
Rotational constants in MHz : 13876.083919  4523.416930  3973.119974

                             ****ORCA TERMINATED NORMALLY****
TOTAL RUN TIME: 0 days 0 hours 0 minutes 13 seconds 996 msec
