                         Program Version 5.0.0 -  RELEASE  -
|  1> !LC-PBE RIJCOSX def2-SVPD def2/J TightSCF
|  2> *xyz 0 1
|  3> C         -0.98480        1.28474       -2.92869
|  4> C         -0.10608        1.76991       -4.08984
|  5> H         -0.34774        2.82220       -4.26294
|  6> H          0.94968        1.74588       -3.80878
|  7> C         -0.25875        1.00432       -5.40983
|  8> C          0.39596       -0.37070       -5.33994
|  9> H          0.23915        1.56939       -6.20125
| 10> H         -1.30936        0.88869       -5.68245
| 11> F         -0.32633       -1.39040       -5.49128
| 12> O          1.61941       -0.40073       -5.03683
| 13> H         -2.01317        1.31546       -3.22263
| 14> H         -0.83724        1.91975       -2.08023
| 15> H         -0.71656        0.28077       -2.67373
| 16> *
| 17> %MaxCore 64000
| 18>
| 19> %pal nprocs 4
| 20> end
| 21>
| 22> %scf
| 23>   MaxIter 150
| 24> end
| 25>
| 26>
| 27>                          ****END OF INPUT****

CARTESIAN COORDINATES (ANGSTROEM)
---------------------------------
  C     -0.984800    1.284740   -2.928690
  C     -0.106080    1.769910   -4.089840
  H     -0.347740    2.822200   -4.262940
  H      0.949680    1.745880   -3.808780
  C     -0.258750    1.004320   -5.409830
  C      0.395960   -0.370700   -5.339940
  H      0.239150    1.569390   -6.201250
  H     -1.309360    0.888690   -5.682450
  F     -0.326330   -1.390400   -5.491280
  O      1.619410   -0.400730   -5.036830
  H     -2.013170    1.315460   -3.222630
  H     -0.837240    1.919750   -2.080230
  H     -0.716560    0.280770   -2.673730

 Total Charge           Charge          ....    0
 Multiplicity           Mult            ....    1
 Number of Electrons    NEL             ....   48
 Basis Dimension        Dim             ....  182

ORBITAL ENERGIES
----------------

  NO   OCC          E(Eh)            E(eV)
   0   2.0000     -24.581616      -668.8998
   1   2.0000     -19.003348      -517.1074
   2   2.0000     -10.320084      -280.8238
   3   2.0000     -10.162458      -276.5345
   4   2.0000     -10.144704      -276.0514
   5   2.0000     -10.122755      -275.4542
   6   2.0000      -1.466045       -39.8931
   7   2.0000      -1.191124       -32.4121
   8   2.0000      -0.990166       -26.9438
   9   2.0000      -0.899399       -24.4739
  10   2.0000      -0.821657       -22.3584
  11   2.0000      -0.769852       -20.9487
  12   2.0000      -0.710107       -19.3230
  13   2.0000      -0.690382       -18.7863
  14   2.0000      -0.662155       -18.0181
  15   2.0000      -0.610333       -16.6080
  16   2.0000      -0.601410       -16.3652
  17   2.0000      -0.563591       -15.3361
  18   2.0000      -0.545536       -14.8448
  19   2.0000      -0.517555       -14.0834
  20   2.0000      -0.485727       -13.2173
  21   2.0000      -0.479679       -13.0527
  22   2.0000      -0.476667       -12.9708
  23   2.0000      -0.434434       -11.8216
  24   0.0000       0.059531         1.6199
  25   0.0000       0.083489         2.2718
  26   0.0000       0.107945         2.9373
  27   0.0000       0.117149         3.1878
  28   0.0000       0.124459         3.3867

MULLIKEN ATOMIC CHARGES
-----------------------
   0 C :    0.435394
   1 C :   -0.517741
   2 H :   -0.005401
   3 H :    0.061788
   4 C :   -0.155844
   5 C :    0.640070
   6 H :    0.134682
   7 H :    0.104887
   8 F :   -0.323081
   9 O :   -0.450303
  10 H :    0.054412
  11 H :    0.027034
  12 H :   -0.005899
Sum of atomic charges:    0.0000000

LOEWDIN ATOMIC CHARGES
----------------------
   0 C :    0.100983
   1 C :   -0.084937
   2 H :    0.034194
   3 H :    0.034954
   4 C :    0.017898
   5 C :   -0.021954
   6 H :    0.053284
   7 H :    0.038516
   8 F :   -0.023793
   9 O :   -0.134825
  10 H :   -0.005436
  11 H :   -0.003524
  12 H :   -0.005361

  Mayer bond orders larger than 0.100000
B(  0-C ,  1-C ) :   1.3152 B(  0-C , 10-H ) :   0.8217 B(  0-C , 11-H ) :   0.8237
B(  0-C , 12-H ) :   0.8774 B(  1-C ,  2-H ) :   0.9853 B(  1-C ,  3-H ) :   0.9537
B(  1-C ,  4-C ) :   1.2538 B(  1-C ,  6-H ) :   0.1040 B(  1-C ,  7-H ) :   0.1147
B(  1-C , 10-H ) :   0.1619 B(  1-C , 11-H ) :   0.1628 B(  1-C , 12-H ) :   0.1654
B(  3-H ,  4-C ) :   0.1032 B(  4-C ,  5-C ) :   1.0718 B(  4-C ,  6-H ) :   0.8660
B(  4-C ,  7-H ) :   0.9089 B(  5-C ,  8-F ) :   0.8103 B(  5-C ,  9-O ) :   1.9038

FINAL SINGLE POINT ENERGY      -330.527922442666

DIPOLE MOMENT
-------------
                                X             Y             Z
Electronic contribution:      2.72442      -9.05367      -5.68738
Nuclear contribution   :     -3.72230       9.78546       5.57872
                        -----------------------------------------
Total Dipole Moment    :     -0.99788       0.73179      -0.10865
                        -----------------------------------------
Magnitude (a.u.)       :      1.24222
Magnitude (Debye)      :      3.15746

Rotational constants in cm-1:     0.192703     0.076176     0.069525
Rotational constants in MHz :  5777.081080  2283.698999  2084.312921

                             ****ORCA TERMINATED NORMALLY****
TOTAL RUN TIME: 0 days 0 hours 0 minutes 21 seconds 393 msec
