                         Program Version 5.0.0 -  RELEASE  -
|  1> !LC-PBE RIJCOSX def2-SVPD def2/J TightSCF
|  2> *xyz 0 1
|  3> C          0.81607       -2.10149       -2.18655
|  4> H          1.69623       -2.36869       -1.60046
|  5> C          1.10055       -2.46749       -3.59927
|  6> C          0.51624       -0.61363       -2.03937
|  7> H         -0.02007       -2.71285       -1.84084
|  8> C         -0.86862       -0.19392       -2.54630
|  9> H          1.70061       -1.75723       -4.07838
| 10> H          0.29386       -2.35977       -4.25632
| 11> H          1.50132       -3.42848       -3.69491
| 12> H          1.29904       -0.05680       -2.55898
| 13> H          0.61239       -0.36558       -0.97917
| 14> H         -0.95781       -0.43872       -3.58410
| 15> H         -0.99113        0.86113       -2.41690
| 16> H         -1.62334       -0.71130       -1.99167
| 17> *
| 18> %MaxCore 64000
| 19>
| 20> %pal nprocs 4
| 21> end
| 22>
| 23> %scf
| 24>   MaxIter 150
| 25> end
| 26>
| 27>
| 28>                          ****END OF INPUT****

CARTESIAN COORDINATES (ANGSTROEM)
---------------------------------
  C      0.816070   -2.101490   -2.186550
  H      1.696230   -2.368690   -1.600460
  C      1.100550   -2.467490   -3.599270
  C      0.516240   -0.613630   -2.039370
  H     -0.020070   -2.712850   -1.840840
  C     -0.868620   -0.193920   -2.546300
  H      1.700610   -1.757230   -4.078380
  H      0.293860   -2.359770   -4.256320
  H      1.501320   -3.428480   -3.694910
  H      1.299040   -0.056800   -2.558980
  H      0.612390   -0.365580   -0.979170
  H     -0.957810   -0.438720   -3.584100
  H     -0.991130    0.861130   -2.416900
  H     -1.623340   -0.711300   -1.991670

 Total Charge           Charge          ....    0
 Multiplicity           Mult            ....    1
 Number of Electrons    NEL             ....   34
 Basis Dimension        Dim             ....  160

ORBITAL ENERGIES
----------------

  NO   OCC          E(Eh)            E(eV)
   0   2.0000     -10.117447      -275.3097
   1   2.0000     -10.114144      -275.2199
   2   2.0000     -10.106311      -275.0067
   3   2.0000     -10.092595      -274.6335
   4   2.0000      -0.976453       -26.5706
   5   2.0000      -0.894802       -24.3488
   6   2.0000      -0.803783       -21.8721
   7   2.0000      -0.725209       -19.7339
   8   2.0000      -0.610822       -16.6213
   9   2.0000      -0.604266       -16.4429
  10   2.0000      -0.564183       -15.3522
  11   2.0000      -0.530624       -14.4390
  12   2.0000      -0.521296       -14.1852
  13   2.0000      -0.487695       -13.2708
  14   2.0000      -0.454239       -12.3605
  15   2.0000      -0.449350       -12.2274
  16   2.0000      -0.440572       -11.9886
  17   0.0000       0.095230         2.5913
  18   0.0000       0.118430         3.2226
  19   0.0000       0.121110         3.2956
  20   0.0000       0.128678         3.5015
  21   0.0000       0.176449         4.8014

MULLIKEN ATOMIC CHARGES
-----------------------
   0 C :   -0.310725
   1 H :   -0.001946
   2 C :    0.619443
   3 C :   -0.447470
   4 H :    0.002136
   5 C :    0.493710
   6 H :   -0.066337
   7 H :   -0.193233
   8 H :   -0.086354
   9 H :    0.039940
  10 H :   -0.043218
  11 H :   -0.082764
  12 H :    0.027022
  13 H :    0.049794
Sum of atomic charges:    0.0000000

LOEWDIN ATOMIC CHARGES
----------------------
   0 C :   -0.105156
   1 H :    0.032675
   2 C :    0.075848
   3 C :   -0.105879
   4 H :    0.035363
   5 C :    0.095606
   6 H :   -0.017619
   7 H :   -0.023875
   8 H :   -0.011523
   9 H :    0.029091
  10 H :    0.026012
  11 H :   -0.015458
  12 H :   -0.009038
  13 H :   -0.006045

  Mayer bond orders larger than 0.100000
B(  0-C ,  1-H ) :   0.9636 B(  0-C ,  2-C ) :   1.2519 B(  0-C ,  3-C ) :   1.1777
B(  0-C ,  4-H ) :   0.9480 B(  0-C ,  6-H ) :   0.1508 B(  0-C ,  7-H ) :   0.1603
B(  0-C ,  8-H ) :   0.1739 B(  0-C , 10-H ) :   0.1073 B(  2-C ,  4-H ) :   0.1027
B(  2-C ,  6-H ) :   0.7493 B(  2-C ,  7-H ) :   0.7690 B(  2-C ,  8-H ) :   0.8234
B(  3-C ,  5-C ) :   1.2546 B(  3-C ,  9-H ) :   0.9422 B(  3-C , 10-H ) :   1.0101
B(  3-C , 11-H ) :   0.1662 B(  3-C , 12-H ) :   0.1604 B(  3-C , 13-H ) :   0.1553
B(  5-C , 11-H ) :   0.8810 B(  5-C , 12-H ) :   0.8171 B(  5-C , 13-H ) :   0.8296
B(  6-H ,  7-H ) :   0.2839

FINAL SINGLE POINT ENERGY      -157.764030310105

DIPOLE MOMENT
-------------
                                X             Y             Z
Electronic contribution:      0.32358      -0.06581       0.82630
Nuclear contribution   :     -0.30980       0.07990      -0.83209
                        -----------------------------------------
Total Dipole Moment    :      0.01377       0.01409      -0.00579
                        -----------------------------------------
Magnitude (a.u.)       :      0.02054
Magnitude (Debye)      :      0.05220

Rotational constants in cm-1:     0.470198     0.157622     0.138278
Rotational constants in MHz : 14096.185772  4725.380109  4145.481686

                             ****ORCA TERMINATED NORMALLY****
TOTAL RUN TIME: 0 days 0 hours 0 minutes 13 seconds 432 msec
