                         Program Version 5.0.0 -  RELEASE  -
|  1> !LC-PBE RIJCOSX def2-SVPD def2/J TightSCF
|  2> *xyz 0 1
|  3> C         -0.98480        1.28474       -2.92869
|  4> C         -0.10608        1.76991       -4.08984
|  5> H         -0.34774        2.82220       -4.26294
|  6> H          0.94968        1.74588       -3.80878
|  7> C         -0.25875        1.00432       -5.40983
|  8> C          0.39596       -0.37070       -5.33994
|  9> H          0.23915        1.56939       -6.20125
| 10> H         -1.30936        0.88869       -5.68245
| 11> O         -0.32633       -1.39040       -5.49128
| 12> F          1.61941       -0.40073       -5.03683
| 13> H         -2.01317        1.31546       -3.22263
| 14> H         -0.83724        1.91975       -2.08023
| 15> H         -0.71656        0.28077       -2.67373
| 16> *
| 17> %MaxCore 64000
| 18>
| 19> %pal nprocs 4
| 20> end
| 21>
| 22> %scf
| 23>   MaxIter 150
| 24> end
| 25>
| 26>
| 27>                          ****END OF INPUT****

CARTESIAN COORDINATES (ANGSTROEM)
---------------------------------
  C     -0.984800    1.284740   -2.928690
  C     -0.106080    1.769910   -4.089840
  H     -0.347740    2.822200   -4.262940
  H      0.949680    1.745880   -3.808780
  C     -0.258750    1.004320   -5.409830
  C      0.395960   -0.370700   -5.339940
  H      0.239150    1.569390   -6.201250
  H     -1.309360    0.888690   -5.682450
  O     -0.326330   -1.390400   -5.491280
  F      1.619410   -0.400730   -5.036830
  H     -2.013170    1.315460   -3.222630
  H     -0.837240    1.919750   -2.080230
  H     -0.716560    0.280770   -2.673730

 Total Charge           Charge          ....    0
 Multiplicity           Mult            ....    1
 Number of Electrons    NEL             ....   48
 Basis Dimension        Dim             ....  182

ORBITAL ENERGIES
----------------

  NO   OCC          E(Eh)            E(eV)
   0   2.0000     -24.580503      -668.8695
   1   2.0000     -19.003790      -517.1194
   2   2.0000     -10.319003      -280.7943
   3   2.0000     -10.162151      -276.5262
   4   2.0000     -10.150213      -276.2013
   5   2.0000     -10.123538      -275.4755
   6   2.0000      -1.464691       -39.8563
   7   2.0000      -1.190662       -32.3996
   8   2.0000      -0.994765       -27.0689
   9   2.0000      -0.899809       -24.4850
  10   2.0000      -0.817544       -22.2465
  11   2.0000      -0.774652       -21.0793
  12   2.0000      -0.712329       -19.3834
  13   2.0000      -0.698098       -18.9962
  14   2.0000      -0.646341       -17.5878
  15   2.0000      -0.612588       -16.6694
  16   2.0000      -0.606196       -16.4954
  17   2.0000      -0.564806       -15.3692
  18   2.0000      -0.541669       -14.7396
  19   2.0000      -0.516739       -14.0612
  20   2.0000      -0.497065       -13.5258
  21   2.0000      -0.488298       -13.2873
  22   2.0000      -0.479616       -13.0510
  23   2.0000      -0.427650       -11.6370
  24   0.0000       0.063353         1.7239
  25   0.0000       0.082357         2.2410
  26   0.0000       0.108395         2.9496
  27   0.0000       0.118933         3.2363
  28   0.0000       0.119484         3.2513

MULLIKEN ATOMIC CHARGES
-----------------------
   0 C :    0.434476
   1 C :   -0.531694
   2 H :   -0.011457
   3 H :    0.046476
   4 C :   -0.135010
   5 C :    0.658240
   6 H :    0.130553
   7 H :    0.089198
   8 O :   -0.421954
   9 F :   -0.348493
  10 H :    0.057424
  11 H :    0.032242
  12 H :   -0.000001
Sum of atomic charges:   -0.0000000

LOEWDIN ATOMIC CHARGES
----------------------
   0 C :    0.103772
   1 C :   -0.091649
   2 H :    0.033559
   3 H :    0.031031
   4 C :    0.021316
   5 C :   -0.027624
   6 H :    0.048619
   7 H :    0.049369
   8 O :   -0.133366
   9 F :   -0.025023
  10 H :   -0.001637
  11 H :   -0.004173
  12 H :   -0.004194

  Mayer bond orders larger than 0.100000
B(  0-C ,  1-C ) :   1.3194 B(  0-C , 10-H ) :   0.8265 B(  0-C , 11-H ) :   0.8238
B(  0-C , 12-H ) :   0.8752 B(  1-C ,  2-H ) :   1.0019 B(  1-C ,  3-H ) :   0.9396
B(  1-C ,  4-C ) :   1.2247 B(  1-C ,  6-H ) :   0.1013 B(  1-C ,  7-H ) :   0.1004
B(  1-C , 10-H ) :   0.1640 B(  1-C , 11-H ) :   0.1623 B(  1-C , 12-H ) :   0.1672
B(  4-C ,  5-C ) :   1.0333 B(  4-C ,  6-H ) :   0.8613 B(  4-C ,  7-H ) :   0.9484
B(  5-C ,  7-H ) :   0.1112 B(  5-C ,  8-O ) :   1.9071 B(  5-C ,  9-F ) :   0.7912

FINAL SINGLE POINT ENERGY      -330.529049827210

DIPOLE MOMENT
-------------
                                X             Y             Z
Electronic contribution:      6.04380      -7.33447      -4.89717
Nuclear contribution   :     -5.92016       8.66755       5.06539
                        -----------------------------------------
Total Dipole Moment    :      0.12364       1.33309       0.16822
                        -----------------------------------------
Magnitude (a.u.)       :      1.34934
Magnitude (Debye)      :      3.42974

Rotational constants in cm-1:     0.191324     0.076691     0.070269
Rotational constants in MHz :  5735.753800  2299.148675  2106.608556

                             ****ORCA TERMINATED NORMALLY****
TOTAL RUN TIME: 0 days 0 hours 0 minutes 22 seconds 27 msec
