                         Program Version 5.0.0 -  RELEASE  -
|  1> !LC-PBE RIJCOSX def2-SVPD def2/J TightSCF xyzfile
|  2>
|  3> *xyzfile 0 1 D2.xyz
|  4>
|  5> %MaxCore 64000
|  6>
|  7> %pal nprocs 4
|  8> end
|  9>
| 10> %scf
| 11>   MaxIter 150
| 12> end
| 13>
| 14>
| 15>                          ****END OF INPUT****

CARTESIAN COORDINATES (ANGSTROEM)
---------------------------------
  C      0.816067   -2.101491   -2.186546
  H      1.696232   -2.368691   -1.600457
  C      1.100552   -2.467492   -3.599269
  C      0.516243   -0.613634   -2.039373
  H     -0.020066   -2.712849   -1.840844
  C     -0.868621   -0.193925   -2.546303
  C     -0.984801    1.284739   -2.928686
  H     -0.764939    1.904116   -2.051568
  H     -2.032613    1.478953   -3.178952
  C     -0.106085    1.769914   -4.089836
  H     -0.347744    2.822196   -4.262942
  H      0.949683    1.745875   -3.808781
  C     -0.258747    1.004323   -5.409829
  C      0.395958   -0.370696   -5.339939
  H      0.239150    1.569393   -6.201253
  H     -1.309360    0.888694   -5.682455
  H      1.700606   -1.757225   -4.078378
  H      0.293855   -2.359766   -4.256324
  H      1.501324   -3.428479   -3.694915
  O     -0.326329   -1.390398   -5.491279
  F      1.619412   -0.400726   -5.036827
  H     -1.607271   -0.412651   -1.768955
  H     -1.157234   -0.796164   -3.409254
  H      1.299044   -0.056805   -2.558982
  H      0.612393   -0.365579   -0.979171

 Total Charge           Charge          ....    0
 Multiplicity           Mult            ....    1
 Number of Electrons    NEL             ....   80
 Basis Dimension        Dim             ....  326

ORBITAL ENERGIES
----------------

  NO   OCC          E(Eh)            E(eV)
   0   2.0000     -24.591112      -669.1582
   1   2.0000     -19.010751      -517.3088
   2   2.0000     -10.328709      -281.0585
   3   2.0000     -10.165291      -276.6116
   4   2.0000     -10.148939      -276.1667
   5   2.0000     -10.131957      -275.7046
   6   2.0000     -10.118727      -275.3446
   7   2.0000     -10.114068      -275.2178
   8   2.0000     -10.101323      -274.8710
   9   2.0000     -10.051629      -273.5187
  10   2.0000      -1.479429       -40.2573
  11   2.0000      -1.205647       -32.8073
  12   2.0000      -1.007041       -27.4030
  13   2.0000      -0.971092       -26.4248
  14   2.0000      -0.916189       -24.9308
  15   2.0000      -0.872498       -23.7419
  16   2.0000      -0.824677       -22.4406
  17   2.0000      -0.800588       -21.7851
  18   2.0000      -0.761997       -20.7350
  19   2.0000      -0.723583       -19.6897
  20   2.0000      -0.716704       -19.5025
  21   2.0000      -0.701532       -19.0897
  22   2.0000      -0.662867       -18.0375
  23   2.0000      -0.629865       -17.1395
  24   2.0000      -0.604417       -16.4470
  25   2.0000      -0.590747       -16.0750
  26   2.0000      -0.586070       -15.9478
  27   2.0000      -0.573722       -15.6118
  28   2.0000      -0.560017       -15.2389
  29   2.0000      -0.531648       -14.4669
  30   2.0000      -0.523643       -14.2490
  31   2.0000      -0.515209       -14.0195
  32   2.0000      -0.502325       -13.6690
  33   2.0000      -0.481881       -13.1126
  34   2.0000      -0.462709       -12.5910
  35   2.0000      -0.461704       -12.5636
  36   2.0000      -0.444877       -12.1057
  37   2.0000      -0.429111       -11.6767
  38   2.0000      -0.428244       -11.6531
  39   2.0000      -0.393879       -10.7180
  40   0.0000       0.050807         1.3825
  41   0.0000       0.082604         2.2478
  42   0.0000       0.104380         2.8403
  43   0.0000       0.105965         2.8834
  44   0.0000       0.109242         2.9726

MULLIKEN ATOMIC CHARGES
-----------------------
   0 C :   -0.000041
   1 H :   -0.001335
   2 C :    1.111903
   3 C :    0.031744
   4 H :   -0.085346
   5 C :    0.096883
   6 C :    0.153632
   7 H :    0.012180
   8 H :    0.138212
   9 C :   -0.074005
  10 H :   -0.107150
  11 H :    0.110707
  12 C :    0.071660
  13 C :    0.347006
  14 H :    0.120737
  15 H :    0.062810
  16 H :   -0.297860
  17 H :   -0.248925
  18 H :   -0.173383
  19 O :   -0.451383
  20 F :   -0.396138
  21 H :   -0.018708
  22 H :   -0.256129
  23 H :    0.000691
  24 H :   -0.147762
Sum of atomic charges:   -0.0000000

LOEWDIN ATOMIC CHARGES
----------------------
   0 C :   -0.071962
   1 H :    0.031067
   2 C :    0.099767
   3 C :   -0.045626
   4 H :    0.036881
   5 C :   -0.034700
   6 C :   -0.046417
   7 H :    0.037481
   8 H :    0.035364
   9 C :   -0.043379
  10 H :    0.036083
  11 H :    0.025104
  12 C :    0.047874
  13 C :    0.011337
  14 H :    0.051581
  15 H :    0.054424
  16 H :   -0.066632
  17 H :   -0.093518
  18 H :   -0.000589
  19 O :   -0.127525
  20 F :   -0.028167
  21 H :    0.038916
  22 H :    0.008502
  23 H :    0.013364
  24 H :    0.030768

  Mayer bond orders larger than 0.100000
B(  0-C ,  1-H ) :   0.8484 B(  0-C ,  2-C ) :   1.0733 B(  0-C ,  3-C ) :   1.1916
B(  0-C ,  4-H ) :   0.8824 B(  0-C , 16-H ) :   0.2453 B(  0-C , 17-H ) :   0.1875
B(  0-C , 18-H ) :   0.1375 B(  0-C , 23-H ) :   0.1372 B(  1-H ,  3-C ) :   0.1453
B(  2-C ,  4-H ) :   0.1193 B(  2-C , 16-H ) :   0.4730 B(  2-C , 17-H ) :   0.4546
B(  2-C , 18-H ) :   0.7561 B(  2-C , 23-H ) :  -0.1291 B(  3-C ,  5-C ) :   1.1459
B(  3-C , 21-H ) :   0.2077 B(  3-C , 23-H ) :   0.8519 B(  3-C , 24-H ) :   0.9702
B(  5-C ,  6-C ) :   1.2395 B(  5-C ,  7-H ) :   0.1491 B(  5-C ,  8-H ) :   0.1784
B(  5-C , 21-H ) :   0.8196 B(  5-C , 22-H ) :   0.9299 B(  5-C , 24-H ) :   0.1772
B(  6-C ,  7-H ) :   0.8740 B(  6-C ,  8-H ) :   0.7200 B(  6-C ,  9-C ) :   1.2393
B(  6-C , 10-H ) :   0.1291 B(  7-H ,  9-C ) :   0.1192 B(  8-H ,  9-C ) :   0.1236
B(  9-C , 10-H ) :   0.9725 B(  9-C , 11-H ) :   0.8344 B(  9-C , 12-C ) :   1.1927
B(  9-C , 14-H ) :   0.1318 B( 12-C , 13-C ) :   1.2395 B( 12-C , 14-H ) :   0.7567
B( 12-C , 15-H ) :   0.9059 B( 13-C , 14-H ) :   0.1444 B( 13-C , 15-H ) :   0.1823
B( 13-C , 16-H ) :   0.1163 B( 13-C , 19-O ) :   1.8580 B( 13-C , 20-F ) :   0.7280
B( 16-H , 17-H ) :   0.3541 B( 16-H , 20-F ) :   0.1718 B( 16-H , 23-H ) :   0.1901
B( 16-H , 24-H ) :  -0.1306 B( 17-H , 19-O ) :   0.1854 B( 18-H , 23-H ) :  -0.1072

FINAL SINGLE POINT ENERGY      -487.074907361219

DIPOLE MOMENT
-------------
                                X             Y             Z
Electronic contribution:      3.59057      -0.25682      -9.80144
Nuclear contribution   :     -3.57245       1.60200       9.69133
                        -----------------------------------------
Total Dipole Moment    :      0.01812       1.34517      -0.11010
                        -----------------------------------------
Magnitude (a.u.)       :      1.34979
Magnitude (Debye)      :      3.43091

Rotational constants in cm-1:     0.051520     0.042563     0.028962
Rotational constants in MHz :  1544.537298  1275.996546   868.258224

                             ****ORCA TERMINATED NORMALLY****
TOTAL RUN TIME: 0 days 0 hours 1 minutes 50 seconds 743 msec
