                         Program Version 5.0.0 -  RELEASE  -
|  1> !PBE D3BJ RIJCOSX def2-TZVPD def2/J TightSCF
|  2> *xyz -1 1
|  3> C         -0.87096        0.24804       -2.66280
|  4> C         -0.47749        0.60819       -4.10105
|  5> H          0.20677        1.45830       -4.11875
|  6> H         -1.36844        0.92942       -4.64785
|  7> C          0.18467       -0.50664       -4.91676
|  8> O         -0.15869       -1.70109       -4.65798
|  9> O          1.05594       -0.17441       -5.74037
| 10> H         -1.54056       -0.58646       -2.67455
| 11> H         -1.35339        1.08600       -2.20455
| 12> H          0.00660       -0.00662       -2.10609
| 13> *
| 14>
| 15> %MaxCore 64000
| 16>
| 17> %pal nprocs 4
| 18> end
| 19>
| 20> %scf
| 21>   MaxIter 150
| 22> end
| 23>
| 24>
| 25>                          ****END OF INPUT****

CARTESIAN COORDINATES (ANGSTROEM)
---------------------------------
  C     -0.870960    0.248040   -2.662800
  C     -0.477490    0.608190   -4.101050
  H      0.206770    1.458300   -4.118750
  H     -1.368440    0.929420   -4.647850
  C      0.184670   -0.506640   -4.916760
  O     -0.158690   -1.701090   -4.657980
  O      1.055940   -0.174410   -5.740370
  H     -1.540560   -0.586460   -2.674550
  H     -1.353390    1.086000   -2.204550
  H      0.006600   -0.006620   -2.106090

 Total Charge           Charge          ....   -1
 Multiplicity           Mult            ....    1
 Number of Electrons    NEL             ....   40
 Basis Dimension        Dim             ....  236

ORBITAL ENERGIES
----------------

  NO   OCC          E(Eh)            E(eV)
   0   2.0000     -18.490403      -503.1495
   1   2.0000     -18.487739      -503.0770
   2   2.0000      -9.755739      -265.4672
   3   2.0000      -9.713873      -264.3279
   4   2.0000      -9.707252      -264.1478
   5   2.0000      -0.734215       -19.9790
   6   2.0000      -0.645169       -17.5559
   7   2.0000      -0.531078       -14.4514
   8   2.0000      -0.410773       -11.1777
   9   2.0000      -0.264159        -7.1881
  10   2.0000      -0.243789        -6.6338
  11   2.0000      -0.209796        -5.7088
  12   2.0000      -0.181895        -4.9496
  13   2.0000      -0.168869        -4.5952
  14   2.0000      -0.158420        -4.3108
  15   2.0000      -0.132193        -3.5971
  16   2.0000      -0.117290        -3.1916
  17   2.0000      -0.013014        -0.3541
  18   2.0000       0.000379         0.0103
  19   2.0000       0.017142         0.4665
  20   0.0000       0.119767         3.2590
  21   0.0000       0.145642         3.9631
  22   0.0000       0.159267         4.3339
  23   0.0000       0.168165         4.5760
  24   0.0000       0.189828         5.1655

MULLIKEN ATOMIC CHARGES
-----------------------
   0 C :   -0.777040
   1 C :    0.002210
   2 H :    0.151811
   3 H :    0.098461
   4 C :    0.227678
   5 O :   -0.663837
   6 O :   -0.653090
   7 H :    0.195702
   8 H :    0.222999
   9 H :    0.195105
Sum of atomic charges:   -1.0000000

LOEWDIN ATOMIC CHARGES
----------------------
   0 C :   -0.139744
   1 C :   -0.215228
   2 H :    0.084001
   3 H :    0.092006
   4 C :   -0.792071
   5 O :   -0.094074
   6 O :   -0.079996
   7 H :    0.050481
   8 H :    0.038132
   9 H :    0.056492

  Mayer bond orders larger than 0.100000
B(  0-C ,  1-C ) :   0.7404 B(  0-C ,  4-C ) :   0.1108 B(  0-C ,  7-H ) :   1.0123
B(  0-C ,  8-H ) :   0.9835 B(  0-C ,  9-H ) :   0.9890 B(  1-C ,  2-H ) :   0.9968
B(  1-C ,  3-H ) :   0.9379 B(  1-C ,  4-C ) :   1.0021 B(  4-C ,  5-O ) :   1.4635
B(  4-C ,  6-O ) :   1.4782

Dispersion correction           -0.006499158
FINAL SINGLE POINT ENERGY      -267.643364915528

DIPOLE MOMENT
-------------
                                X             Y             Z
Electronic contribution:      2.68518      -2.99437      -4.63282
Nuclear contribution   :     -3.54611       4.15440       5.90446
                        -----------------------------------------
Total Dipole Moment    :     -0.86093       1.16003       1.27165
                        -----------------------------------------
Magnitude (a.u.)       :      1.92456
Magnitude (Debye)      :      4.89185

Rotational constants in cm-1:     0.332789     0.132085     0.101080
Rotational constants in MHz :  9976.755824  3959.803182  3030.288811

                             ****ORCA TERMINATED NORMALLY****
TOTAL RUN TIME: 0 days 0 hours 0 minutes 19 seconds 650 msec
