                         Program Version 5.0.0 -  RELEASE  -
|  1> !PBE D3BJ RIJCOSX def2-TZVPD def2/J TightSCF
|  2> *xyz 1 1
|  3> C          2.48645       -2.67712       -2.56345
|  4> C          3.03764       -2.36672       -3.92351
|  5> N          2.28036       -2.45441       -4.96769
|  6> N          4.32174       -2.01793       -4.01664
|  7> H          4.87994       -1.91167       -3.17382
|  8> H          4.71015       -1.67088       -4.88356
|  9> H          1.27042       -2.41265       -4.86614
| 10> H          2.58183       -2.05528       -5.84688
| 11> C          2.49799       -1.46946       -1.61030
| 12> H          1.47259       -3.05153       -2.69437
| 13> H          3.08320       -3.49064       -2.14147
| 14> H          1.91240       -0.67831       -2.02991
| 15> H          3.50450       -1.13364       -1.47227
| 16> H          2.08509       -1.75655       -0.66585
| 17> *
| 18>
| 19> %MaxCore 64000
| 20>
| 21> %pal nprocs 4
| 22> end
| 23>
| 24> %scf
| 25>   MaxIter 150
| 26> end
| 27>
| 28>
| 29>                          ****END OF INPUT****

CARTESIAN COORDINATES (ANGSTROEM)
---------------------------------
  C      2.486450   -2.677120   -2.563450
  C      3.037640   -2.366720   -3.923510
  N      2.280360   -2.454410   -4.967690
  N      4.321740   -2.017930   -4.016640
  H      4.879940   -1.911670   -3.173820
  H      4.710150   -1.670880   -4.883560
  H      1.270420   -2.412650   -4.866140
  H      2.581830   -2.055280   -5.846880
  C      2.497990   -1.469460   -1.610300
  H      1.472590   -3.051530   -2.694370
  H      3.083200   -3.490640   -2.141470
  H      1.912400   -0.678310   -2.029910
  H      3.504500   -1.133640   -1.472270
  H      2.085090   -1.756550   -0.665850

 Total Charge           Charge          ....    1
 Multiplicity           Mult            ....    1
 Number of Electrons    NEL             ....   40
 Basis Dimension        Dim             ....  266

ORBITAL ENERGIES
----------------

  NO   OCC          E(Eh)            E(eV)
   0   2.0000     -14.232522      -387.2866
   1   2.0000     -14.228016      -387.1640
   2   2.0000     -10.196343      -277.4566
   3   2.0000     -10.080567      -274.3062
   4   2.0000     -10.037991      -273.1476
   5   2.0000      -1.124733       -30.6055
   6   2.0000      -1.034676       -28.1550
   7   2.0000      -0.898275       -24.4433
   8   2.0000      -0.804473       -21.8908
   9   2.0000      -0.757261       -20.6061
  10   2.0000      -0.722678       -19.6651
  11   2.0000      -0.696486       -18.9523
  12   2.0000      -0.653183       -17.7740
  13   2.0000      -0.604437       -16.4476
  14   2.0000      -0.576586       -15.6897
  15   2.0000      -0.563081       -15.3222
  16   2.0000      -0.507935       -13.8216
  17   2.0000      -0.495940       -13.4952
  18   2.0000      -0.486210       -13.2304
  19   2.0000      -0.458244       -12.4694
  20   0.0000      -0.249837        -6.7984
  21   0.0000      -0.189374        -5.1531
  22   0.0000      -0.148680        -4.0458
  23   0.0000      -0.145400        -3.9565
  24   0.0000      -0.115400        -3.1402

MULLIKEN ATOMIC CHARGES
-----------------------
   0 C :   -0.119777
   1 C :    0.381485
   2 N :   -0.143399
   3 N :   -0.186518
   4 H :    0.204308
   5 H :    0.176990
   6 H :    0.234759
   7 H :    0.192977
   8 C :   -0.877860
   9 H :    0.171887
  10 H :    0.191181
  11 H :    0.270264
  12 H :    0.284012
  13 H :    0.219691
Sum of atomic charges:    1.0000000

LOEWDIN ATOMIC CHARGES
----------------------
   0 C :   -0.145447
   1 C :   -0.378150
   2 N :    0.242872
   3 N :    0.239713
   4 H :    0.143952
   5 H :    0.142434
   6 H :    0.153964
   7 H :    0.147234
   8 C :   -0.051035
   9 H :    0.123952
  10 H :    0.138944
  11 H :    0.083915
  12 H :    0.070345
  13 H :    0.087307

  Mayer bond orders larger than 0.100000
B(  0-C ,  1-C ) :   0.9196 B(  0-C ,  8-C ) :   0.7745 B(  0-C ,  9-H ) :   0.9666
B(  0-C , 10-H ) :   0.9319 B(  1-C ,  2-N ) :   1.3952 B(  1-C ,  3-N ) :   1.2714
B(  1-C ,  8-C ) :   0.1150 B(  2-N ,  3-N ) :   0.1060 B(  2-N ,  6-H ) :   0.9194
B(  2-N ,  7-H ) :   0.9678 B(  3-N ,  4-H ) :   0.9467 B(  3-N ,  5-H ) :   0.9989
B(  8-C , 11-H ) :   0.9728 B(  8-C , 12-H ) :   0.9022 B(  8-C , 13-H ) :   1.0072

Dispersion correction           -0.010135719
FINAL SINGLE POINT ENERGY      -228.826652767082

DIPOLE MOMENT
-------------
                                X             Y             Z
Electronic contribution:      1.06364      -1.07738      -3.90332
Nuclear contribution   :     -0.84604       1.34287       2.92710
                        -----------------------------------------
Total Dipole Moment    :      0.21760       0.26549      -0.97622
                        -----------------------------------------
Magnitude (a.u.)       :      1.03482
Magnitude (Debye)      :      2.63029

Rotational constants in cm-1:     0.265816     0.126189     0.097583
Rotational constants in MHz :  7968.948902  3783.040103  2925.457702

                             ****ORCA TERMINATED NORMALLY****
TOTAL RUN TIME: 0 days 0 hours 0 minutes 16 seconds 700 msec
