                         Program Version 5.0.0 -  RELEASE  -
|  1> !PBE D3BJ RIJCOSX def2-TZVPD def2/J TightSCF xyzfile
|  2>
|  3> *xyzfile 0 1 B.xyz
|  4>
|  5> %MaxCore 64000
|  6>
|  7> %pal nprocs 4
|  8> end
|  9>
| 10> %scf
| 11>   MaxIter 150
| 12> end
| 13>
| 14>
| 15>                          ****END OF INPUT****

CARTESIAN COORDINATES (ANGSTROEM)
---------------------------------
  C      2.486452   -2.677121   -2.563447
  C     -0.870963    0.248043   -2.662804
  C     -0.477492    0.608191   -4.101052
  H      0.206773    1.458299   -4.118748
  H     -1.368442    0.929419   -4.647855
  C      0.184673   -0.506640   -4.916760
  C      3.037640   -2.366715   -3.923509
  N      2.280360   -2.454408   -4.967692
  N      4.321736   -2.017932   -4.016641
  H      4.879940   -1.911668   -3.173823
  H      4.710148   -1.670882   -4.883561
  H      1.270423   -2.412650   -4.866143
  H      2.581829   -2.055282   -5.846878
  O     -0.158685   -1.701088   -4.657981
  O      1.055938   -0.174410   -5.740373
  C      2.497991   -1.469464   -1.610303
  C      1.582841   -0.321986   -2.042619
  H      2.193083   -1.833912   -0.625420
  H      3.523356   -1.103982   -1.490392
  C      0.100160   -0.673551   -1.915815
  H      1.822311   -0.040361   -3.072834
  H      1.813180    0.557019   -1.433266
  H     -0.063284   -1.679120   -2.301112
  H     -0.168820   -0.691680   -0.853831
  H     -1.001048    1.181040   -2.104071
  H     -1.844645   -0.246592   -2.663281
  H      1.472592   -3.051527   -2.694366
  H      3.083201   -3.490638   -2.141472

 Total Charge           Charge          ....    0
 Multiplicity           Mult            ....    1
 Number of Electrons    NEL             ....   94
 Basis Dimension        Dim             ....  594

ORBITAL ENERGIES
----------------

  NO   OCC          E(Eh)            E(eV)
   0   2.0000     -18.667541      -507.9696
   1   2.0000     -18.660150      -507.7685
   2   2.0000     -14.064396      -382.7117
   3   2.0000     -14.028267      -381.7285
   4   2.0000     -10.017971      -272.6028
   5   2.0000      -9.924676      -270.0642
   6   2.0000      -9.924538      -270.0604
   7   2.0000      -9.907857      -269.6065
   8   2.0000      -9.878680      -268.8126
   9   2.0000      -9.861486      -268.3447
  10   2.0000      -9.857113      -268.2257
  11   2.0000      -9.845457      -267.9085
  12   2.0000      -0.947323       -25.7780
  13   2.0000      -0.913942       -24.8696
  14   2.0000      -0.855295       -23.2738
  15   2.0000      -0.824005       -22.4223
  16   2.0000      -0.757003       -20.5991
  17   2.0000      -0.706253       -19.2181
  18   2.0000      -0.665409       -18.1067
  19   2.0000      -0.615573       -16.7506
  20   2.0000      -0.597790       -16.2667
  21   2.0000      -0.557148       -15.1608
  22   2.0000      -0.552685       -15.0393
  23   2.0000      -0.523643       -14.2491
  24   2.0000      -0.500134       -13.6093
  25   2.0000      -0.471806       -12.8385
  26   2.0000      -0.449152       -12.2220
  27   2.0000      -0.430518       -11.7150
  28   2.0000      -0.408806       -11.1242
  29   2.0000      -0.403752       -10.9867
  30   2.0000      -0.395455       -10.7609
  31   2.0000      -0.376469       -10.2442
  32   2.0000      -0.366511        -9.9733
  33   2.0000      -0.362707        -9.8698
  34   2.0000      -0.343871        -9.3572
  35   2.0000      -0.335366        -9.1258
  36   2.0000      -0.322943        -8.7877
  37   2.0000      -0.314598        -8.5606
  38   2.0000      -0.308904        -8.4057
  39   2.0000      -0.294002        -8.0002
  40   2.0000      -0.283737        -7.7209
  41   2.0000      -0.273826        -7.4512
  42   2.0000      -0.266654        -7.2560
  43   2.0000      -0.257236        -6.9998
  44   2.0000      -0.191003        -5.1975
  45   2.0000      -0.173462        -4.7201
  46   2.0000      -0.158373        -4.3095
  47   0.0000      -0.077184        -2.1003
  48   0.0000      -0.048438        -1.3181
  49   0.0000      -0.013002        -0.3538
  50   0.0000      -0.000321        -0.0087
  51   0.0000       0.005700         0.1551

MULLIKEN ATOMIC CHARGES
-----------------------
   0 C :   -0.237049
   1 C :   -0.245405
   2 C :   -0.307292
   3 H :    0.181976
   4 H :    0.138291
   5 C :    0.504805
   6 C :    0.140089
   7 N :   -0.060846
   8 N :   -0.228314
   9 H :    0.178886
  10 H :    0.165648
  11 H :    0.180506
  12 H :    0.175676
  13 O :   -0.759937
  14 O :   -0.678805
  15 C :   -0.166927
  16 C :   -0.225945
  17 H :    0.129941
  18 H :    0.181448
  19 C :   -0.382112
  20 H :    0.178295
  21 H :    0.124965
  22 H :    0.178740
  23 H :    0.189545
  24 H :    0.121643
  25 H :    0.185420
  26 H :    0.165740
  27 H :    0.171018
Sum of atomic charges:   -0.0000000

LOEWDIN ATOMIC CHARGES
----------------------
   0 C :   -0.106925
   1 C :   -0.198692
   2 C :   -0.132250
   3 H :    0.106549
   4 H :    0.115544
   5 C :   -0.713296
   6 C :   -0.386884
   7 N :    0.238303
   8 N :    0.201240
   9 H :    0.122112
  10 H :    0.127372
  11 H :    0.044653
  12 H :    0.129419
  13 O :   -0.042135
  14 O :   -0.014209
  15 C :   -0.189394
  16 C :   -0.193773
  17 H :    0.116941
  18 H :    0.101227
  19 C :   -0.214462
  20 H :    0.107143
  21 H :    0.118647
  22 H :    0.090342
  23 H :    0.113067
  24 H :    0.104995
  25 H :    0.108471
  26 H :    0.118703
  27 H :    0.127290

  Mayer bond orders larger than 0.100000
B(  0-C ,  6-C ) :   0.8769 B(  0-C ,  8-N ) :   0.1098 B(  0-C , 15-C ) :   0.9153
B(  0-C , 19-C ) :   0.1397 B(  0-C , 26-H ) :   0.9721 B(  0-C , 27-H ) :   0.9116
B(  1-C ,  2-C ) :   0.9122 B(  1-C , 16-C ) :   0.1486 B(  1-C , 19-C ) :   1.1929
B(  1-C , 22-H ) :   0.1567 B(  1-C , 24-H ) :   0.9366 B(  1-C , 25-H ) :   0.8942
B(  2-C ,  3-H ) :   0.9887 B(  2-C ,  4-H ) :   0.9033 B(  2-C ,  5-C ) :   1.0103
B(  2-C , 16-C ) :   0.1332 B(  5-C , 13-O ) :   1.2233 B(  5-C , 14-O ) :   1.3593
B(  6-C ,  7-N ) :   1.4968 B(  6-C ,  8-N ) :   1.1341 B(  6-C , 15-C ) :   0.2412
B(  7-N ,  8-N ) :   0.1250 B(  7-N , 11-H ) :   0.7507 B(  7-N , 12-H ) :   0.9122
B(  8-N ,  9-H ) :   0.9841 B(  8-N , 10-H ) :   0.9638 B( 11-H , 13-O ) :   0.2571
B( 13-O , 14-O ) :   0.1166 B( 15-C , 16-C ) :   1.1040 B( 15-C , 17-H ) :   0.9303
B( 15-C , 18-H ) :   0.8248 B( 15-C , 19-C ) :   0.2941 B( 16-C , 19-C ) :   0.6385
B( 16-C , 20-H ) :   0.9359 B( 16-C , 21-H ) :   0.9481 B( 19-C , 22-H ) :   0.9188
B( 19-C , 23-H ) :   0.8988

Dispersion correction           -0.031453649
FINAL SINGLE POINT ENERGY      -574.001310650752

DIPOLE MOMENT
-------------
                                X             Y             Z
Electronic contribution:      1.60204      -2.88230      -8.89938
Nuclear contribution   :      1.39386       1.90489      10.36520
                        -----------------------------------------
Total Dipole Moment    :      2.99589      -0.97741       1.46582
                        -----------------------------------------
Magnitude (a.u.)       :      3.47553
Magnitude (Debye)      :      8.83411

Rotational constants in cm-1:     0.041165     0.025922     0.019001
Rotational constants in MHz :  1234.086888   777.109255   569.639629

                             ****ORCA TERMINATED NORMALLY****
TOTAL RUN TIME: 0 days 0 hours 1 minutes 14 seconds 713 msec
