                         Program Version 5.0.0 -  RELEASE  -
|  1> !PBE D3BJ RIJCOSX def2-TZVPD def2/J TightSCF
|  2> *xyz 0 1
|  3> C         -0.87096        0.24804       -2.66280
|  4> C         -0.47749        0.60819       -4.10105
|  5> H          0.20677        1.45830       -4.11875
|  6> H         -1.36844        0.92942       -4.64785
|  7> C          0.18467       -0.50664       -4.91676
|  8> F         -0.15869       -1.70109       -4.65798
|  9> O          1.05594       -0.17441       -5.74037
| 10> H         -1.54056       -0.58646       -2.67455
| 11> H         -1.35339        1.08600       -2.20455
| 12> H          0.00660       -0.00662       -2.10609
| 13> *
| 14>
| 15> %MaxCore 64000
| 16>
| 17> %pal nprocs 4
| 18> end
| 19>
| 20> %scf
| 21>   MaxIter 150
| 22> end
| 23>
| 24>
| 25>                          ****END OF INPUT****

CARTESIAN COORDINATES (ANGSTROEM)
---------------------------------
  C     -0.870960    0.248040   -2.662800
  C     -0.477490    0.608190   -4.101050
  H      0.206770    1.458300   -4.118750
  H     -1.368440    0.929420   -4.647850
  C      0.184670   -0.506640   -4.916760
  F     -0.158690   -1.701090   -4.657980
  O      1.055940   -0.174410   -5.740370
  H     -1.540560   -0.586460   -2.674550
  H     -1.353390    1.086000   -2.204550
  H      0.006600   -0.006620   -2.106090

 Total Charge           Charge          ....    0
 Multiplicity           Mult            ....    1
 Number of Electrons    NEL             ....   40
 Basis Dimension        Dim             ....  236

ORBITAL ENERGIES
----------------

  NO   OCC          E(Eh)            E(eV)
   0   2.0000     -24.322420      -661.8467
   1   2.0000     -18.755640      -510.3669
   2   2.0000     -10.047582      -273.4086
   3   2.0000      -9.913187      -269.7515
   4   2.0000      -9.887373      -269.0491
   5   2.0000      -1.206579       -32.8327
   6   2.0000      -0.952183       -25.9102
   7   2.0000      -0.729665       -19.8552
   8   2.0000      -0.619265       -16.8511
   9   2.0000      -0.578960       -15.7543
  10   2.0000      -0.485949       -13.2234
  11   2.0000      -0.477973       -13.0063
  12   2.0000      -0.440160       -11.9773
  13   2.0000      -0.417375       -11.3574
  14   2.0000      -0.384092       -10.4517
  15   2.0000      -0.356500        -9.7009
  16   2.0000      -0.342208        -9.3120
  17   2.0000      -0.333548        -9.0763
  18   2.0000      -0.310150        -8.4396
  19   2.0000      -0.245065        -6.6686
  20   0.0000      -0.066022        -1.7965
  21   0.0000      -0.018145        -0.4937
  22   0.0000       0.015273         0.4156
  23   0.0000       0.023164         0.6303
  24   0.0000       0.034125         0.9286

MULLIKEN ATOMIC CHARGES
-----------------------
   0 C :   -0.815789
   1 C :    0.071102
   2 H :    0.162714
   3 H :    0.165032
   4 C :    0.311146
   5 F :   -0.158534
   6 O :   -0.418795
   7 H :    0.233684
   8 H :    0.203607
   9 H :    0.245832
Sum of atomic charges:   -0.0000000

LOEWDIN ATOMIC CHARGES
----------------------
   0 C :   -0.094254
   1 C :   -0.154792
   2 H :    0.117061
   3 H :    0.121327
   4 C :   -0.513618
   5 F :    0.212331
   6 O :    0.106011
   7 H :    0.066361
   8 H :    0.067561
   9 H :    0.072011

  Mayer bond orders larger than 0.100000
B(  0-C ,  1-C ) :   0.7854 B(  0-C ,  7-H ) :   0.9744 B(  0-C ,  8-H ) :   1.0000
B(  0-C ,  9-H ) :   0.9681 B(  1-C ,  2-H ) :   0.9709 B(  1-C ,  3-H ) :   0.9030
B(  1-C ,  4-C ) :   0.9642 B(  4-C ,  5-F ) :   1.0679 B(  4-C ,  6-O ) :   1.8104

Dispersion correction           -0.006134695
FINAL SINGLE POINT ENERGY      -292.196739296273

DIPOLE MOMENT
-------------
                                X             Y             Z
Electronic contribution:      2.63820      -5.37275      -5.32562
Nuclear contribution   :     -3.42837       5.66737       6.17046
                        -----------------------------------------
Total Dipole Moment    :     -0.79016       0.29463       0.84483
                        -----------------------------------------
Magnitude (a.u.)       :      1.19369
Magnitude (Debye)      :      3.03413

Rotational constants in cm-1:     0.304660     0.130969     0.097716
Rotational constants in MHz :  9133.464515  3926.366384  2929.457090

                             ****ORCA TERMINATED NORMALLY****
TOTAL RUN TIME: 0 days 0 hours 0 minutes 15 seconds 772 msec
