                         Program Version 5.0.0 -  RELEASE  -
|  1> !PBE D3BJ RIJCOSX def2-TZVPD def2/J TightSCF
|  2> *xyz 0 1
|  3> C          2.48645       -2.67712       -2.56345
|  4> C          3.03764       -2.36672       -3.92351
|  5> C          2.28036       -2.45441       -4.96769
|  6> N          4.32174       -2.01793       -4.01664
|  7> H          4.87994       -1.91167       -3.17382
|  8> H          4.71015       -1.67088       -4.88356
|  9> H          1.27042       -2.41265       -4.86614
| 10> H          2.58183       -2.05528       -5.84688
| 11> C          2.49799       -1.46946       -1.61030
| 12> H          1.47259       -3.05153       -2.69437
| 13> H          3.08320       -3.49064       -2.14147
| 14> H          1.91240       -0.67831       -2.02991
| 15> H          3.50450       -1.13364       -1.47227
| 16> H          2.08509       -1.75655       -0.66585
| 17> *
| 18>
| 19> %MaxCore 64000
| 20>
| 21> %pal nprocs 4
| 22> end
| 23>
| 24> %scf
| 25>   MaxIter 150
| 26> end
| 27>
| 28>
| 29>                          ****END OF INPUT****

CARTESIAN COORDINATES (ANGSTROEM)
---------------------------------
  C      2.486450   -2.677120   -2.563450
  C      3.037640   -2.366720   -3.923510
  C      2.280360   -2.454410   -4.967690
  N      4.321740   -2.017930   -4.016640
  H      4.879940   -1.911670   -3.173820
  H      4.710150   -1.670880   -4.883560
  H      1.270420   -2.412650   -4.866140
  H      2.581830   -2.055280   -5.846880
  C      2.497990   -1.469460   -1.610300
  H      1.472590   -3.051530   -2.694370
  H      3.083200   -3.490640   -2.141470
  H      1.912400   -0.678310   -2.029910
  H      3.504500   -1.133640   -1.472270
  H      2.085090   -1.756550   -0.665850

 Total Charge           Charge          ....    0
 Multiplicity           Mult            ....    1
 Number of Electrons    NEL             ....   40
 Basis Dimension        Dim             ....  266

ORBITAL ENERGIES
----------------

  NO   OCC          E(Eh)            E(eV)
   0   2.0000     -13.987623      -380.6226
   1   2.0000      -9.898426      -269.3499
   2   2.0000      -9.880897      -268.8729
   3   2.0000      -9.868891      -268.5462
   4   2.0000      -9.811252      -266.9777
   5   2.0000      -0.846631       -23.0380
   6   2.0000      -0.707951       -19.2643
   7   2.0000      -0.655984       -17.8502
   8   2.0000      -0.573419       -15.6035
   9   2.0000      -0.513163       -13.9639
  10   2.0000      -0.474699       -12.9172
  11   2.0000      -0.427669       -11.6375
  12   2.0000      -0.389861       -10.6087
  13   2.0000      -0.384736       -10.4692
  14   2.0000      -0.343452        -9.3458
  15   2.0000      -0.338584        -9.2133
  16   2.0000      -0.312071        -8.4919
  17   2.0000      -0.292189        -7.9509
  18   2.0000      -0.284077        -7.7301
  19   2.0000      -0.166968        -4.5434
  20   0.0000      -0.016402        -0.4463
  21   0.0000       0.003482         0.0947
  22   0.0000       0.019607         0.5335
  23   0.0000       0.024000         0.6531
  24   0.0000       0.033804         0.9199

MULLIKEN ATOMIC CHARGES
-----------------------
   0 C :   -0.177388
   1 C :    0.564068
   2 C :   -1.001966
   3 N :   -0.283904
   4 H :    0.137655
   5 H :    0.137097
   6 H :    0.231438
   7 H :    0.240962
   8 C :   -0.851301
   9 H :    0.126786
  10 H :    0.179858
  11 H :    0.251247
  12 H :    0.239590
  13 H :    0.205858
Sum of atomic charges:    0.0000000

LOEWDIN ATOMIC CHARGES
----------------------
   0 C :   -0.198820
   1 C :   -0.504628
   2 C :    0.009090
   3 N :    0.117827
   4 H :    0.100080
   5 H :    0.106998
   6 H :    0.027699
   7 H :    0.023752
   8 C :   -0.091008
   9 H :    0.107739
  10 H :    0.112691
  11 H :    0.071597
  12 H :    0.054415
  13 H :    0.062568

  Mayer bond orders larger than 0.100000
B(  0-C ,  1-C ) :   0.8835 B(  0-C ,  3-N ) :   0.1018 B(  0-C ,  8-C ) :   0.7597
B(  0-C ,  9-H ) :   0.9768 B(  0-C , 10-H ) :   0.9305 B(  1-C ,  2-C ) :   1.4181
B(  1-C ,  3-N ) :   1.0594 B(  2-C ,  3-N ) :   0.1363 B(  2-C ,  6-H ) :   0.9665
B(  2-C ,  7-H ) :   1.0745 B(  3-N ,  4-H ) :   1.0115 B(  3-N ,  5-H ) :   1.0055
B(  8-C , 11-H ) :   1.0065 B(  8-C , 12-H ) :   0.9402 B(  8-C , 13-H ) :   1.0075

Dispersion correction           -0.010500897
FINAL SINGLE POINT ENERGY      -212.357651012817

DIPOLE MOMENT
-------------
                                X             Y             Z
Electronic contribution:      1.53887      -0.88431      -2.14344
Nuclear contribution   :     -0.99743       1.27863       2.57190
                        -----------------------------------------
Total Dipole Moment    :      0.54144       0.39431       0.42846
                        -----------------------------------------
Magnitude (a.u.)       :      0.79512
Magnitude (Debye)      :      2.02103

Rotational constants in cm-1:     0.274050     0.130114     0.100964
Rotational constants in MHz :  8215.815505  3900.722919  3026.834930

                             ****ORCA TERMINATED NORMALLY****
TOTAL RUN TIME: 0 days 0 hours 0 minutes 22 seconds 192 msec
