                         Program Version 5.0.0 -  RELEASE  -
|  1> !PBE D3BJ RIJCOSX def2-TZVPD def2/J TightSCF
|  2> *xyz 0 1
|  3> C         -0.87096        0.24804       -2.66280
|  4> C         -0.47749        0.60819       -4.10105
|  5> H          0.20677        1.45830       -4.11875
|  6> H         -1.36844        0.92942       -4.64785
|  7> C          0.18467       -0.50664       -4.91676
|  8> O         -0.15869       -1.70109       -4.65798
|  9> F          1.05594       -0.17441       -5.74037
| 10> H         -1.54056       -0.58646       -2.67455
| 11> H         -1.35339        1.08600       -2.20455
| 12> H          0.00660       -0.00662       -2.10609
| 13> *
| 14>
| 15> %MaxCore 64000
| 16>
| 17> %pal nprocs 4
| 18> end
| 19>
| 20> %scf
| 21>   MaxIter 150
| 22> end
| 23>
| 24>
| 25>                          ****END OF INPUT****

CARTESIAN COORDINATES (ANGSTROEM)
---------------------------------
  C     -0.870960    0.248040   -2.662800
  C     -0.477490    0.608190   -4.101050
  H      0.206770    1.458300   -4.118750
  H     -1.368440    0.929420   -4.647850
  C      0.184670   -0.506640   -4.916760
  O     -0.158690   -1.701090   -4.657980
  F      1.055940   -0.174410   -5.740370
  H     -1.540560   -0.586460   -2.674550
  H     -1.353390    1.086000   -2.204550
  H      0.006600   -0.006620   -2.106090

 Total Charge           Charge          ....    0
 Multiplicity           Mult            ....    1
 Number of Electrons    NEL             ....   40
 Basis Dimension        Dim             ....  236

ORBITAL ENERGIES
----------------

  NO   OCC          E(Eh)            E(eV)
   0   2.0000     -24.331506      -662.0939
   1   2.0000     -18.752745      -510.2881
   2   2.0000     -10.049856      -273.4705
   3   2.0000      -9.914358      -269.7834
   4   2.0000      -9.881874      -268.8995
   5   2.0000      -1.224754       -33.3272
   6   2.0000      -0.937813       -25.5192
   7   2.0000      -0.726061       -19.7571
   8   2.0000      -0.628343       -17.0981
   9   2.0000      -0.577670       -15.7192
  10   2.0000      -0.493526       -13.4295
  11   2.0000      -0.478119       -13.0103
  12   2.0000      -0.450781       -12.2664
  13   2.0000      -0.417026       -11.3478
  14   2.0000      -0.382213       -10.4005
  15   2.0000      -0.351453        -9.5635
  16   2.0000      -0.331713        -9.0264
  17   2.0000      -0.327958        -8.9242
  18   2.0000      -0.305997        -8.3266
  19   2.0000      -0.241885        -6.5820
  20   0.0000      -0.068391        -1.8610
  21   0.0000      -0.015180        -0.4131
  22   0.0000       0.013009         0.3540
  23   0.0000       0.025517         0.6943
  24   0.0000       0.033392         0.9086

MULLIKEN ATOMIC CHARGES
-----------------------
   0 C :   -0.783200
   1 C :    0.001783
   2 H :    0.188276
   3 H :    0.159322
   4 C :    0.357541
   5 O :   -0.437840
   6 F :   -0.151643
   7 H :    0.226107
   8 H :    0.210653
   9 H :    0.229000
Sum of atomic charges:   -0.0000000

LOEWDIN ATOMIC CHARGES
----------------------
   0 C :   -0.088008
   1 C :   -0.161891
   2 H :    0.108209
   3 H :    0.121201
   4 C :   -0.514856
   5 O :    0.086978
   6 F :    0.237553
   7 H :    0.069883
   8 H :    0.067501
   9 H :    0.073432

  Mayer bond orders larger than 0.100000
B(  0-C ,  1-C ) :   0.8372 B(  0-C ,  4-C ) :   0.1089 B(  0-C ,  7-H ) :   0.9853
B(  0-C ,  8-H ) :   0.9825 B(  0-C ,  9-H ) :   0.9594 B(  1-C ,  2-H ) :   0.9525
B(  1-C ,  3-H ) :   0.9100 B(  1-C ,  4-C ) :   0.9759 B(  4-C ,  5-O ) :   1.7789
B(  4-C ,  6-F ) :   1.0766

Dispersion correction           -0.006184933
FINAL SINGLE POINT ENERGY      -292.190387010518

DIPOLE MOMENT
-------------
                                X             Y             Z
Electronic contribution:      4.65366      -2.88044      -7.13043
Nuclear contribution   :     -4.75269       4.00281       7.35060
                        -----------------------------------------
Total Dipole Moment    :     -0.09904       1.12237       0.22017
                        -----------------------------------------
Magnitude (a.u.)       :      1.14804
Magnitude (Debye)      :      2.91809

Rotational constants in cm-1:     0.323805     0.124913     0.096140
Rotational constants in MHz :  9707.430323  3744.789513  2882.191141

                             ****ORCA TERMINATED NORMALLY****
TOTAL RUN TIME: 0 days 0 hours 0 minutes 17 seconds 660 msec
