                         Program Version 5.0.0 -  RELEASE  -
|  1> !PBE D3BJ RIJCOSX def2-TZVPD def2/J TightSCF
|  2> *xyz 0 1
|  3> C          2.48645       -2.67712       -2.56345
|  4> C          3.03764       -2.36672       -3.92351
|  5> N          2.28036       -2.45441       -4.96769
|  6> C          4.32174       -2.01793       -4.01664
|  7> H          4.87994       -1.91167       -3.17382
|  8> H          4.71015       -1.67088       -4.88356
|  9> H          1.27042       -2.41265       -4.86614
| 10> H          2.58183       -2.05528       -5.84688
| 11> C          2.49799       -1.46946       -1.61030
| 12> H          1.47259       -3.05153       -2.69437
| 13> H          3.08320       -3.49064       -2.14147
| 14> H          1.91240       -0.67831       -2.02991
| 15> H          3.50450       -1.13364       -1.47227
| 16> H          2.08509       -1.75655       -0.66585
| 17> *
| 18>
| 19> %MaxCore 64000
| 20>
| 21> %pal nprocs 4
| 22> end
| 23>
| 24> %scf
| 25>   MaxIter 150
| 26> end
| 27>
| 28>
| 29>                          ****END OF INPUT****

CARTESIAN COORDINATES (ANGSTROEM)
---------------------------------
  C      2.486450   -2.677120   -2.563450
  C      3.037640   -2.366720   -3.923510
  N      2.280360   -2.454410   -4.967690
  C      4.321740   -2.017930   -4.016640
  H      4.879940   -1.911670   -3.173820
  H      4.710150   -1.670880   -4.883560
  H      1.270420   -2.412650   -4.866140
  H      2.581830   -2.055280   -5.846880
  C      2.497990   -1.469460   -1.610300
  H      1.472590   -3.051530   -2.694370
  H      3.083200   -3.490640   -2.141470
  H      1.912400   -0.678310   -2.029910
  H      3.504500   -1.133640   -1.472270
  H      2.085090   -1.756550   -0.665850

 Total Charge           Charge          ....    0
 Multiplicity           Mult            ....    1
 Number of Electrons    NEL             ....   40
 Basis Dimension        Dim             ....  266

ORBITAL ENERGIES
----------------

  NO   OCC          E(Eh)            E(eV)
   0   2.0000     -13.990969      -380.7136
   1   2.0000      -9.898525      -269.3526
   2   2.0000      -9.881703      -268.8948
   3   2.0000      -9.864970      -268.4395
   4   2.0000      -9.812646      -267.0157
   5   2.0000      -0.861409       -23.4401
   6   2.0000      -0.708991       -19.2926
   7   2.0000      -0.641291       -17.4504
   8   2.0000      -0.578480       -15.7412
   9   2.0000      -0.516415       -14.0524
  10   2.0000      -0.471479       -12.8296
  11   2.0000      -0.431698       -11.7471
  12   2.0000      -0.397738       -10.8230
  13   2.0000      -0.362421        -9.8620
  14   2.0000      -0.350047        -9.5253
  15   2.0000      -0.334361        -9.0984
  16   2.0000      -0.310317        -8.4442
  17   2.0000      -0.295058        -8.0289
  18   2.0000      -0.292628        -7.9628
  19   2.0000      -0.158747        -4.3197
  20   0.0000      -0.015019        -0.4087
  21   0.0000      -0.000235        -0.0064
  22   0.0000       0.018821         0.5122
  23   0.0000       0.023641         0.6433
  24   0.0000       0.035375         0.9626

MULLIKEN ATOMIC CHARGES
-----------------------
   0 C :   -0.123935
   1 C :    0.643830
   2 N :   -0.232712
   3 C :   -1.196457
   4 H :    0.236602
   5 H :    0.211937
   6 H :    0.173450
   7 H :    0.151008
   8 C :   -0.854737
   9 H :    0.153533
  10 H :    0.153894
  11 H :    0.225973
  12 H :    0.250289
  13 H :    0.207325
Sum of atomic charges:   -0.0000000

LOEWDIN ATOMIC CHARGES
----------------------
   0 C :   -0.199161
   1 C :   -0.511348
   2 N :    0.114539
   3 C :    0.021597
   4 H :    0.020590
   5 H :    0.016527
   6 H :    0.106710
   7 H :    0.111794
   8 C :   -0.090048
   9 H :    0.100862
  10 H :    0.115894
  11 H :    0.069592
  12 H :    0.060972
  13 H :    0.061478

  Mayer bond orders larger than 0.100000
B(  0-C ,  1-C ) :   0.8277 B(  0-C ,  8-C ) :   0.7064 B(  0-C ,  9-H ) :   1.0474
B(  0-C , 10-H ) :   0.9238 B(  1-C ,  2-N ) :   1.1756 B(  1-C ,  3-C ) :   1.1944
B(  1-C ,  8-C ) :   0.1351 B(  2-N ,  3-C ) :   0.1302 B(  2-N ,  6-H ) :   0.9721
B(  2-N ,  7-H ) :   0.9718 B(  3-C ,  4-H ) :   0.9589 B(  3-C ,  5-H ) :   1.0800
B(  8-C , 11-H ) :   0.9875 B(  8-C , 12-H ) :   0.9638 B(  8-C , 13-H ) :   0.9913

Dispersion correction           -0.010523076
FINAL SINGLE POINT ENERGY      -212.358504494564

DIPOLE MOMENT
-------------
                                X             Y             Z
Electronic contribution:     -0.24410      -1.20681      -2.98627
Nuclear contribution   :     -0.52463       1.37972       2.79217
                        -----------------------------------------
Total Dipole Moment    :     -0.76873       0.17291      -0.19410
                        -----------------------------------------
Magnitude (a.u.)       :      0.81149
Magnitude (Debye)      :      2.06264

Rotational constants in cm-1:     0.281086     0.127387     0.100311
Rotational constants in MHz :  8426.743103  3818.969834  3007.238026

                             ****ORCA TERMINATED NORMALLY****
TOTAL RUN TIME: 0 days 0 hours 0 minutes 20 seconds 982 msec
