                         Program Version 5.0.0 -  RELEASE  -
|  1> !PBE D3BJ RIJCOSX def2-TZVPD def2/J TightSCF xyzfile
|  2>
|  3> *xyzfile 0 1 D1.xyz
|  4>
|  5> %MaxCore 64000
|  6>
|  7> %pal nprocs 4
|  8> end
|  9>
| 10> %scf
| 11>   MaxIter 150
| 12> end
| 13>
| 14>
| 15>                          ****END OF INPUT****

CARTESIAN COORDINATES (ANGSTROEM)
---------------------------------
  C      2.486452   -2.677121   -2.563447
  C     -0.870963    0.248043   -2.662804
  C     -0.477492    0.608191   -4.101052
  H      0.206773    1.458299   -4.118748
  H     -1.368442    0.929419   -4.647855
  C      0.184673   -0.506640   -4.916760
  C      3.037640   -2.366715   -3.923509
  C      2.280360   -2.454408   -4.967692
  N      4.321736   -2.017932   -4.016641
  H      4.879940   -1.911668   -3.173823
  H      4.710148   -1.670882   -4.883561
  H      1.270423   -2.412650   -4.866143
  H      2.581829   -2.055282   -5.846878
  F     -0.158685   -1.701088   -4.657981
  O      1.055938   -0.174410   -5.740373
  C      2.497991   -1.469464   -1.610303
  C      1.582841   -0.321986   -2.042619
  H      2.193083   -1.833912   -0.625420
  H      3.523356   -1.103982   -1.490392
  C      0.100160   -0.673551   -1.915815
  H      1.822311   -0.040361   -3.072834
  H      1.813180    0.557019   -1.433266
  H     -0.063284   -1.679120   -2.301112
  H     -0.168820   -0.691680   -0.853831
  H     -1.001048    1.181040   -2.104071
  H     -1.844645   -0.246592   -2.663281
  H      1.472592   -3.051527   -2.694366
  H      3.083201   -3.490638   -2.141472

 Total Charge           Charge          ....    0
 Multiplicity           Mult            ....    1
 Number of Electrons    NEL             ....   94
 Basis Dimension        Dim             ....  594

ORBITAL ENERGIES
----------------

  NO   OCC          E(Eh)            E(eV)
   0   2.0000     -24.323442      -661.8745
   1   2.0000     -18.752284      -510.2756
   2   2.0000     -13.976005      -380.3064
   3   2.0000     -10.046169      -273.3702
   4   2.0000      -9.909002      -269.6377
   5   2.0000      -9.895101      -269.2594
   6   2.0000      -9.884266      -268.9645
   7   2.0000      -9.883852      -268.9533
   8   2.0000      -9.881415      -268.8870
   9   2.0000      -9.879814      -268.8434
  10   2.0000      -9.875282      -268.7201
  11   2.0000      -9.790668      -266.4176
  12   2.0000      -1.213660       -33.0254
  13   2.0000      -0.951109       -25.8810
  14   2.0000      -0.835485       -22.7347
  15   2.0000      -0.752375       -20.4732
  16   2.0000      -0.719867       -19.5886
  17   2.0000      -0.674251       -18.3473
  18   2.0000      -0.652150       -17.7459
  19   2.0000      -0.611082       -16.6284
  20   2.0000      -0.592907       -16.1338
  21   2.0000      -0.555818       -15.1246
  22   2.0000      -0.522411       -14.2155
  23   2.0000      -0.512691       -13.9510
  24   2.0000      -0.488309       -13.2876
  25   2.0000      -0.479646       -13.0518
  26   2.0000      -0.458694       -12.4817
  27   2.0000      -0.439013       -11.9461
  28   2.0000      -0.429825       -11.6961
  29   2.0000      -0.420073       -11.4308
  30   2.0000      -0.408989       -11.1292
  31   2.0000      -0.394819       -10.7436
  32   2.0000      -0.383761       -10.4427
  33   2.0000      -0.361543        -9.8381
  34   2.0000      -0.358467        -9.7544
  35   2.0000      -0.343672        -9.3518
  36   2.0000      -0.331591        -9.0231
  37   2.0000      -0.329816        -8.9747
  38   2.0000      -0.313328        -8.5261
  39   2.0000      -0.308594        -8.3973
  40   2.0000      -0.299394        -8.1469
  41   2.0000      -0.292473        -7.9586
  42   2.0000      -0.279003        -7.5920
  43   2.0000      -0.272973        -7.4280
  44   2.0000      -0.269389        -7.3305
  45   2.0000      -0.240192        -6.5359
  46   2.0000      -0.152778        -4.1573
  47   0.0000      -0.065716        -1.7882
  48   0.0000      -0.017714        -0.4820
  49   0.0000      -0.008784        -0.2390
  50   0.0000       0.001804         0.0491
  51   0.0000       0.006766         0.1841

MULLIKEN ATOMIC CHARGES
-----------------------
   0 C :   -0.337586
   1 C :   -0.242327
   2 C :   -0.200762
   3 H :    0.195592
   4 H :    0.150166
   5 C :    0.341067
   6 C :    0.383110
   7 C :   -1.094479
   8 N :   -0.295918
   9 H :    0.131183
  10 H :    0.135399
  11 H :    0.569668
  12 H :    0.201876
  13 F :   -0.242568
  14 O :   -0.467752
  15 C :   -0.222536
  16 C :   -0.199783
  17 H :    0.131052
  18 H :    0.210501
  19 C :   -0.384294
  20 H :    0.199260
  21 H :    0.121975
  22 H :    0.154971
  23 H :    0.196749
  24 H :    0.124464
  25 H :    0.192245
  26 H :    0.068848
  27 H :    0.179879
Sum of atomic charges:    0.0000000

LOEWDIN ATOMIC CHARGES
----------------------
   0 C :   -0.143116
   1 C :   -0.194824
   2 C :   -0.100080
   3 H :    0.123436
   4 H :    0.125684
   5 C :   -0.505151
   6 C :   -0.476906
   7 C :    0.010345
   8 N :    0.122975
   9 H :    0.097066
  10 H :    0.107815
  11 H :   -0.000473
  12 H :    0.038407
  13 F :    0.182588
  14 O :    0.115079
  15 C :   -0.195483
  16 C :   -0.195270
  17 H :    0.110188
  18 H :    0.101630
  19 C :   -0.209101
  20 H :    0.107059
  21 H :    0.117552
  22 H :    0.094856
  23 H :    0.118760
  24 H :    0.112862
  25 H :    0.109856
  26 H :    0.106255
  27 H :    0.117991

  Mayer bond orders larger than 0.100000
B(  0-C ,  6-C ) :   0.8369 B(  0-C ,  8-N ) :   0.1537 B(  0-C , 15-C ) :   0.9569
B(  0-C , 19-C ) :   0.1187 B(  0-C , 26-H ) :   0.9696 B(  0-C , 27-H ) :   0.9294
B(  1-C ,  2-C ) :   0.9305 B(  1-C , 16-C ) :   0.1083 B(  1-C , 19-C ) :   1.1251
B(  1-C , 22-H ) :   0.1233 B(  1-C , 24-H ) :   0.9250 B(  1-C , 25-H ) :   0.9296
B(  2-C ,  3-H ) :   0.9687 B(  2-C ,  4-H ) :   0.8995 B(  2-C ,  5-C ) :   0.9475
B(  2-C , 16-C ) :   0.1216 B(  5-C , 13-F ) :   1.0242 B(  5-C , 14-O ) :   1.7328
B(  6-C ,  7-C ) :   1.5787 B(  6-C ,  8-N ) :   0.9832 B(  6-C , 11-H ) :  -0.1491
B(  6-C , 15-C ) :   0.1366 B(  7-C , 11-H ) :   0.7369 B(  7-C , 12-H ) :   1.0643
B(  8-N ,  9-H ) :   1.0337 B(  8-N , 10-H ) :   0.9812 B( 15-C , 16-C ) :   1.1301
B( 15-C , 17-H ) :   0.9345 B( 15-C , 18-H ) :   0.8216 B( 15-C , 19-C ) :   0.3222
B( 16-C , 19-C ) :   0.6163 B( 16-C , 20-H ) :   0.9440 B( 16-C , 21-H ) :   0.9440
B( 19-C , 22-H ) :   0.9727 B( 19-C , 23-H ) :   0.8821

Dispersion correction           -0.031263283
FINAL SINGLE POINT ENERGY      -581.882333077624

DIPOLE MOMENT
-------------
                                X             Y             Z
Electronic contribution:     -3.65593      -1.65281     -10.29197
Nuclear contribution   :      3.32973       2.37270      11.37738
                        -----------------------------------------
Total Dipole Moment    :     -0.32620       0.71989       1.08541
                        -----------------------------------------
Magnitude (a.u.)       :      1.34267
Magnitude (Debye)      :      3.41280

Rotational constants in cm-1:     0.040902     0.025807     0.019036
Rotational constants in MHz :  1226.202138   773.670450   570.681201

                             ****ORCA TERMINATED NORMALLY****
TOTAL RUN TIME: 0 days 0 hours 1 minutes 35 seconds 128 msec
