                         Program Version 5.0.0 -  RELEASE  -
|  1> !PBE D3BJ RIJCOSX def2-TZVPD def2/J TightSCF xyzfile
|  2>
|  3> *xyzfile 0 1 D2.xyz
|  4>
|  5> %MaxCore 64000
|  6>
|  7> %pal nprocs 4
|  8> end
|  9>
| 10> %scf
| 11>   MaxIter 150
| 12> end
| 13>
| 14>
| 15>                          ****END OF INPUT****

CARTESIAN COORDINATES (ANGSTROEM)
---------------------------------
  C      2.486452   -2.677121   -2.563447
  C     -0.870963    0.248043   -2.662804
  C     -0.477492    0.608191   -4.101052
  H      0.206773    1.458299   -4.118748
  H     -1.368442    0.929419   -4.647855
  C      0.184673   -0.506640   -4.916760
  C      3.037640   -2.366715   -3.923509
  N      2.280360   -2.454408   -4.967692
  C      4.321736   -2.017932   -4.016641
  H      4.879940   -1.911668   -3.173823
  H      4.710148   -1.670882   -4.883561
  H      1.270423   -2.412650   -4.866143
  H      2.581829   -2.055282   -5.846878
  F     -0.158685   -1.701088   -4.657981
  O      1.055938   -0.174410   -5.740373
  C      2.497991   -1.469464   -1.610303
  C      1.582841   -0.321986   -2.042619
  H      2.193083   -1.833912   -0.625420
  H      3.523356   -1.103982   -1.490392
  C      0.100160   -0.673551   -1.915815
  H      1.822311   -0.040361   -3.072834
  H      1.813180    0.557019   -1.433266
  H     -0.063284   -1.679120   -2.301112
  H     -0.168820   -0.691680   -0.853831
  H     -1.001048    1.181040   -2.104071
  H     -1.844645   -0.246592   -2.663281
  H      1.472592   -3.051527   -2.694366
  H      3.083201   -3.490638   -2.141472

 Total Charge           Charge          ....    0
 Multiplicity           Mult            ....    1
 Number of Electrons    NEL             ....   94
 Basis Dimension        Dim             ....  594

ORBITAL ENERGIES
----------------

  NO   OCC          E(Eh)            E(eV)
   0   2.0000     -24.351310      -662.6328
   1   2.0000     -18.772156      -510.8163
   2   2.0000     -13.964438      -379.9917
   3   2.0000     -10.065138      -273.8863
   4   2.0000      -9.920745      -269.9572
   5   2.0000      -9.902678      -269.4656
   6   2.0000      -9.888974      -269.0927
   7   2.0000      -9.886600      -269.0281
   8   2.0000      -9.882026      -268.9036
   9   2.0000      -9.878822      -268.8164
  10   2.0000      -9.876128      -268.7431
  11   2.0000      -9.800124      -266.6749
  12   2.0000      -1.240311       -33.7506
  13   2.0000      -0.970933       -26.4204
  14   2.0000      -0.844612       -22.9831
  15   2.0000      -0.760152       -20.6848
  16   2.0000      -0.722398       -19.6574
  17   2.0000      -0.683877       -18.6092
  18   2.0000      -0.641483       -17.4557
  19   2.0000      -0.624812       -17.0020
  20   2.0000      -0.602544       -16.3961
  21   2.0000      -0.564879       -15.3711
  22   2.0000      -0.531703       -14.4684
  23   2.0000      -0.525891       -14.3102
  24   2.0000      -0.506165       -13.7735
  25   2.0000      -0.484370       -13.1804
  26   2.0000      -0.458360       -12.4726
  27   2.0000      -0.446959       -12.1624
  28   2.0000      -0.432290       -11.7632
  29   2.0000      -0.426258       -11.5991
  30   2.0000      -0.421560       -11.4712
  31   2.0000      -0.396874       -10.7995
  32   2.0000      -0.381329       -10.3765
  33   2.0000      -0.371476       -10.1084
  34   2.0000      -0.364970        -9.9313
  35   2.0000      -0.348480        -9.4826
  36   2.0000      -0.343751        -9.3539
  37   2.0000      -0.331484        -9.0201
  38   2.0000      -0.323566        -8.8047
  39   2.0000      -0.316151        -8.6029
  40   2.0000      -0.304528        -8.2866
  41   2.0000      -0.297225        -8.0879
  42   2.0000      -0.284087        -7.7304
  43   2.0000      -0.281519        -7.6605
  44   2.0000      -0.274667        -7.4741
  45   2.0000      -0.257197        -6.9987
  46   2.0000      -0.143969        -3.9176
  47   0.0000      -0.083852        -2.2817
  48   0.0000      -0.023881        -0.6498
  49   0.0000      -0.003102        -0.0844
  50   0.0000       0.000223         0.0061
  51   0.0000       0.004207         0.1145

MULLIKEN ATOMIC CHARGES
-----------------------
   0 C :   -0.188536
   1 C :   -0.240960
   2 C :   -0.182578
   3 H :    0.200759
   4 H :    0.150071
   5 C :    0.406917
   6 C :    0.406397
   7 N :   -0.294268
   8 C :   -1.273546
   9 H :    0.277983
  10 H :    0.221773
  11 H :    0.331970
  12 H :    0.145341
  13 F :   -0.280949
  14 O :   -0.466282
  15 C :   -0.190994
  16 C :   -0.347945
  17 H :    0.131626
  18 H :    0.228874
  19 C :   -0.327976
  20 H :    0.220689
  21 H :    0.119720
  22 H :    0.134506
  23 H :    0.200146
  24 H :    0.129580
  25 H :    0.196002
  26 H :    0.157406
  27 H :    0.134272
Sum of atomic charges:    0.0000000

LOEWDIN ATOMIC CHARGES
----------------------
   0 C :   -0.143143
   1 C :   -0.194241
   2 C :   -0.098847
   3 H :    0.125922
   4 H :    0.127436
   5 C :   -0.500002
   6 C :   -0.491585
   7 N :    0.130254
   8 C :    0.025487
   9 H :    0.017978
  10 H :    0.017750
  11 H :    0.055800
  12 H :    0.112688
  13 F :    0.191800
  14 O :    0.118788
  15 C :   -0.191186
  16 C :   -0.194942
  17 H :    0.110442
  18 H :    0.108288
  19 C :   -0.211555
  20 H :    0.105551
  21 H :    0.119139
  22 H :    0.091915
  23 H :    0.119825
  24 H :    0.114609
  25 H :    0.110168
  26 H :    0.099962
  27 H :    0.121700

  Mayer bond orders larger than 0.100000
B(  0-C ,  6-C ) :   0.8195 B(  0-C , 15-C ) :   0.8713 B(  0-C , 19-C ) :   0.1244
B(  0-C , 26-H ) :   0.9833 B(  0-C , 27-H ) :   0.9041 B(  1-C ,  2-C ) :   0.9291
B(  1-C , 19-C ) :   1.0767 B(  1-C , 22-H ) :   0.1094 B(  1-C , 24-H ) :   0.9178
B(  1-C , 25-H ) :   0.9337 B(  2-C ,  3-H ) :   0.9531 B(  2-C ,  4-H ) :   0.9019
B(  2-C ,  5-C ) :   0.9620 B(  2-C , 16-C ) :   0.1282 B(  5-C , 13-F ) :   0.9053
B(  5-C , 14-O ) :   1.7611 B(  6-C ,  7-N ) :   1.1222 B(  6-C ,  8-C ) :   1.2207
B(  6-C , 15-C ) :   0.2028 B(  6-C , 16-C ) :   0.1203 B(  7-N ,  8-C ) :   0.2108
B(  7-N , 11-H ) :   0.7317 B(  7-N , 12-H ) :   0.8999 B(  7-N , 14-O ) :   0.1006
B(  8-C ,  9-H ) :   0.9641 B(  8-C , 10-H ) :   1.0329 B( 15-C , 16-C ) :   1.1303
B( 15-C , 17-H ) :   0.9160 B( 15-C , 18-H ) :   0.8550 B( 15-C , 19-C ) :   0.2966
B( 16-C , 19-C ) :   0.6207 B( 16-C , 20-H ) :   0.9510 B( 16-C , 21-H ) :   0.9482
B( 19-C , 22-H ) :   0.9979 B( 19-C , 23-H ) :   0.8747

Dispersion correction           -0.031161099
FINAL SINGLE POINT ENERGY      -581.894239599376

DIPOLE MOMENT
-------------
                                X             Y             Z
Electronic contribution:     -5.30905      -1.80940     -10.92860
Nuclear contribution   :      3.65024       2.44123      11.52670
                        -----------------------------------------
Total Dipole Moment    :     -1.65880       0.63183       0.59810
                        -----------------------------------------
Magnitude (a.u.)       :      1.87312
Magnitude (Debye)      :      4.76109

Rotational constants in cm-1:     0.040600     0.026409     0.019262
Rotational constants in MHz :  1217.142957   791.712481   577.449390

                             ****ORCA TERMINATED NORMALLY****
TOTAL RUN TIME: 0 days 0 hours 1 minutes 38 seconds 417 msec
