                         Program Version 5.0.0 -  RELEASE  -
|  1> !PBE D3BJ RIJCOSX def2-TZVPD def2/J TightSCF xyzfile
|  2>
|  3> *xyzfile 0 1 D3.xyz
|  4>
|  5> %MaxCore 64000
|  6>
|  7> %pal nprocs 4
|  8> end
|  9>
| 10> %scf
| 11>   MaxIter 150
| 12> end
| 13>
| 14>
| 15>                          ****END OF INPUT****

CARTESIAN COORDINATES (ANGSTROEM)
---------------------------------
  C      2.486452   -2.677121   -2.563447
  C     -0.870963    0.248043   -2.662804
  C     -0.477492    0.608191   -4.101052
  H      0.206773    1.458299   -4.118748
  H     -1.368442    0.929419   -4.647855
  C      0.184673   -0.506640   -4.916760
  C      3.037640   -2.366715   -3.923509
  C      2.280360   -2.454408   -4.967692
  N      4.321736   -2.017932   -4.016641
  H      4.879940   -1.911668   -3.173823
  H      4.710148   -1.670882   -4.883561
  H      1.270423   -2.412650   -4.866143
  H      2.581829   -2.055282   -5.846878
  O     -0.158685   -1.701088   -4.657981
  F      1.055938   -0.174410   -5.740373
  C      2.497991   -1.469464   -1.610303
  C      1.582841   -0.321986   -2.042619
  H      2.193083   -1.833912   -0.625420
  H      3.523356   -1.103982   -1.490392
  C      0.100160   -0.673551   -1.915815
  H      1.822311   -0.040361   -3.072834
  H      1.813180    0.557019   -1.433266
  H     -0.063284   -1.679120   -2.301112
  H     -0.168820   -0.691680   -0.853831
  H     -1.001048    1.181040   -2.104071
  H     -1.844645   -0.246592   -2.663281
  H      1.472592   -3.051527   -2.694366
  H      3.083201   -3.490638   -2.141472

 Total Charge           Charge          ....    0
 Multiplicity           Mult            ....    1
 Number of Electrons    NEL             ....   94
 Basis Dimension        Dim             ....  594

ORBITAL ENERGIES
----------------

  NO   OCC          E(Eh)            E(eV)
   0   2.0000     -24.329594      -662.0419
   1   2.0000     -18.752121      -510.2711
   2   2.0000     -13.974913      -380.2767
   3   2.0000     -10.050570      -273.4899
   4   2.0000      -9.911268      -269.6993
   5   2.0000      -9.892561      -269.1903
   6   2.0000      -9.882104      -268.9057
   7   2.0000      -9.878607      -268.8106
   8   2.0000      -9.878120      -268.7973
   9   2.0000      -9.875645      -268.7300
  10   2.0000      -9.870493      -268.5898
  11   2.0000      -9.783806      -266.2309
  12   2.0000      -1.223878       -33.3034
  13   2.0000      -0.946212       -25.7477
  14   2.0000      -0.834200       -22.6997
  15   2.0000      -0.747364       -20.3368
  16   2.0000      -0.717353       -19.5202
  17   2.0000      -0.672486       -18.2993
  18   2.0000      -0.650103       -17.6902
  19   2.0000      -0.613452       -16.6929
  20   2.0000      -0.589464       -16.0401
  21   2.0000      -0.551934       -15.0189
  22   2.0000      -0.518471       -14.1083
  23   2.0000      -0.505671       -13.7600
  24   2.0000      -0.490808       -13.3556
  25   2.0000      -0.469560       -12.7774
  26   2.0000      -0.464119       -12.6293
  27   2.0000      -0.454927       -12.3792
  28   2.0000      -0.427432       -11.6310
  29   2.0000      -0.419477       -11.4145
  30   2.0000      -0.404964       -11.0196
  31   2.0000      -0.392900       -10.6914
  32   2.0000      -0.385112       -10.4794
  33   2.0000      -0.356827        -9.7098
  34   2.0000      -0.351420        -9.5626
  35   2.0000      -0.345081        -9.3901
  36   2.0000      -0.334675        -9.1070
  37   2.0000      -0.322454        -8.7744
  38   2.0000      -0.315060        -8.5732
  39   2.0000      -0.310813        -8.4576
  40   2.0000      -0.293550        -7.9879
  41   2.0000      -0.288090        -7.8393
  42   2.0000      -0.276703        -7.5295
  43   2.0000      -0.270625        -7.3641
  44   2.0000      -0.269917        -7.3448
  45   2.0000      -0.221971        -6.0401
  46   2.0000      -0.151762        -4.1296
  47   0.0000      -0.070186        -1.9099
  48   0.0000      -0.016540        -0.4501
  49   0.0000      -0.006979        -0.1899
  50   0.0000       0.000802         0.0218
  51   0.0000       0.009232         0.2512

MULLIKEN ATOMIC CHARGES
-----------------------
   0 C :   -0.331102
   1 C :   -0.255894
   2 C :   -0.274601
   3 H :    0.264779
   4 H :    0.140024
   5 C :    0.394447
   6 C :    0.402163
   7 C :   -1.279912
   8 N :   -0.298820
   9 H :    0.130318
  10 H :    0.131771
  11 H :    0.734597
  12 H :    0.196655
  13 O :   -0.501206
  14 F :   -0.216630
  15 C :   -0.235007
  16 C :   -0.157686
  17 H :    0.129417
  18 H :    0.204871
  19 C :   -0.419800
  20 H :    0.138317
  21 H :    0.126172
  22 H :    0.186393
  23 H :    0.199075
  24 H :    0.127197
  25 H :    0.198353
  26 H :    0.083207
  27 H :    0.182904
Sum of atomic charges:   -0.0000000

LOEWDIN ATOMIC CHARGES
----------------------
   0 C :   -0.139737
   1 C :   -0.186415
   2 C :   -0.105411
   3 H :    0.115430
   4 H :    0.126009
   5 C :   -0.492842
   6 C :   -0.478761
   7 C :    0.008281
   8 N :    0.117705
   9 H :    0.095913
  10 H :    0.104730
  11 H :   -0.021370
  12 H :    0.036869
  13 O :    0.072646
  14 F :    0.247252
  15 C :   -0.194883
  16 C :   -0.197089
  17 H :    0.110855
  18 H :    0.100464
  19 C :   -0.207903
  20 H :    0.103842
  21 H :    0.116100
  22 H :    0.095456
  23 H :    0.118635
  24 H :    0.113218
  25 H :    0.113196
  26 H :    0.110003
  27 H :    0.117808

  Mayer bond orders larger than 0.100000
B(  0-C ,  6-C ) :   0.8375 B(  0-C ,  8-N ) :   0.1505 B(  0-C , 15-C ) :   0.9471
B(  0-C , 19-C ) :   0.1156 B(  0-C , 26-H ) :   0.9619 B(  0-C , 27-H ) :   0.9306
B(  1-C ,  2-C ) :   0.9843 B(  1-C , 16-C ) :   0.1244 B(  1-C , 19-C ) :   1.1954
B(  1-C , 22-H ) :   0.1364 B(  1-C , 24-H ) :   0.9375 B(  1-C , 25-H ) :   0.8896
B(  2-C ,  3-H ) :   0.9107 B(  2-C ,  4-H ) :   0.9031 B(  2-C ,  5-C ) :   0.9818
B(  2-C , 16-C ) :   0.1263 B(  5-C , 13-O ) :   1.7893 B(  5-C , 14-F ) :   0.9718
B(  6-C ,  7-C ) :   1.5090 B(  6-C ,  8-N ) :   0.9845 B(  6-C , 11-H ) :  -0.1376
B(  6-C , 12-H ) :  -0.1365 B(  6-C , 15-C ) :   0.1513 B(  7-C , 11-H ) :   0.6581
B(  7-C , 12-H ) :   1.1590 B(  8-N ,  9-H ) :   1.0378 B(  8-N , 10-H ) :   0.9868
B( 11-H , 13-O ) :  -0.2115 B( 13-O , 14-F ) :   0.1180 B( 15-C , 16-C ) :   1.1566
B( 15-C , 17-H ) :   0.9268 B( 15-C , 18-H ) :   0.8246 B( 15-C , 19-C ) :   0.3165
B( 16-C , 19-C ) :   0.6252 B( 16-C , 20-H ) :   0.9500 B( 16-C , 21-H ) :   0.9402
B( 19-C , 22-H ) :   0.9614 B( 19-C , 23-H ) :   0.8733

Dispersion correction           -0.031405535
FINAL SINGLE POINT ENERGY      -581.878237806060

DIPOLE MOMENT
-------------
                                X             Y             Z
Electronic contribution:     -1.73240       0.84935     -12.12620
Nuclear contribution   :      1.88979       0.56282      12.66056
                        -----------------------------------------
Total Dipole Moment    :      0.15738       1.41217       0.53436
                        -----------------------------------------
Magnitude (a.u.)       :      1.51807
Magnitude (Debye)      :      3.85862

Rotational constants in cm-1:     0.040271     0.025954     0.018866
Rotational constants in MHz :  1207.302496   778.083475   565.600538

                             ****ORCA TERMINATED NORMALLY****
TOTAL RUN TIME: 0 days 0 hours 1 minutes 11 seconds 391 msec
