                         Program Version 5.0.0 -  RELEASE  -
|  1> !PBE D3BJ RIJCOSX def2-TZVPD def2/J TightSCF xyzfile
|  2>
|  3> *xyzfile 0 1 D4.xyz
|  4>
|  5> %MaxCore 64000
|  6>
|  7> %pal nprocs 4
|  8> end
|  9>
| 10> %scf
| 11>   MaxIter 150
| 12> end
| 13>
| 14>
| 15>                          ****END OF INPUT****

CARTESIAN COORDINATES (ANGSTROEM)
---------------------------------
  C      2.486452   -2.677121   -2.563447
  C     -0.870963    0.248043   -2.662804
  C     -0.477492    0.608191   -4.101052
  H      0.206773    1.458299   -4.118748
  H     -1.368442    0.929419   -4.647855
  C      0.184673   -0.506640   -4.916760
  C      3.037640   -2.366715   -3.923509
  N      2.280360   -2.454408   -4.967692
  C      4.321736   -2.017932   -4.016641
  H      4.879940   -1.911668   -3.173823
  H      4.710148   -1.670882   -4.883561
  H      1.270423   -2.412650   -4.866143
  H      2.581829   -2.055282   -5.846878
  O     -0.158685   -1.701088   -4.657981
  F      1.055938   -0.174410   -5.740373
  C      2.497991   -1.469464   -1.610303
  C      1.582841   -0.321986   -2.042619
  H      2.193083   -1.833912   -0.625420
  H      3.523356   -1.103982   -1.490392
  C      0.100160   -0.673551   -1.915815
  H      1.822311   -0.040361   -3.072834
  H      1.813180    0.557019   -1.433266
  H     -0.063284   -1.679120   -2.301112
  H     -0.168820   -0.691680   -0.853831
  H     -1.001048    1.181040   -2.104071
  H     -1.844645   -0.246592   -2.663281
  H      1.472592   -3.051527   -2.694366
  H      3.083201   -3.490638   -2.141472

 Total Charge           Charge          ....    0
 Multiplicity           Mult            ....    1
 Number of Electrons    NEL             ....   94
 Basis Dimension        Dim             ....  594

ORBITAL ENERGIES
----------------

  NO   OCC          E(Eh)            E(eV)
   0   2.0000     -24.351338      -662.6336
   1   2.0000     -18.778329      -510.9843
   2   2.0000     -13.955766      -379.7557
   3   2.0000     -10.073315      -274.1088
   4   2.0000      -9.924415      -270.0571
   5   2.0000      -9.901019      -269.4204
   6   2.0000      -9.883738      -268.9502
   7   2.0000      -9.881195      -268.8810
   8   2.0000      -9.880647      -268.8661
   9   2.0000      -9.875715      -268.7319
  10   2.0000      -9.870588      -268.5924
  11   2.0000      -9.798051      -266.6185
  12   2.0000      -1.245532       -33.8926
  13   2.0000      -0.971778       -26.4434
  14   2.0000      -0.838908       -22.8278
  15   2.0000      -0.756298       -20.5799
  16   2.0000      -0.720229       -19.5984
  17   2.0000      -0.681955       -18.5569
  18   2.0000      -0.643457       -17.5094
  19   2.0000      -0.618800       -16.8384
  20   2.0000      -0.599806       -16.3216
  21   2.0000      -0.560559       -15.2536
  22   2.0000      -0.526363       -14.3231
  23   2.0000      -0.517314       -14.0768
  24   2.0000      -0.500021       -13.6063
  25   2.0000      -0.487023       -13.2526
  26   2.0000      -0.473951       -12.8969
  27   2.0000      -0.446979       -12.1629
  28   2.0000      -0.432311       -11.7638
  29   2.0000      -0.427557       -11.6344
  30   2.0000      -0.420904       -11.4534
  31   2.0000      -0.396022       -10.7763
  32   2.0000      -0.379292       -10.3211
  33   2.0000      -0.364274        -9.9124
  34   2.0000      -0.361253        -9.8302
  35   2.0000      -0.348703        -9.4887
  36   2.0000      -0.337447        -9.1824
  37   2.0000      -0.329264        -8.9597
  38   2.0000      -0.318978        -8.6798
  39   2.0000      -0.317454        -8.6384
  40   2.0000      -0.299943        -8.1619
  41   2.0000      -0.294042        -8.0013
  42   2.0000      -0.282865        -7.6971
  43   2.0000      -0.277370        -7.5476
  44   2.0000      -0.274471        -7.4687
  45   2.0000      -0.255790        -6.9604
  46   2.0000      -0.141673        -3.8551
  47   0.0000      -0.091288        -2.4841
  48   0.0000      -0.021738        -0.5915
  49   0.0000      -0.003649        -0.0993
  50   0.0000       0.002453         0.0668
  51   0.0000       0.003993         0.1087

MULLIKEN ATOMIC CHARGES
-----------------------
   0 C :   -0.168047
   1 C :   -0.251236
   2 C :   -0.255360
   3 H :    0.267534
   4 H :    0.138972
   5 C :    0.493896
   6 C :    0.366948
   7 N :   -0.292778
   8 C :   -1.262272
   9 H :    0.279101
  10 H :    0.223894
  11 H :    0.326104
  12 H :    0.131113
  13 O :   -0.554599
  14 F :   -0.217611
  15 C :   -0.211866
  16 C :   -0.307804
  17 H :    0.129209
  18 H :    0.227240
  19 C :   -0.353585
  20 H :    0.159112
  21 H :    0.122938
  22 H :    0.163897
  23 H :    0.204867
  24 H :    0.131375
  25 H :    0.203575
  26 H :    0.165270
  27 H :    0.140116
Sum of atomic charges:    0.0000000

LOEWDIN ATOMIC CHARGES
----------------------
   0 C :   -0.140365
   1 C :   -0.185296
   2 C :   -0.102436
   3 H :    0.118801
   4 H :    0.128413
   5 C :   -0.483091
   6 C :   -0.493610
   7 N :    0.125952
   8 C :    0.018958
   9 H :    0.016444
  10 H :    0.014080
  11 H :    0.030720
  12 H :    0.111256
  13 O :    0.080094
  14 F :    0.251930
  15 C :   -0.190703
  16 C :   -0.196481
  17 H :    0.111037
  18 H :    0.107110
  19 C :   -0.209738
  20 H :    0.102260
  21 H :    0.117742
  22 H :    0.093044
  23 H :    0.119867
  24 H :    0.115159
  25 H :    0.113739
  26 H :    0.103601
  27 H :    0.121510

  Mayer bond orders larger than 0.100000
B(  0-C ,  6-C ) :   0.8289 B(  0-C , 15-C ) :   0.8581 B(  0-C , 19-C ) :   0.1258
B(  0-C , 26-H ) :   0.9870 B(  0-C , 27-H ) :   0.9031 B(  1-C ,  2-C ) :   0.9854
B(  1-C , 16-C ) :   0.1205 B(  1-C , 19-C ) :   1.1429 B(  1-C , 22-H ) :   0.1241
B(  1-C , 24-H ) :   0.9275 B(  1-C , 25-H ) :   0.8941 B(  2-C ,  3-H ) :   0.9027
B(  2-C ,  4-H ) :   0.9000 B(  2-C ,  5-C ) :   1.0017 B(  2-C , 16-C ) :   0.1237
B(  5-C , 13-O ) :   1.6255 B(  5-C , 14-F ) :   0.9885 B(  6-C ,  7-N ) :   1.1265
B(  6-C ,  8-C ) :   1.2461 B(  6-C , 15-C ) :   0.2172 B(  6-C , 16-C ) :   0.1208
B(  7-N ,  8-C ) :   0.2097 B(  7-N , 11-H ) :   0.7121 B(  7-N , 12-H ) :   0.9169
B(  8-C ,  9-H ) :   0.9705 B(  8-C , 10-H ) :   1.0336 B( 11-H , 13-O ) :   0.1150
B( 13-O , 14-F ) :   0.1003 B( 15-C , 16-C ) :   1.1577 B( 15-C , 17-H ) :   0.9067
B( 15-C , 18-H ) :   0.8612 B( 15-C , 19-C ) :   0.2892 B( 16-C , 19-C ) :   0.6242
B( 16-C , 20-H ) :   0.9632 B( 16-C , 21-H ) :   0.9386 B( 19-C , 22-H ) :   0.9882
B( 19-C , 23-H ) :   0.8615

Dispersion correction           -0.031301268
FINAL SINGLE POINT ENERGY      -581.896912578061

DIPOLE MOMENT
-------------
                                X             Y             Z
Electronic contribution:     -3.42531       0.73945     -12.76064
Nuclear contribution   :      2.21030       0.63135      12.80988
                        -----------------------------------------
Total Dipole Moment    :     -1.21501       1.37080       0.04924
                        -----------------------------------------
Magnitude (a.u.)       :      1.83242
Magnitude (Debye)      :      4.65765

Rotational constants in cm-1:     0.039980     0.026547     0.019089
Rotational constants in MHz :  1198.568620   795.867393   572.288555

                             ****ORCA TERMINATED NORMALLY****
TOTAL RUN TIME: 0 days 0 hours 1 minutes 10 seconds 268 msec
