                         Program Version 5.0.0 -  RELEASE  -
|  1> !M062X D3Zero RIJCOSX def2-SVP def2/J TightSCF
|  2> *xyz -1 1
|  3> C          2.49556        1.81615       -2.13636
|  4> C          1.87218        0.42790       -2.07750
|  5> H          2.61427       -0.36583       -2.19889
|  6> H          1.38995        0.27309       -1.11236
|  7> S          0.57902        0.14047       -3.29794
|  8> O          0.22886       -1.24687       -3.12787
|  9> O         -0.43927        1.11897       -3.01455
| 10> O          1.24788        0.40347       -4.59565
| 11> H          2.96535        1.95613       -3.08747
| 12> H          3.22581        1.91242       -1.36024
| 13> H          1.73350        2.55528       -2.00274
| 14> *
| 15>
| 16> %MaxCore 64000
| 17>
| 18> %pal nprocs 4
| 19> end
| 20>
| 21> %scf
| 22>   MaxIter 150
| 23> end
| 24>
| 25>
| 26>                          ****END OF INPUT****

CARTESIAN COORDINATES (ANGSTROEM)
---------------------------------
  C      2.495560    1.816150   -2.136360
  C      1.872180    0.427900   -2.077500
  H      2.614270   -0.365830   -2.198890
  H      1.389950    0.273090   -1.112360
  S      0.579020    0.140470   -3.297940
  O      0.228860   -1.246870   -3.127870
  O     -0.439270    1.118970   -3.014550
  O      1.247880    0.403470   -4.595650
  H      2.965350    1.956130   -3.087470
  H      3.225810    1.912420   -1.360240
  H      1.733500    2.555280   -2.002740

 Total Charge           Charge          ....   -1
 Multiplicity           Mult            ....    1
 Number of Electrons    NEL             ....   58
 Basis Dimension        Dim             ....  113

ORBITAL ENERGIES
----------------

  NO   OCC          E(Eh)            E(eV)
   0   2.0000     -89.900492     -2446.3168
   1   2.0000     -19.385345      -527.5021
   2   2.0000     -19.385193      -527.4979
   3   2.0000     -19.368897      -527.0545
   4   2.0000     -10.399298      -282.9793
   5   2.0000     -10.394229      -282.8414
   6   2.0000      -8.230851      -223.9729
   7   2.0000      -6.155524      -167.5003
   8   2.0000      -6.155319      -167.4947
   9   2.0000      -6.155233      -167.4924
  10   2.0000      -1.026314       -27.9274
  11   2.0000      -0.883437       -24.0395
  12   2.0000      -0.854081       -23.2407
  13   2.0000      -0.711236       -19.3537
  14   2.0000      -0.575869       -15.6702
  15   2.0000      -0.443161       -12.0590
  16   2.0000      -0.378225       -10.2920
  17   2.0000      -0.377164       -10.2632
  18   2.0000      -0.334922        -9.1137
  19   2.0000      -0.322013        -8.7624
  20   2.0000      -0.312796        -8.5116
  21   2.0000      -0.284172        -7.7327
  22   2.0000      -0.265161        -7.2154
  23   2.0000      -0.201685        -5.4881
  24   2.0000      -0.198736        -5.4079
  25   2.0000      -0.164978        -4.4893
  26   2.0000      -0.151004        -4.1090
  27   2.0000      -0.140387        -3.8201
  28   2.0000      -0.110581        -3.0091
  29   0.0000       0.243117         6.6156
  30   0.0000       0.294460         8.0127
  31   0.0000       0.301449         8.2028
  32   0.0000       0.308274         8.3886
  33   0.0000       0.337817         9.1925

MULLIKEN ATOMIC CHARGES
-----------------------
   0 C :   -0.029739
   1 C :   -0.156575
   2 H :    0.023968
   3 H :    0.015972
   4 S :    0.951928
   5 O :   -0.602970
   6 O :   -0.604692
   7 O :   -0.648065
   8 H :    0.031786
   9 H :   -0.010820
  10 H :    0.029207
Sum of atomic charges:   -1.0000000

LOEWDIN ATOMIC CHARGES
----------------------
   0 C :   -0.079210
   1 C :   -0.198200
   2 H :    0.010673
   3 H :    0.006407
   4 S :    1.130342
   5 O :   -0.621444
   6 O :   -0.622354
   7 O :   -0.670158
   8 H :    0.020044
   9 H :    0.003993
  10 H :    0.019907

  Mayer bond orders larger than 0.100000
B(  0-C ,  1-C ) :   1.0503 B(  0-C ,  8-H ) :   0.9693 B(  0-C ,  9-H ) :   0.9667
B(  0-C , 10-H ) :   0.9692 B(  1-C ,  2-H ) :   0.9475 B(  1-C ,  3-H ) :   0.9447
B(  1-C ,  4-S ) :   0.8959 B(  4-S ,  5-O ) :   1.6264 B(  4-S ,  6-O ) :   1.6122
B(  4-S ,  7-O ) :   1.5668

Dispersion correction           -0.000144423
FINAL SINGLE POINT ENERGY      -702.572206519890

DIPOLE MOMENT
-------------
                                X             Y             Z
Electronic contribution:     -5.75664      -3.63054      -4.13936
Nuclear contribution   :      6.89220       4.11756       5.35566
                        -----------------------------------------
Total Dipole Moment    :      1.13556       0.48702       1.21630
                        -----------------------------------------
Magnitude (a.u.)       :      1.73380
Magnitude (Debye)      :      4.40698

Rotational constants in cm-1:     0.162183     0.084017     0.082390
Rotational constants in MHz :  4862.117324  2518.774315  2469.980309

                             ****ORCA TERMINATED NORMALLY****
TOTAL RUN TIME: 0 days 0 hours 0 minutes 9 seconds 162 msec
