                         Program Version 5.0.0 -  RELEASE  -
|  1> !M062X D3Zero RIJCOSX def2-SVP def2/J TightSCF
|  2> *xyz 1 1
|  3> C          3.38093        2.08304       -3.35013
|  4> N          4.53592        1.18245       -3.42852
|  5> C          2.49556        1.81615       -2.13636
|  6> C          4.67196        0.12227       -4.22060
|  7> N          5.86602       -0.50785       -4.22428
|  8> N          3.69888       -0.31284       -4.98699
|  9> H          2.73141       -0.05009       -4.84900
| 10> H          3.89005       -1.05517       -5.64373
| 11> H          5.25193        1.30346       -2.72101
| 12> H          6.69516       -0.06232       -3.85160
| 13> H          5.97538       -1.39688       -4.69141
| 14> H          2.80646        1.98651       -4.26848
| 15> H          3.77871        3.09828       -3.30738
| 16> H          2.11090        0.81901       -2.18783
| 17> H          1.68276        2.51198       -2.12786
| 18> H          3.07216        1.93031       -1.24227
| 19> *
| 20>
| 21> %MaxCore 64000
| 22>
| 23> %pal nprocs 4
| 24> end
| 25>
| 26> %scf
| 27>   MaxIter 150
| 28> end
| 29>
| 30>
| 31>                          ****END OF INPUT****

CARTESIAN COORDINATES (ANGSTROEM)
---------------------------------
  C      3.380930    2.083040   -3.350130
  N      4.535920    1.182450   -3.428520
  C      2.495560    1.816150   -2.136360
  C      4.671960    0.122270   -4.220600
  N      5.866020   -0.507850   -4.224280
  N      3.698880   -0.312840   -4.986990
  H      2.731410   -0.050090   -4.849000
  H      3.890050   -1.055170   -5.643730
  H      5.251930    1.303460   -2.721010
  H      6.695160   -0.062320   -3.851600
  H      5.975380   -1.396880   -4.691410
  H      2.806460    1.986510   -4.268480
  H      3.778710    3.098280   -3.307380
  H      2.110900    0.819010   -2.187830
  H      1.682760    2.511980   -2.127860
  H      3.072160    1.930310   -1.242270

 Total Charge           Charge          ....    1
 Multiplicity           Mult            ....    1
 Number of Electrons    NEL             ....   48
 Basis Dimension        Dim             ....  134

ORBITAL ENERGIES
----------------

  NO   OCC          E(Eh)            E(eV)
   0   2.0000     -14.987028      -407.8178
   1   2.0000     -14.980847      -407.6496
   2   2.0000     -14.978031      -407.5729
   3   2.0000     -10.890481      -296.3450
   4   2.0000     -10.756069      -292.6875
   5   2.0000     -10.684951      -290.7523
   6   2.0000      -1.314907       -35.7804
   7   2.0000      -1.196596       -32.5610
   8   2.0000      -1.180029       -32.1102
   9   2.0000      -1.016064       -27.6485
  10   2.0000      -0.919609       -25.0238
  11   2.0000      -0.880235       -23.9524
  12   2.0000      -0.862310       -23.4647
  13   2.0000      -0.814655       -22.1679
  14   2.0000      -0.765948       -20.8425
  15   2.0000      -0.760917       -20.7056
  16   2.0000      -0.711181       -19.3522
  17   2.0000      -0.702699       -19.1214
  18   2.0000      -0.669952       -18.2303
  19   2.0000      -0.621788       -16.9197
  20   2.0000      -0.591558       -16.0971
  21   2.0000      -0.574536       -15.6339
  22   2.0000      -0.539506       -14.6807
  23   2.0000      -0.504258       -13.7216
  24   0.0000      -0.114760        -3.1228
  25   0.0000      -0.099107        -2.6968
  26   0.0000      -0.065719        -1.7883
  27   0.0000      -0.056874        -1.5476
  28   0.0000      -0.038117        -1.0372

MULLIKEN ATOMIC CHARGES
-----------------------
   0 C :   -0.026552
   1 N :   -0.193181
   2 C :   -0.033630
   3 C :    0.125237
   4 N :   -0.114229
   5 N :   -0.069034
   6 H :    0.193383
   7 H :    0.187207
   8 H :    0.182437
   9 H :    0.190213
  10 H :    0.185276
  11 H :    0.070910
  12 H :    0.100494
  13 H :    0.045698
  14 H :    0.089485
  15 H :    0.066285
Sum of atomic charges:    1.0000000

LOEWDIN ATOMIC CHARGES
----------------------
   0 C :    0.042129
   1 N :    0.010127
   2 C :   -0.050263
   3 C :    0.161412
   4 N :    0.018023
   5 N :    0.047835
   6 H :    0.116604
   7 H :    0.116634
   8 H :    0.109717
   9 H :    0.114530
  10 H :    0.110925
  11 H :    0.033881
  12 H :    0.051297
  13 H :    0.028643
  14 H :    0.051040
  15 H :    0.037466

  Mayer bond orders larger than 0.100000
B(  0-C ,  1-N ) :   0.9102 B(  0-C ,  2-C ) :   1.0847 B(  0-C , 11-H ) :   0.9569
B(  0-C , 12-H ) :   0.9486 B(  1-N ,  3-C ) :   1.3754 B(  1-N ,  8-H ) :   0.9036
B(  2-C , 13-H ) :   0.9687 B(  2-C , 14-H ) :   0.9649 B(  2-C , 15-H ) :   0.9692
B(  3-C ,  4-N ) :   1.3682 B(  3-C ,  5-N ) :   1.4176 B(  4-N ,  9-H ) :   0.9202
B(  4-N , 10-H ) :   0.9240 B(  5-N ,  6-H ) :   0.9153 B(  5-N ,  7-H ) :   0.9176

Dispersion correction           -0.000317811
FINAL SINGLE POINT ENERGY      -284.046802740877

DIPOLE MOMENT
-------------
                                X             Y             Z
Electronic contribution:      3.60101      -2.70942      -2.85334
Nuclear contribution   :     -2.93277       1.85779       2.25966
                        -----------------------------------------
Total Dipole Moment    :      0.66824      -0.85163      -0.59368
                        -----------------------------------------
Magnitude (a.u.)       :      1.23462
Magnitude (Debye)      :      3.13814

Rotational constants in cm-1:     0.245511     0.068839     0.059711
Rotational constants in MHz :  7360.233487  2063.743353  1790.088408

                             ****ORCA TERMINATED NORMALLY****
TOTAL RUN TIME: 0 days 0 hours 0 minutes 12 seconds 136 msec
