                         Program Version 5.0.0 -  RELEASE  -
|  1> !M062X D3Zero RIJCOSX def2-TZVP def2/J TightSCF xyzfile
|  2>
|  3> *xyzfile 0 1 B.xyz
|  4>
|  5> %MaxCore 64000
|  6>
|  7> %pal nprocs 18
|  8> end
|  9>
| 10> %scf
| 11>   MaxIter 150
| 12> end
| 13>
| 14>
| 15>                          ****END OF INPUT****

CARTESIAN COORDINATES (ANGSTROEM)
---------------------------------
  C      3.380928    2.083045   -3.350127
  N      4.535924    1.182447   -3.428518
  C      2.495557    1.816150   -2.136364
  C      1.872181    0.427903   -2.077497
  H      2.614270   -0.365825   -2.198894
  H      1.389953    0.273087   -1.112360
  S      0.579024    0.140472   -3.297943
  C      4.671956    0.122273   -4.220598
  N      5.866023   -0.507849   -4.224284
  N      3.698881   -0.312844   -4.986988
  H      2.731405   -0.050091   -4.849000
  H      3.890046   -1.055172   -5.643730
  H      5.251933    1.303459   -2.721014
  H      6.695165   -0.062322   -3.851596
  H      5.975383   -1.396884   -4.691414
  O      0.228860   -1.246868   -3.127871
  O     -0.439269    1.118966   -3.014550
  O      1.247881    0.403474   -4.595647
  H      1.697003    2.561969   -2.141109
  H      3.080787    1.987436   -1.225838
  H      2.806463    1.986511   -4.268484
  H      3.778714    3.098282   -3.307383

 Total Charge           Charge          ....    0
 Multiplicity           Mult            ....    1
 Number of Electrons    NEL             ....   96
 Basis Dimension        Dim             ....  413

ORBITAL ENERGIES
----------------

  NO   OCC          E(Eh)            E(eV)
   0   2.0000     -90.033800     -2449.9442
   1   2.0000     -19.558737      -532.2203
   2   2.0000     -19.541975      -531.7642
   3   2.0000     -19.541830      -531.7602
   4   2.0000     -14.842387      -403.8819
   5   2.0000     -14.837483      -403.7484
   6   2.0000     -14.807725      -402.9387
   7   2.0000     -10.738900      -292.2203
   8   2.0000     -10.601606      -288.4844
   9   2.0000     -10.550430      -287.0918
  10   2.0000     -10.535522      -286.6861
  11   2.0000      -8.358527      -227.4471
  12   2.0000      -6.281446      -170.9268
  13   2.0000      -6.280400      -170.8984
  14   2.0000      -6.279330      -170.8693
  15   2.0000      -1.195676       -32.5360
  16   2.0000      -1.189310       -32.3628
  17   2.0000      -1.073916       -29.2227
  18   2.0000      -1.063175       -28.9305
  19   2.0000      -1.052696       -28.6453
  20   2.0000      -1.047587       -28.5063
  21   2.0000      -0.907521       -24.6949
  22   2.0000      -0.830355       -22.5951
  23   2.0000      -0.771971       -21.0064
  24   2.0000      -0.729716       -19.8566
  25   2.0000      -0.722777       -19.6678
  26   2.0000      -0.683011       -18.5857
  27   2.0000      -0.639961       -17.4142
  28   2.0000      -0.622910       -16.9502
  29   2.0000      -0.608953       -16.5705
  30   2.0000      -0.584147       -15.8954
  31   2.0000      -0.561176       -15.2704
  32   2.0000      -0.545000       -14.8302
  33   2.0000      -0.523127       -14.2350
  34   2.0000      -0.509818       -13.8729
  35   2.0000      -0.497154       -13.5282
  36   2.0000      -0.478848       -13.0301
  37   2.0000      -0.446928       -12.1615
  38   2.0000      -0.440398       -11.9838
  39   2.0000      -0.426750       -11.6125
  40   2.0000      -0.406005       -11.0480
  41   2.0000      -0.378296       -10.2940
  42   2.0000      -0.373481       -10.1629
  43   2.0000      -0.369618       -10.0578
  44   2.0000      -0.336558        -9.1582
  45   2.0000      -0.326795        -8.8925
  46   2.0000      -0.310139        -8.4393
  47   2.0000      -0.288215        -7.8427
  48   0.0000      -0.008869        -0.2413
  49   0.0000       0.011316         0.3079
  50   0.0000       0.026267         0.7147
  51   0.0000       0.047185         1.2840
  52   0.0000       0.083095         2.2611

MULLIKEN ATOMIC CHARGES
-----------------------
   0 C :   -0.325822
   1 N :   -0.346670
   2 C :   -0.230547
   3 C :   -0.416008
   4 H :    0.154252
   5 H :    0.171534
   6 S :    0.947218
   7 C :    0.621473
   8 N :   -0.561526
   9 N :   -0.481677
  10 H :    0.343004
  11 H :    0.256274
  12 H :    0.251407
  13 H :    0.276619
  14 H :    0.280325
  15 O :   -0.536707
  16 O :   -0.530154
  17 O :   -0.616525
  18 H :    0.188332
  19 H :    0.139623
  20 H :    0.253198
  21 H :    0.162379
Sum of atomic charges:   -0.0000000

LOEWDIN ATOMIC CHARGES
----------------------
   0 C :   -0.265171
   1 N :    0.150997
   2 C :   -0.293582
   3 C :   -0.398300
   4 H :    0.125203
   5 H :    0.140887
   6 S :    0.449943
   7 C :   -0.424800
   8 N :    0.008884
   9 N :    0.087540
  10 H :    0.146194
  11 H :    0.187381
  12 H :    0.199391
  13 H :    0.183936
  14 H :    0.185631
  15 O :   -0.344721
  16 O :   -0.338414
  17 O :   -0.388317
  18 H :    0.158796
  19 H :    0.136441
  20 H :    0.153484
  21 H :    0.138597

  Mayer bond orders larger than 0.100000
B(  0-C ,  1-N ) :   0.8118 B(  0-C ,  2-C ) :   0.9127 B(  0-C , 20-H ) :   0.9571
B(  0-C , 21-H ) :   0.9783 B(  1-N ,  7-C ) :   1.3264 B(  1-N , 12-H ) :   0.9169
B(  2-C ,  3-C ) :   0.8987 B(  2-C , 18-H ) :   0.9592 B(  2-C , 19-H ) :   0.9742
B(  3-C ,  4-H ) :   0.9568 B(  3-C ,  5-H ) :   0.9630 B(  3-C ,  6-S ) :   0.9015
B(  6-S , 15-O ) :   1.8444 B(  6-S , 16-O ) :   1.8245 B(  6-S , 17-O ) :   1.4556
B(  7-C ,  8-N ) :   1.1591 B(  7-C ,  9-N ) :   1.3950 B(  8-N , 13-H ) :   0.9120
B(  8-N , 14-H ) :   0.9114 B(  9-N , 10-H ) :   0.7298 B(  9-N , 11-H ) :   0.9202
B( 10-H , 17-O ) :   0.1951

Dispersion correction           -0.000937957
FINAL SINGLE POINT ENERGY      -947.175248207327

DIPOLE MOMENT
-------------
                                X             Y             Z
Electronic contribution:     -7.03413      -3.20803      -2.42819
Nuclear contribution   :     13.40759       3.44219       2.21042
                        -----------------------------------------
Total Dipole Moment    :      6.37346       0.23416      -0.21777
                        -----------------------------------------
Magnitude (a.u.)       :      6.38148
Magnitude (Debye)      :     16.22043

Rotational constants in cm-1:     0.059860     0.020817     0.017914
Rotational constants in MHz :  1794.564877   624.092098   537.039275

                             ****ORCA TERMINATED NORMALLY****
TOTAL RUN TIME: 0 days 0 hours 0 minutes 45 seconds 204 msec
