                         Program Version 5.0.0 -  RELEASE  -
|  1> !M062X D3Zero RIJCOSX def2-SVP def2/J TightSCF
|  2> *xyz 0 1
|  3> C          2.49556        1.81615       -2.13636
|  4> C          1.87218        0.42790       -2.07750
|  5> H          2.61427       -0.36583       -2.19889
|  6> H          1.38995        0.27309       -1.11236
|  7> S          0.57902        0.14047       -3.29794
|  8> F          0.22886       -1.24687       -3.12787
|  9> O         -0.43927        1.11897       -3.01455
| 10> O          1.24788        0.40347       -4.59565
| 11> H          2.96535        1.95613       -3.08747
| 12> H          3.22581        1.91242       -1.36024
| 13> H          1.73350        2.55528       -2.00274
| 14> *
| 15>
| 16> %MaxCore 64000
| 17>
| 18> %pal nprocs 4
| 19> end
| 20>
| 21> %scf
| 22>   MaxIter 150
| 23> end
| 24>
| 25>
| 26>                          ****END OF INPUT****

CARTESIAN COORDINATES (ANGSTROEM)
---------------------------------
  C      2.495560    1.816150   -2.136360
  C      1.872180    0.427900   -2.077500
  H      2.614270   -0.365830   -2.198890
  H      1.389950    0.273090   -1.112360
  S      0.579020    0.140470   -3.297940
  F      0.228860   -1.246870   -3.127870
  O     -0.439270    1.118970   -3.014550
  O      1.247880    0.403470   -4.595650
  H      2.965350    1.956130   -3.087470
  H      3.225810    1.912420   -1.360240
  H      1.733500    2.555280   -2.002740

 Total Charge           Charge          ....    0
 Multiplicity           Mult            ....    1
 Number of Electrons    NEL             ....   58
 Basis Dimension        Dim             ....  113

ORBITAL ENERGIES
----------------

  NO   OCC          E(Eh)            E(eV)
   0   2.0000     -90.175274     -2453.7940
   1   2.0000     -25.367287      -690.2790
   2   2.0000     -19.637365      -534.3599
   3   2.0000     -19.621165      -533.9191
   4   2.0000     -10.607696      -288.6501
   5   2.0000     -10.568684      -287.5885
   6   2.0000      -8.508268      -231.5217
   7   2.0000      -6.435954      -175.1312
   8   2.0000      -6.430545      -174.9840
   9   2.0000      -6.429529      -174.9564
  10   2.0000      -1.513779       -41.1920
  11   2.0000      -1.219526       -33.1850
  12   2.0000      -1.107093       -30.1255
  13   2.0000      -0.912102       -24.8196
  14   2.0000      -0.829819       -22.5805
  15   2.0000      -0.760709       -20.6999
  16   2.0000      -0.684812       -18.6347
  17   2.0000      -0.677814       -18.4443
  18   2.0000      -0.633486       -17.2380
  19   2.0000      -0.564877       -15.3711
  20   2.0000      -0.557088       -15.1591
  21   2.0000      -0.511333       -13.9141
  22   2.0000      -0.496218       -13.5028
  23   2.0000      -0.473602       -12.8874
  24   2.0000      -0.452420       -12.3110
  25   2.0000      -0.449336       -12.2270
  26   2.0000      -0.396635       -10.7930
  27   2.0000      -0.379462       -10.3257
  28   2.0000      -0.368474       -10.0267
  29   0.0000       0.082743         2.2515
  30   0.0000       0.092061         2.5051
  31   0.0000       0.120216         3.2712
  32   0.0000       0.128028         3.4838
  33   0.0000       0.136761         3.7215

MULLIKEN ATOMIC CHARGES
-----------------------
   0 C :   -0.036445
   1 C :   -0.190356
   2 H :    0.088232
   3 H :    0.083086
   4 S :    1.017882
   5 F :   -0.194760
   6 O :   -0.464517
   7 O :   -0.507897
   8 H :    0.073756
   9 H :    0.060981
  10 H :    0.070037
Sum of atomic charges:   -0.0000000

LOEWDIN ATOMIC CHARGES
----------------------
   0 C :   -0.051037
   1 C :   -0.161471
   2 H :    0.037148
   3 H :    0.034298
   4 S :    1.188809
   5 F :   -0.125283
   6 O :   -0.495102
   7 O :   -0.543049
   8 H :    0.038625
   9 H :    0.038974
  10 H :    0.038087

  Mayer bond orders larger than 0.100000
B(  0-C ,  1-C ) :   1.0625 B(  0-C ,  8-H ) :   0.9712 B(  0-C ,  9-H ) :   0.9657
B(  0-C , 10-H ) :   0.9704 B(  1-C ,  2-H ) :   0.9321 B(  1-C ,  3-H ) :   0.9315
B(  1-C ,  4-S ) :   0.9277 B(  4-S ,  5-F ) :   1.0012 B(  4-S ,  6-O ) :   1.7679
B(  4-S ,  7-O ) :   1.7231

Dispersion correction           -0.000139490
FINAL SINGLE POINT ENERGY      -727.066474529215

DIPOLE MOMENT
-------------
                                X             Y             Z
Electronic contribution:     -6.83012      -6.43891      -4.08094
Nuclear contribution   :      7.60530       5.82028       5.38743
                        -----------------------------------------
Total Dipole Moment    :      0.77518      -0.61863       1.30649
                        -----------------------------------------
Magnitude (a.u.)       :      1.64028
Magnitude (Debye)      :      4.16926

Rotational constants in cm-1:     0.157861     0.081452     0.078859
Rotational constants in MHz :  4732.562506  2441.865430  2364.129821

                             ****ORCA TERMINATED NORMALLY****
TOTAL RUN TIME: 0 days 0 hours 0 minutes 9 seconds 685 msec
