                         Program Version 5.0.0 -  RELEASE  -
|  1> !M062X D3Zero RIJCOSX def2-SVP def2/J TightSCF
|  2> *xyz 0 1
|  3> C          3.38093        2.08304       -3.35013
|  4> C          4.53592        1.18245       -3.42852
|  5> C          2.49556        1.81615       -2.13636
|  6> C          4.67196        0.12227       -4.22060
|  7> N          5.86602       -0.50785       -4.22428
|  8> N          3.69888       -0.31284       -4.98699
|  9> H          2.73141       -0.05009       -4.84900
| 10> H          3.89005       -1.05517       -5.64373
| 11> H          5.25193        1.30346       -2.72101
| 12> H          6.69516       -0.06232       -3.85160
| 13> H          5.97538       -1.39688       -4.69141
| 14> H          2.80646        1.98651       -4.26848
| 15> H          3.77871        3.09828       -3.30738
| 16> H          2.11090        0.81901       -2.18783
| 17> H          1.68276        2.51198       -2.12786
| 18> H          3.07216        1.93031       -1.24227
| 19> *
| 20>
| 21> %MaxCore 64000
| 22>
| 23> %pal nprocs 4
| 24> end
| 25>
| 26> %scf
| 27>   MaxIter 150
| 28> end
| 29>
| 30>
| 31>                          ****END OF INPUT****

CARTESIAN COORDINATES (ANGSTROEM)
---------------------------------
  C      3.380930    2.083040   -3.350130
  C      4.535920    1.182450   -3.428520
  C      2.495560    1.816150   -2.136360
  C      4.671960    0.122270   -4.220600
  N      5.866020   -0.507850   -4.224280
  N      3.698880   -0.312840   -4.986990
  H      2.731410   -0.050090   -4.849000
  H      3.890050   -1.055170   -5.643730
  H      5.251930    1.303460   -2.721010
  H      6.695160   -0.062320   -3.851600
  H      5.975380   -1.396880   -4.691410
  H      2.806460    1.986510   -4.268480
  H      3.778710    3.098280   -3.307380
  H      2.110900    0.819010   -2.187830
  H      1.682760    2.511980   -2.127860
  H      3.072160    1.930310   -1.242270

 Total Charge           Charge          ....    0
 Multiplicity           Mult            ....    1
 Number of Electrons    NEL             ....   48
 Basis Dimension        Dim             ....  134

ORBITAL ENERGIES
----------------

  NO   OCC          E(Eh)            E(eV)
   0   2.0000     -14.755972      -401.5304
   1   2.0000     -14.747390      -401.2969
   2   2.0000     -10.588748      -288.1345
   3   2.0000     -10.517325      -286.1910
   4   2.0000     -10.511726      -286.0386
   5   2.0000     -10.462686      -284.7041
   6   2.0000      -1.052135       -28.6301
   7   2.0000      -0.952118       -25.9084
   8   2.0000      -0.853236       -23.2177
   9   2.0000      -0.770689       -20.9715
  10   2.0000      -0.688061       -18.7231
  11   2.0000      -0.646544       -17.5934
  12   2.0000      -0.610721       -16.6186
  13   2.0000      -0.570627       -15.5275
  14   2.0000      -0.541168       -14.7259
  15   2.0000      -0.503621       -13.7042
  16   2.0000      -0.476142       -12.9565
  17   2.0000      -0.456394       -12.4191
  18   2.0000      -0.436456       -11.8766
  19   2.0000      -0.407110       -11.0780
  20   2.0000      -0.380885       -10.3644
  21   2.0000      -0.374226       -10.1832
  22   2.0000      -0.320991        -8.7346
  23   2.0000      -0.198354        -5.3975
  24   0.0000       0.081527         2.2185
  25   0.0000       0.109564         2.9814
  26   0.0000       0.133133         3.6227
  27   0.0000       0.140848         3.8327
  28   0.0000       0.154446         4.2027

MULLIKEN ATOMIC CHARGES
-----------------------
   0 C :   -0.023301
   1 C :   -0.210275
   2 C :   -0.002224
   3 C :    0.012160
   4 N :   -0.156818
   5 N :   -0.116140
   6 H :    0.141847
   7 H :    0.117832
   8 H :   -0.072932
   9 H :    0.138129
  10 H :    0.111910
  11 H :   -0.007028
  12 H :    0.019605
  13 H :    0.008089
  14 H :    0.017995
  15 H :    0.021151
Sum of atomic charges:    0.0000000

LOEWDIN ATOMIC CHARGES
----------------------
   0 C :   -0.046744
   1 C :   -0.223742
   2 C :   -0.059895
   3 C :    0.029013
   4 N :   -0.049261
   5 N :   -0.023807
   6 H :    0.085178
   7 H :    0.069487
   8 H :   -0.008966
   9 H :    0.084891
  10 H :    0.063168
  11 H :    0.009463
  12 H :    0.023773
  13 H :    0.013716
  14 H :    0.013821
  15 H :    0.019904

  Mayer bond orders larger than 0.100000
B(  0-C ,  1-C ) :   1.0660 B(  0-C ,  2-C ) :   1.0774 B(  0-C , 11-H ) :   0.9487
B(  0-C , 12-H ) :   0.9292 B(  1-C ,  3-C ) :   1.7051 B(  1-C ,  8-H ) :   0.9483
B(  2-C , 13-H ) :   0.9725 B(  2-C , 14-H ) :   0.9681 B(  2-C , 15-H ) :   0.9732
B(  3-C ,  4-N ) :   1.2036 B(  3-C ,  5-N ) :   1.2519 B(  4-N ,  9-H ) :   0.9404
B(  4-N , 10-H ) :   0.9473 B(  5-N ,  6-H ) :   0.9335 B(  5-N ,  7-H ) :   0.9426

Dispersion correction           -0.000315935
FINAL SINGLE POINT ENERGY      -267.575853862975

DIPOLE MOMENT
-------------
                                X             Y             Z
Electronic contribution:      3.03695      -2.92451      -2.98442
Nuclear contribution   :     -2.84307       1.95814       2.32378
                        -----------------------------------------
Total Dipole Moment    :      0.19387      -0.96638      -0.66064
                        -----------------------------------------
Magnitude (a.u.)       :      1.18656
Magnitude (Debye)      :      3.01598

Rotational constants in cm-1:     0.248902     0.068887     0.059904
Rotational constants in MHz :  7461.898926  2065.183281  1795.882140

                             ****ORCA TERMINATED NORMALLY****
TOTAL RUN TIME: 0 days 0 hours 0 minutes 12 seconds 832 msec
