                         Program Version 5.0.0 -  RELEASE  -
|  1> !M062X D3Zero RIJCOSX def2-SVP def2/J TightSCF
|  2> *xyz 0 1
|  3> C          2.49556        1.81615       -2.13636
|  4> C          1.87218        0.42790       -2.07750
|  5> H          2.61427       -0.36583       -2.19889
|  6> H          1.38995        0.27309       -1.11236
|  7> S          0.57902        0.14047       -3.29794
|  8> O          0.22886       -1.24687       -3.12787
|  9> F         -0.43927        1.11897       -3.01455
| 10> O          1.24788        0.40347       -4.59565
| 11> H          2.96535        1.95613       -3.08747
| 12> H          3.22581        1.91242       -1.36024
| 13> H          1.73350        2.55528       -2.00274
| 14> *
| 15>
| 16> %MaxCore 64000
| 17>
| 18> %pal nprocs 4
| 19> end
| 20>
| 21> %scf
| 22>   MaxIter 150
| 23> end
| 24>
| 25>
| 26>                          ****END OF INPUT****

CARTESIAN COORDINATES (ANGSTROEM)
---------------------------------
  C      2.495560    1.816150   -2.136360
  C      1.872180    0.427900   -2.077500
  H      2.614270   -0.365830   -2.198890
  H      1.389950    0.273090   -1.112360
  S      0.579020    0.140470   -3.297940
  O      0.228860   -1.246870   -3.127870
  F     -0.439270    1.118970   -3.014550
  O      1.247880    0.403470   -4.595650
  H      2.965350    1.956130   -3.087470
  H      3.225810    1.912420   -1.360240
  H      1.733500    2.555280   -2.002740

 Total Charge           Charge          ....    0
 Multiplicity           Mult            ....    1
 Number of Electrons    NEL             ....   58
 Basis Dimension        Dim             ....  113

ORBITAL ENERGIES
----------------

  NO   OCC          E(Eh)            E(eV)
   0   2.0000     -90.175522     -2453.8007
   1   2.0000     -25.367462      -690.2837
   2   2.0000     -19.637708      -534.3692
   3   2.0000     -19.622317      -533.9504
   4   2.0000     -10.607549      -288.6461
   5   2.0000     -10.572008      -287.6790
   6   2.0000      -8.508488      -231.5277
   7   2.0000      -6.436253      -175.1393
   8   2.0000      -6.430687      -174.9879
   9   2.0000      -6.429749      -174.9624
  10   2.0000      -1.513986       -41.1977
  11   2.0000      -1.219199       -33.1761
  12   2.0000      -1.108490       -30.1635
  13   2.0000      -0.915420       -24.9098
  14   2.0000      -0.826252       -22.4835
  15   2.0000      -0.764095       -20.7921
  16   2.0000      -0.689845       -18.7716
  17   2.0000      -0.682925       -18.5833
  18   2.0000      -0.625748       -17.0275
  19   2.0000      -0.564215       -15.3531
  20   2.0000      -0.554296       -15.0831
  21   2.0000      -0.523117       -14.2347
  22   2.0000      -0.499788       -13.5999
  23   2.0000      -0.473659       -12.8889
  24   2.0000      -0.461908       -12.5691
  25   2.0000      -0.443772       -12.0756
  26   2.0000      -0.396524       -10.7900
  27   2.0000      -0.379489       -10.3264
  28   2.0000      -0.370809       -10.0902
  29   0.0000       0.070988         1.9317
  30   0.0000       0.102620         2.7924
  31   0.0000       0.115987         3.1562
  32   0.0000       0.132461         3.6044
  33   0.0000       0.133771         3.6401

MULLIKEN ATOMIC CHARGES
-----------------------
   0 C :   -0.049414
   1 C :   -0.192865
   2 H :    0.117716
   3 H :    0.083455
   4 S :    1.017847
   5 O :   -0.459414
   6 F :   -0.196046
   7 O :   -0.507298
   8 H :    0.076219
   9 H :    0.062109
  10 H :    0.047691
Sum of atomic charges:    0.0000000

LOEWDIN ATOMIC CHARGES
----------------------
   0 C :   -0.065758
   1 C :   -0.157213
   2 H :    0.056528
   3 H :    0.033850
   4 S :    1.189107
   5 O :   -0.492590
   6 F :   -0.125957
   7 O :   -0.542172
   8 H :    0.037631
   9 H :    0.038807
  10 H :    0.027767

  Mayer bond orders larger than 0.100000
B(  0-C ,  1-C ) :   1.0402 B(  0-C ,  8-H ) :   0.9701 B(  0-C ,  9-H ) :   0.9641
B(  0-C , 10-H ) :   0.9739 B(  1-C ,  2-H ) :   0.9375 B(  1-C ,  3-H ) :   0.9350
B(  1-C ,  4-S ) :   0.9266 B(  4-S ,  5-O ) :   1.7794 B(  4-S ,  6-F ) :   0.9944
B(  4-S ,  7-O ) :   1.7236

Dispersion correction           -0.000150730
FINAL SINGLE POINT ENERGY      -727.066542186292

DIPOLE MOMENT
-------------
                                X             Y             Z
Electronic contribution:     -7.96353      -2.41298      -3.88473
Nuclear contribution   :      8.30151       3.35500       5.26935
                        -----------------------------------------
Total Dipole Moment    :      0.33798       0.94202       1.38462
                        -----------------------------------------
Magnitude (a.u.)       :      1.70845
Magnitude (Debye)      :      4.34253

Rotational constants in cm-1:     0.152913     0.083043     0.080351
Rotational constants in MHz :  4584.227971  2489.580280  2408.872860

                             ****ORCA TERMINATED NORMALLY****
TOTAL RUN TIME: 0 days 0 hours 0 minutes 9 seconds 753 msec
