                         Program Version 5.0.0 -  RELEASE  -
|  1> !M062X D3Zero RIJCOSX def2-SVP def2/J TightSCF
|  2> *xyz 0 1
|  3> C          3.38093        2.08304       -3.35013
|  4> N          4.53592        1.18245       -3.42852
|  5> C          2.49556        1.81615       -2.13636
|  6> C          4.67196        0.12227       -4.22060
|  7> C          5.86602       -0.50785       -4.22428
|  8> N          3.69888       -0.31284       -4.98699
|  9> H          2.73141       -0.05009       -4.84900
| 10> H          3.89005       -1.05517       -5.64373
| 11> H          5.25193        1.30346       -2.72101
| 12> H          6.69516       -0.06232       -3.85160
| 13> H          5.97538       -1.39688       -4.69141
| 14> H          2.80646        1.98651       -4.26848
| 15> H          3.77871        3.09828       -3.30738
| 16> H          2.11090        0.81901       -2.18783
| 17> H          1.68276        2.51198       -2.12786
| 18> H          3.07216        1.93031       -1.24227
| 19> *
| 20>
| 21> %MaxCore 64000
| 22>
| 23> %pal nprocs 4
| 24> end
| 25>
| 26> %scf
| 27>   MaxIter 150
| 28> end
| 29>
| 30>
| 31>                          ****END OF INPUT****

CARTESIAN COORDINATES (ANGSTROEM)
---------------------------------
  C      3.380930    2.083040   -3.350130
  N      4.535920    1.182450   -3.428520
  C      2.495560    1.816150   -2.136360
  C      4.671960    0.122270   -4.220600
  C      5.866020   -0.507850   -4.224280
  N      3.698880   -0.312840   -4.986990
  H      2.731410   -0.050090   -4.849000
  H      3.890050   -1.055170   -5.643730
  H      5.251930    1.303460   -2.721010
  H      6.695160   -0.062320   -3.851600
  H      5.975380   -1.396880   -4.691410
  H      2.806460    1.986510   -4.268480
  H      3.778710    3.098280   -3.307380
  H      2.110900    0.819010   -2.187830
  H      1.682760    2.511980   -2.127860
  H      3.072160    1.930310   -1.242270

 Total Charge           Charge          ....    0
 Multiplicity           Mult            ....    1
 Number of Electrons    NEL             ....   48
 Basis Dimension        Dim             ....  134

ORBITAL ENERGIES
----------------

  NO   OCC          E(Eh)            E(eV)
   0   2.0000     -14.756285      -401.5389
   1   2.0000     -14.752324      -401.4311
   2   2.0000     -10.592504      -288.2367
   3   2.0000     -10.588662      -288.1321
   4   2.0000     -10.542828      -286.8849
   5   2.0000     -10.453190      -284.4458
   6   2.0000      -1.061149       -28.8753
   7   2.0000      -0.973696       -26.4956
   8   2.0000      -0.855776       -23.2868
   9   2.0000      -0.774690       -21.0804
  10   2.0000      -0.701807       -19.0971
  11   2.0000      -0.673780       -18.3345
  12   2.0000      -0.611418       -16.6375
  13   2.0000      -0.563707       -15.3392
  14   2.0000      -0.545632       -14.8474
  15   2.0000      -0.510504       -13.8915
  16   2.0000      -0.492806       -13.4099
  17   2.0000      -0.464267       -12.6333
  18   2.0000      -0.447853       -12.1867
  19   2.0000      -0.426543       -11.6068
  20   2.0000      -0.422202       -11.4887
  21   2.0000      -0.412612       -11.2277
  22   2.0000      -0.309211        -8.4141
  23   2.0000      -0.199170        -5.4197
  24   0.0000       0.078029         2.1233
  25   0.0000       0.112594         3.0638
  26   0.0000       0.123507         3.3608
  27   0.0000       0.145757         3.9663
  28   0.0000       0.149586         4.0705

MULLIKEN ATOMIC CHARGES
-----------------------
   0 C :    0.007886
   1 N :   -0.218120
   2 C :   -0.024773
   3 C :   -0.002869
   4 C :   -0.131640
   5 N :   -0.122203
   6 H :    0.121465
   7 H :    0.140893
   8 H :    0.138662
   9 H :   -0.038301
  10 H :   -0.047206
  11 H :    0.033886
  12 H :    0.042465
  13 H :    0.029761
  14 H :    0.035156
  15 H :    0.034938
Sum of atomic charges:   -0.0000000

LOEWDIN ATOMIC CHARGES
----------------------
   0 C :    0.029995
   1 N :   -0.045310
   2 C :   -0.068422
   3 C :    0.041180
   4 C :   -0.275499
   5 N :   -0.020969
   6 H :    0.068087
   7 H :    0.089258
   8 H :    0.086380
   9 H :   -0.008613
  10 H :   -0.011203
  11 H :    0.019999
  12 H :    0.023715
  13 H :    0.021921
  14 H :    0.025458
  15 H :    0.024022

  Mayer bond orders larger than 0.100000
B(  0-C ,  1-N ) :   0.9951 B(  0-C ,  2-C ) :   1.0783 B(  0-C , 11-H ) :   0.9572
B(  0-C , 12-H ) :   0.9571 B(  1-N ,  3-C ) :   1.1836 B(  1-N ,  8-H ) :   0.9254
B(  2-C , 13-H ) :   0.9691 B(  2-C , 14-H ) :   0.9660 B(  2-C , 15-H ) :   0.9706
B(  3-C ,  4-C ) :   1.7289 B(  3-C ,  5-N ) :   1.2429 B(  4-C ,  9-H ) :   0.9428
B(  4-C , 10-H ) :   0.9424 B(  5-N ,  6-H ) :   0.9422 B(  5-N ,  7-H ) :   0.9362

Dispersion correction           -0.000312996
FINAL SINGLE POINT ENERGY      -267.566929989816

DIPOLE MOMENT
-------------
                                X             Y             Z
Electronic contribution:      1.46871      -1.13156      -2.06684
Nuclear contribution   :     -2.56090       1.59955       2.15496
                        -----------------------------------------
Total Dipole Moment    :     -1.09219       0.46799       0.08812
                        -----------------------------------------
Magnitude (a.u.)       :      1.19150
Magnitude (Debye)      :      3.02855

Rotational constants in cm-1:     0.249834     0.071381     0.061833
Rotational constants in MHz :  7489.842787  2139.945635  1853.706310

                             ****ORCA TERMINATED NORMALLY****
TOTAL RUN TIME: 0 days 0 hours 0 minutes 13 seconds 48 msec
