                         Program Version 5.0.0 -  RELEASE  -
|  1> !M062X D3Zero RIJCOSX def2-SVP def2/J TightSCF
|  2> *xyz 0 1
|  3> C          2.49556        1.81615       -2.13636
|  4> C          1.87218        0.42790       -2.07750
|  5> H          2.61427       -0.36583       -2.19889
|  6> H          1.38995        0.27309       -1.11236
|  7> S          0.57902        0.14047       -3.29794
|  8> O          0.22886       -1.24687       -3.12787
|  9> O         -0.43927        1.11897       -3.01455
| 10> F          1.24788        0.40347       -4.59565
| 11> H          2.96535        1.95613       -3.08747
| 12> H          3.22581        1.91242       -1.36024
| 13> H          1.73350        2.55528       -2.00274
| 14> *
| 15>
| 16> %MaxCore 64000
| 17>
| 18> %pal nprocs 4
| 19> end
| 20>
| 21> %scf
| 22>   MaxIter 150
| 23> end
| 24>
| 25>
| 26>                          ****END OF INPUT****

CARTESIAN COORDINATES (ANGSTROEM)
---------------------------------
  C      2.495560    1.816150   -2.136360
  C      1.872180    0.427900   -2.077500
  H      2.614270   -0.365830   -2.198890
  H      1.389950    0.273090   -1.112360
  S      0.579020    0.140470   -3.297940
  O      0.228860   -1.246870   -3.127870
  O     -0.439270    1.118970   -3.014550
  F      1.247880    0.403470   -4.595650
  H      2.965350    1.956130   -3.087470
  H      3.225810    1.912420   -1.360240
  H      1.733500    2.555280   -2.002740

 Total Charge           Charge          ....    0
 Multiplicity           Mult            ....    1
 Number of Electrons    NEL             ....   58
 Basis Dimension        Dim             ....  113

ORBITAL ENERGIES
----------------

  NO   OCC          E(Eh)            E(eV)
   0   2.0000     -90.174452     -2453.7716
   1   2.0000     -25.344311      -689.6538
   2   2.0000     -19.638317      -534.3858
   3   2.0000     -19.637533      -534.3644
   4   2.0000     -10.606496      -288.6174
   5   2.0000     -10.572634      -287.6960
   6   2.0000      -8.507106      -231.4901
   7   2.0000      -6.434660      -175.0960
   8   2.0000      -6.429642      -174.9594
   9   2.0000      -6.428572      -174.9303
  10   2.0000      -1.475683       -40.1554
  11   2.0000      -1.230995       -33.4971
  12   2.0000      -1.131818       -30.7983
  13   2.0000      -0.914596       -24.8874
  14   2.0000      -0.809819       -22.0363
  15   2.0000      -0.756899       -20.5963
  16   2.0000      -0.669457       -18.2169
  17   2.0000      -0.656833       -17.8733
  18   2.0000      -0.625225       -17.0132
  19   2.0000      -0.566966       -15.4279
  20   2.0000      -0.552498       -15.0342
  21   2.0000      -0.527913       -14.3652
  22   2.0000      -0.505141       -13.7456
  23   2.0000      -0.475302       -12.9336
  24   2.0000      -0.468134       -12.7386
  25   2.0000      -0.446006       -12.1364
  26   2.0000      -0.407561       -11.0903
  27   2.0000      -0.389292       -10.5932
  28   2.0000      -0.386432       -10.5154
  29   0.0000       0.071564         1.9474
  30   0.0000       0.108974         2.9653
  31   0.0000       0.120407         3.2764
  32   0.0000       0.133521         3.6333
  33   0.0000       0.136495         3.7142

MULLIKEN ATOMIC CHARGES
-----------------------
   0 C :   -0.052734
   1 C :   -0.197155
   2 H :    0.093102
   3 H :    0.111159
   4 S :    1.030506
   5 O :   -0.464800
   6 O :   -0.469601
   7 F :   -0.237552
   8 H :    0.052895
   9 H :    0.063247
  10 H :    0.070934
Sum of atomic charges:    0.0000000

LOEWDIN ATOMIC CHARGES
----------------------
   0 C :   -0.066675
   1 C :   -0.159463
   2 H :    0.039392
   3 H :    0.052845
   4 S :    1.195456
   5 O :   -0.496841
   6 O :   -0.498920
   7 F :   -0.169993
   8 H :    0.028738
   9 H :    0.039319
  10 H :    0.036142

  Mayer bond orders larger than 0.100000
B(  0-C ,  1-C ) :   1.0402 B(  0-C ,  8-H ) :   0.9754 B(  0-C ,  9-H ) :   0.9645
B(  0-C , 10-H ) :   0.9696 B(  1-C ,  2-H ) :   0.9365 B(  1-C ,  3-H ) :   0.9368
B(  1-C ,  4-S ) :   0.9291 B(  4-S ,  5-O ) :   1.7834 B(  4-S ,  6-O ) :   1.7730
B(  4-S ,  7-F ) :   0.9473

Dispersion correction           -0.000150936
FINAL SINGLE POINT ENERGY      -727.086756034396

DIPOLE MOMENT
-------------
                                X             Y             Z
Electronic contribution:     -5.08163      -3.62130      -6.58585
Nuclear contribution   :      6.54345       4.10057       6.91691
                        -----------------------------------------
Total Dipole Moment    :      1.46182       0.47927       0.33106
                        -----------------------------------------
Magnitude (a.u.)       :      1.57360
Magnitude (Debye)      :      3.99977

Rotational constants in cm-1:     0.152835     0.082826     0.080611
Rotational constants in MHz :  4581.878371  2483.049050  2416.647141

                             ****ORCA TERMINATED NORMALLY****
TOTAL RUN TIME: 0 days 0 hours 0 minutes 9 seconds 254 msec
