                         Program Version 5.0.0 -  RELEASE  -
|  1> !M062X D3Zero RIJCOSX def2-SVP def2/J TightSCF
|  2> *xyz 0 1
|  3> C          3.38093        2.08304       -3.35013
|  4> N          4.53592        1.18245       -3.42852
|  5> C          2.49556        1.81615       -2.13636
|  6> C          4.67196        0.12227       -4.22060
|  7> N          5.86602       -0.50785       -4.22428
|  8> C          3.69888       -0.31284       -4.98699
|  9> H          2.73141       -0.05009       -4.84900
| 10> H          3.89005       -1.05517       -5.64373
| 11> H          5.25193        1.30346       -2.72101
| 12> H          6.69516       -0.06232       -3.85160
| 13> H          5.97538       -1.39688       -4.69141
| 14> H          2.80646        1.98651       -4.26848
| 15> H          3.77871        3.09828       -3.30738
| 16> H          2.11090        0.81901       -2.18783
| 17> H          1.68276        2.51198       -2.12786
| 18> H          3.07216        1.93031       -1.24227
| 19> *
| 20>
| 21> %MaxCore 64000
| 22>
| 23> %pal nprocs 4
| 24> end
| 25>
| 26> %scf
| 27>   MaxIter 150
| 28> end
| 29>
| 30>
| 31>                          ****END OF INPUT****

CARTESIAN COORDINATES (ANGSTROEM)
---------------------------------
  C      3.380930    2.083040   -3.350130
  N      4.535920    1.182450   -3.428520
  C      2.495560    1.816150   -2.136360
  C      4.671960    0.122270   -4.220600
  N      5.866020   -0.507850   -4.224280
  C      3.698880   -0.312840   -4.986990
  H      2.731410   -0.050090   -4.849000
  H      3.890050   -1.055170   -5.643730
  H      5.251930    1.303460   -2.721010
  H      6.695160   -0.062320   -3.851600
  H      5.975380   -1.396880   -4.691410
  H      2.806460    1.986510   -4.268480
  H      3.778710    3.098280   -3.307380
  H      2.110900    0.819010   -2.187830
  H      1.682760    2.511980   -2.127860
  H      3.072160    1.930310   -1.242270

 Total Charge           Charge          ....    0
 Multiplicity           Mult            ....    1
 Number of Electrons    NEL             ....   48
 Basis Dimension        Dim             ....  134

ORBITAL ENERGIES
----------------

  NO   OCC          E(Eh)            E(eV)
   0   2.0000     -14.752252      -401.4292
   1   2.0000     -14.748354      -401.3231
   2   2.0000     -10.590007      -288.1687
   3   2.0000     -10.579515      -287.8832
   4   2.0000     -10.534517      -286.6588
   5   2.0000     -10.456947      -284.5480
   6   2.0000      -1.054065       -28.6826
   7   2.0000      -0.963883       -26.2286
   8   2.0000      -0.839410       -22.8415
   9   2.0000      -0.789285       -21.4775
  10   2.0000      -0.713767       -19.4226
  11   2.0000      -0.633544       -17.2396
  12   2.0000      -0.610722       -16.6186
  13   2.0000      -0.579849       -15.7785
  14   2.0000      -0.520673       -14.1682
  15   2.0000      -0.513205       -13.9650
  16   2.0000      -0.485440       -13.2095
  17   2.0000      -0.460787       -12.5386
  18   2.0000      -0.438396       -11.9293
  19   2.0000      -0.434370       -11.8198
  20   2.0000      -0.413082       -11.2405
  21   2.0000      -0.407744       -11.0953
  22   2.0000      -0.301575        -8.2063
  23   2.0000      -0.211740        -5.7617
  24   0.0000       0.087552         2.3824
  25   0.0000       0.111329         3.0294
  26   0.0000       0.130683         3.5561
  27   0.0000       0.144259         3.9255
  28   0.0000       0.157211         4.2779

MULLIKEN ATOMIC CHARGES
-----------------------
   0 C :    0.036236
   1 N :   -0.240603
   2 C :   -0.033701
   3 C :    0.058910
   4 N :   -0.172895
   5 C :   -0.133802
   6 H :   -0.030997
   7 H :   -0.046868
   8 H :    0.115143
   9 H :    0.117041
  10 H :    0.137404
  11 H :    0.056345
  12 H :    0.034290
  13 H :    0.043848
  14 H :    0.034814
  15 H :    0.024837
Sum of atomic charges:    0.0000000

LOEWDIN ATOMIC CHARGES
----------------------
   0 C :    0.043407
   1 N :   -0.051483
   2 C :   -0.066178
   3 C :    0.047043
   4 N :   -0.048979
   5 C :   -0.254309
   6 H :   -0.005312
   7 H :   -0.005442
   8 H :    0.066276
   9 H :    0.065761
  10 H :    0.083130
  11 H :    0.032211
  12 H :    0.020414
  13 H :    0.028213
  14 H :    0.025884
  15 H :    0.019367

  Mayer bond orders larger than 0.100000
B(  0-C ,  1-N ) :   0.9764 B(  0-C ,  2-C ) :   1.0939 B(  0-C , 11-H ) :   0.9466
B(  0-C , 12-H ) :   0.9609 B(  1-N ,  3-C ) :   1.1538 B(  1-N ,  8-H ) :   0.9296
B(  2-C , 13-H ) :   0.9698 B(  2-C , 14-H ) :   0.9674 B(  2-C , 15-H ) :   0.9707
B(  3-C ,  4-N ) :   1.2020 B(  3-C ,  5-C ) :   1.7815 B(  4-N ,  9-H ) :   0.9473
B(  4-N , 10-H ) :   0.9426 B(  5-C ,  6-H ) :   0.9351 B(  5-C ,  7-H ) :   0.9318

Dispersion correction           -0.000314224
FINAL SINGLE POINT ENERGY      -267.571187061818

DIPOLE MOMENT
-------------
                                X             Y             Z
Electronic contribution:      3.76446      -1.33848      -1.32846
Nuclear contribution   :     -3.02065       1.64092       1.99316
                        -----------------------------------------
Total Dipole Moment    :      0.74381       0.30244       0.66470
                        -----------------------------------------
Magnitude (a.u.)       :      1.04238
Magnitude (Debye)      :      2.64952

Rotational constants in cm-1:     0.259304     0.069422     0.060943
Rotational constants in MHz :  7773.747720  2081.225169  1827.013389

                             ****ORCA TERMINATED NORMALLY****
TOTAL RUN TIME: 0 days 0 hours 0 minutes 13 seconds 331 msec
