                         Program Version 5.0.0 -  RELEASE  -
|  1> !M062X D3Zero RIJCOSX def2-TZVP def2/J TightSCF xyzfile
|  2>
|  3> *xyzfile 0 1 D2.xyz
|  4>
|  5> %MaxCore 64000
|  6>
|  7> %pal nprocs 18
|  8> end
|  9>
| 10> %scf
| 11>   MaxIter 150
| 12> end
| 13>
| 14>
| 15>                          ****END OF INPUT****

CARTESIAN COORDINATES (ANGSTROEM)
---------------------------------
  C      3.380928    2.083045   -3.350127
  N      4.535924    1.182447   -3.428518
  C      2.495557    1.816150   -2.136364
  C      1.872181    0.427903   -2.077497
  H      2.614270   -0.365825   -2.198894
  H      1.389953    0.273087   -1.112360
  S      0.579024    0.140472   -3.297943
  C      4.671956    0.122273   -4.220598
  C      5.866023   -0.507849   -4.224284
  N      3.698881   -0.312844   -4.986988
  H      2.731405   -0.050091   -4.849000
  H      3.890046   -1.055172   -5.643730
  H      5.251933    1.303459   -2.721014
  H      6.695165   -0.062322   -3.851596
  H      5.975383   -1.396884   -4.691414
  F      0.228860   -1.246868   -3.127871
  O     -0.439269    1.118966   -3.014550
  O      1.247881    0.403474   -4.595647
  H      1.697003    2.561969   -2.141109
  H      3.080787    1.987436   -1.225838
  H      2.806463    1.986511   -4.268484
  H      3.778714    3.098282   -3.307383

 Total Charge           Charge          ....    0
 Multiplicity           Mult            ....    1
 Number of Electrons    NEL             ....   96
 Basis Dimension        Dim             ....  413

ORBITAL ENERGIES
----------------

  NO   OCC          E(Eh)            E(eV)
   0   2.0000     -90.175836     -2453.8093
   1   2.0000     -25.389394      -690.8805
   2   2.0000     -19.662395      -535.0410
   3   2.0000     -19.656515      -534.8810
   4   2.0000     -14.748097      -401.3161
   5   2.0000     -14.720573      -400.5672
   6   2.0000     -10.607602      -288.6475
   7   2.0000     -10.579963      -287.8954
   8   2.0000     -10.578160      -287.8464
   9   2.0000     -10.572847      -287.7018
  10   2.0000     -10.436783      -283.9993
  11   2.0000      -8.501150      -231.3280
  12   2.0000      -6.425820      -174.8554
  13   2.0000      -6.421021      -174.7249
  14   2.0000      -6.420520      -174.7112
  15   2.0000      -1.552516       -42.2461
  16   2.0000      -1.255697       -34.1693
  17   2.0000      -1.158176       -31.5156
  18   2.0000      -1.073611       -29.2144
  19   2.0000      -0.985869       -26.8268
  20   2.0000      -0.936173       -25.4746
  21   2.0000      -0.871945       -23.7268
  22   2.0000      -0.824088       -22.4246
  23   2.0000      -0.780391       -21.2355
  24   2.0000      -0.728832       -19.8325
  25   2.0000      -0.712256       -19.3815
  26   2.0000      -0.691954       -18.8290
  27   2.0000      -0.678608       -18.4659
  28   2.0000      -0.667384       -18.1604
  29   2.0000      -0.623959       -16.9788
  30   2.0000      -0.583955       -15.8902
  31   2.0000      -0.570951       -15.5364
  32   2.0000      -0.561424       -15.2771
  33   2.0000      -0.551718       -15.0130
  34   2.0000      -0.541194       -14.7266
  35   2.0000      -0.517893       -14.0926
  36   2.0000      -0.489774       -13.3274
  37   2.0000      -0.480543       -13.0762
  38   2.0000      -0.474390       -12.9088
  39   2.0000      -0.456059       -12.4100
  40   2.0000      -0.451059       -12.2739
  41   2.0000      -0.435151       -11.8411
  42   2.0000      -0.427169       -11.6239
  43   2.0000      -0.415466       -11.3054
  44   2.0000      -0.405425       -11.0322
  45   2.0000      -0.398490       -10.8435
  46   2.0000      -0.311307        -8.4711
  47   2.0000      -0.203501        -5.5375
  48   0.0000       0.043616         1.1869
  49   0.0000       0.051001         1.3878
  50   0.0000       0.080397         2.1877
  51   0.0000       0.081847         2.2272
  52   0.0000       0.084885         2.3098

MULLIKEN ATOMIC CHARGES
-----------------------
   0 C :   -0.336685
   1 N :   -0.386829
   2 C :   -0.230671
   3 C :   -0.412903
   4 H :    0.222308
   5 H :    0.191848
   6 S :    0.960657
   7 C :    0.514749
   8 C :   -0.634172
   9 N :   -0.602211
  10 H :    0.291530
  11 H :    0.246718
  12 H :    0.242208
  13 H :    0.111039
  14 H :    0.100743
  15 F :   -0.096349
  16 O :   -0.424436
  17 O :   -0.487822
  18 H :    0.177753
  19 H :    0.161724
  20 H :    0.232843
  21 H :    0.157957
Sum of atomic charges:    0.0000000

LOEWDIN ATOMIC CHARGES
----------------------
   0 C :   -0.285854
   1 N :    0.110989
   2 C :   -0.284053
   3 C :   -0.370557
   4 H :    0.150835
   5 H :    0.144705
   6 S :    0.574177
   7 C :   -0.482059
   8 C :   -0.369828
   9 N :   -0.006005
  10 H :    0.129296
  11 H :    0.178030
  12 H :    0.194311
  13 H :    0.091570
  14 H :    0.091359
  15 F :    0.102961
  16 O :   -0.257743
  17 O :   -0.295313
  18 H :    0.152163
  19 H :    0.149251
  20 H :    0.145332
  21 H :    0.136435

  Mayer bond orders larger than 0.100000
B(  0-C ,  1-N ) :   0.8824 B(  0-C ,  2-C ) :   0.9011 B(  0-C , 20-H ) :   0.9747
B(  0-C , 21-H ) :   0.9863 B(  1-N ,  7-C ) :   1.1064 B(  1-N , 12-H ) :   0.9274
B(  2-C ,  3-C ) :   0.9049 B(  2-C , 18-H ) :   0.9666 B(  2-C , 19-H ) :   0.9636
B(  3-C ,  4-H ) :   0.9252 B(  3-C ,  5-H ) :   0.9432 B(  3-C ,  6-S ) :   0.9433
B(  6-S , 15-F ) :   1.1385 B(  6-S , 16-O ) :   1.9371 B(  6-S , 17-O ) :   1.7174
B(  7-C ,  8-C ) :   1.5379 B(  7-C ,  9-N ) :   1.1081 B(  8-C , 13-H ) :   1.0101
B(  8-C , 14-H ) :   1.0119 B(  9-N , 10-H ) :   0.8438 B(  9-N , 11-H ) :   0.9345

Dispersion correction           -0.000916393
FINAL SINGLE POINT ENERGY      -955.052319017296

DIPOLE MOMENT
-------------
                                X             Y             Z
Electronic contribution:    -16.75311      -5.26031      -0.35223
Nuclear contribution   :     16.05479       5.17692       1.74190
                        -----------------------------------------
Total Dipole Moment    :     -0.69833      -0.08340       1.38967
                        -----------------------------------------
Magnitude (a.u.)       :      1.55749
Magnitude (Debye)      :      3.95883

Rotational constants in cm-1:     0.058652     0.021107     0.018077
Rotational constants in MHz :  1758.344290   632.763813   541.920558

                             ****ORCA TERMINATED NORMALLY****
TOTAL RUN TIME: 0 days 0 hours 0 minutes 45 seconds 858 msec
