                         Program Version 5.0.0 -  RELEASE  -
|  1> !M062X D3Zero RIJCOSX def2-TZVP def2/J TightSCF xyzfile
|  2>
|  3> *xyzfile 0 1 D3.xyz
|  4>
|  5> %MaxCore 64000
|  6>
|  7> %pal nprocs 18
|  8> end
|  9>
| 10> %scf
| 11>   MaxIter 150
| 12> end
| 13>
| 14>
| 15>                          ****END OF INPUT****

CARTESIAN COORDINATES (ANGSTROEM)
---------------------------------
  C      3.380928    2.083045   -3.350127
  N      4.535924    1.182447   -3.428518
  C      2.495557    1.816150   -2.136364
  C      1.872181    0.427903   -2.077497
  H      2.614270   -0.365825   -2.198894
  H      1.389953    0.273087   -1.112360
  S      0.579024    0.140472   -3.297943
  C      4.671956    0.122273   -4.220598
  N      5.866023   -0.507849   -4.224284
  C      3.698881   -0.312844   -4.986988
  H      2.731405   -0.050091   -4.849000
  H      3.890046   -1.055172   -5.643730
  H      5.251933    1.303459   -2.721014
  H      6.695165   -0.062322   -3.851596
  H      5.975383   -1.396884   -4.691414
  F      0.228860   -1.246868   -3.127871
  O     -0.439269    1.118966   -3.014550
  O      1.247881    0.403474   -4.595647
  H      1.697003    2.561969   -2.141109
  H      3.080787    1.987436   -1.225838
  H      2.806463    1.986511   -4.268484
  H      3.778714    3.098282   -3.307383

 Total Charge           Charge          ....    0
 Multiplicity           Mult            ....    1
 Number of Electrons    NEL             ....   96
 Basis Dimension        Dim             ....  413

ORBITAL ENERGIES
----------------

  NO   OCC          E(Eh)            E(eV)
   0   2.0000     -90.153322     -2453.1966
   1   2.0000     -25.370202      -690.3583
   2   2.0000     -19.642157      -534.4903
   3   2.0000     -19.626331      -534.0596
   4   2.0000     -14.748197      -401.3188
   5   2.0000     -14.737389      -401.0247
   6   2.0000     -10.592792      -288.2445
   7   2.0000     -10.574690      -287.7519
   8   2.0000     -10.573283      -287.7137
   9   2.0000     -10.564153      -287.4652
  10   2.0000     -10.424532      -283.6659
  11   2.0000      -8.478637      -230.7154
  12   2.0000      -6.403375      -174.2447
  13   2.0000      -6.398355      -174.1081
  14   2.0000      -6.398096      -174.1011
  15   2.0000      -1.533276       -41.7226
  16   2.0000      -1.232822       -33.5468
  17   2.0000      -1.132186       -30.8083
  18   2.0000      -1.071936       -29.1689
  19   2.0000      -0.984204       -26.7816
  20   2.0000      -0.922333       -25.0979
  21   2.0000      -0.852795       -23.2057
  22   2.0000      -0.812850       -22.1188
  23   2.0000      -0.788510       -21.4564
  24   2.0000      -0.731449       -19.9037
  25   2.0000      -0.692486       -18.8435
  26   2.0000      -0.679592       -18.4926
  27   2.0000      -0.659090       -17.9348
  28   2.0000      -0.634722       -17.2717
  29   2.0000      -0.612793       -16.6749
  30   2.0000      -0.592237       -16.1156
  31   2.0000      -0.567160       -15.4332
  32   2.0000      -0.565536       -15.3890
  33   2.0000      -0.533085       -14.5060
  34   2.0000      -0.520510       -14.1638
  35   2.0000      -0.517058       -14.0699
  36   2.0000      -0.475252       -12.9323
  37   2.0000      -0.470485       -12.8026
  38   2.0000      -0.462328       -12.5806
  39   2.0000      -0.447474       -12.1764
  40   2.0000      -0.443803       -12.0765
  41   2.0000      -0.434412       -11.8209
  42   2.0000      -0.417847       -11.3702
  43   2.0000      -0.406759       -11.0685
  44   2.0000      -0.386136       -10.5073
  45   2.0000      -0.351981        -9.5779
  46   2.0000      -0.311331        -8.4717
  47   2.0000      -0.214721        -5.8429
  48   0.0000       0.046548         1.2666
  49   0.0000       0.067302         1.8314
  50   0.0000       0.069468         1.8903
  51   0.0000       0.090369         2.4591
  52   0.0000       0.097640         2.6569

MULLIKEN ATOMIC CHARGES
-----------------------
   0 C :   -0.285737
   1 N :   -0.425408
   2 C :   -0.256069
   3 C :   -0.393887
   4 H :    0.217570
   5 H :    0.184488
   6 S :    0.943187
   7 C :    0.572379
   8 N :   -0.620303
   9 C :   -0.596371
  10 H :    0.130088
  11 H :    0.093776
  12 H :    0.213559
  13 H :    0.229312
  14 H :    0.257211
  15 F :   -0.102025
  16 O :   -0.436583
  17 O :   -0.449278
  18 H :    0.177673
  19 H :    0.154253
  20 H :    0.241032
  21 H :    0.151132
Sum of atomic charges:   -0.0000000

LOEWDIN ATOMIC CHARGES
----------------------
   0 C :   -0.269312
   1 N :    0.101546
   2 C :   -0.284509
   3 C :   -0.370825
   4 H :    0.149614
   5 H :    0.141065
   6 S :    0.566596
   7 C :   -0.481075
   8 N :   -0.040845
   9 C :   -0.331358
  10 H :    0.080264
  11 H :    0.096726
  12 H :    0.176309
  13 H :    0.156592
  14 H :    0.174037
  15 F :    0.098602
  16 O :   -0.269908
  17 O :   -0.279422
  18 H :    0.152300
  19 H :    0.145825
  20 H :    0.152841
  21 H :    0.134936

  Mayer bond orders larger than 0.100000
B(  0-C ,  1-N ) :   0.8550 B(  0-C ,  2-C ) :   0.9205 B(  0-C , 20-H ) :   0.9684
B(  0-C , 21-H ) :   0.9861 B(  1-N ,  7-C ) :   1.0804 B(  1-N , 12-H ) :   0.9346
B(  2-C ,  3-C ) :   0.9148 B(  2-C , 18-H ) :   0.9682 B(  2-C , 19-H ) :   0.9670
B(  3-C ,  4-H ) :   0.9307 B(  3-C ,  5-H ) :   0.9438 B(  3-C ,  6-S ) :   0.9392
B(  6-S , 15-F ) :   1.1283 B(  6-S , 16-O ) :   1.9197 B(  6-S , 17-O ) :   1.7826
B(  7-C ,  8-N ) :   0.9836 B(  7-C ,  9-C ) :   1.5879 B(  8-N , 13-H ) :   0.9333
B(  8-N , 14-H ) :   0.9291 B(  9-C , 10-H ) :   1.0321 B(  9-C , 11-H ) :   1.0177

Dispersion correction           -0.000916967
FINAL SINGLE POINT ENERGY      -955.036233030448

DIPOLE MOMENT
-------------
                                X             Y             Z
Electronic contribution:    -14.65822      -5.49758       0.08782
Nuclear contribution   :     15.84345       5.19593       1.66752
                        -----------------------------------------
Total Dipole Moment    :      1.18523      -0.30164       1.75534
                        -----------------------------------------
Magnitude (a.u.)       :      2.13938
Magnitude (Debye)      :      5.43788

Rotational constants in cm-1:     0.059060     0.020573     0.017713
Rotational constants in MHz :  1770.576058   616.749938   531.036486

                             ****ORCA TERMINATED NORMALLY****
TOTAL RUN TIME: 0 days 0 hours 0 minutes 44 seconds 171 msec
