                         Program Version 5.0.0 -  RELEASE  -
|  1> !M062X D3Zero RIJCOSX def2-TZVP def2/J TightSCF xyzfile
|  2>
|  3> *xyzfile 0 1 D4.xyz
|  4>
|  5> %MaxCore 64000
|  6>
|  7> %pal nprocs 18
|  8> end
|  9>
| 10> %scf
| 11>   MaxIter 150
| 12> end
| 13>
| 14>
| 15>                          ****END OF INPUT****

CARTESIAN COORDINATES (ANGSTROEM)
---------------------------------
  C      3.380928    2.083045   -3.350127
  C      4.535924    1.182447   -3.428518
  C      2.495557    1.816150   -2.136364
  C      1.872181    0.427903   -2.077497
  H      2.614270   -0.365825   -2.198894
  H      1.389953    0.273087   -1.112360
  S      0.579024    0.140472   -3.297943
  C      4.671956    0.122273   -4.220598
  N      5.866023   -0.507849   -4.224284
  N      3.698881   -0.312844   -4.986988
  H      2.731405   -0.050091   -4.849000
  H      3.890046   -1.055172   -5.643730
  H      5.251933    1.303459   -2.721014
  H      6.695165   -0.062322   -3.851596
  H      5.975383   -1.396884   -4.691414
  O      0.228860   -1.246868   -3.127871
  F     -0.439269    1.118966   -3.014550
  O      1.247881    0.403474   -4.595647
  H      1.697003    2.561969   -2.141109
  H      3.080787    1.987436   -1.225838
  H      2.806463    1.986511   -4.268484
  H      3.778714    3.098282   -3.307383

 Total Charge           Charge          ....    0
 Multiplicity           Mult            ....    1
 Number of Electrons    NEL             ....   96
 Basis Dimension        Dim             ....  413

ORBITAL ENERGIES
----------------

  NO   OCC          E(Eh)            E(eV)
   0   2.0000     -90.161985     -2453.4323
   1   2.0000     -25.377489      -690.5566
   2   2.0000     -19.649456      -534.6889
   3   2.0000     -19.643525      -534.5275
   4   2.0000     -14.738006      -401.0415
   5   2.0000     -14.721955      -400.6048
   6   2.0000     -10.587710      -288.1062
   7   2.0000     -10.578707      -287.8613
   8   2.0000     -10.546769      -286.9922
   9   2.0000     -10.512610      -286.0627
  10   2.0000     -10.455116      -284.4982
  11   2.0000      -8.487354      -230.9527
  12   2.0000      -6.412128      -174.4829
  13   2.0000      -6.407151      -174.3474
  14   2.0000      -6.406619      -174.3330
  15   2.0000      -1.540723       -41.9252
  16   2.0000      -1.242210       -33.8023
  17   2.0000      -1.145531       -31.1715
  18   2.0000      -1.061816       -28.8935
  19   2.0000      -0.962647       -26.1950
  20   2.0000      -0.927473       -25.2378
  21   2.0000      -0.862236       -23.4626
  22   2.0000      -0.824913       -22.4470
  23   2.0000      -0.774532       -21.0761
  24   2.0000      -0.716770       -19.5043
  25   2.0000      -0.702519       -19.1165
  26   2.0000      -0.687480       -18.7073
  27   2.0000      -0.665534       -18.1101
  28   2.0000      -0.631712       -17.1898
  29   2.0000      -0.608538       -16.5592
  30   2.0000      -0.589231       -16.0338
  31   2.0000      -0.560589       -15.2544
  32   2.0000      -0.558333       -15.1930
  33   2.0000      -0.549875       -14.9628
  34   2.0000      -0.524719       -14.2783
  35   2.0000      -0.514329       -13.9956
  36   2.0000      -0.478426       -13.0186
  37   2.0000      -0.471520       -12.8307
  38   2.0000      -0.470000       -12.7894
  39   2.0000      -0.449182       -12.2229
  40   2.0000      -0.425549       -11.5798
  41   2.0000      -0.413941       -11.2639
  42   2.0000      -0.412772       -11.2321
  43   2.0000      -0.400422       -10.8960
  44   2.0000      -0.392329       -10.6758
  45   2.0000      -0.372165       -10.1271
  46   2.0000      -0.318849        -8.6763
  47   2.0000      -0.209140        -5.6910
  48   0.0000       0.050177         1.3654
  49   0.0000       0.065807         1.7907
  50   0.0000       0.075368         2.0509
  51   0.0000       0.088728         2.4144
  52   0.0000       0.099392         2.7046

MULLIKEN ATOMIC CHARGES
-----------------------
   0 C :   -0.402995
   1 C :   -0.377098
   2 C :   -0.233476
   3 C :   -0.422444
   4 H :    0.234778
   5 H :    0.186395
   6 S :    0.955946
   7 C :    0.500858
   8 N :   -0.598274
   9 N :   -0.597382
  10 H :    0.312821
  11 H :    0.224172
  12 H :    0.119921
  13 H :    0.257106
  14 H :    0.230605
  15 O :   -0.428210
  16 F :   -0.099984
  17 O :   -0.501379
  18 H :    0.150450
  19 H :    0.153792
  20 H :    0.193615
  21 H :    0.140783
Sum of atomic charges:    0.0000000

LOEWDIN ATOMIC CHARGES
----------------------
   0 C :   -0.289356
   1 C :   -0.294723
   2 C :   -0.289954
   3 C :   -0.365361
   4 H :    0.160124
   5 H :    0.141489
   6 S :    0.574070
   7 C :   -0.466405
   8 N :   -0.035359
   9 N :    0.000766
  10 H :    0.142777
  11 H :    0.163732
  12 H :    0.119031
  13 H :    0.174532
  14 H :    0.158692
  15 O :   -0.263868
  16 F :    0.102162
  17 O :   -0.302743
  18 H :    0.135268
  19 H :    0.147144
  20 H :    0.145123
  21 H :    0.142859

  Mayer bond orders larger than 0.100000
B(  0-C ,  1-C ) :   0.9655 B(  0-C ,  2-C ) :   0.8799 B(  0-C , 20-H ) :   0.9909
B(  0-C , 21-H ) :   0.9957 B(  1-C ,  7-C ) :   1.6057 B(  1-C , 12-H ) :   0.9904
B(  2-C ,  3-C ) :   0.8923 B(  2-C , 18-H ) :   0.9803 B(  2-C , 19-H ) :   0.9684
B(  3-C ,  4-H ) :   0.9291 B(  3-C ,  5-H ) :   0.9541 B(  3-C ,  6-S ) :   0.9401
B(  6-S , 15-O ) :   1.9436 B(  6-S , 16-F ) :   1.1341 B(  6-S , 17-O ) :   1.7156
B(  7-C ,  8-N ) :   1.0313 B(  7-C ,  9-N ) :   1.1072 B(  8-N , 13-H ) :   0.9252
B(  8-N , 14-H ) :   0.9330 B(  9-N , 10-H ) :   0.8415 B(  9-N , 11-H ) :   0.9382

Dispersion correction           -0.000928282
FINAL SINGLE POINT ENERGY      -955.067129465408

DIPOLE MOMENT
-------------
                                X             Y             Z
Electronic contribution:    -16.39332      -2.68340      -0.97531
Nuclear contribution   :     16.65743       2.74852       1.69529
                        -----------------------------------------
Total Dipole Moment    :      0.26411       0.06512       0.71997
                        -----------------------------------------
Magnitude (a.u.)       :      0.76965
Magnitude (Debye)      :      1.95629

Rotational constants in cm-1:     0.059907     0.020458     0.017675
Rotational constants in MHz :  1795.978106   613.328205   529.885290

                             ****ORCA TERMINATED NORMALLY****
TOTAL RUN TIME: 0 days 0 hours 0 minutes 44 seconds 913 msec
