                         Program Version 5.0.0 -  RELEASE  -
|  1> !M062X D3Zero RIJCOSX def2-TZVP def2/J TightSCF xyzfile
|  2>
|  3> *xyzfile 0 1 D5.xyz
|  4>
|  5> %MaxCore 64000
|  6>
|  7> %pal nprocs 18
|  8> end
|  9>
| 10> %scf
| 11>   MaxIter 150
| 12> end
| 13>
| 14>
| 15>                          ****END OF INPUT****

CARTESIAN COORDINATES (ANGSTROEM)
---------------------------------
  C      3.380928    2.083045   -3.350127
  N      4.535924    1.182447   -3.428518
  C      2.495557    1.816150   -2.136364
  C      1.872181    0.427903   -2.077497
  H      2.614270   -0.365825   -2.198894
  H      1.389953    0.273087   -1.112360
  S      0.579024    0.140472   -3.297943
  C      4.671956    0.122273   -4.220598
  C      5.866023   -0.507849   -4.224284
  N      3.698881   -0.312844   -4.986988
  H      2.731405   -0.050091   -4.849000
  H      3.890046   -1.055172   -5.643730
  H      5.251933    1.303459   -2.721014
  H      6.695165   -0.062322   -3.851596
  H      5.975383   -1.396884   -4.691414
  O      0.228860   -1.246868   -3.127871
  F     -0.439269    1.118966   -3.014550
  O      1.247881    0.403474   -4.595647
  H      1.697003    2.561969   -2.141109
  H      3.080787    1.987436   -1.225838
  H      2.806463    1.986511   -4.268484
  H      3.778714    3.098282   -3.307383

 Total Charge           Charge          ....    0
 Multiplicity           Mult            ....    1
 Number of Electrons    NEL             ....   96
 Basis Dimension        Dim             ....  413

ORBITAL ENERGIES
----------------

  NO   OCC          E(Eh)            E(eV)
   0   2.0000     -90.175505     -2453.8002
   1   2.0000     -25.390492      -690.9104
   2   2.0000     -19.661425      -535.0146
   3   2.0000     -19.656199      -534.8724
   4   2.0000     -14.748893      -401.3378
   5   2.0000     -14.719084      -400.5266
   6   2.0000     -10.607396      -288.6419
   7   2.0000     -10.582268      -287.9581
   8   2.0000     -10.577099      -287.8175
   9   2.0000     -10.575303      -287.7686
  10   2.0000     -10.435561      -283.9661
  11   2.0000      -8.500758      -231.3174
  12   2.0000      -6.425529      -174.8475
  13   2.0000      -6.420616      -174.7138
  14   2.0000      -6.420045      -174.6983
  15   2.0000      -1.553766       -42.2801
  16   2.0000      -1.254360       -34.1329
  17   2.0000      -1.157715       -31.5030
  18   2.0000      -1.073310       -29.2063
  19   2.0000      -0.985572       -26.8188
  20   2.0000      -0.938562       -25.5396
  21   2.0000      -0.869816       -23.6689
  22   2.0000      -0.825727       -22.4692
  23   2.0000      -0.781044       -21.2533
  24   2.0000      -0.727681       -19.8012
  25   2.0000      -0.714147       -19.4329
  26   2.0000      -0.704735       -19.1768
  27   2.0000      -0.676283       -18.4026
  28   2.0000      -0.660372       -17.9696
  29   2.0000      -0.618791       -16.8382
  30   2.0000      -0.582965       -15.8633
  31   2.0000      -0.576383       -15.6842
  32   2.0000      -0.561865       -15.2891
  33   2.0000      -0.551927       -15.0187
  34   2.0000      -0.537746       -14.6328
  35   2.0000      -0.521694       -14.1960
  36   2.0000      -0.493719       -13.4348
  37   2.0000      -0.482406       -13.1269
  38   2.0000      -0.475744       -12.9456
  39   2.0000      -0.458333       -12.4719
  40   2.0000      -0.451028       -12.2731
  41   2.0000      -0.431260       -11.7352
  42   2.0000      -0.421843       -11.4789
  43   2.0000      -0.412139       -11.2149
  44   2.0000      -0.408885       -11.1263
  45   2.0000      -0.401444       -10.9238
  46   2.0000      -0.310764        -8.4563
  47   2.0000      -0.202337        -5.5059
  48   0.0000       0.035911         0.9772
  49   0.0000       0.056308         1.5322
  50   0.0000       0.073656         2.0043
  51   0.0000       0.079409         2.1608
  52   0.0000       0.083569         2.2740

MULLIKEN ATOMIC CHARGES
-----------------------
   0 C :   -0.321479
   1 N :   -0.388248
   2 C :   -0.243994
   3 C :   -0.410756
   4 H :    0.238668
   5 H :    0.192451
   6 S :    0.954914
   7 C :    0.511202
   8 C :   -0.632743
   9 N :   -0.594812
  10 H :    0.299009
  11 H :    0.248449
  12 H :    0.242593
  13 H :    0.110170
  14 H :    0.102626
  15 O :   -0.417990
  16 F :   -0.098834
  17 O :   -0.494899
  18 H :    0.157596
  19 H :    0.163056
  20 H :    0.225602
  21 H :    0.157421
Sum of atomic charges:    0.0000000

LOEWDIN ATOMIC CHARGES
----------------------
   0 C :   -0.289639
   1 N :    0.110882
   2 C :   -0.296750
   3 C :   -0.364576
   4 H :    0.163120
   5 H :    0.144676
   6 S :    0.572567
   7 C :   -0.481192
   8 C :   -0.367743
   9 N :    0.000234
  10 H :    0.133804
  11 H :    0.179695
  12 H :    0.194492
  13 H :    0.091376
  14 H :    0.092091
  15 O :   -0.255023
  16 F :    0.102993
  17 O :   -0.300320
  18 H :    0.142249
  19 H :    0.148065
  20 H :    0.143407
  21 H :    0.135594

  Mayer bond orders larger than 0.100000
B(  0-C ,  1-N ) :   0.8880 B(  0-C ,  2-C ) :   0.8859 B(  0-C , 20-H ) :   0.9765
B(  0-C , 21-H ) :   0.9863 B(  1-N ,  7-C ) :   1.1022 B(  1-N , 12-H ) :   0.9272
B(  2-C ,  3-C ) :   0.8927 B(  2-C , 18-H ) :   0.9780 B(  2-C , 19-H ) :   0.9630
B(  3-C ,  4-H ) :   0.9255 B(  3-C ,  5-H ) :   0.9514 B(  3-C ,  6-S ) :   0.9345
B(  6-S , 15-O ) :   1.9534 B(  6-S , 16-F ) :   1.1342 B(  6-S , 17-O ) :   1.7205
B(  7-C ,  8-C ) :   1.5375 B(  7-C ,  9-N ) :   1.1154 B(  8-C , 13-H ) :   1.0094
B(  8-C , 14-H ) :   1.0116 B(  9-N , 10-H ) :   0.8517 B(  9-N , 11-H ) :   0.9340

Dispersion correction           -0.000924973
FINAL SINGLE POINT ENERGY      -955.051081939542

DIPOLE MOMENT
-------------
                                X             Y             Z
Electronic contribution:    -17.87978      -1.18165      -0.16247
Nuclear contribution   :     16.78714       2.58368       1.61768
                        -----------------------------------------
Total Dipole Moment    :     -1.09264       1.40203       1.45521
                        -----------------------------------------
Magnitude (a.u.)       :      2.29721
Magnitude (Debye)      :      5.83905

Rotational constants in cm-1:     0.059928     0.020911     0.017993
Rotational constants in MHz :  1796.610847   626.896941   539.414615

                             ****ORCA TERMINATED NORMALLY****
TOTAL RUN TIME: 0 days 0 hours 0 minutes 46 seconds 180 msec
