                         Program Version 5.0.0 -  RELEASE  -
|  1> !wB97X-D3 RIJCOSX def2-TZVPD def2/J TightSCF
|  2> *xyz -1 1
|  3> C          4.90646       -3.10282       -5.95484
|  4> C          3.51177       -2.80621       -6.49228
|  5> H          2.73604       -3.37345       -5.97374
|  6> H          3.44490       -3.04083       -7.55528
|  7> S          3.00462       -1.09621       -6.38926
|  8> O          4.12886       -0.32965       -6.95372
|  9> O          1.78128       -1.00078       -7.13640
| 10> C          5.02498       -3.02568       -4.43762
| 11> H          5.20153       -4.10021       -6.29691
| 12> H          5.60592       -2.39782       -6.41337
| 13> O          2.85155       -0.78368       -4.95679
| 14> H          4.73604       -2.05011       -4.10644
| 15> H          6.03776       -3.21492       -4.14890
| 16> H          4.38436       -3.75784       -3.99214
| 17> *
| 18>
| 19> %MaxCore 64000
| 20>
| 21> %pal nprocs 8
| 22> end
| 23>
| 24> %scf
| 25>   MaxIter 150
| 26> end
| 27>
| 28>
| 29>                          ****END OF INPUT****

CARTESIAN COORDINATES (ANGSTROEM)
---------------------------------
  C      4.906460   -3.102820   -5.954840
  C      3.511770   -2.806210   -6.492280
  H      2.736040   -3.373450   -5.973740
  H      3.444900   -3.040830   -7.555280
  S      3.004620   -1.096210   -6.389260
  O      4.128860   -0.329650   -6.953720
  O      1.781280   -1.000780   -7.136400
  C      5.024980   -3.025680   -4.437620
  H      5.201530   -4.100210   -6.296910
  H      5.605920   -2.397820   -6.413370
  O      2.851550   -0.783680   -4.956790
  H      4.736040   -2.050110   -4.106440
  H      6.037760   -3.214920   -4.148900
  H      4.384360   -3.757840   -3.992140

 Total Charge           Charge          ....   -1
 Multiplicity           Mult            ....    1
 Number of Electrons    NEL             ....   66
 Basis Dimension        Dim             ....  340

ORBITAL ENERGIES
----------------

  NO   OCC          E(Eh)            E(eV)
   0   2.0000     -88.936447     -2420.0837
   1   2.0000     -19.015028      -517.4252
   2   2.0000     -19.004017      -517.1256
   3   2.0000     -19.003634      -517.1152
   4   2.0000     -10.143141      -276.0089
   5   2.0000     -10.139004      -275.8963
   6   2.0000     -10.124772      -275.5091
   7   2.0000      -7.999522      -217.6781
   8   2.0000      -5.953642      -162.0068
   9   2.0000      -5.952622      -161.9791
  10   2.0000      -5.952247      -161.9689
  11   2.0000      -1.040671       -28.3181
  12   2.0000      -0.906731       -24.6734
  13   2.0000      -0.887157       -24.1408
  14   2.0000      -0.776118       -21.1193
  15   2.0000      -0.683100       -18.5881
  16   2.0000      -0.582381       -15.8474
  17   2.0000      -0.489791       -13.3279
  18   2.0000      -0.434719       -11.8293
  19   2.0000      -0.423157       -11.5147
  20   2.0000      -0.392403       -10.6778
  21   2.0000      -0.379086       -10.3155
  22   2.0000      -0.362020        -9.8511
  23   2.0000      -0.351224        -9.5573
  24   2.0000      -0.319084        -8.6827
  25   2.0000      -0.308106        -8.3840
  26   2.0000      -0.297896        -8.1062
  27   2.0000      -0.249943        -6.8013
  28   2.0000      -0.249633        -6.7929
  29   2.0000      -0.211706        -5.7608
  30   2.0000      -0.201431        -5.4812
  31   2.0000      -0.197281        -5.3683
  32   2.0000      -0.159753        -4.3471
  33   0.0000       0.173218         4.7135
  34   0.0000       0.182955         4.9784
  35   0.0000       0.184581         5.0227
  36   0.0000       0.189157         5.1472
  37   0.0000       0.210710         5.7337

MULLIKEN ATOMIC CHARGES
-----------------------
   0 C :   -0.279146
   1 C :   -0.588350
   2 H :    0.277953
   3 H :    0.257776
   4 S :    1.208297
   5 O :   -0.739273
   6 O :   -0.693787
   7 C :   -1.160165
   8 H :    0.232328
   9 H :    0.285717
  10 O :   -0.726884
  11 H :    0.345891
  12 H :    0.294483
  13 H :    0.285160
Sum of atomic charges:   -1.0000000

LOEWDIN ATOMIC CHARGES
----------------------
   0 C :   -0.297060
   1 C :   -0.290460
   2 H :    0.093422
   3 H :    0.087870
   4 S :    0.362873
   5 O :   -0.405318
   6 O :   -0.383713
   7 C :   -0.122332
   8 H :    0.093026
   9 H :    0.098484
  10 O :   -0.407158
  11 H :    0.053945
  12 H :    0.053756
  13 H :    0.062666

  Mayer bond orders larger than 0.100000
B(  0-C ,  1-C ) :   0.9657 B(  0-C ,  4-S ) :   0.1102 B(  0-C ,  7-C ) :   0.6112
B(  0-C ,  8-H ) :   0.9552 B(  0-C ,  9-H ) :   0.9597 B(  1-C ,  2-H ) :   0.9262
B(  1-C ,  3-H ) :   0.9876 B(  1-C ,  4-S ) :   0.8245 B(  1-C ,  6-O ) :   0.1590
B(  1-C ,  7-C ) :   0.1708 B(  1-C , 10-O ) :   0.1098 B(  4-S ,  5-O ) :   1.4770
B(  4-S ,  6-O ) :   1.4914 B(  4-S , 10-O ) :   1.4865 B(  7-C , 11-H ) :   0.9728
B(  7-C , 12-H ) :   0.9493 B(  7-C , 13-H ) :   0.9838

Dispersion correction           -0.004525158
FINAL SINGLE POINT ENERGY      -742.542432817883

DIPOLE MOMENT
-------------
                                X             Y             Z
Electronic contribution:     -6.19688       7.91700      -3.68549
Nuclear contribution   :      7.19636      -9.97366       3.94889
                        -----------------------------------------
Total Dipole Moment    :      0.99948      -2.05666       0.26340
                        -----------------------------------------
Magnitude (a.u.)       :      2.30178
Magnitude (Debye)      :      5.85065

Rotational constants in cm-1:     0.137066     0.054570     0.051980
Rotational constants in MHz :  4109.139955  1635.961703  1558.315282

                             ****ORCA TERMINATED NORMALLY****
TOTAL RUN TIME: 0 days 0 hours 0 minutes 49 seconds 905 msec
