                         Program Version 5.0.0 -  RELEASE  -
|  1> !wB97X-D3 RIJCOSX def2-TZVPD def2/J TightSCF
|  2> *xyz 1 1
|  3> C          4.49059        1.15590       -2.46929
|  4> N          4.30539        1.22276       -3.90832
|  5> C          4.63192        2.24637       -4.67096
|  6> N          4.54169        2.14399       -5.98714
|  7> N          5.08409        3.39358       -4.11855
|  8> H          4.92067        3.57050       -3.13587
|  9> H          5.25465        4.19739       -4.70696
| 10> H          3.82453        0.44911       -4.35093
| 11> H          4.34337        1.24932       -6.41665
| 12> H          4.67671        2.95662       -6.57411
| 13> C          5.94213        0.93950       -2.03689
| 14> H          3.86431        0.32853       -2.13661
| 15> H          4.07623        2.04999       -1.98901
| 16> C          6.55996       -0.35629       -2.55909
| 17> H          5.96798        0.95257       -0.94244
| 18> H          6.54718        1.78833       -2.36885
| 19> H          6.53022       -0.35990       -3.62867
| 20> H          6.00654       -1.19175       -2.18407
| 21> H          7.57588       -0.42487       -2.23029
| 22> *
| 23>
| 24> %MaxCore 64000
| 25>
| 26> %pal nprocs 8
| 27> end
| 28>
| 29> %scf
| 30>   MaxIter 150
| 31> end
| 32>
| 33>
| 34>                          ****END OF INPUT****

CARTESIAN COORDINATES (ANGSTROEM)
---------------------------------
  C      4.490590    1.155900   -2.469290
  N      4.305390    1.222760   -3.908320
  C      4.631920    2.246370   -4.670960
  N      4.541690    2.143990   -5.987140
  N      5.084090    3.393580   -4.118550
  H      4.920670    3.570500   -3.135870
  H      5.254650    4.197390   -4.706960
  H      3.824530    0.449110   -4.350930
  H      4.343370    1.249320   -6.416650
  H      4.676710    2.956620   -6.574110
  C      5.942130    0.939500   -2.036890
  H      3.864310    0.328530   -2.136610
  H      4.076230    2.049990   -1.989010
  C      6.559960   -0.356290   -2.559090
  H      5.967980    0.952570   -0.942440
  H      6.547180    1.788330   -2.368850
  H      6.530220   -0.359900   -3.628670
  H      6.006540   -1.191750   -2.184070
  H      7.575880   -0.424870   -2.230290

 Total Charge           Charge          ....    1
 Multiplicity           Mult            ....    1
 Number of Electrons    NEL             ....   56
 Basis Dimension        Dim             ....  367

ORBITAL ENERGIES
----------------

  NO   OCC          E(Eh)            E(eV)
   0   2.0000     -14.643549      -398.4712
   1   2.0000     -14.643012      -398.4566
   2   2.0000     -14.640149      -398.3787
   3   2.0000     -10.611327      -288.7489
   4   2.0000     -10.477001      -285.0937
   5   2.0000     -10.414482      -283.3925
   6   2.0000     -10.382570      -282.5241
   7   2.0000      -1.332272       -36.2530
   8   2.0000      -1.220079       -33.2000
   9   2.0000      -1.204091       -32.7650
  10   2.0000      -1.053736       -28.6736
  11   2.0000      -0.976195       -26.5636
  12   2.0000      -0.930248       -25.3133
  13   2.0000      -0.890441       -24.2301
  14   2.0000      -0.869682       -23.6652
  15   2.0000      -0.829601       -22.5746
  16   2.0000      -0.789420       -21.4812
  17   2.0000      -0.784406       -21.3448
  18   2.0000      -0.759523       -20.6677
  19   2.0000      -0.725889       -19.7525
  20   2.0000      -0.696988       -18.9660
  21   2.0000      -0.674851       -18.3636
  22   2.0000      -0.643846       -17.5199
  23   2.0000      -0.597662       -16.2632
  24   2.0000      -0.579019       -15.7559
  25   2.0000      -0.578113       -15.7312
  26   2.0000      -0.562417       -15.3041
  27   2.0000      -0.535555       -14.5732
  28   0.0000      -0.088337        -2.4038
  29   0.0000      -0.085252        -2.3198
  30   0.0000      -0.057178        -1.5559
  31   0.0000      -0.049145        -1.3373
  32   0.0000      -0.024180        -0.6580

MULLIKEN ATOMIC CHARGES
-----------------------
   0 C :   -0.877054
   1 N :   -0.200211
   2 C :    0.829921
   3 N :   -0.433891
   4 N :   -0.363649
   5 H :    0.242997
   6 H :    0.198335
   7 H :    0.248087
   8 H :    0.213440
   9 H :    0.207325
  10 C :   -0.129495
  11 H :    0.407158
  12 H :    0.323303
  13 C :   -1.334144
  14 H :    0.335992
  15 H :    0.301055
  16 H :    0.330792
  17 H :    0.362873
  18 H :    0.337165
Sum of atomic charges:    1.0000000

LOEWDIN ATOMIC CHARGES
----------------------
   0 C :   -0.174243
   1 N :    0.086427
   2 C :   -0.424239
   3 N :    0.203357
   4 N :    0.210096
   5 H :    0.124915
   6 H :    0.137898
   7 H :    0.172948
   8 H :    0.143526
   9 H :    0.141930
  10 C :   -0.233525
  11 H :    0.135774
  12 H :    0.123727
  13 C :   -0.090538
  14 H :    0.121438
  15 H :    0.103397
  16 H :    0.063112
  17 H :    0.076232
  18 H :    0.077768

  Mayer bond orders larger than 0.100000
B(  0-C ,  1-N ) :   1.0078 B(  0-C , 10-C ) :   0.8242 B(  0-C , 11-H ) :   0.8121
B(  0-C , 12-H ) :   0.9197 B(  0-C , 13-C ) :   0.2026 B(  1-N ,  2-C ) :   1.1732
B(  1-N ,  3-N ) :   0.1398 B(  1-N ,  7-H ) :   0.9971 B(  2-C ,  3-N ) :   0.9695
B(  2-C ,  4-N ) :   1.1118 B(  3-N ,  8-H ) :   1.0018 B(  3-N ,  9-H ) :   1.0400
B(  4-N ,  5-H ) :   0.9189 B(  4-N ,  6-H ) :   1.0494 B( 10-C , 13-C ) :   0.6249
B( 10-C , 14-H ) :   0.9329 B( 10-C , 15-H ) :   0.9151 B( 13-C , 16-H ) :   0.9355
B( 13-C , 17-H ) :   0.9413 B( 13-C , 18-H ) :   0.9616

Dispersion correction           -0.005393084
FINAL SINGLE POINT ENERGY      -323.751764783447

DIPOLE MOMENT
-------------
                                X             Y             Z
Electronic contribution:     -3.25870       3.79277      -4.83886
Nuclear contribution   :      2.46011      -2.82418       3.51638
                        -----------------------------------------
Total Dipole Moment    :     -0.79859       0.96859      -1.32248
                        -----------------------------------------
Magnitude (a.u.)       :      1.82342
Magnitude (Debye)      :      4.63476

Rotational constants in cm-1:     0.152406     0.050160     0.046480
Rotational constants in MHz :  4569.006375  1503.763011  1393.441650

                             ****ORCA TERMINATED NORMALLY****
TOTAL RUN TIME: 0 days 0 hours 1 minutes 5 seconds 826 msec
