                         Program Version 5.0.0 -  RELEASE  -
|  1> !wB97X-D3 RIJCOSX def2-TZVPD def2/J TightSCF xyzfile
|  2>
|  3> *xyzfile 0 1 B.xyz
|  4>
|  5> %MaxCore 64000
|  6>
|  7> %pal nprocs 18
|  8> end
|  9>
| 10> %scf
| 11>   MaxIter 150
| 12> end
| 13>
| 14>
| 15>                          ****END OF INPUT****

CARTESIAN COORDINATES (ANGSTROEM)
---------------------------------
  C      4.490588    1.155899   -2.469290
  N      4.305394    1.222762   -3.908317
  C      4.906458   -3.102816   -5.954844
  C      3.511771   -2.806215   -6.492283
  H      2.736044   -3.373445   -5.973736
  H      3.444904   -3.040831   -7.555281
  S      3.004618   -1.096206   -6.389259
  C      4.631918    2.246365   -4.670958
  N      4.541686    2.143990   -5.987139
  N      5.084086    3.393584   -4.118545
  H      4.920675    3.570501   -3.135870
  H      5.254652    4.197390   -4.706956
  H      3.824530    0.449113   -4.350926
  H      4.343373    1.249318   -6.416646
  H      4.676712    2.956624   -6.574113
  O      4.128856   -0.329647   -6.953717
  O      1.781285   -1.000779   -7.136399
  C      5.942129    0.939500   -2.036893
  H      3.864305    0.328532   -2.136611
  H      4.076233    2.049994   -1.989010
  C      6.462677   -3.117775   -3.944671
  C      5.024977   -3.025679   -4.437625
  H      4.423321   -3.818693   -3.977648
  H      4.579350   -2.087131   -4.108727
  H      5.201533   -4.100207   -6.296905
  H      5.605922   -2.397822   -6.413368
  C      6.559957   -0.356290   -2.559086
  H      5.967976    0.952567   -0.942444
  H      6.547184    1.788331   -2.368849
  C      6.006283   -1.615917   -1.899301
  H      7.642360   -0.318000   -2.402059
  H      6.414855   -0.403433   -3.642587
  C      6.608718   -2.917014   -2.435655
  H      6.190324   -1.561115   -0.820948
  H      4.919250   -1.651245   -2.016586
  H      7.066975   -2.374258   -4.475514
  H      6.887808   -4.089747   -4.215332
  H      6.135197   -3.755573   -1.915159
  H      7.671142   -2.955503   -2.172291
  O      2.851546   -0.783683   -4.956789

 Total Charge           Charge          ....    0
 Multiplicity           Mult            ....    1
 Number of Electrons    NEL             ....  144
 Basis Dimension        Dim             ....  854

ORBITAL ENERGIES
----------------

  NO   OCC          E(Eh)            E(eV)
   0   2.0000     -89.090113     -2424.2652
   1   2.0000     -19.170070      -521.6441
   2   2.0000     -19.169524      -521.6293
   3   2.0000     -19.156247      -521.2680
   4   2.0000     -14.497880      -394.5074
   5   2.0000     -14.467485      -393.6803
   6   2.0000     -14.463742      -393.5784
   7   2.0000     -10.449923      -284.3569
   8   2.0000     -10.341549      -281.4078
   9   2.0000     -10.295438      -280.1531
  10   2.0000     -10.278758      -279.6992
  11   2.0000     -10.271849      -279.5112
  12   2.0000     -10.266746      -279.3724
  13   2.0000     -10.266483      -279.3652
  14   2.0000     -10.259688      -279.1803
  15   2.0000     -10.257947      -279.1329
  16   2.0000     -10.250316      -278.9253
  17   2.0000      -8.153867      -221.8780
  18   2.0000      -6.107888      -166.2041
  19   2.0000      -6.107253      -166.1868
  20   2.0000      -6.106199      -166.1581
  21   2.0000      -1.199422       -32.6379
  22   2.0000      -1.171495       -31.8780
  23   2.0000      -1.064601       -28.9693
  24   2.0000      -1.061329       -28.8802
  25   2.0000      -1.054744       -28.7010
  26   2.0000      -1.044044       -28.4099
  27   2.0000      -0.942171       -25.6378
  28   2.0000      -0.915924       -24.9236
  29   2.0000      -0.888394       -24.1744
  30   2.0000      -0.850082       -23.1319
  31   2.0000      -0.813453       -22.1352
  32   2.0000      -0.786739       -21.4082
  33   2.0000      -0.757909       -20.6237
  34   2.0000      -0.734331       -19.9822
  35   2.0000      -0.723387       -19.6844
  36   2.0000      -0.703008       -19.1298
  37   2.0000      -0.682660       -18.5761
  38   2.0000      -0.658875       -17.9289
  39   2.0000      -0.649452       -17.6725
  40   2.0000      -0.639786       -17.4095
  41   2.0000      -0.617462       -16.8020
  42   2.0000      -0.606058       -16.4917
  43   2.0000      -0.586627       -15.9629
  44   2.0000      -0.581759       -15.8305
  45   2.0000      -0.567253       -15.4357
  46   2.0000      -0.561556       -15.2807
  47   2.0000      -0.551648       -15.0111
  48   2.0000      -0.534442       -14.5429
  49   2.0000      -0.530967       -14.4483
  50   2.0000      -0.525603       -14.3024
  51   2.0000      -0.513893       -13.9838
  52   2.0000      -0.505596       -13.7580
  53   2.0000      -0.495946       -13.4954
  54   2.0000      -0.485489       -13.2108
  55   2.0000      -0.476881       -12.9766
  56   2.0000      -0.459913       -12.5149
  57   2.0000      -0.452740       -12.3197
  58   2.0000      -0.442723       -12.0471
  59   2.0000      -0.428016       -11.6469
  60   2.0000      -0.419828       -11.4241
  61   2.0000      -0.416838       -11.3427
  62   2.0000      -0.412085       -11.2134
  63   2.0000      -0.406723       -11.0675
  64   2.0000      -0.403582       -10.9820
  65   2.0000      -0.400142       -10.8884
  66   2.0000      -0.394584       -10.7372
  67   2.0000      -0.378017       -10.2864
  68   2.0000      -0.365709        -9.9515
  69   2.0000      -0.357176        -9.7193
  70   2.0000      -0.347052        -9.4438
  71   2.0000      -0.322328        -8.7710
  72   0.0000       0.033141         0.9018
  73   0.0000       0.055621         1.5135
  74   0.0000       0.063862         1.7378
  75   0.0000       0.074229         2.0199
  76   0.0000       0.078101         2.1252

MULLIKEN ATOMIC CHARGES
-----------------------
   0 C :   -1.178463
   1 N :    0.128738
   2 C :   -0.622187
   3 C :   -0.864109
   4 H :    0.345263
   5 H :    0.354830
   6 S :    1.361335
   7 C :    0.744914
   8 N :   -0.200830
   9 N :   -0.358085
  10 H :    0.235025
  11 H :    0.187114
  12 H :    0.086425
  13 H :    0.191474
  14 H :    0.192458
  15 O :   -0.953732
  16 O :   -0.703195
  17 C :   -0.395486
  18 H :    0.379965
  19 H :    0.371310
  20 C :   -0.416605
  21 C :   -0.140319
  22 H :    0.319086
  23 H :   -0.085213
  24 H :    0.298148
  25 H :    0.289444
  26 C :   -0.408513
  27 H :    0.344112
  28 H :    0.339125
  29 C :   -0.551864
  30 H :    0.289544
  31 H :    0.206177
  32 C :   -0.850810
  33 H :    0.321218
  34 H :    0.315290
  35 H :    0.326277
  36 H :    0.341594
  37 H :    0.304935
  38 H :    0.302518
  39 O :   -0.846911
Sum of atomic charges:    0.0000000

LOEWDIN ATOMIC CHARGES
----------------------
   0 C :   -0.163618
   1 N :    0.100917
   2 C :   -0.230922
   3 C :   -0.247231
   4 H :    0.107206
   5 H :    0.101848
   6 S :    0.455691
   7 C :   -0.425868
   8 N :    0.207218
   9 N :    0.178207
  10 H :    0.109704
  11 H :    0.121831
  12 H :    0.070384
  13 H :    0.045790
  14 H :    0.131466
  15 O :   -0.374941
  16 O :   -0.324751
  17 C :   -0.189089
  18 H :    0.127086
  19 H :    0.116023
  20 C :   -0.219685
  21 C :   -0.222267
  22 H :    0.128920
  23 H :    0.080437
  24 H :    0.115177
  25 H :    0.109568
  26 C :   -0.208853
  27 H :    0.116628
  28 H :    0.102195
  29 C :   -0.218464
  30 H :    0.119906
  31 H :    0.107042
  32 C :   -0.211645
  33 H :    0.114703
  34 H :    0.103289
  35 H :    0.108345
  36 H :    0.114152
  37 H :    0.111136
  38 H :    0.109387
  39 O :   -0.376921

  Mayer bond orders larger than 0.100000
B(  0-C ,  1-N ) :   1.2216 B(  0-C ,  7-C ) :  -0.2268 B(  0-C ,  9-N ) :   0.1238
B(  0-C , 12-H ) :  -0.2411 B(  0-C , 17-C ) :   0.7249 B(  0-C , 18-H ) :   0.7295
B(  0-C , 19-H ) :   0.7712 B(  0-C , 29-C ) :   0.1908 B(  1-N ,  7-C ) :   1.1815
B(  1-N , 12-H ) :   0.9048 B(  1-N , 39-O ) :  -0.1579 B(  2-C ,  3-C ) :   1.0183
B(  2-C , 20-C ) :   0.5277 B(  2-C , 21-C ) :   0.4447 B(  2-C , 22-H ) :  -0.1377
B(  2-C , 24-H ) :   0.9324 B(  2-C , 25-H ) :   0.8943 B(  3-C ,  4-H ) :   0.8793
B(  3-C ,  5-H ) :   0.9101 B(  3-C ,  6-S ) :   0.8488 B(  3-C , 15-O ) :   0.1066
B(  3-C , 16-O ) :   0.1998 B(  3-C , 21-C ) :   0.3469 B(  6-S , 15-O ) :   1.2180
B(  6-S , 16-O ) :   1.3229 B(  6-S , 39-O ) :   1.4537 B(  7-C ,  8-N ) :   1.1027
B(  7-C ,  9-N ) :   1.1046 B(  7-C , 12-H ) :  -0.2428 B(  8-N , 13-H ) :   0.8791
B(  8-N , 14-H ) :   1.0291 B(  8-N , 15-O ) :  -0.1190 B(  9-N , 10-H ) :   0.9213
B(  9-N , 11-H ) :   1.0394 B( 12-H , 39-O ) :   0.1749 B( 15-O , 39-O ) :   0.1108
B( 17-C , 26-C ) :   1.0807 B( 17-C , 27-H ) :   0.9276 B( 17-C , 28-H ) :   0.8598
B( 17-C , 29-C ) :   0.3214 B( 20-C , 21-C ) :   0.4014 B( 20-C , 23-H ) :  -0.1164
B( 20-C , 26-C ) :   0.1740 B( 20-C , 32-C ) :   0.8902 B( 20-C , 35-H ) :   0.9121
B( 20-C , 36-H ) :   0.8738 B( 21-C , 22-H ) :   0.7594 B( 21-C , 23-H ) :   1.5871
B( 21-C , 29-C ) :   0.1388 B( 21-C , 32-C ) :   0.3678 B( 22-H , 23-H ) :   0.1370
B( 23-H , 39-O ) :  -0.1578 B( 26-C , 29-C ) :   0.2824 B( 26-C , 30-H ) :   0.8765
B( 26-C , 31-H ) :   1.0721 B( 26-C , 32-C ) :   0.3080 B( 26-C , 34-H ) :  -0.1250
B( 29-C , 32-C ) :   0.9912 B( 29-C , 33-H ) :   0.8789 B( 29-C , 34-H ) :   0.9953
B( 32-C , 37-H ) :   0.9259 B( 32-C , 38-H ) :   0.9414

Dispersion correction           -0.021985719
FINAL SINGLE POINT ENERGY     -1183.219614067495

DIPOLE MOMENT
-------------
                                X             Y             Z
Electronic contribution:    -14.50439       8.35334     -15.30599
Nuclear contribution   :     16.79156      -5.47215      17.54258
                        -----------------------------------------
Total Dipole Moment    :      2.28717       2.88119       2.23659
                        -----------------------------------------
Magnitude (a.u.)       :      4.30520
Magnitude (Debye)      :     10.94295

Rotational constants in cm-1:     0.014207     0.012373     0.007472
Rotational constants in MHz :   425.900436   370.942493   224.006604

                             ****ORCA TERMINATED NORMALLY****
TOTAL RUN TIME: 0 days 0 hours 4 minutes 11 seconds 329 msec
