                         Program Version 5.0.0 -  RELEASE  -
|  1> !wB97X-D3 RIJCOSX def2-TZVPD def2/J TightSCF
|  2> *xyz 0 1
|  3> C          4.90646       -3.10282       -5.95484
|  4> C          3.51177       -2.80621       -6.49228
|  5> H          2.73604       -3.37345       -5.97374
|  6> H          3.44490       -3.04083       -7.55528
|  7> S          3.00462       -1.09621       -6.38926
|  8> F          4.12886       -0.32965       -6.95372
|  9> O          1.78128       -1.00078       -7.13640
| 10> C          5.02498       -3.02568       -4.43762
| 11> H          5.20153       -4.10021       -6.29691
| 12> H          5.60592       -2.39782       -6.41337
| 13> O          2.85155       -0.78368       -4.95679
| 14> H          4.73604       -2.05011       -4.10644
| 15> H          6.03776       -3.21492       -4.14890
| 16> H          4.38436       -3.75784       -3.99214
| 17> *
| 18>
| 19> %MaxCore 64000
| 20>
| 21> %pal nprocs 8
| 22> end
| 23>
| 24> %scf
| 25>   MaxIter 150
| 26> end
| 27>
| 28>
| 29>                          ****END OF INPUT****

CARTESIAN COORDINATES (ANGSTROEM)
---------------------------------
  C      4.906460   -3.102820   -5.954840
  C      3.511770   -2.806210   -6.492280
  H      2.736040   -3.373450   -5.973740
  H      3.444900   -3.040830   -7.555280
  S      3.004620   -1.096210   -6.389260
  F      4.128860   -0.329650   -6.953720
  O      1.781280   -1.000780   -7.136400
  C      5.024980   -3.025680   -4.437620
  H      5.201530   -4.100210   -6.296910
  H      5.605920   -2.397820   -6.413370
  O      2.851550   -0.783680   -4.956790
  H      4.736040   -2.050110   -4.106440
  H      6.037760   -3.214920   -4.148900
  H      4.384360   -3.757840   -3.992140

 Total Charge           Charge          ....    0
 Multiplicity           Mult            ....    1
 Number of Electrons    NEL             ....   66
 Basis Dimension        Dim             ....  340

ORBITAL ENERGIES
----------------

  NO   OCC          E(Eh)            E(eV)
   0   2.0000     -89.194593     -2427.1083
   1   2.0000     -24.893086      -677.3753
   2   2.0000     -19.246533      -523.7248
   3   2.0000     -19.234773      -523.4048
   4   2.0000     -10.336957      -281.2829
   5   2.0000     -10.306874      -280.4643
   6   2.0000     -10.268630      -279.4236
   7   2.0000      -8.258160      -224.7160
   8   2.0000      -6.215697      -169.1377
   9   2.0000      -6.209103      -168.9583
  10   2.0000      -6.208738      -168.9484
  11   2.0000      -1.476475       -40.1769
  12   2.0000      -1.225963       -33.3601
  13   2.0000      -1.127119       -30.6705
  14   2.0000      -0.955130       -25.9904
  15   2.0000      -0.867683       -23.6109
  16   2.0000      -0.810713       -22.0606
  17   2.0000      -0.745011       -20.2728
  18   2.0000      -0.690411       -18.7870
  19   2.0000      -0.675225       -18.3738
  20   2.0000      -0.648769       -17.6539
  21   2.0000      -0.592948       -16.1349
  22   2.0000      -0.589023       -16.0281
  23   2.0000      -0.558599       -15.2002
  24   2.0000      -0.544209       -14.8087
  25   2.0000      -0.534609       -14.5474
  26   2.0000      -0.489299       -13.3145
  27   2.0000      -0.480418       -13.0728
  28   2.0000      -0.472316       -12.8524
  29   2.0000      -0.459907       -12.5147
  30   2.0000      -0.431734       -11.7481
  31   2.0000      -0.417194       -11.3524
  32   2.0000      -0.405652       -11.0383
  33   0.0000       0.051937         1.4133
  34   0.0000       0.062556         1.7022
  35   0.0000       0.070831         1.9274
  36   0.0000       0.071645         1.9496
  37   0.0000       0.096687         2.6310

MULLIKEN ATOMIC CHARGES
-----------------------
   0 C :   -0.317888
   1 C :   -0.557862
   2 H :    0.346047
   3 H :    0.317764
   4 S :    1.203692
   5 F :   -0.166937
   6 O :   -0.578885
   7 C :   -1.189599
   8 H :    0.258165
   9 H :    0.307302
  10 O :   -0.605170
  11 H :    0.346290
  12 H :    0.314740
  13 H :    0.322341
Sum of atomic charges:    0.0000000

LOEWDIN ATOMIC CHARGES
----------------------
   0 C :   -0.276847
   1 C :   -0.240854
   2 H :    0.120350
   3 H :    0.105665
   4 S :    0.609282
   5 F :   -0.071182
   6 O :   -0.271229
   7 C :   -0.101661
   8 H :    0.113462
   9 H :    0.105801
  10 O :   -0.296084
  11 H :    0.056463
  12 H :    0.070660
  13 H :    0.076174

  Mayer bond orders larger than 0.100000
B(  0-C ,  1-C ) :   0.9337 B(  0-C ,  7-C ) :   0.6758 B(  0-C ,  8-H ) :   0.9589
B(  0-C ,  9-H ) :   0.9193 B(  1-C ,  2-H ) :   0.8654 B(  1-C ,  3-H ) :   0.9518
B(  1-C ,  4-S ) :   0.8149 B(  1-C ,  6-O ) :   0.1227 B(  1-C ,  7-C ) :   0.1371
B(  4-S ,  5-F ) :   0.9645 B(  4-S ,  6-O ) :   1.6589 B(  4-S , 10-O ) :   1.6528
B(  7-C , 11-H ) :   0.9553 B(  7-C , 12-H ) :   0.9626 B(  7-C , 13-H ) :   0.9678

Dispersion correction           -0.004478853
FINAL SINGLE POINT ENERGY      -767.070669431753

DIPOLE MOMENT
-------------
                                X             Y             Z
Electronic contribution:     -5.28989      10.21479      -5.31810
Nuclear contribution   :      6.51452     -11.35172       4.86721
                        -----------------------------------------
Total Dipole Moment    :      1.22463      -1.13693      -0.45089
                        -----------------------------------------
Magnitude (a.u.)       :      1.73079
Magnitude (Debye)      :      4.39932

Rotational constants in cm-1:     0.130386     0.053203     0.051661
Rotational constants in MHz :  3908.886819  1594.983443  1548.763987

                             ****ORCA TERMINATED NORMALLY****
TOTAL RUN TIME: 0 days 0 hours 0 minutes 49 seconds 988 msec
