                         Program Version 5.0.0 -  RELEASE  -
|  1> !wB97X-D3 RIJCOSX def2-TZVPD def2/J TightSCF
|  2> *xyz 0 1
|  3> C          4.49059        1.15590       -2.46929
|  4> C          4.30539        1.22276       -3.90832
|  5> C          4.63192        2.24637       -4.67096
|  6> N          4.54169        2.14399       -5.98714
|  7> N          5.08409        3.39358       -4.11855
|  8> H          4.92067        3.57050       -3.13587
|  9> H          5.25465        4.19739       -4.70696
| 10> H          3.82453        0.44911       -4.35093
| 11> H          4.34337        1.24932       -6.41665
| 12> H          4.67671        2.95662       -6.57411
| 13> C          5.94213        0.93950       -2.03689
| 14> H          3.86431        0.32853       -2.13661
| 15> H          4.07623        2.04999       -1.98901
| 16> C          6.55996       -0.35629       -2.55909
| 17> H          5.96798        0.95257       -0.94244
| 18> H          6.54718        1.78833       -2.36885
| 19> H          6.53022       -0.35990       -3.62867
| 20> H          6.00654       -1.19175       -2.18407
| 21> H          7.57588       -0.42487       -2.23029
| 22> *
| 23>
| 24> %MaxCore 64000
| 25>
| 26> %pal nprocs 8
| 27> end
| 28>
| 29> %scf
| 30>   MaxIter 150
| 31> end
| 32>
| 33>
| 34>                          ****END OF INPUT****

CARTESIAN COORDINATES (ANGSTROEM)
---------------------------------
  C      4.490590    1.155900   -2.469290
  C      4.305390    1.222760   -3.908320
  C      4.631920    2.246370   -4.670960
  N      4.541690    2.143990   -5.987140
  N      5.084090    3.393580   -4.118550
  H      4.920670    3.570500   -3.135870
  H      5.254650    4.197390   -4.706960
  H      3.824530    0.449110   -4.350930
  H      4.343370    1.249320   -6.416650
  H      4.676710    2.956620   -6.574110
  C      5.942130    0.939500   -2.036890
  H      3.864310    0.328530   -2.136610
  H      4.076230    2.049990   -1.989010
  C      6.559960   -0.356290   -2.559090
  H      5.967980    0.952570   -0.942440
  H      6.547180    1.788330   -2.368850
  H      6.530220   -0.359900   -3.628670
  H      6.006540   -1.191750   -2.184070
  H      7.575880   -0.424870   -2.230290

 Total Charge           Charge          ....    0
 Multiplicity           Mult            ....    1
 Number of Electrons    NEL             ....   56
 Basis Dimension        Dim             ....  367

ORBITAL ENERGIES
----------------

  NO   OCC          E(Eh)            E(eV)
   0   2.0000     -14.422368      -392.4526
   1   2.0000     -14.420371      -392.3983
   2   2.0000     -10.319227      -280.8005
   3   2.0000     -10.248161      -278.8666
   4   2.0000     -10.246450      -278.8201
   5   2.0000     -10.235891      -278.5328
   6   2.0000     -10.192693      -277.3573
   7   2.0000      -1.077813       -29.3288
   8   2.0000      -0.985393       -26.8139
   9   2.0000      -0.900102       -24.4930
  10   2.0000      -0.835040       -22.7226
  11   2.0000      -0.769874       -20.9493
  12   2.0000      -0.703210       -19.1353
  13   2.0000      -0.675001       -18.3677
  14   2.0000      -0.643366       -17.5069
  15   2.0000      -0.607283       -16.5250
  16   2.0000      -0.573050       -15.5935
  17   2.0000      -0.542678       -14.7670
  18   2.0000      -0.532378       -14.4867
  19   2.0000      -0.511163       -13.9095
  20   2.0000      -0.487700       -13.2710
  21   2.0000      -0.463854       -12.6221
  22   2.0000      -0.453538       -12.3414
  23   2.0000      -0.421346       -11.4654
  24   2.0000      -0.403812       -10.9883
  25   2.0000      -0.400590       -10.9006
  26   2.0000      -0.359175        -9.7737
  27   2.0000      -0.246474        -6.7069
  28   0.0000       0.062750         1.7075
  29   0.0000       0.087073         2.3694
  30   0.0000       0.090119         2.4523
  31   0.0000       0.100503         2.7348
  32   0.0000       0.111485         3.0337

MULLIKEN ATOMIC CHARGES
-----------------------
   0 C :   -0.601336
   1 C :   -0.918320
   2 C :    0.613772
   3 N :   -0.476176
   4 N :   -0.376873
   5 H :    0.208988
   6 H :    0.155267
   7 H :    0.442834
   8 H :    0.191229
   9 H :    0.159511
  10 C :   -0.219250
  11 H :    0.295700
  12 H :    0.294892
  13 C :   -1.359847
  14 H :    0.275357
  15 H :    0.294202
  16 H :    0.352100
  17 H :    0.341784
  18 H :    0.326167
Sum of atomic charges:    0.0000000

LOEWDIN ATOMIC CHARGES
----------------------
   0 C :   -0.249475
   1 C :   -0.153003
   2 C :   -0.535543
   3 N :    0.104802
   4 N :    0.125916
   5 H :    0.098684
   6 H :    0.099709
   7 H :    0.071749
   8 H :    0.114707
   9 H :    0.101732
  10 C :   -0.264948
  11 H :    0.109812
  12 H :    0.100749
  13 C :   -0.110723
  14 H :    0.100031
  15 H :    0.097576
  16 H :    0.061774
  17 H :    0.065863
  18 H :    0.060586

  Mayer bond orders larger than 0.100000
B(  0-C ,  1-C ) :   0.8321 B(  0-C ,  2-C ) :   0.1785 B(  0-C , 10-C ) :   0.7280
B(  0-C , 11-H ) :   0.9813 B(  0-C , 12-H ) :   0.9303 B(  0-C , 13-C ) :   0.1738
B(  1-C ,  2-C ) :   1.0318 B(  1-C ,  7-H ) :   0.8089 B(  1-C , 10-C ) :   0.2813
B(  1-C , 13-C ) :   0.1558 B(  2-C ,  3-N ) :   0.9210 B(  2-C ,  4-N ) :   1.0205
B(  2-C ,  7-H ) :  -0.1572 B(  3-N ,  8-H ) :   1.0111 B(  3-N ,  9-H ) :   1.0632
B(  4-N ,  5-H ) :   0.9386 B(  4-N ,  6-H ) :   1.0678 B( 10-C , 13-C ) :   0.5866
B( 10-C , 14-H ) :   0.9619 B( 10-C , 15-H ) :   0.9129 B( 13-C , 16-H ) :   0.9688
B( 13-C , 17-H ) :   0.9478 B( 13-C , 18-H ) :   0.9290

Dispersion correction           -0.005368181
FINAL SINGLE POINT ENERGY      -307.265056292611

DIPOLE MOMENT
-------------
                                X             Y             Z
Electronic contribution:     -2.32511       3.66348      -4.17085
Nuclear contribution   :      2.29046      -2.89565       3.47129
                        -----------------------------------------
Total Dipole Moment    :     -0.03465       0.76782      -0.69957
                        -----------------------------------------
Magnitude (a.u.)       :      1.03930
Magnitude (Debye)      :      2.64170

Rotational constants in cm-1:     0.154384     0.050352     0.046525
Rotational constants in MHz :  4628.320816  1509.522910  1394.780903

                             ****ORCA TERMINATED NORMALLY****
TOTAL RUN TIME: 0 days 0 hours 1 minutes 10 seconds 15 msec
