                         Program Version 5.0.0 -  RELEASE  -
|  1> !wB97X-D3 RIJCOSX def2-TZVPD def2/J TightSCF
|  2> *xyz 0 1
|  3> C          4.90646       -3.10282       -5.95484
|  4> C          3.51177       -2.80621       -6.49228
|  5> H          2.73604       -3.37345       -5.97374
|  6> H          3.44490       -3.04083       -7.55528
|  7> S          3.00462       -1.09621       -6.38926
|  8> O          4.12886       -0.32965       -6.95372
|  9> F          1.78128       -1.00078       -7.13640
| 10> C          5.02498       -3.02568       -4.43762
| 11> H          5.20153       -4.10021       -6.29691
| 12> H          5.60592       -2.39782       -6.41337
| 13> O          2.85155       -0.78368       -4.95679
| 14> H          4.73604       -2.05011       -4.10644
| 15> H          6.03776       -3.21492       -4.14890
| 16> H          4.38436       -3.75784       -3.99214
| 17> *
| 18>
| 19> %MaxCore 64000
| 20>
| 21> %pal nprocs 8
| 22> end
| 23>
| 24> %scf
| 25>   MaxIter 150
| 26> end
| 27>
| 28>
| 29>                          ****END OF INPUT****

CARTESIAN COORDINATES (ANGSTROEM)
---------------------------------
  C      4.906460   -3.102820   -5.954840
  C      3.511770   -2.806210   -6.492280
  H      2.736040   -3.373450   -5.973740
  H      3.444900   -3.040830   -7.555280
  S      3.004620   -1.096210   -6.389260
  O      4.128860   -0.329650   -6.953720
  F      1.781280   -1.000780   -7.136400
  C      5.024980   -3.025680   -4.437620
  H      5.201530   -4.100210   -6.296910
  H      5.605920   -2.397820   -6.413370
  O      2.851550   -0.783680   -4.956790
  H      4.736040   -2.050110   -4.106440
  H      6.037760   -3.214920   -4.148900
  H      4.384360   -3.757840   -3.992140

 Total Charge           Charge          ....    0
 Multiplicity           Mult            ....    1
 Number of Electrons    NEL             ....   66
 Basis Dimension        Dim             ....  340

ORBITAL ENERGIES
----------------

  NO   OCC          E(Eh)            E(eV)
   0   2.0000     -89.196791     -2427.1681
   1   2.0000     -24.911984      -677.8896
   2   2.0000     -19.235327      -523.4199
   3   2.0000     -19.235287      -523.4188
   4   2.0000     -10.337841      -281.3070
   5   2.0000     -10.301990      -280.3314
   6   2.0000     -10.263345      -279.2798
   7   2.0000      -8.260372      -224.7761
   8   2.0000      -6.217651      -169.1909
   9   2.0000      -6.211294      -169.0179
  10   2.0000      -6.211091      -169.0124
  11   2.0000      -1.507184       -41.0126
  12   2.0000      -1.212924       -33.0053
  13   2.0000      -1.113916       -30.3112
  14   2.0000      -0.950876       -25.8747
  15   2.0000      -0.873486       -23.7688
  16   2.0000      -0.819788       -22.3076
  17   2.0000      -0.745351       -20.2820
  18   2.0000      -0.697756       -18.9869
  19   2.0000      -0.689370       -18.7587
  20   2.0000      -0.661556       -18.0019
  21   2.0000      -0.593818       -16.1586
  22   2.0000      -0.588172       -16.0050
  23   2.0000      -0.553143       -15.0518
  24   2.0000      -0.539580       -14.6827
  25   2.0000      -0.525810       -14.3080
  26   2.0000      -0.482717       -13.1354
  27   2.0000      -0.469935       -12.7876
  28   2.0000      -0.466584       -12.6964
  29   2.0000      -0.454165       -12.3585
  30   2.0000      -0.422591       -11.4993
  31   2.0000      -0.413258       -11.2453
  32   2.0000      -0.397361       -10.8127
  33   0.0000       0.047733         1.2989
  34   0.0000       0.063115         1.7174
  35   0.0000       0.067272         1.8306
  36   0.0000       0.075244         2.0475
  37   0.0000       0.096992         2.6393

MULLIKEN ATOMIC CHARGES
-----------------------
   0 C :   -0.350990
   1 C :   -0.596768
   2 H :    0.360903
   3 H :    0.345481
   4 S :    1.201085
   5 O :   -0.613440
   6 F :   -0.107529
   7 C :   -1.195961
   8 H :    0.265014
   9 H :    0.312546
  10 O :   -0.602567
  11 H :    0.351452
  12 H :    0.311149
  13 H :    0.319627
Sum of atomic charges:   -0.0000000

LOEWDIN ATOMIC CHARGES
----------------------
   0 C :   -0.267258
   1 C :   -0.250425
   2 H :    0.109639
   3 H :    0.103605
   4 S :    0.610954
   5 O :   -0.295193
   6 F :   -0.044948
   7 C :   -0.098435
   8 H :    0.115134
   9 H :    0.110342
  10 O :   -0.298488
  11 H :    0.059618
  12 H :    0.071369
  13 H :    0.074086

  Mayer bond orders larger than 0.100000
B(  0-C ,  1-C ) :   1.0229 B(  0-C ,  4-S ) :   0.1158 B(  0-C ,  7-C ) :   0.6508
B(  0-C ,  8-H ) :   0.9343 B(  0-C ,  9-H ) :   0.9319 B(  1-C ,  2-H ) :   0.8595
B(  1-C ,  3-H ) :   0.8795 B(  1-C ,  4-S ) :   0.8073 B(  1-C ,  7-C ) :   0.1662
B(  4-S ,  5-O ) :   1.6412 B(  4-S ,  6-F ) :   0.9896 B(  4-S , 10-O ) :   1.6512
B(  7-C , 11-H ) :   0.9554 B(  7-C , 12-H ) :   0.9570 B(  7-C , 13-H ) :   0.9635

Dispersion correction           -0.004510354
FINAL SINGLE POINT ENERGY      -767.055797099540

DIPOLE MOMENT
-------------
                                X             Y             Z
Electronic contribution:     -9.35463       9.08397      -5.64663
Nuclear contribution   :      9.03920     -10.62996       5.06367
                        -----------------------------------------
Total Dipole Moment    :     -0.31542      -1.54599      -0.58296
                        -----------------------------------------
Magnitude (a.u.)       :      1.68209
Magnitude (Debye)      :      4.27553

Rotational constants in cm-1:     0.135071     0.052485     0.050188
Rotational constants in MHz :  4049.321380  1573.451279  1504.609887

                             ****ORCA TERMINATED NORMALLY****
TOTAL RUN TIME: 0 days 0 hours 0 minutes 48 seconds 527 msec
