                         Program Version 5.0.0 -  RELEASE  -
|  1> !wB97X-D3 RIJCOSX def2-TZVPD def2/J TightSCF
|  2> *xyz 0 1
|  3> C          4.49059        1.15590       -2.46929
|  4> N          4.30539        1.22276       -3.90832
|  5> C          4.63192        2.24637       -4.67096
|  6> C          4.54169        2.14399       -5.98714
|  7> N          5.08409        3.39358       -4.11855
|  8> H          4.92067        3.57050       -3.13587
|  9> H          5.25465        4.19739       -4.70696
| 10> H          3.82453        0.44911       -4.35093
| 11> H          4.34337        1.24932       -6.41665
| 12> H          4.67671        2.95662       -6.57411
| 13> C          5.94213        0.93950       -2.03689
| 14> H          3.86431        0.32853       -2.13661
| 15> H          4.07623        2.04999       -1.98901
| 16> C          6.55996       -0.35629       -2.55909
| 17> H          5.96798        0.95257       -0.94244
| 18> H          6.54718        1.78833       -2.36885
| 19> H          6.53022       -0.35990       -3.62867
| 20> H          6.00654       -1.19175       -2.18407
| 21> H          7.57588       -0.42487       -2.23029
| 22> *
| 23>
| 24> %MaxCore 64000
| 25>
| 26> %pal nprocs 8
| 27> end
| 28>
| 29> %scf
| 30>   MaxIter 150
| 31> end
| 32>
| 33>
| 34>                          ****END OF INPUT****

CARTESIAN COORDINATES (ANGSTROEM)
---------------------------------
  C      4.490590    1.155900   -2.469290
  N      4.305390    1.222760   -3.908320
  C      4.631920    2.246370   -4.670960
  C      4.541690    2.143990   -5.987140
  N      5.084090    3.393580   -4.118550
  H      4.920670    3.570500   -3.135870
  H      5.254650    4.197390   -4.706960
  H      3.824530    0.449110   -4.350930
  H      4.343370    1.249320   -6.416650
  H      4.676710    2.956620   -6.574110
  C      5.942130    0.939500   -2.036890
  H      3.864310    0.328530   -2.136610
  H      4.076230    2.049990   -1.989010
  C      6.559960   -0.356290   -2.559090
  H      5.967980    0.952570   -0.942440
  H      6.547180    1.788330   -2.368850
  H      6.530220   -0.359900   -3.628670
  H      6.006540   -1.191750   -2.184070
  H      7.575880   -0.424870   -2.230290

 Total Charge           Charge          ....    0
 Multiplicity           Mult            ....    1
 Number of Electrons    NEL             ....   56
 Basis Dimension        Dim             ....  367

ORBITAL ENERGIES
----------------

  NO   OCC          E(Eh)            E(eV)
   0   2.0000     -14.421775      -392.4364
   1   2.0000     -14.419838      -392.3837
   2   2.0000     -10.321375      -280.8589
   3   2.0000     -10.313648      -280.6486
   4   2.0000     -10.272566      -279.5307
   5   2.0000     -10.255663      -279.0708
   6   2.0000     -10.181792      -277.0607
   7   2.0000      -1.086016       -29.5520
   8   2.0000      -0.997339       -27.1390
   9   2.0000      -0.903917       -24.5968
  10   2.0000      -0.838951       -22.8290
  11   2.0000      -0.782066       -21.2811
  12   2.0000      -0.720919       -19.6172
  13   2.0000      -0.691563       -18.8184
  14   2.0000      -0.635805       -17.3011
  15   2.0000      -0.601491       -16.3674
  16   2.0000      -0.578201       -15.7336
  17   2.0000      -0.561578       -15.2813
  18   2.0000      -0.539400       -14.6778
  19   2.0000      -0.501798       -13.6546
  20   2.0000      -0.494285       -13.4502
  21   2.0000      -0.486949       -13.2506
  22   2.0000      -0.465535       -12.6679
  23   2.0000      -0.444516       -12.0959
  24   2.0000      -0.439569       -11.9613
  25   2.0000      -0.431617       -11.7449
  26   2.0000      -0.347194        -9.4476
  27   2.0000      -0.249184        -6.7806
  28   0.0000       0.063490         1.7277
  29   0.0000       0.081424         2.2157
  30   0.0000       0.088279         2.4022
  31   0.0000       0.089361         2.4316
  32   0.0000       0.113548         3.0898

MULLIKEN ATOMIC CHARGES
-----------------------
   0 C :   -0.890331
   1 N :   -0.145603
   2 C :    1.021723
   3 C :   -1.661398
   4 N :   -0.394838
   5 H :    0.190915
   6 H :    0.174251
   7 H :    0.221993
   8 H :    0.343582
   9 H :    0.297311
  10 C :   -0.130807
  11 H :    0.375140
  12 H :    0.292163
  13 C :   -1.324894
  14 H :    0.311846
  15 H :    0.316628
  16 H :    0.339808
  17 H :    0.337961
  18 H :    0.324548
Sum of atomic charges:   -0.0000000

LOEWDIN ATOMIC CHARGES
----------------------
   0 C :   -0.208953
   1 N :    0.016757
   2 C :   -0.558868
   3 C :   -0.007857
   4 N :    0.118600
   5 H :    0.089971
   6 H :    0.110572
   7 H :    0.150848
   8 H :    0.010215
   9 H :    0.007253
  10 C :   -0.249449
  11 H :    0.119086
  12 H :    0.107678
  13 C :   -0.105856
  14 H :    0.105090
  15 H :    0.099598
  16 H :    0.065329
  17 H :    0.065732
  18 H :    0.064254

  Mayer bond orders larger than 0.100000
B(  0-C ,  1-N ) :   0.9924 B(  0-C , 10-C ) :   0.8034 B(  0-C , 11-H ) :   0.8699
B(  0-C , 12-H ) :   0.9444 B(  0-C , 13-C ) :   0.2140 B(  1-N ,  2-C ) :   1.1119
B(  1-N ,  3-C ) :   0.1093 B(  1-N ,  7-H ) :   0.9632 B(  2-C ,  3-C ) :   0.7301
B(  2-C ,  4-N ) :   0.9851 B(  2-C ,  9-H ) :  -0.1543 B(  3-C ,  8-H ) :   0.9108
B(  3-C ,  9-H ) :   1.0930 B(  4-N ,  5-H ) :   0.9788 B(  4-N ,  6-H ) :   1.0303
B( 10-C , 13-C ) :   0.5937 B( 10-C , 14-H ) :   0.9557 B( 10-C , 15-H ) :   0.9187
B( 13-C , 16-H ) :   0.9495 B( 13-C , 17-H ) :   0.9485 B( 13-C , 18-H ) :   0.9464

Dispersion correction           -0.005437208
FINAL SINGLE POINT ENERGY      -307.257826889694

DIPOLE MOMENT
-------------
                                X             Y             Z
Electronic contribution:     -2.44284       2.73442      -1.96658
Nuclear contribution   :      2.34222      -2.69386       3.01591
                        -----------------------------------------
Total Dipole Moment    :     -0.10062       0.04056       1.04933
                        -----------------------------------------
Magnitude (a.u.)       :      1.05493
Magnitude (Debye)      :      2.68141

Rotational constants in cm-1:     0.155143     0.051710     0.048050
Rotational constants in MHz :  4651.080391  1550.217078  1440.507386

                             ****ORCA TERMINATED NORMALLY****
TOTAL RUN TIME: 0 days 0 hours 1 minutes 7 seconds 725 msec
