                         Program Version 5.0.0 -  RELEASE  -
|  1> !wB97X-D3 RIJCOSX def2-TZVPD def2/J TightSCF
|  2> *xyz 0 1
|  3> C          4.90646       -3.10282       -5.95484
|  4> C          3.51177       -2.80621       -6.49228
|  5> H          2.73604       -3.37345       -5.97374
|  6> H          3.44490       -3.04083       -7.55528
|  7> S          3.00462       -1.09621       -6.38926
|  8> O          4.12886       -0.32965       -6.95372
|  9> O          1.78128       -1.00078       -7.13640
| 10> C          5.02498       -3.02568       -4.43762
| 11> H          5.20153       -4.10021       -6.29691
| 12> H          5.60592       -2.39782       -6.41337
| 13> F          2.85155       -0.78368       -4.95679
| 14> H          4.73604       -2.05011       -4.10644
| 15> H          6.03776       -3.21492       -4.14890
| 16> H          4.38436       -3.75784       -3.99214
| 17> *
| 18>
| 19> %MaxCore 64000
| 20>
| 21> %pal nprocs 8
| 22> end
| 23>
| 24> %scf
| 25>   MaxIter 150
| 26> end
| 27>
| 28>
| 29>                          ****END OF INPUT****

CARTESIAN COORDINATES (ANGSTROEM)
---------------------------------
  C      4.906460   -3.102820   -5.954840
  C      3.511770   -2.806210   -6.492280
  H      2.736040   -3.373450   -5.973740
  H      3.444900   -3.040830   -7.555280
  S      3.004620   -1.096210   -6.389260
  O      4.128860   -0.329650   -6.953720
  O      1.781280   -1.000780   -7.136400
  C      5.024980   -3.025680   -4.437620
  H      5.201530   -4.100210   -6.296910
  H      5.605920   -2.397820   -6.413370
  F      2.851550   -0.783680   -4.956790
  H      4.736040   -2.050110   -4.106440
  H      6.037760   -3.214920   -4.148900
  H      4.384360   -3.757840   -3.992140

 Total Charge           Charge          ....    0
 Multiplicity           Mult            ....    1
 Number of Electrons    NEL             ....   66
 Basis Dimension        Dim             ....  340

ORBITAL ENERGIES
----------------

  NO   OCC          E(Eh)            E(eV)
   0   2.0000     -89.194130     -2427.0957
   1   2.0000     -24.892150      -677.3498
   2   2.0000     -19.246510      -523.7242
   3   2.0000     -19.234936      -523.4092
   4   2.0000     -10.336814      -281.2790
   5   2.0000     -10.303570      -280.3744
   6   2.0000     -10.278503      -279.6923
   7   2.0000      -8.257734      -224.7044
   8   2.0000      -6.215239      -169.1253
   9   2.0000      -6.208803      -168.9501
  10   2.0000      -6.208204      -168.9338
  11   2.0000      -1.475390       -40.1474
  12   2.0000      -1.225668       -33.3521
  13   2.0000      -1.127903       -30.6918
  14   2.0000      -0.954497       -25.9732
  15   2.0000      -0.869618       -23.6635
  16   2.0000      -0.812416       -22.1070
  17   2.0000      -0.748657       -20.3720
  18   2.0000      -0.683346       -18.5948
  19   2.0000      -0.673661       -18.3313
  20   2.0000      -0.654029       -17.7970
  21   2.0000      -0.595035       -16.1917
  22   2.0000      -0.585475       -15.9316
  23   2.0000      -0.562815       -15.3150
  24   2.0000      -0.550789       -14.9877
  25   2.0000      -0.533294       -14.5117
  26   2.0000      -0.494245       -13.4491
  27   2.0000      -0.482921       -13.1410
  28   2.0000      -0.464471       -12.6389
  29   2.0000      -0.459812       -12.5121
  30   2.0000      -0.430788       -11.7223
  31   2.0000      -0.421879       -11.4799
  32   2.0000      -0.409072       -11.1314
  33   0.0000       0.054805         1.4913
  34   0.0000       0.062185         1.6921
  35   0.0000       0.070006         1.9050
  36   0.0000       0.072797         1.9809
  37   0.0000       0.098706         2.6859

MULLIKEN ATOMIC CHARGES
-----------------------
   0 C :   -0.300976
   1 C :   -0.590244
   2 H :    0.359313
   3 H :    0.317528
   4 S :    1.213462
   5 O :   -0.616161
   6 O :   -0.582866
   7 C :   -1.215124
   8 H :    0.278740
   9 H :    0.310933
  10 F :   -0.158499
  11 H :    0.350579
  12 H :    0.305312
  13 H :    0.328003
Sum of atomic charges:    0.0000000

LOEWDIN ATOMIC CHARGES
----------------------
   0 C :   -0.276408
   1 C :   -0.242443
   2 H :    0.110111
   3 H :    0.115156
   4 S :    0.606831
   5 O :   -0.293499
   6 O :   -0.271758
   7 C :   -0.100851
   8 H :    0.114562
   9 H :    0.108940
  10 F :   -0.076350
  11 H :    0.058517
  12 H :    0.073009
  13 H :    0.074182

  Mayer bond orders larger than 0.100000
B(  0-C ,  1-C ) :   0.9467 B(  0-C ,  7-C ) :   0.5840 B(  0-C ,  8-H ) :   0.9300
B(  0-C ,  9-H ) :   0.9547 B(  1-C ,  2-H ) :   0.8784 B(  1-C ,  3-H ) :   0.9237
B(  1-C ,  4-S ) :   0.8097 B(  1-C ,  6-O ) :   0.1294 B(  1-C ,  7-C ) :   0.1959
B(  4-S ,  5-O ) :   1.6358 B(  4-S ,  6-O ) :   1.6507 B(  4-S , 10-F ) :   0.9713
B(  7-C , 11-H ) :   0.9310 B(  7-C , 12-H ) :   0.9741 B(  7-C , 13-H ) :   0.9732

Dispersion correction           -0.004480590
FINAL SINGLE POINT ENERGY      -767.071235604884

DIPOLE MOMENT
-------------
                                X             Y             Z
Electronic contribution:     -7.46662       9.40351      -1.86702
Nuclear contribution   :      7.88819     -10.86344       2.71963
                        -----------------------------------------
Total Dipole Moment    :      0.42157      -1.45993       0.85261
                        -----------------------------------------
Magnitude (a.u.)       :      1.74243
Magnitude (Debye)      :      4.42890

Rotational constants in cm-1:     0.130261     0.054435     0.050898
Rotational constants in MHz :  3905.114465  1631.935083  1525.880669

                             ****ORCA TERMINATED NORMALLY****
TOTAL RUN TIME: 0 days 0 hours 0 minutes 51 seconds 947 msec
