                         Program Version 5.0.0 -  RELEASE  -
|  1> !wB97X-D3 RIJCOSX def2-TZVPD def2/J TightSCF
|  2> *xyz 0 1
|  3> C          4.49059        1.15590       -2.46929
|  4> N          4.30539        1.22276       -3.90832
|  5> C          4.63192        2.24637       -4.67096
|  6> N          4.54169        2.14399       -5.98714
|  7> C          5.08409        3.39358       -4.11855
|  8> H          4.92067        3.57050       -3.13587
|  9> H          5.25465        4.19739       -4.70696
| 10> H          3.82453        0.44911       -4.35093
| 11> H          4.34337        1.24932       -6.41665
| 12> H          4.67671        2.95662       -6.57411
| 13> C          5.94213        0.93950       -2.03689
| 14> H          3.86431        0.32853       -2.13661
| 15> H          4.07623        2.04999       -1.98901
| 16> C          6.55996       -0.35629       -2.55909
| 17> H          5.96798        0.95257       -0.94244
| 18> H          6.54718        1.78833       -2.36885
| 19> H          6.53022       -0.35990       -3.62867
| 20> H          6.00654       -1.19175       -2.18407
| 21> H          7.57588       -0.42487       -2.23029
| 22> *
| 23>
| 24> %MaxCore 64000
| 25>
| 26> %pal nprocs 8
| 27> end
| 28>
| 29> %scf
| 30>   MaxIter 150
| 31> end
| 32>
| 33>
| 34>                          ****END OF INPUT****

CARTESIAN COORDINATES (ANGSTROEM)
---------------------------------
  C      4.490590    1.155900   -2.469290
  N      4.305390    1.222760   -3.908320
  C      4.631920    2.246370   -4.670960
  N      4.541690    2.143990   -5.987140
  C      5.084090    3.393580   -4.118550
  H      4.920670    3.570500   -3.135870
  H      5.254650    4.197390   -4.706960
  H      3.824530    0.449110   -4.350930
  H      4.343370    1.249320   -6.416650
  H      4.676710    2.956620   -6.574110
  C      5.942130    0.939500   -2.036890
  H      3.864310    0.328530   -2.136610
  H      4.076230    2.049990   -1.989010
  C      6.559960   -0.356290   -2.559090
  H      5.967980    0.952570   -0.942440
  H      6.547180    1.788330   -2.368850
  H      6.530220   -0.359900   -3.628670
  H      6.006540   -1.191750   -2.184070
  H      7.575880   -0.424870   -2.230290

 Total Charge           Charge          ....    0
 Multiplicity           Mult            ....    1
 Number of Electrons    NEL             ....   56
 Basis Dimension        Dim             ....  367

ORBITAL ENERGIES
----------------

  NO   OCC          E(Eh)            E(eV)
   0   2.0000     -14.426176      -392.5562
   1   2.0000     -14.422863      -392.4660
   2   2.0000     -10.324465      -280.9430
   3   2.0000     -10.305949      -280.4391
   4   2.0000     -10.262850      -279.2663
   5   2.0000     -10.250903      -278.9413
   6   2.0000     -10.182889      -277.0905
   7   2.0000      -1.090307       -29.6688
   8   2.0000      -1.004964       -27.3465
   9   2.0000      -0.891320       -24.2541
  10   2.0000      -0.824666       -22.4403
  11   2.0000      -0.800505       -21.7829
  12   2.0000      -0.715568       -19.4716
  13   2.0000      -0.661738       -18.0068
  14   2.0000      -0.653533       -17.7835
  15   2.0000      -0.623823       -16.9751
  16   2.0000      -0.575202       -15.6521
  17   2.0000      -0.550928       -14.9915
  18   2.0000      -0.527649       -14.3581
  19   2.0000      -0.499297       -13.5866
  20   2.0000      -0.491675       -13.3791
  21   2.0000      -0.481696       -13.1076
  22   2.0000      -0.464302       -12.6343
  23   2.0000      -0.441190       -12.0054
  24   2.0000      -0.432693       -11.7742
  25   2.0000      -0.423290       -11.5183
  26   2.0000      -0.342883        -9.3303
  27   2.0000      -0.250487        -6.8161
  28   0.0000       0.062613         1.7038
  29   0.0000       0.083491         2.2719
  30   0.0000       0.088819         2.4169
  31   0.0000       0.092957         2.5295
  32   0.0000       0.112502         3.0613

MULLIKEN ATOMIC CHARGES
-----------------------
   0 C :   -0.798528
   1 N :   -0.242302
   2 C :    1.043997
   3 N :   -0.452927
   4 C :   -1.584917
   5 H :    0.304196
   6 H :    0.363027
   7 H :    0.227759
   8 H :    0.174299
   9 H :    0.184098
  10 C :   -0.206733
  11 H :    0.391348
  12 H :    0.271167
  13 C :   -1.310932
  14 H :    0.320056
  15 H :    0.334832
  16 H :    0.317628
  17 H :    0.333737
  18 H :    0.330194
Sum of atomic charges:   -0.0000000

LOEWDIN ATOMIC CHARGES
----------------------
   0 C :   -0.204979
   1 N :    0.012769
   2 C :   -0.560374
   3 N :    0.110510
   4 C :    0.001568
   5 H :    0.000903
   6 H :    0.006106
   7 H :    0.143178
   8 H :    0.104543
   9 H :    0.114453
  10 C :   -0.244883
  11 H :    0.117818
  12 H :    0.113057
  13 C :   -0.109185
  14 H :    0.106774
  15 H :    0.099248
  16 H :    0.061068
  17 H :    0.063810
  18 H :    0.063616

  Mayer bond orders larger than 0.100000
B(  0-C ,  1-N ) :   1.0263 B(  0-C ,  4-C ) :   0.1297 B(  0-C , 10-C ) :   0.8607
B(  0-C , 11-H ) :   0.7993 B(  0-C , 12-H ) :   0.9461 B(  0-C , 13-C ) :   0.2096
B(  1-N ,  2-C ) :   1.0534 B(  1-N ,  7-H ) :   0.9910 B(  2-C ,  3-N ) :   0.8861
B(  2-C ,  4-C ) :   0.8674 B(  2-C ,  6-H ) :  -0.1192 B(  3-N ,  4-C ) :   0.1024
B(  3-N ,  8-H ) :   1.0356 B(  3-N ,  9-H ) :   1.0245 B(  4-C ,  5-H ) :   0.9635
B(  4-C ,  6-H ) :   0.9864 B( 10-C , 13-C ) :   0.5800 B( 10-C , 14-H ) :   0.9210
B( 10-C , 15-H ) :   0.9302 B( 13-C , 16-H ) :   0.9719 B( 13-C , 17-H ) :   0.9489
B( 13-C , 18-H ) :   0.9424

Dispersion correction           -0.005377382
FINAL SINGLE POINT ENERGY      -307.256963054068

DIPOLE MOMENT
-------------
                                X             Y             Z
Electronic contribution:     -2.93405       1.53735      -3.86840
Nuclear contribution   :      2.46104      -2.42013       3.42523
                        -----------------------------------------
Total Dipole Moment    :     -0.47301      -0.88278      -0.44316
                        -----------------------------------------
Magnitude (a.u.)       :      1.09519
Magnitude (Debye)      :      2.78375

Rotational constants in cm-1:     0.157414     0.050835     0.047338
Rotational constants in MHz :  4719.163414  1524.007825  1419.164399

                             ****ORCA TERMINATED NORMALLY****
TOTAL RUN TIME: 0 days 0 hours 1 minutes 6 seconds 269 msec
