                         Program Version 5.0.0 -  RELEASE  -
|  1> !wB97X-D3 RIJCOSX def2-TZVPD def2/J TightSCF xyzfile
|  2>
|  3> *xyzfile 0 1 D5.xyz
|  4>
|  5> %MaxCore 64000
|  6>
|  7> %pal nprocs 18
|  8> end
|  9>
| 10> %scf
| 11>   MaxIter 150
| 12> end
| 13>
| 14>
| 15>                          ****END OF INPUT****

CARTESIAN COORDINATES (ANGSTROEM)
---------------------------------
  C      4.490588    1.155899   -2.469290
  N      4.305394    1.222762   -3.908317
  C      4.906458   -3.102816   -5.954844
  C      3.511771   -2.806215   -6.492283
  H      2.736044   -3.373445   -5.973736
  H      3.444904   -3.040831   -7.555281
  S      3.004618   -1.096206   -6.389259
  C      4.631918    2.246365   -4.670958
  C      4.541686    2.143990   -5.987139
  N      5.084086    3.393584   -4.118545
  H      4.920675    3.570501   -3.135870
  H      5.254652    4.197390   -4.706956
  H      3.824530    0.449113   -4.350926
  H      4.343373    1.249318   -6.416646
  H      4.676712    2.956624   -6.574113
  O      4.128856   -0.329647   -6.953717
  F      1.781285   -1.000779   -7.136399
  C      5.942129    0.939500   -2.036893
  H      3.864305    0.328532   -2.136611
  H      4.076233    2.049994   -1.989010
  C      6.462677   -3.117775   -3.944671
  C      5.024977   -3.025679   -4.437625
  H      4.423321   -3.818693   -3.977648
  H      4.579350   -2.087131   -4.108727
  H      5.201533   -4.100207   -6.296905
  H      5.605922   -2.397822   -6.413368
  C      6.559957   -0.356290   -2.559086
  H      5.967976    0.952567   -0.942444
  H      6.547184    1.788331   -2.368849
  C      6.006283   -1.615917   -1.899301
  H      7.642360   -0.318000   -2.402059
  H      6.414855   -0.403433   -3.642587
  C      6.608718   -2.917014   -2.435655
  H      6.190324   -1.561115   -0.820948
  H      4.919250   -1.651245   -2.016586
  H      7.066975   -2.374258   -4.475514
  H      6.887808   -4.089747   -4.215332
  H      6.135197   -3.755573   -1.915159
  H      7.671142   -2.955503   -2.172291
  O      2.851546   -0.783683   -4.956789

 Total Charge           Charge          ....    0
 Multiplicity           Mult            ....    1
 Number of Electrons    NEL             ....  144
 Basis Dimension        Dim             ....  854

ORBITAL ENERGIES
----------------

  NO   OCC          E(Eh)            E(eV)
   0   2.0000     -89.211790     -2427.5762
   1   2.0000     -24.922606      -678.1786
   2   2.0000     -19.254961      -523.9541
   3   2.0000     -19.244698      -523.6748
   4   2.0000     -14.394768      -391.7016
   5   2.0000     -14.381038      -391.3279
   6   2.0000     -10.346106      -281.5318
   7   2.0000     -10.305513      -280.4273
   8   2.0000     -10.290906      -280.0298
   9   2.0000     -10.289980      -280.0046
  10   2.0000     -10.277658      -279.6693
  11   2.0000     -10.272329      -279.5243
  12   2.0000     -10.268477      -279.4195
  13   2.0000     -10.262778      -279.2644
  14   2.0000     -10.256853      -279.1032
  15   2.0000     -10.256437      -279.0918
  16   2.0000     -10.141609      -275.9672
  17   2.0000      -8.275491      -225.1875
  18   2.0000      -6.232730      -169.6012
  19   2.0000      -6.226469      -169.4308
  20   2.0000      -6.226196      -169.4234
  21   2.0000      -1.517752       -41.3001
  22   2.0000      -1.232190       -33.5296
  23   2.0000      -1.133755       -30.8510
  24   2.0000      -1.055455       -28.7204
  25   2.0000      -0.970212       -26.4008
  26   2.0000      -0.963134       -26.2082
  27   2.0000      -0.927617       -25.2417
  28   2.0000      -0.897856       -24.4319
  29   2.0000      -0.866844       -23.5880
  30   2.0000      -0.840577       -22.8733
  31   2.0000      -0.812925       -22.1208
  32   2.0000      -0.782749       -21.2997
  33   2.0000      -0.755084       -20.5469
  34   2.0000      -0.732457       -19.9312
  35   2.0000      -0.710942       -19.3457
  36   2.0000      -0.700238       -19.0544
  37   2.0000      -0.697909       -18.9911
  38   2.0000      -0.685210       -18.6455
  39   2.0000      -0.666418       -18.1342
  40   2.0000      -0.655332       -17.8325
  41   2.0000      -0.617499       -16.8030
  42   2.0000      -0.607665       -16.5354
  43   2.0000      -0.592692       -16.1280
  44   2.0000      -0.580814       -15.8048
  45   2.0000      -0.575376       -15.6568
  46   2.0000      -0.563909       -15.3447
  47   2.0000      -0.562394       -15.3035
  48   2.0000      -0.548749       -14.9322
  49   2.0000      -0.540585       -14.7101
  50   2.0000      -0.530764       -14.4428
  51   2.0000      -0.523095       -14.2341
  52   2.0000      -0.514389       -13.9972
  53   2.0000      -0.494957       -13.4685
  54   2.0000      -0.486126       -13.2282
  55   2.0000      -0.483232       -13.1494
  56   2.0000      -0.472872       -12.8675
  57   2.0000      -0.467803       -12.7296
  58   2.0000      -0.455076       -12.3832
  59   2.0000      -0.451295       -12.2804
  60   2.0000      -0.448765       -12.2115
  61   2.0000      -0.441597       -12.0165
  62   2.0000      -0.431691       -11.7469
  63   2.0000      -0.425757       -11.5854
  64   2.0000      -0.419597       -11.4178
  65   2.0000      -0.411794       -11.2055
  66   2.0000      -0.402200       -10.9444
  67   2.0000      -0.400583       -10.9004
  68   2.0000      -0.394107       -10.7242
  69   2.0000      -0.384152       -10.4533
  70   2.0000      -0.319002        -8.6805
  71   2.0000      -0.218064        -5.9338
  72   0.0000       0.037047         1.0081
  73   0.0000       0.058608         1.5948
  74   0.0000       0.062106         1.6900
  75   0.0000       0.073297         1.9945
  76   0.0000       0.081562         2.2194

MULLIKEN ATOMIC CHARGES
-----------------------
   0 C :   -1.101157
   1 N :    0.093499
   2 C :   -0.696075
   3 C :   -0.882489
   4 H :    0.401884
   5 H :    0.426397
   6 S :    1.241750
   7 C :    1.394280
   8 C :   -2.112978
   9 N :   -0.390599
  10 H :    0.190096
  11 H :    0.184880
  12 H :    0.017592
  13 H :    0.582526
  14 H :    0.268762
  15 O :   -0.647586
  16 F :   -0.108157
  17 C :   -0.484852
  18 H :    0.310854
  19 H :    0.364978
  20 C :   -0.482380
  21 C :   -0.125888
  22 H :    0.325602
  23 H :   -0.096260
  24 H :    0.321012
  25 H :    0.321961
  26 C :   -0.434766
  27 H :    0.335338
  28 H :    0.381550
  29 C :   -0.510343
  30 H :    0.282994
  31 H :    0.252472
  32 C :   -0.848101
  33 H :    0.327664
  34 H :    0.268336
  35 H :    0.371352
  36 H :    0.345339
  37 H :    0.301934
  38 H :    0.311484
  39 O :   -0.702904
Sum of atomic charges:    0.0000000

LOEWDIN ATOMIC CHARGES
----------------------
   0 C :   -0.189384
   1 N :    0.029852
   2 C :   -0.212827
   3 C :   -0.227291
   4 H :    0.112219
   5 H :    0.107106
   6 S :    0.671847
   7 C :   -0.538916
   8 C :    0.002438
   9 N :    0.113083
  10 H :    0.085676
  11 H :    0.106273
  12 H :    0.062546
  13 H :   -0.048885
  14 H :    0.011505
  15 O :   -0.284549
  16 F :   -0.024967
  17 C :   -0.193279
  18 H :    0.113820
  19 H :    0.108389
  20 C :   -0.215328
  21 C :   -0.216529
  22 H :    0.130029
  23 H :    0.085385
  24 H :    0.125442
  25 H :    0.120067
  26 C :   -0.210461
  27 H :    0.109955
  28 H :    0.104045
  29 C :   -0.220400
  30 H :    0.117396
  31 H :    0.106572
  32 C :   -0.211287
  33 H :    0.114921
  34 H :    0.100236
  35 H :    0.112390
  36 H :    0.114345
  37 H :    0.109546
  38 H :    0.111198
  39 O :   -0.292179

  Mayer bond orders larger than 0.100000
B(  0-C ,  1-N ) :   1.1575 B(  0-C ,  7-C ) :  -0.2076 B(  0-C ,  9-N ) :   0.1497
B(  0-C , 12-H ) :  -0.1872 B(  0-C , 17-C ) :   0.7251 B(  0-C , 18-H ) :   0.8356
B(  0-C , 19-H ) :   0.7694 B(  0-C , 29-C ) :   0.1773 B(  1-N ,  7-C ) :   1.0801
B(  1-N , 12-H ) :   0.9503 B(  1-N , 39-O ) :  -0.1061 B(  2-C ,  3-C ) :   1.0650
B(  2-C , 20-C ) :   0.5420 B(  2-C , 21-C ) :   0.4462 B(  2-C , 22-H ) :  -0.1357
B(  2-C , 24-H ) :   0.9119 B(  2-C , 25-H ) :   0.8898 B(  3-C ,  4-H ) :   0.8218
B(  3-C ,  5-H ) :   0.8116 B(  3-C ,  6-S ) :   0.8308 B(  3-C , 15-O ) :   0.1098
B(  3-C , 16-F ) :   0.1115 B(  3-C , 21-C ) :   0.3311 B(  3-C , 39-O ) :   0.1174
B(  6-S , 15-O ) :   1.5902 B(  6-S , 16-F ) :   0.8591 B(  6-S , 39-O ) :   1.6628
B(  7-C ,  8-C ) :   0.2399 B(  7-C ,  9-N ) :   0.9838 B(  7-C , 12-H ) :  -0.2887
B(  7-C , 14-H ) :  -0.2555 B(  8-C , 13-H ) :   0.6931 B(  8-C , 14-H ) :   1.1608
B(  9-N , 10-H ) :   0.9794 B(  9-N , 11-H ) :   1.0210 B( 13-H , 14-H ) :   0.1153
B( 13-H , 15-O ) :  -0.2039 B( 15-O , 39-O ) :   0.1505 B( 17-C , 26-C ) :   1.0951
B( 17-C , 27-H ) :   0.9468 B( 17-C , 28-H ) :   0.8498 B( 17-C , 29-C ) :   0.3459
B( 20-C , 21-C ) :   0.4089 B( 20-C , 26-C ) :   0.1873 B( 20-C , 32-C ) :   0.9347
B( 20-C , 35-H ) :   0.8895 B( 20-C , 36-H ) :   0.8575 B( 21-C , 22-H ) :   0.7660
B( 21-C , 23-H ) :   1.5325 B( 21-C , 29-C ) :   0.1133 B( 21-C , 32-C ) :   0.3818
B( 21-C , 39-O ) :   0.1240 B( 22-H , 23-H ) :   0.1304 B( 23-H , 39-O ) :  -0.1640
B( 26-C , 29-C ) :   0.2122 B( 26-C , 30-H ) :   0.8721 B( 26-C , 31-H ) :   1.0771
B( 26-C , 32-C ) :   0.3180 B( 26-C , 34-H ) :  -0.1293 B( 29-C , 32-C ) :   0.9576
B( 29-C , 33-H ) :   0.8734 B( 29-C , 34-H ) :   1.0306 B( 32-C , 37-H ) :   0.9231
B( 32-C , 38-H ) :   0.9315

Dispersion correction           -0.022008519
FINAL SINGLE POINT ENERGY     -1191.052964964326

DIPOLE MOMENT
-------------
                                X             Y             Z
Electronic contribution:    -20.63530       2.62448     -20.18331
Nuclear contribution   :     20.03262      -4.53368      20.24480
                        -----------------------------------------
Total Dipole Moment    :     -0.60267      -1.90921       0.06148
                        -----------------------------------------
Magnitude (a.u.)       :      2.00301
Magnitude (Debye)      :      5.09126

Rotational constants in cm-1:     0.014367     0.012055     0.007393
Rotational constants in MHz :   430.711297   361.391195   221.649333

                             ****ORCA TERMINATED NORMALLY****
TOTAL RUN TIME: 0 days 0 hours 4 minutes 51 seconds 577 msec
