                         Program Version 5.0.0 -  RELEASE  -
|  1> !wB97X-D3 RIJCOSX def2-TZVPD def2/J TightSCF xyzfile
|  2>
|  3> *xyzfile 0 1 D9.xyz
|  4>
|  5> %MaxCore 64000
|  6>
|  7> %pal nprocs 18
|  8> end
|  9>
| 10> %scf
| 11>   MaxIter 150
| 12> end
| 13>
| 14>
| 15>                          ****END OF INPUT****

CARTESIAN COORDINATES (ANGSTROEM)
---------------------------------
  C      4.490588    1.155899   -2.469290
  N      4.305394    1.222762   -3.908317
  C      4.906458   -3.102816   -5.954844
  C      3.511771   -2.806215   -6.492283
  H      2.736044   -3.373445   -5.973736
  H      3.444904   -3.040831   -7.555281
  S      3.004618   -1.096206   -6.389259
  C      4.631918    2.246365   -4.670958
  N      4.541686    2.143990   -5.987139
  C      5.084086    3.393584   -4.118545
  H      4.920675    3.570501   -3.135870
  H      5.254652    4.197390   -4.706956
  H      3.824530    0.449113   -4.350926
  H      4.343373    1.249318   -6.416646
  H      4.676712    2.956624   -6.574113
  O      4.128856   -0.329647   -6.953717
  O      1.781285   -1.000779   -7.136399
  C      5.942129    0.939500   -2.036893
  H      3.864305    0.328532   -2.136611
  H      4.076233    2.049994   -1.989010
  C      6.462677   -3.117775   -3.944671
  C      5.024977   -3.025679   -4.437625
  H      4.423321   -3.818693   -3.977648
  H      4.579350   -2.087131   -4.108727
  H      5.201533   -4.100207   -6.296905
  H      5.605922   -2.397822   -6.413368
  C      6.559957   -0.356290   -2.559086
  H      5.967976    0.952567   -0.942444
  H      6.547184    1.788331   -2.368849
  C      6.006283   -1.615917   -1.899301
  H      7.642360   -0.318000   -2.402059
  H      6.414855   -0.403433   -3.642587
  C      6.608718   -2.917014   -2.435655
  H      6.190324   -1.561115   -0.820948
  H      4.919250   -1.651245   -2.016586
  H      7.066975   -2.374258   -4.475514
  H      6.887808   -4.089747   -4.215332
  H      6.135197   -3.755573   -1.915159
  H      7.671142   -2.955503   -2.172291
  F      2.851546   -0.783683   -4.956789

 Total Charge           Charge          ....    0
 Multiplicity           Mult            ....    1
 Number of Electrons    NEL             ....  144
 Basis Dimension        Dim             ....  854

ORBITAL ENERGIES
----------------

  NO   OCC          E(Eh)            E(eV)
   0   2.0000     -89.221585     -2427.8428
   1   2.0000     -24.925088      -678.2461
   2   2.0000     -19.270400      -524.3742
   3   2.0000     -19.266815      -524.2767
   4   2.0000     -14.410473      -392.1289
   5   2.0000     -14.387353      -391.4998
   6   2.0000     -10.354881      -281.7706
   7   2.0000     -10.313626      -280.6480
   8   2.0000     -10.306640      -280.4579
   9   2.0000     -10.300402      -280.2882
  10   2.0000     -10.296513      -280.1824
  11   2.0000     -10.284366      -279.8518
  12   2.0000     -10.277909      -279.6761
  13   2.0000     -10.272146      -279.5193
  14   2.0000     -10.264350      -279.3072
  15   2.0000     -10.259581      -279.1774
  16   2.0000     -10.166654      -276.6487
  17   2.0000      -8.285607      -225.4628
  18   2.0000      -6.243256      -169.8876
  19   2.0000      -6.236503      -169.7039
  20   2.0000      -6.235947      -169.6888
  21   2.0000      -1.511307       -41.1248
  22   2.0000      -1.254453       -34.1354
  23   2.0000      -1.160116       -31.5684
  24   2.0000      -1.073047       -29.1991
  25   2.0000      -0.985109       -26.8062
  26   2.0000      -0.975389       -26.5417
  27   2.0000      -0.937554       -25.5121
  28   2.0000      -0.903685       -24.5905
  29   2.0000      -0.870965       -23.7002
  30   2.0000      -0.847266       -23.0553
  31   2.0000      -0.815074       -22.1793
  32   2.0000      -0.801994       -21.8234
  33   2.0000      -0.775336       -21.0980
  34   2.0000      -0.750632       -20.4257
  35   2.0000      -0.721792       -19.6410
  36   2.0000      -0.713006       -19.4019
  37   2.0000      -0.705883       -19.2081
  38   2.0000      -0.687096       -18.6968
  39   2.0000      -0.673473       -18.3261
  40   2.0000      -0.643887       -17.5211
  41   2.0000      -0.629534       -17.1305
  42   2.0000      -0.618255       -16.8236
  43   2.0000      -0.611656       -16.6440
  44   2.0000      -0.596090       -16.2204
  45   2.0000      -0.593927       -16.1616
  46   2.0000      -0.577413       -15.7122
  47   2.0000      -0.573936       -15.6176
  48   2.0000      -0.555105       -15.1052
  49   2.0000      -0.550805       -14.9882
  50   2.0000      -0.538871       -14.6634
  51   2.0000      -0.536453       -14.5976
  52   2.0000      -0.518371       -14.1056
  53   2.0000      -0.509978       -13.8772
  54   2.0000      -0.496200       -13.5023
  55   2.0000      -0.489580       -13.3222
  56   2.0000      -0.482486       -13.1291
  57   2.0000      -0.474030       -12.8990
  58   2.0000      -0.467732       -12.7276
  59   2.0000      -0.460769       -12.5382
  60   2.0000      -0.457073       -12.4376
  61   2.0000      -0.451630       -12.2895
  62   2.0000      -0.445607       -12.1256
  63   2.0000      -0.440622       -11.9899
  64   2.0000      -0.438215       -11.9244
  65   2.0000      -0.431948       -11.7539
  66   2.0000      -0.428488       -11.6598
  67   2.0000      -0.411770       -11.2048
  68   2.0000      -0.410246       -11.1634
  69   2.0000      -0.401052       -10.9132
  70   2.0000      -0.324292        -8.8244
  71   2.0000      -0.234265        -6.3747
  72   0.0000       0.039240         1.0678
  73   0.0000       0.052353         1.4246
  74   0.0000       0.061822         1.6823
  75   0.0000       0.068192         1.8556
  76   0.0000       0.077167         2.0998

MULLIKEN ATOMIC CHARGES
-----------------------
   0 C :   -1.097293
   1 N :    0.040947
   2 C :   -0.568614
   3 C :   -0.829297
   4 H :    0.377934
   5 H :    0.386139
   6 S :    1.288746
   7 C :    1.202338
   8 N :   -0.246895
   9 C :   -1.779633
  10 H :    0.330441
  11 H :    0.385082
  12 H :    0.100077
  13 H :    0.175961
  14 H :    0.161403
  15 O :   -0.797347
  16 O :   -0.607427
  17 C :   -0.572100
  18 H :    0.351088
  19 H :    0.357677
  20 C :   -0.502527
  21 C :   -0.198709
  22 H :    0.352125
  23 H :   -0.114960
  24 H :    0.332980
  25 H :    0.318201
  26 C :   -0.378958
  27 H :    0.347285
  28 H :    0.396605
  29 C :   -0.487149
  30 H :    0.283602
  31 H :    0.188230
  32 C :   -0.855299
  33 H :    0.326323
  34 H :    0.248307
  35 H :    0.375981
  36 H :    0.346462
  37 H :    0.301609
  38 H :    0.312796
  39 F :   -0.252133
Sum of atomic charges:   -0.0000000

LOEWDIN ATOMIC CHARGES
----------------------
   0 C :   -0.185483
   1 N :    0.027198
   2 C :   -0.222228
   3 C :   -0.217720
   4 H :    0.114995
   5 H :    0.118950
   6 S :    0.650775
   7 C :   -0.545291
   8 N :    0.124936
   9 C :   -0.002163
  10 H :   -0.003375
  11 H :    0.003833
  12 H :    0.080123
  13 H :    0.026797
  14 H :    0.117928
  15 O :   -0.283150
  16 O :   -0.244126
  17 C :   -0.187050
  18 H :    0.111216
  19 H :    0.115798
  20 C :   -0.213480
  21 C :   -0.220135
  22 H :    0.130851
  23 H :    0.083728
  24 H :    0.125636
  25 H :    0.117997
  26 C :   -0.211273
  27 H :    0.113351
  28 H :    0.105122
  29 C :   -0.221937
  30 H :    0.118982
  31 H :    0.103175
  32 C :   -0.210468
  33 H :    0.116404
  34 H :    0.096764
  35 H :    0.112974
  36 H :    0.116714
  37 H :    0.110166
  38 H :    0.112737
  39 F :   -0.089272

  Mayer bond orders larger than 0.100000
B(  0-C ,  1-N ) :   1.1671 B(  0-C ,  7-C ) :  -0.1759 B(  0-C ,  9-C ) :   0.2018
B(  0-C , 12-H ) :  -0.2651 B(  0-C , 17-C ) :   0.8472 B(  0-C , 18-H ) :   0.7003
B(  0-C , 19-H ) :   0.7945 B(  0-C , 26-C ) :   0.1119 B(  0-C , 29-C ) :   0.1824
B(  1-N ,  7-C ) :   1.0263 B(  1-N , 12-H ) :   0.9638 B(  1-N , 17-C ) :   0.1365
B(  2-C ,  3-C ) :   0.9535 B(  2-C , 20-C ) :   0.5510 B(  2-C , 21-C ) :   0.3902
B(  2-C , 22-H ) :  -0.1341 B(  2-C , 24-H ) :   0.9001 B(  2-C , 25-H ) :   0.9070
B(  3-C ,  4-H ) :   0.8608 B(  3-C ,  5-H ) :   0.8576 B(  3-C ,  6-S ) :   0.8623
B(  3-C , 16-O ) :   0.1616 B(  3-C , 21-C ) :   0.3923 B(  6-S , 15-O ) :   1.4679
B(  6-S , 16-O ) :   1.4293 B(  6-S , 21-C ) :   0.1117 B(  6-S , 39-F ) :   1.0609
B(  7-C ,  8-N ) :   0.9348 B(  7-C ,  9-C ) :   0.6763 B(  7-C , 11-H ) :  -0.1130
B(  7-C , 12-H ) :  -0.2562 B(  8-N , 13-H ) :   0.9325 B(  8-N , 14-H ) :   1.0254
B(  9-C , 10-H ) :   0.9520 B(  9-C , 11-H ) :   0.9613 B( 17-C , 26-C ) :   1.1143
B( 17-C , 27-H ) :   0.8953 B( 17-C , 28-H ) :   0.8802 B( 17-C , 29-C ) :   0.3361
B( 20-C , 21-C ) :   0.4611 B( 20-C , 26-C ) :   0.1745 B( 20-C , 32-C ) :   0.9385
B( 20-C , 35-H ) :   0.8797 B( 20-C , 36-H ) :   0.8563 B( 21-C , 22-H ) :   0.7707
B( 21-C , 23-H ) :   1.4665 B( 21-C , 29-C ) :   0.1192 B( 21-C , 32-C ) :   0.3776
B( 22-H , 23-H ) :   0.1147 B( 23-H , 39-F ) :  -0.1150 B( 26-C , 29-C ) :   0.2039
B( 26-C , 30-H ) :   0.8671 B( 26-C , 31-H ) :   1.1215 B( 26-C , 32-C ) :   0.3192
B( 26-C , 34-H ) :  -0.1296 B( 29-C , 32-C ) :   0.9524 B( 29-C , 33-H ) :   0.8791
B( 29-C , 34-H ) :   1.0379 B( 32-C , 37-H ) :   0.9291 B( 32-C , 38-H ) :   0.9310

Dispersion correction           -0.021750747
FINAL SINGLE POINT ENERGY     -1191.073742557478

DIPOLE MOMENT
-------------
                                X             Y             Z
Electronic contribution:    -18.97447       1.83211     -17.83218
Nuclear contribution   :     18.85717      -4.60195      17.96505
                        -----------------------------------------
Total Dipole Moment    :     -0.11729      -2.76984       0.13287
                        -----------------------------------------
Magnitude (a.u.)       :      2.77550
Magnitude (Debye)      :      7.05477

Rotational constants in cm-1:     0.014436     0.012382     0.007563
Rotational constants in MHz :   432.785702   371.214592   226.743759

                             ****ORCA TERMINATED NORMALLY****
TOTAL RUN TIME: 0 days 0 hours 4 minutes 17 seconds 700 msec
