                         Program Version 5.0.0 -  RELEASE  -
|  1> !PBE D3BJ RIJCOSX def2-SVPD def2/J TightSCF
|  2> *xyz -1 1
|  3> C         -0.87096        0.24804       -2.66280
|  4> C         -0.47749        0.60819       -4.10105
|  5> H          0.20677        1.45830       -4.11875
|  6> H         -1.36844        0.92942       -4.64785
|  7> C          0.18467       -0.50664       -4.91676
|  8> O         -0.15869       -1.70109       -4.65798
|  9> O          1.05594       -0.17441       -5.74037
| 10> H         -1.54056       -0.58646       -2.67455
| 11> H         -1.35339        1.08600       -2.20455
| 12> H          0.00660       -0.00662       -2.10609
| 13> *
| 14>
| 15> %MaxCore 64000
| 16>
| 17> %pal nprocs 4
| 18> end
| 19>
| 20> %scf
| 21>   MaxIter 150
| 22> end
| 23>
| 24>
| 25>                          ****END OF INPUT****

CARTESIAN COORDINATES (ANGSTROEM)
---------------------------------
  C     -0.870960    0.248040   -2.662800
  C     -0.477490    0.608190   -4.101050
  H      0.206770    1.458300   -4.118750
  H     -1.368440    0.929420   -4.647850
  C      0.184670   -0.506640   -4.916760
  O     -0.158690   -1.701090   -4.657980
  O      1.055940   -0.174410   -5.740370
  H     -1.540560   -0.586460   -2.674550
  H     -1.353390    1.086000   -2.204550
  H      0.006600   -0.006620   -2.106090

 Total Charge           Charge          ....   -1
 Multiplicity           Mult            ....    1
 Number of Electrons    NEL             ....   40
 Basis Dimension        Dim             ....  146

ORBITAL ENERGIES
----------------

  NO   OCC          E(Eh)            E(eV)
   0   2.0000     -18.507429      -503.6127
   1   2.0000     -18.504486      -503.5327
   2   2.0000      -9.772987      -265.9365
   3   2.0000      -9.731467      -264.8067
   4   2.0000      -9.722711      -264.5684
   5   2.0000      -0.725975       -19.7548
   6   2.0000      -0.636009       -17.3067
   7   2.0000      -0.526024       -14.3138
   8   2.0000      -0.406219       -11.0538
   9   2.0000      -0.262660        -7.1474
  10   2.0000      -0.244284        -6.6473
  11   2.0000      -0.207596        -5.6490
  12   2.0000      -0.182374        -4.9627
  13   2.0000      -0.169721        -4.6184
  14   2.0000      -0.158934        -4.3248
  15   2.0000      -0.132943        -3.6176
  16   2.0000      -0.118784        -3.2323
  17   2.0000      -0.014450        -0.3932
  18   2.0000      -0.000646        -0.0176
  19   2.0000       0.016596         0.4516
  20   0.0000       0.138502         3.7688
  21   0.0000       0.173898         4.7320
  22   0.0000       0.187183         5.0935
  23   0.0000       0.192782         5.2459
  24   0.0000       0.217180         5.9098

MULLIKEN ATOMIC CHARGES
-----------------------
   0 C :    0.640461
   1 C :   -0.407100
   2 H :   -0.040389
   3 H :   -0.025388
   4 C :    0.377858
   5 O :   -0.701025
   6 O :   -0.634940
   7 H :   -0.040404
   8 H :   -0.098454
   9 H :   -0.070620
Sum of atomic charges:   -1.0000000

LOEWDIN ATOMIC CHARGES
----------------------
   0 C :    0.092479
   1 C :   -0.044496
   2 H :   -0.004080
   3 H :    0.007259
   4 C :   -0.324450
   5 O :   -0.312170
   6 O :   -0.307367
   7 H :   -0.032693
   8 H :   -0.048124
   9 H :   -0.026358

  Mayer bond orders larger than 0.100000
B(  0-C ,  1-C ) :   1.3095 B(  0-C ,  7-H ) :   0.8114 B(  0-C ,  8-H ) :   0.7985
B(  0-C ,  9-H ) :   0.8283 B(  1-C ,  2-H ) :   0.9445 B(  1-C ,  3-H ) :   0.8909
B(  1-C ,  4-C ) :   1.0742 B(  1-C ,  7-H ) :   0.2293 B(  1-C ,  8-H ) :   0.2306
B(  1-C ,  9-H ) :   0.1916 B(  2-H ,  4-C ) :   0.1898 B(  4-C ,  5-O ) :   1.4595
B(  4-C ,  6-O ) :   1.4754

Dispersion correction           -0.006499158
FINAL SINGLE POINT ENERGY      -267.357543566643

DIPOLE MOMENT
-------------
                                X             Y             Z
Electronic contribution:      2.66247      -2.96023      -4.60319
Nuclear contribution   :     -3.54611       4.15440       5.90446
                        -----------------------------------------
Total Dipole Moment    :     -0.88364       1.19417       1.30127
                        -----------------------------------------
Magnitude (a.u.)       :      1.97489
Magnitude (Debye)      :      5.01976

Rotational constants in cm-1:     0.332789     0.132085     0.101080
Rotational constants in MHz :  9976.755824  3959.803182  3030.288811

                             ****ORCA TERMINATED NORMALLY****
TOTAL RUN TIME: 0 days 0 hours 0 minutes 9 seconds 92 msec
