                         Program Version 5.0.0 -  RELEASE  -
|  1> !PBE D3BJ RIJCOSX def2-SVPD def2/J TightSCF
|  2> *xyz 1 1
|  3> C          2.48645       -2.67712       -2.56345
|  4> C          3.03764       -2.36672       -3.92351
|  5> N          2.28036       -2.45441       -4.96769
|  6> N          4.32174       -2.01793       -4.01664
|  7> H          4.87994       -1.91167       -3.17382
|  8> H          4.71015       -1.67088       -4.88356
|  9> H          1.27042       -2.41265       -4.86614
| 10> H          2.58183       -2.05528       -5.84688
| 11> C          2.49799       -1.46946       -1.61030
| 12> H          1.47259       -3.05153       -2.69437
| 13> H          3.08320       -3.49064       -2.14147
| 14> H          1.91240       -0.67831       -2.02991
| 15> H          3.50450       -1.13364       -1.47227
| 16> H          2.08509       -1.75655       -0.66585
| 17> *
| 18>
| 19> %MaxCore 64000
| 20>
| 21> %pal nprocs 4
| 22> end
| 23>
| 24> %scf
| 25>   MaxIter 150
| 26> end
| 27>
| 28>
| 29>                          ****END OF INPUT****

CARTESIAN COORDINATES (ANGSTROEM)
---------------------------------
  C      2.486450   -2.677120   -2.563450
  C      3.037640   -2.366720   -3.923510
  N      2.280360   -2.454410   -4.967690
  N      4.321740   -2.017930   -4.016640
  H      4.879940   -1.911670   -3.173820
  H      4.710150   -1.670880   -4.883560
  H      1.270420   -2.412650   -4.866140
  H      2.581830   -2.055280   -5.846880
  C      2.497990   -1.469460   -1.610300
  H      1.472590   -3.051530   -2.694370
  H      3.083200   -3.490640   -2.141470
  H      1.912400   -0.678310   -2.029910
  H      3.504500   -1.133640   -1.472270
  H      2.085090   -1.756550   -0.665850

 Total Charge           Charge          ....    1
 Multiplicity           Mult            ....    1
 Number of Electrons    NEL             ....   40
 Basis Dimension        Dim             ....  172

ORBITAL ENERGIES
----------------

  NO   OCC          E(Eh)            E(eV)
   0   2.0000     -14.249816      -387.7572
   1   2.0000     -14.245106      -387.6290
   2   2.0000     -10.211739      -277.8755
   3   2.0000     -10.095738      -274.7190
   4   2.0000     -10.055084      -273.6127
   5   2.0000      -1.118453       -30.4346
   6   2.0000      -1.027820       -27.9684
   7   2.0000      -0.893629       -24.3169
   8   2.0000      -0.801355       -21.8060
   9   2.0000      -0.756159       -20.5761
  10   2.0000      -0.725329       -19.7372
  11   2.0000      -0.695334       -18.9210
  12   2.0000      -0.655082       -17.8257
  13   2.0000      -0.605762       -16.4836
  14   2.0000      -0.577330       -15.7100
  15   2.0000      -0.564352       -15.3568
  16   2.0000      -0.509032       -13.8515
  17   2.0000      -0.496187       -13.5019
  18   2.0000      -0.486298       -13.2328
  19   2.0000      -0.459821       -12.5124
  20   0.0000      -0.251240        -6.8366
  21   0.0000      -0.182562        -4.9678
  22   0.0000      -0.141814        -3.8590
  23   0.0000      -0.140009        -3.8099
  24   0.0000      -0.109108        -2.9690

MULLIKEN ATOMIC CHARGES
-----------------------
   0 C :   -0.284130
   1 C :    0.636344
   2 N :    0.154152
   3 N :    0.123438
   4 H :    0.004457
   5 H :   -0.155070
   6 H :   -0.006872
   7 H :   -0.110088
   8 C :    0.740618
   9 H :    0.014344
  10 H :    0.034296
  11 H :   -0.084645
  12 H :   -0.074324
  13 H :    0.007481
Sum of atomic charges:    1.0000000

LOEWDIN ATOMIC CHARGES
----------------------
   0 C :    0.011212
   1 C :   -0.063449
   2 N :    0.293466
   3 N :    0.300072
   4 H :    0.047377
   5 H :    0.043779
   6 H :    0.058527
   7 H :    0.049400
   8 C :    0.173177
   9 H :    0.036151
  10 H :    0.054828
  11 H :    0.000200
  12 H :   -0.014591
  13 H :    0.009851

  Mayer bond orders larger than 0.100000
B(  0-C ,  1-C ) :   1.1866 B(  0-C ,  8-C ) :   1.3093 B(  0-C ,  9-H ) :   0.8582
B(  0-C , 10-H ) :   0.8502 B(  0-C , 11-H ) :   0.1715 B(  0-C , 12-H ) :   0.1996
B(  0-C , 13-H ) :   0.1655 B(  1-C ,  2-N ) :   1.1053 B(  1-C ,  3-N ) :   1.1005
B(  1-C ,  5-H ) :  -0.1590 B(  1-C ,  7-H ) :  -0.1337 B(  1-C ,  9-H ) :   0.1794
B(  1-C , 10-H ) :   0.1013 B(  2-N ,  3-N ) :   0.1795 B(  2-N ,  6-H ) :   1.0663
B(  2-N ,  7-H ) :   1.2000 B(  3-N ,  4-H ) :   1.0974 B(  3-N ,  5-H ) :   1.2802
B(  4-H ,  5-H ) :  -0.1780 B(  6-H ,  7-H ) :  -0.1323 B(  8-C , 11-H ) :   0.8167
B(  8-C , 12-H ) :   0.7798 B(  8-C , 13-H ) :   0.8258

Dispersion correction           -0.010135719
FINAL SINGLE POINT ENERGY      -228.590062652761

DIPOLE MOMENT
-------------
                                X             Y             Z
Electronic contribution:      1.07089      -1.07783      -3.92288
Nuclear contribution   :     -0.84604       1.34287       2.92710
                        -----------------------------------------
Total Dipole Moment    :      0.22485       0.26504      -0.99578
                        -----------------------------------------
Magnitude (a.u.)       :      1.05469
Magnitude (Debye)      :      2.68081

Rotational constants in cm-1:     0.265816     0.126189     0.097583
Rotational constants in MHz :  7968.948902  3783.040103  2925.457702

                             ****ORCA TERMINATED NORMALLY****
TOTAL RUN TIME: 0 days 0 hours 0 minutes 11 seconds 11 msec
