                         Program Version 5.0.0 -  RELEASE  -
|  1> !PBE D3BJ RIJCOSX def2-SVPD def2/J TightSCF
|  2> *xyz 0 1
|  3> C         -0.87096        0.24804       -2.66280
|  4> C         -0.47749        0.60819       -4.10105
|  5> H          0.20677        1.45830       -4.11875
|  6> H         -1.36844        0.92942       -4.64785
|  7> C          0.18467       -0.50664       -4.91676
|  8> F         -0.15869       -1.70109       -4.65798
|  9> O          1.05594       -0.17441       -5.74037
| 10> H         -1.54056       -0.58646       -2.67455
| 11> H         -1.35339        1.08600       -2.20455
| 12> H          0.00660       -0.00662       -2.10609
| 13> *
| 14>
| 15> %MaxCore 64000
| 16>
| 17> %pal nprocs 4
| 18> end
| 19>
| 20> %scf
| 21>   MaxIter 150
| 22> end
| 23>
| 24>
| 25>                          ****END OF INPUT****

CARTESIAN COORDINATES (ANGSTROEM)
---------------------------------
  C     -0.870960    0.248040   -2.662800
  C     -0.477490    0.608190   -4.101050
  H      0.206770    1.458300   -4.118750
  H     -1.368440    0.929420   -4.647850
  C      0.184670   -0.506640   -4.916760
  F     -0.158690   -1.701090   -4.657980
  O      1.055940   -0.174410   -5.740370
  H     -1.540560   -0.586460   -2.674550
  H     -1.353390    1.086000   -2.204550
  H      0.006600   -0.006620   -2.106090

 Total Charge           Charge          ....    0
 Multiplicity           Mult            ....    1
 Number of Electrons    NEL             ....   40
 Basis Dimension        Dim             ....  146

ORBITAL ENERGIES
----------------

  NO   OCC          E(Eh)            E(eV)
   0   2.0000     -24.341299      -662.3604
   1   2.0000     -18.774213      -510.8723
   2   2.0000     -10.066582      -273.9256
   3   2.0000      -9.929517      -270.1959
   4   2.0000      -9.905116      -269.5319
   5   2.0000      -1.195584       -32.5335
   6   2.0000      -0.945711       -25.7341
   7   2.0000      -0.725387       -19.7388
   8   2.0000      -0.615599       -16.7513
   9   2.0000      -0.578665       -15.7463
  10   2.0000      -0.489561       -13.3216
  11   2.0000      -0.480982       -13.0882
  12   2.0000      -0.439550       -11.9608
  13   2.0000      -0.418415       -11.3857
  14   2.0000      -0.385411       -10.4876
  15   2.0000      -0.359013        -9.7692
  16   2.0000      -0.344265        -9.3679
  17   2.0000      -0.335393        -9.1265
  18   2.0000      -0.313138        -8.5209
  19   2.0000      -0.247851        -6.7444
  20   0.0000      -0.069583        -1.8934
  21   0.0000      -0.008792        -0.2392
  22   0.0000       0.030860         0.8397
  23   0.0000       0.038418         1.0454
  24   0.0000       0.054205         1.4750

MULLIKEN ATOMIC CHARGES
-----------------------
   0 C :    0.679511
   1 C :   -0.434364
   2 H :   -0.016259
   3 H :    0.039979
   4 C :    0.690137
   5 F :   -0.362641
   6 O :   -0.436944
   7 H :   -0.038167
   8 H :   -0.073880
   9 H :   -0.047372
Sum of atomic charges:   -0.0000000

LOEWDIN ATOMIC CHARGES
----------------------
   0 C :    0.131208
   1 C :    0.005547
   2 H :    0.033813
   3 H :    0.040383
   4 C :   -0.035611
   5 F :   -0.022382
   6 O :   -0.112658
   7 H :   -0.015985
   8 H :   -0.014024
   9 H :   -0.010291

  Mayer bond orders larger than 0.100000
B(  0-C ,  1-C ) :   1.3485 B(  0-C ,  7-H ) :   0.8056 B(  0-C ,  8-H ) :   0.7923
B(  0-C ,  9-H ) :   0.8291 B(  1-C ,  2-H ) :   0.9507 B(  1-C ,  3-H ) :   0.8602
B(  1-C ,  4-C ) :   1.0678 B(  1-C ,  7-H ) :   0.1966 B(  1-C ,  8-H ) :   0.2225
B(  1-C ,  9-H ) :   0.1772 B(  2-H ,  4-C ) :   0.1386 B(  4-C ,  5-F ) :   0.7578
B(  4-C ,  6-O ) :   1.8053 B(  5-F ,  6-O ) :   0.1115

Dispersion correction           -0.006134695
FINAL SINGLE POINT ENERGY      -291.877494705067

DIPOLE MOMENT
-------------
                                X             Y             Z
Electronic contribution:      2.63021      -5.36652      -5.31919
Nuclear contribution   :     -3.42837       5.66737       6.17046
                        -----------------------------------------
Total Dipole Moment    :     -0.79815       0.30085       0.85126
                        -----------------------------------------
Magnitude (a.u.)       :      1.20508
Magnitude (Debye)      :      3.06306

Rotational constants in cm-1:     0.304660     0.130969     0.097716
Rotational constants in MHz :  9133.464515  3926.366384  2929.457090

                             ****ORCA TERMINATED NORMALLY****
TOTAL RUN TIME: 0 days 0 hours 0 minutes 8 seconds 361 msec
