                         Program Version 5.0.0 -  RELEASE  -
|  1> !PBE D3BJ RIJCOSX def2-SVPD def2/J TightSCF
|  2> *xyz 0 1
|  3> C          2.48645       -2.67712       -2.56345
|  4> C          3.03764       -2.36672       -3.92351
|  5> C          2.28036       -2.45441       -4.96769
|  6> N          4.32174       -2.01793       -4.01664
|  7> H          4.87994       -1.91167       -3.17382
|  8> H          4.71015       -1.67088       -4.88356
|  9> H          1.27042       -2.41265       -4.86614
| 10> H          2.58183       -2.05528       -5.84688
| 11> C          2.49799       -1.46946       -1.61030
| 12> H          1.47259       -3.05153       -2.69437
| 13> H          3.08320       -3.49064       -2.14147
| 14> H          1.91240       -0.67831       -2.02991
| 15> H          3.50450       -1.13364       -1.47227
| 16> H          2.08509       -1.75655       -0.66585
| 17> *
| 18>
| 19> %MaxCore 64000
| 20>
| 21> %pal nprocs 4
| 22> end
| 23>
| 24> %scf
| 25>   MaxIter 150
| 26> end
| 27>
| 28>
| 29>                          ****END OF INPUT****

CARTESIAN COORDINATES (ANGSTROEM)
---------------------------------
  C      2.486450   -2.677120   -2.563450
  C      3.037640   -2.366720   -3.923510
  C      2.280360   -2.454410   -4.967690
  N      4.321740   -2.017930   -4.016640
  H      4.879940   -1.911670   -3.173820
  H      4.710150   -1.670880   -4.883560
  H      1.270420   -2.412650   -4.866140
  H      2.581830   -2.055280   -5.846880
  C      2.497990   -1.469460   -1.610300
  H      1.472590   -3.051530   -2.694370
  H      3.083200   -3.490640   -2.141470
  H      1.912400   -0.678310   -2.029910
  H      3.504500   -1.133640   -1.472270
  H      2.085090   -1.756550   -0.665850

 Total Charge           Charge          ....    0
 Multiplicity           Mult            ....    1
 Number of Electrons    NEL             ....   40
 Basis Dimension        Dim             ....  172

ORBITAL ENERGIES
----------------

  NO   OCC          E(Eh)            E(eV)
   0   2.0000     -14.003286      -381.0488
   1   2.0000      -9.912558      -269.7344
   2   2.0000      -9.895590      -269.2727
   3   2.0000      -9.885745      -269.0048
   4   2.0000      -9.827448      -267.4184
   5   2.0000      -0.838816       -22.8253
   6   2.0000      -0.701878       -19.0991
   7   2.0000      -0.650118       -17.6906
   8   2.0000      -0.568729       -15.4759
   9   2.0000      -0.511491       -13.9184
  10   2.0000      -0.474313       -12.9067
  11   2.0000      -0.427055       -11.6208
  12   2.0000      -0.389862       -10.6087
  13   2.0000      -0.384783       -10.4705
  14   2.0000      -0.343654        -9.3513
  15   2.0000      -0.338494        -9.2109
  16   2.0000      -0.311996        -8.4899
  17   2.0000      -0.292603        -7.9621
  18   2.0000      -0.284227        -7.7342
  19   2.0000      -0.166832        -4.5397
  20   0.0000      -0.004777        -0.1300
  21   0.0000       0.010117         0.2753
  22   0.0000       0.034719         0.9447
  23   0.0000       0.039893         1.0855
  24   0.0000       0.050528         1.3749

MULLIKEN ATOMIC CHARGES
-----------------------
   0 C :   -0.224381
   1 C :   -0.138358
   2 C :    0.401703
   3 N :    0.244793
   4 H :   -0.163628
   5 H :   -0.212444
   6 H :   -0.012896
   7 H :   -0.437859
   8 C :    0.726736
   9 H :    0.096259
  10 H :   -0.055000
  11 H :   -0.072536
  12 H :   -0.085591
  13 H :   -0.066799
Sum of atomic charges:   -0.0000000

LOEWDIN ATOMIC CHARGES
----------------------
   0 C :   -0.031859
   1 C :   -0.271353
   2 C :    0.162739
   3 N :    0.190142
   4 H :   -0.006795
   5 H :    0.002405
   6 H :   -0.075714
   7 H :   -0.083567
   8 C :    0.133600
   9 H :    0.020693
  10 H :    0.024267
  11 H :   -0.012794
  12 H :   -0.032248
  13 H :   -0.019515

  Mayer bond orders larger than 0.100000
B(  0-C ,  1-C ) :   1.2660 B(  0-C ,  2-C ) :   0.1084 B(  0-C ,  8-C ) :   1.2680
B(  0-C ,  9-H ) :   0.8530 B(  0-C , 10-H ) :   0.8704 B(  0-C , 11-H ) :   0.1579
B(  0-C , 12-H ) :   0.2266 B(  0-C , 13-H ) :   0.2043 B(  1-C ,  2-C ) :   1.9025
B(  1-C ,  3-N ) :   1.2032 B(  1-C ,  6-H ) :   0.1149 B(  1-C ,  7-H ) :   0.2833
B(  1-C ,  9-H ) :   0.1379 B(  1-C , 10-H ) :   0.1736 B(  2-C ,  3-N ) :   0.2863
B(  2-C ,  6-H ) :   0.8447 B(  2-C ,  7-H ) :   0.6285 B(  3-N ,  4-H ) :   1.1515
B(  3-N ,  5-H ) :   1.2160 B(  4-H ,  5-H ) :  -0.1503 B(  6-H ,  7-H ) :   0.1740
B(  8-C ,  9-H ) :   0.1000 B(  8-C , 11-H ) :   0.8273 B(  8-C , 12-H ) :   0.7716
B(  8-C , 13-H ) :   0.8089

Dispersion correction           -0.010500897
FINAL SINGLE POINT ENERGY      -212.135167465899

DIPOLE MOMENT
-------------
                                X             Y             Z
Electronic contribution:      1.54818      -0.88509      -2.15274
Nuclear contribution   :     -0.99743       1.27863       2.57190
                        -----------------------------------------
Total Dipole Moment    :      0.55074       0.39354       0.41916
                        -----------------------------------------
Magnitude (a.u.)       :      0.79617
Magnitude (Debye)      :      2.02369

Rotational constants in cm-1:     0.274050     0.130114     0.100964
Rotational constants in MHz :  8215.815505  3900.722919  3026.834930

                             ****ORCA TERMINATED NORMALLY****
TOTAL RUN TIME: 0 days 0 hours 0 minutes 10 seconds 231 msec
