                         Program Version 5.0.0 -  RELEASE  -
|  1> !PBE D3BJ RIJCOSX def2-SVPD def2/J TightSCF
|  2> *xyz 0 1
|  3> C         -0.87096        0.24804       -2.66280
|  4> C         -0.47749        0.60819       -4.10105
|  5> H          0.20677        1.45830       -4.11875
|  6> H         -1.36844        0.92942       -4.64785
|  7> C          0.18467       -0.50664       -4.91676
|  8> O         -0.15869       -1.70109       -4.65798
|  9> F          1.05594       -0.17441       -5.74037
| 10> H         -1.54056       -0.58646       -2.67455
| 11> H         -1.35339        1.08600       -2.20455
| 12> H          0.00660       -0.00662       -2.10609
| 13> *
| 14>
| 15> %MaxCore 64000
| 16>
| 17> %pal nprocs 4
| 18> end
| 19>
| 20> %scf
| 21>   MaxIter 150
| 22> end
| 23>
| 24>
| 25>                          ****END OF INPUT****

CARTESIAN COORDINATES (ANGSTROEM)
---------------------------------
  C     -0.870960    0.248040   -2.662800
  C     -0.477490    0.608190   -4.101050
  H      0.206770    1.458300   -4.118750
  H     -1.368440    0.929420   -4.647850
  C      0.184670   -0.506640   -4.916760
  O     -0.158690   -1.701090   -4.657980
  F      1.055940   -0.174410   -5.740370
  H     -1.540560   -0.586460   -2.674550
  H     -1.353390    1.086000   -2.204550
  H      0.006600   -0.006620   -2.106090

 Total Charge           Charge          ....    0
 Multiplicity           Mult            ....    1
 Number of Electrons    NEL             ....   40
 Basis Dimension        Dim             ....  146

ORBITAL ENERGIES
----------------

  NO   OCC          E(Eh)            E(eV)
   0   2.0000     -24.350256      -662.6042
   1   2.0000     -18.771169      -510.7895
   2   2.0000     -10.068707      -273.9834
   3   2.0000      -9.930699      -270.2280
   4   2.0000      -9.899408      -269.3766
   5   2.0000      -1.213938       -33.0329
   6   2.0000      -0.931295       -25.3418
   7   2.0000      -0.721734       -19.6394
   8   2.0000      -0.625137       -17.0108
   9   2.0000      -0.577348       -15.7104
  10   2.0000      -0.497626       -13.5411
  11   2.0000      -0.480385       -13.0719
  12   2.0000      -0.450064       -12.2469
  13   2.0000      -0.418225       -11.3805
  14   2.0000      -0.383275       -10.4294
  15   2.0000      -0.353730        -9.6255
  16   2.0000      -0.332998        -9.0613
  17   2.0000      -0.330153        -8.9839
  18   2.0000      -0.309275        -8.4158
  19   2.0000      -0.244572        -6.6551
  20   0.0000      -0.071982        -1.9587
  21   0.0000      -0.005038        -0.1371
  22   0.0000       0.026649         0.7252
  23   0.0000       0.041616         1.1324
  24   0.0000       0.052858         1.4383

MULLIKEN ATOMIC CHARGES
-----------------------
   0 C :    0.671473
   1 C :   -0.442479
   2 H :   -0.005291
   3 H :    0.044137
   4 C :    0.682466
   5 O :   -0.488399
   6 F :   -0.311420
   7 H :   -0.029544
   8 H :   -0.073288
   9 H :   -0.047654
Sum of atomic charges:    0.0000000

LOEWDIN ATOMIC CHARGES
----------------------
   0 C :    0.140785
   1 C :   -0.003541
   2 H :    0.022567
   3 H :    0.040170
   4 C :   -0.035952
   5 O :   -0.122499
   6 F :   -0.008638
   7 H :   -0.011129
   8 H :   -0.013919
   9 H :   -0.007845

  Mayer bond orders larger than 0.100000
B(  0-C ,  1-C ) :   1.3802 B(  0-C ,  7-H ) :   0.8038 B(  0-C ,  8-H ) :   0.7881
B(  0-C ,  9-H ) :   0.8245 B(  1-C ,  2-H ) :   0.9209 B(  1-C ,  3-H ) :   0.8615
B(  1-C ,  4-C ) :   1.1062 B(  1-C ,  7-H ) :   0.2105 B(  1-C ,  8-H ) :   0.2179
B(  1-C ,  9-H ) :   0.1870 B(  2-H ,  4-C ) :   0.1231 B(  4-C ,  5-O ) :   1.7927
B(  4-C ,  6-F ) :   0.7922 B(  5-O ,  6-F ) :   0.1026

Dispersion correction           -0.006184933
FINAL SINGLE POINT ENERGY      -291.871235493978

DIPOLE MOMENT
-------------
                                X             Y             Z
Electronic contribution:      4.65029      -2.86543      -7.12855
Nuclear contribution   :     -4.75269       4.00281       7.35060
                        -----------------------------------------
Total Dipole Moment    :     -0.10240       1.13738       0.22205
                        -----------------------------------------
Magnitude (a.u.)       :      1.16337
Magnitude (Debye)      :      2.95705

Rotational constants in cm-1:     0.323805     0.124913     0.096140
Rotational constants in MHz :  9707.430323  3744.789513  2882.191141

                             ****ORCA TERMINATED NORMALLY****
TOTAL RUN TIME: 0 days 0 hours 0 minutes 8 seconds 210 msec
