                         Program Version 5.0.0 -  RELEASE  -
|  1> !PBE D3BJ RIJCOSX def2-SVPD def2/J TightSCF
|  2> *xyz 0 1
|  3> C          2.48645       -2.67712       -2.56345
|  4> C          3.03764       -2.36672       -3.92351
|  5> N          2.28036       -2.45441       -4.96769
|  6> C          4.32174       -2.01793       -4.01664
|  7> H          4.87994       -1.91167       -3.17382
|  8> H          4.71015       -1.67088       -4.88356
|  9> H          1.27042       -2.41265       -4.86614
| 10> H          2.58183       -2.05528       -5.84688
| 11> C          2.49799       -1.46946       -1.61030
| 12> H          1.47259       -3.05153       -2.69437
| 13> H          3.08320       -3.49064       -2.14147
| 14> H          1.91240       -0.67831       -2.02991
| 15> H          3.50450       -1.13364       -1.47227
| 16> H          2.08509       -1.75655       -0.66585
| 17> *
| 18>
| 19> %MaxCore 64000
| 20>
| 21> %pal nprocs 4
| 22> end
| 23>
| 24> %scf
| 25>   MaxIter 150
| 26> end
| 27>
| 28>
| 29>                          ****END OF INPUT****

CARTESIAN COORDINATES (ANGSTROEM)
---------------------------------
  C      2.486450   -2.677120   -2.563450
  C      3.037640   -2.366720   -3.923510
  N      2.280360   -2.454410   -4.967690
  C      4.321740   -2.017930   -4.016640
  H      4.879940   -1.911670   -3.173820
  H      4.710150   -1.670880   -4.883560
  H      1.270420   -2.412650   -4.866140
  H      2.581830   -2.055280   -5.846880
  C      2.497990   -1.469460   -1.610300
  H      1.472590   -3.051530   -2.694370
  H      3.083200   -3.490640   -2.141470
  H      1.912400   -0.678310   -2.029910
  H      3.504500   -1.133640   -1.472270
  H      2.085090   -1.756550   -0.665850

 Total Charge           Charge          ....    0
 Multiplicity           Mult            ....    1
 Number of Electrons    NEL             ....   40
 Basis Dimension        Dim             ....  172

ORBITAL ENERGIES
----------------

  NO   OCC          E(Eh)            E(eV)
   0   2.0000     -14.006732      -381.1426
   1   2.0000      -9.912718      -269.7388
   2   2.0000      -9.896452      -269.2962
   3   2.0000      -9.881797      -268.8974
   4   2.0000      -9.828383      -267.4439
   5   2.0000      -0.853489       -23.2246
   6   2.0000      -0.703136       -19.1333
   7   2.0000      -0.635439       -17.2912
   8   2.0000      -0.574054       -15.6208
   9   2.0000      -0.514675       -14.0050
  10   2.0000      -0.471056       -12.8181
  11   2.0000      -0.430842       -11.7238
  12   2.0000      -0.397654       -10.8207
  13   2.0000      -0.362241        -9.8571
  14   2.0000      -0.350371        -9.5341
  15   2.0000      -0.334101        -9.0913
  16   2.0000      -0.310327        -8.4444
  17   2.0000      -0.295398        -8.0382
  18   2.0000      -0.292871        -7.9694
  19   2.0000      -0.158550        -4.3144
  20   0.0000      -0.002476        -0.0674
  21   0.0000       0.005979         0.1627
  22   0.0000       0.033268         0.9053
  23   0.0000       0.038826         1.0565
  24   0.0000       0.052072         1.4169

MULLIKEN ATOMIC CHARGES
-----------------------
   0 C :   -0.056947
   1 C :   -0.070102
   2 N :    0.186789
   3 C :    0.438834
   4 H :   -0.164185
   5 H :   -0.494496
   6 H :   -0.101510
   7 H :   -0.139724
   8 C :    0.693462
   9 H :   -0.093923
  10 H :    0.020935
  11 H :   -0.110802
  12 H :   -0.101163
  13 H :   -0.007166
Sum of atomic charges:   -0.0000000

LOEWDIN ATOMIC CHARGES
----------------------
   0 C :   -0.032240
   1 C :   -0.273189
   2 N :    0.177723
   3 C :    0.180459
   4 H :   -0.083638
   5 H :   -0.090714
   6 H :    0.001392
   7 H :    0.008504
   8 C :    0.135746
   9 H :    0.008353
  10 H :    0.029454
  11 H :   -0.015927
  12 H :   -0.025393
  13 H :   -0.020528

  Mayer bond orders larger than 0.100000
B(  0-C ,  1-C ) :   1.1496 B(  0-C ,  2-N ) :   0.1244 B(  0-C ,  3-C ) :   0.1454
B(  0-C ,  8-C ) :   1.3203 B(  0-C ,  9-H ) :   0.7716 B(  0-C , 10-H ) :   0.8147
B(  0-C , 11-H ) :   0.1913 B(  0-C , 12-H ) :   0.1951 B(  0-C , 13-H ) :   0.1715
B(  1-C ,  2-N ) :   1.0799 B(  1-C ,  3-C ) :   1.6523 B(  1-C ,  4-H ) :   0.1085
B(  1-C ,  5-H ) :   0.1492 B(  1-C ,  9-H ) :   0.2155 B(  1-C , 10-H ) :   0.1312
B(  2-N ,  3-C ) :   0.2856 B(  2-N ,  6-H ) :   1.0184 B(  2-N ,  7-H ) :   1.1471
B(  3-C ,  4-H ) :   0.7792 B(  3-C ,  5-H ) :   0.8163 B(  6-H ,  7-H ) :  -0.1162
B(  8-C ,  9-H ) :   0.1086 B(  8-C , 11-H ) :   0.8252 B(  8-C , 12-H ) :   0.8303
B(  8-C , 13-H ) :   0.7909

Dispersion correction           -0.010523076
FINAL SINGLE POINT ENERGY      -212.136163341035

DIPOLE MOMENT
-------------
                                X             Y             Z
Electronic contribution:     -0.24126      -1.20780      -2.99976
Nuclear contribution   :     -0.52463       1.37972       2.79217
                        -----------------------------------------
Total Dipole Moment    :     -0.76590       0.17192      -0.20759
                        -----------------------------------------
Magnitude (a.u.)       :      0.81194
Magnitude (Debye)      :      2.06378

Rotational constants in cm-1:     0.281086     0.127387     0.100311
Rotational constants in MHz :  8426.743103  3818.969834  3007.238026

                             ****ORCA TERMINATED NORMALLY****
TOTAL RUN TIME: 0 days 0 hours 0 minutes 10 seconds 277 msec
