                         Program Version 5.0.0 -  RELEASE  -
|  1> !PBE D3BJ RIJCOSX def2-SVPD def2/J TightSCF xyzfile
|  2>
|  3> *xyzfile 0 1 D1.xyz
|  4>
|  5> %MaxCore 64000
|  6>
|  7> %pal nprocs 4
|  8> end
|  9>
| 10> %scf
| 11>   MaxIter 150
| 12> end
| 13>
| 14>
| 15>                          ****END OF INPUT****

CARTESIAN COORDINATES (ANGSTROEM)
---------------------------------
  C      2.486452   -2.677121   -2.563447
  C     -0.870963    0.248043   -2.662804
  C     -0.477492    0.608191   -4.101052
  H      0.206773    1.458299   -4.118748
  H     -1.368442    0.929419   -4.647855
  C      0.184673   -0.506640   -4.916760
  C      3.037640   -2.366715   -3.923509
  C      2.280360   -2.454408   -4.967692
  N      4.321736   -2.017932   -4.016641
  H      4.879940   -1.911668   -3.173823
  H      4.710148   -1.670882   -4.883561
  H      1.270423   -2.412650   -4.866143
  H      2.581829   -2.055282   -5.846878
  F     -0.158685   -1.701088   -4.657981
  O      1.055938   -0.174410   -5.740373
  C      2.497991   -1.469464   -1.610303
  C      1.582841   -0.321986   -2.042619
  H      2.193083   -1.833912   -0.625420
  H      3.523356   -1.103982   -1.490392
  C      0.100160   -0.673551   -1.915815
  H      1.822311   -0.040361   -3.072834
  H      1.813180    0.557019   -1.433266
  H     -0.063284   -1.679120   -2.301112
  H     -0.168820   -0.691680   -0.853831
  H     -1.001048    1.181040   -2.104071
  H     -1.844645   -0.246592   -2.663281
  H      1.472592   -3.051527   -2.694366
  H      3.083201   -3.490638   -2.141472

 Total Charge           Charge          ....    0
 Multiplicity           Mult            ....    1
 Number of Electrons    NEL             ....   94
 Basis Dimension        Dim             ....  374

ORBITAL ENERGIES
----------------

  NO   OCC          E(Eh)            E(eV)
   0   2.0000     -24.342619      -662.3963
   1   2.0000     -18.770717      -510.7772
   2   2.0000     -13.992591      -380.7578
   3   2.0000     -10.064545      -273.8702
   4   2.0000      -9.924259      -270.0528
   5   2.0000      -9.910285      -269.6726
   6   2.0000      -9.898985      -269.3651
   7   2.0000      -9.898918      -269.3633
   8   2.0000      -9.896322      -269.2926
   9   2.0000      -9.894951      -269.2553
  10   2.0000      -9.889683      -269.1120
  11   2.0000      -9.807366      -266.8720
  12   2.0000      -1.201744       -32.7011
  13   2.0000      -0.943859       -25.6837
  14   2.0000      -0.828019       -22.5315
  15   2.0000      -0.747422       -20.3384
  16   2.0000      -0.714693       -19.4478
  17   2.0000      -0.668737       -18.1973
  18   2.0000      -0.647347       -17.6152
  19   2.0000      -0.606848       -16.5132
  20   2.0000      -0.591146       -16.0859
  21   2.0000      -0.553034       -15.0488
  22   2.0000      -0.519885       -14.1468
  23   2.0000      -0.512595       -13.9484
  24   2.0000      -0.490335       -13.3427
  25   2.0000      -0.479671       -13.0525
  26   2.0000      -0.459153       -12.4942
  27   2.0000      -0.437770       -11.9123
  28   2.0000      -0.430233       -11.7072
  29   2.0000      -0.420994       -11.4558
  30   2.0000      -0.408939       -11.1278
  31   2.0000      -0.395264       -10.7557
  32   2.0000      -0.384379       -10.4595
  33   2.0000      -0.362949        -9.8763
  34   2.0000      -0.359817        -9.7911
  35   2.0000      -0.345200        -9.3934
  36   2.0000      -0.332908        -9.0589
  37   2.0000      -0.330733        -8.9997
  38   2.0000      -0.314187        -8.5495
  39   2.0000      -0.309794        -8.4299
  40   2.0000      -0.300587        -8.1794
  41   2.0000      -0.293110        -7.9759
  42   2.0000      -0.279604        -7.6084
  43   2.0000      -0.273668        -7.4469
  44   2.0000      -0.269975        -7.3464
  45   2.0000      -0.242217        -6.5911
  46   2.0000      -0.153104        -4.1662
  47   0.0000      -0.068898        -1.8748
  48   0.0000      -0.007234        -0.1969
  49   0.0000       0.002464         0.0670
  50   0.0000       0.013432         0.3655
  51   0.0000       0.020430         0.5559

MULLIKEN ATOMIC CHARGES
-----------------------
   0 C :    0.231708
   1 C :    0.536750
   2 C :    0.220596
   3 H :    0.212843
   4 H :   -0.295347
   5 C :    0.404428
   6 C :   -0.192462
   7 C :    1.060749
   8 N :    0.215859
   9 H :   -0.115901
  10 H :   -0.207530
  11 H :   -0.389394
  12 H :   -0.390995
  13 F :   -0.566653
  14 O :   -0.460141
  15 C :    0.326615
  16 C :    0.168260
  17 H :   -0.099222
  18 H :   -0.074294
  19 C :   -0.012437
  20 H :   -0.078679
  21 H :   -0.186869
  22 H :    0.004644
  23 H :   -0.185772
  24 H :   -0.122817
  25 H :    0.036475
  26 H :    0.150697
  27 H :   -0.191113
Sum of atomic charges:   -0.0000000

LOEWDIN ATOMIC CHARGES
----------------------
   0 C :    0.020423
   1 C :   -0.020628
   2 C :    0.055357
   3 H :    0.037016
   4 H :    0.038928
   5 C :   -0.025138
   6 C :   -0.248315
   7 C :    0.177566
   8 N :    0.193032
   9 H :   -0.011113
  10 H :    0.002693
  11 H :   -0.136944
  12 H :   -0.070440
  13 F :   -0.033665
  14 O :   -0.095220
  15 C :   -0.021980
  16 C :   -0.014489
  17 H :    0.021766
  18 H :    0.011258
  19 C :   -0.028900
  20 H :    0.010917
  21 H :    0.027116
  22 H :   -0.004203
  23 H :    0.028996
  24 H :    0.025256
  25 H :    0.023682
  26 H :    0.011497
  27 H :    0.025532

  Mayer bond orders larger than 0.100000
B(  0-C ,  6-C ) :   1.1911 B(  0-C ,  7-C ) :   0.1599 B(  0-C ,  8-N ) :   0.1485
B(  0-C , 15-C ) :   1.1324 B(  0-C , 16-C ) :   0.1156 B(  0-C , 17-H ) :   0.2039
B(  0-C , 18-H ) :   0.2374 B(  0-C , 26-H ) :   0.7166 B(  0-C , 27-H ) :   0.8228
B(  1-C ,  2-C ) :   1.1813 B(  1-C ,  4-H ) :   0.1301 B(  1-C , 19-C ) :   1.3229
B(  1-C , 23-H ) :   0.1088 B(  1-C , 24-H ) :   0.7419 B(  1-C , 25-H ) :   0.6418
B(  2-C ,  3-H ) :   0.7556 B(  2-C ,  4-H ) :   0.7189 B(  2-C ,  5-C ) :   1.2138
B(  2-C , 14-O ) :   0.1077 B(  2-C , 19-C ) :   0.1338 B(  2-C , 24-H ) :   0.1377
B(  3-H ,  5-C ) :   0.2120 B(  4-H ,  5-C ) :   0.2990 B(  5-C , 13-F ) :   0.6431
B(  5-C , 14-O ) :   1.7657 B(  6-C ,  7-C ) :   1.8970 B(  6-C ,  8-N ) :   1.0963
B(  6-C , 11-H ) :   0.2003 B(  6-C , 12-H ) :   0.5121 B(  6-C , 15-C ) :   0.1799
B(  6-C , 26-H ) :   0.1531 B(  6-C , 27-H ) :   0.2331 B(  7-C ,  8-N ) :   0.4646
B(  7-C , 11-H ) :   0.3780 B(  7-C , 26-H ) :  -0.1483 B(  8-N ,  9-H ) :   1.1544
B(  8-N , 10-H ) :   1.2005 B(  9-H , 10-H ) :  -0.1668 B( 11-H , 12-H ) :   0.2842
B( 11-H , 13-F ) :   0.2491 B( 13-F , 14-O ) :   0.1278 B( 15-C , 16-C ) :   1.2224
B( 15-C , 17-H ) :   0.8279 B( 15-C , 18-H ) :   0.6536 B( 15-C , 20-H ) :   0.1821
B( 15-C , 21-H ) :   0.1103 B( 15-C , 26-H ) :   0.1682 B( 16-C , 18-H ) :   0.2304
B( 16-C , 19-C ) :   1.2081 B( 16-C , 20-H ) :   0.8332 B( 16-C , 21-H ) :   0.8169
B( 16-C , 22-H ) :   0.1178 B( 16-C , 23-H ) :   0.2324 B( 16-C , 26-H ) :  -0.1087
B( 19-C , 20-H ) :   0.1410 B( 19-C , 21-H ) :   0.1194 B( 19-C , 22-H ) :   0.8290
B( 19-C , 23-H ) :   0.7893 B( 19-C , 24-H ) :   0.2089 B( 19-C , 25-H ) :   0.2247
B( 22-H , 26-H ) :   0.1401 B( 24-H , 25-H ) :  -0.1103

Dispersion correction           -0.031263283
FINAL SINGLE POINT ENERGY      -581.272293047182

DIPOLE MOMENT
-------------
                                X             Y             Z
Electronic contribution:     -3.64737      -1.65228     -10.27783
Nuclear contribution   :      3.32973       2.37270      11.37738
                        -----------------------------------------
Total Dipole Moment    :     -0.31764       0.72042       1.09955
                        -----------------------------------------
Magnitude (a.u.)       :      1.35237
Magnitude (Debye)      :      3.43746

Rotational constants in cm-1:     0.040902     0.025807     0.019036
Rotational constants in MHz :  1226.202138   773.670450   570.681201

                             ****ORCA TERMINATED NORMALLY****
TOTAL RUN TIME: 0 days 0 hours 0 minutes 33 seconds 379 msec
