                         Program Version 5.0.0 -  RELEASE  -
|  1> !CAM-B3LYP RIJCOSX def2-SVPD def2/J TightSCF
|  2> *xyz -1 1
|  3> C         -0.05517        1.61942       -3.78858
|  4> C          1.22302        2.46987       -3.75691
|  5> H          1.11470        3.25807       -4.53300
|  6> H          1.23773        3.01124       -2.79216
|  7> O          2.35381        1.71203       -3.93448
|  8> H         -0.10198        1.08015       -4.71156
|  9> H         -0.91014        2.25726       -3.70441
| 10> H         -0.04403        0.92826       -2.97183
| 11> *
| 12>
| 13> %MaxCore 64000
| 14>
| 15> %pal nprocs 4
| 16> end
| 17>
| 18> %scf
| 19>   MaxIter 150
| 20> end
| 21>
| 22>
| 23>                          ****END OF INPUT****

CARTESIAN COORDINATES (ANGSTROEM)
---------------------------------
  C     -0.055170    1.619420   -3.788580
  C      1.223020    2.469870   -3.756910
  H      1.114700    3.258070   -4.533000
  H      1.237730    3.011240   -2.792160
  O      2.353810    1.712030   -3.934480
  H     -0.101980    1.080150   -4.711560
  H     -0.910140    2.257260   -3.704410
  H     -0.044030    0.928260   -2.971830

 Total Charge           Charge          ....   -1
 Multiplicity           Mult            ....    1
 Number of Electrons    NEL             ....   26
 Basis Dimension        Dim             ....  103

ORBITAL ENERGIES
----------------

  NO   OCC          E(Eh)            E(eV)
   0   2.0000     -18.878110      -513.6995
   1   2.0000     -10.072936      -274.0985
   2   2.0000     -10.050432      -273.4861
   3   2.0000      -0.748398       -20.3649
   4   2.0000      -0.599860       -16.3230
   5   2.0000      -0.443378       -12.0649
   6   2.0000      -0.322072        -8.7640
   7   2.0000      -0.296822        -8.0769
   8   2.0000      -0.241702        -6.5771
   9   2.0000      -0.223876        -6.0920
  10   2.0000      -0.176023        -4.7898
  11   2.0000      -0.031433        -0.8553
  12   2.0000      -0.029906        -0.8138
  13   0.0000       0.207530         5.6472
  14   0.0000       0.238758         6.4969
  15   0.0000       0.275345         7.4925
  16   0.0000       0.288271         7.8443
  17   0.0000       0.305528         8.3138

MULLIKEN ATOMIC CHARGES
-----------------------
   0 C :    0.498610
   1 C :    0.257098
   2 H :   -0.209391
   3 H :   -0.225310
   4 O :   -0.891418
   5 H :   -0.153285
   6 H :   -0.125367
   7 H :   -0.150936
Sum of atomic charges:   -1.0000000

LOEWDIN ATOMIC CHARGES
----------------------
   0 C :    0.062830
   1 C :   -0.260355
   2 H :   -0.031713
   3 H :   -0.033341
   4 O :   -0.592265
   5 H :   -0.041944
   6 H :   -0.060256
   7 H :   -0.042954

  Mayer bond orders larger than 0.100000
B(  0-C ,  1-C ) :   1.1617 B(  0-C ,  2-H ) :   0.1296 B(  0-C ,  3-H ) :   0.1277
B(  0-C ,  4-O ) :   0.1307 B(  0-C ,  5-H ) :   0.8707 B(  0-C ,  6-H ) :   0.8685
B(  0-C ,  7-H ) :   0.8704 B(  1-C ,  2-H ) :   0.9522 B(  1-C ,  3-H ) :   0.9580
B(  1-C ,  4-O ) :   1.1723 B(  1-C ,  5-H ) :   0.1955 B(  1-C ,  6-H ) :   0.1398
B(  1-C ,  7-H ) :   0.1874

FINAL SINGLE POINT ENERGY      -154.246315804914

DIPOLE MOMENT
-------------
                                X             Y             Z
Electronic contribution:      2.65439      -0.47951      -0.23767
Nuclear contribution   :     -4.28298       0.81046       0.39340
                        -----------------------------------------
Total Dipole Moment    :     -1.62859       0.33095       0.15574
                        -----------------------------------------
Magnitude (a.u.)       :      1.66916
Magnitude (Debye)      :      4.24266

Rotational constants in cm-1:     1.266793     0.328147     0.288309
Rotational constants in MHz : 37977.512300  9837.594308  8643.275638

                             ****ORCA TERMINATED NORMALLY****
TOTAL RUN TIME: 0 days 0 hours 0 minutes 13 seconds 484 msec
