                         Program Version 5.0.0 -  RELEASE  -
|  1> !CAM-B3LYP RIJCOSX def2-SVPD def2/J TightSCF
|  2> *xyz 1 1
|  3> C          1.63556       -1.67040       -5.29211
|  4> C          0.33848       -1.50091       -4.50540
|  5> N          2.48451       -0.50741       -5.14039
|  6> H          1.39834       -1.82924       -6.35259
|  7> H          2.15586       -2.56540       -4.93209
|  8> C          3.45115       -0.14953       -5.95259
|  9> N          3.92267        1.08956       -5.85071
| 10> N          3.96616       -1.00618       -6.86788
| 11> H          3.52139       -1.90647       -6.99527
| 12> H          4.44482       -0.62347       -7.67035
| 13> H          2.25200        0.24080       -4.49879
| 14> H          3.46428        1.64078       -5.13639
| 15> H          4.83447        1.31375       -6.22465
| 16> H         -0.17658       -0.62881       -4.85045
| 17> H          0.56384       -1.39374       -3.46490
| 18> H         -0.28102       -2.36136       -4.64938
| 19> *
| 20>
| 21> %MaxCore 64000
| 22>
| 23> %pal nprocs 4
| 24> end
| 25>
| 26> %scf
| 27>   MaxIter 150
| 28> end
| 29>
| 30>
| 31>                          ****END OF INPUT****

CARTESIAN COORDINATES (ANGSTROEM)
---------------------------------
  C      1.635560   -1.670400   -5.292110
  C      0.338480   -1.500910   -4.505400
  N      2.484510   -0.507410   -5.140390
  H      1.398340   -1.829240   -6.352590
  H      2.155860   -2.565400   -4.932090
  C      3.451150   -0.149530   -5.952590
  N      3.922670    1.089560   -5.850710
  N      3.966160   -1.006180   -6.867880
  H      3.521390   -1.906470   -6.995270
  H      4.444820   -0.623470   -7.670350
  H      2.252000    0.240800   -4.498790
  H      3.464280    1.640780   -5.136390
  H      4.834470    1.313750   -6.224650
  H     -0.176580   -0.628810   -4.850450
  H      0.563840   -1.393740   -3.464900
  H     -0.281020   -2.361360   -4.649380

 Total Charge           Charge          ....    1
 Multiplicity           Mult            ....    1
 Number of Electrons    NEL             ....   48
 Basis Dimension        Dim             ....  200

ORBITAL ENERGIES
----------------

  NO   OCC          E(Eh)            E(eV)
   0   2.0000     -14.633638      -398.2015
   1   2.0000     -14.630171      -398.1072
   2   2.0000     -14.628405      -398.0592
   3   2.0000     -10.598103      -288.3891
   4   2.0000     -10.469292      -284.8839
   5   2.0000     -10.398868      -282.9676
   6   2.0000      -1.298307       -35.3287
   7   2.0000      -1.182750       -32.1843
   8   2.0000      -1.168587       -31.7989
   9   2.0000      -1.013532       -27.5796
  10   2.0000      -0.905558       -24.6415
  11   2.0000      -0.889667       -24.2091
  12   2.0000      -0.852110       -23.1871
  13   2.0000      -0.819324       -22.2950
  14   2.0000      -0.762591       -20.7512
  15   2.0000      -0.756665       -20.5899
  16   2.0000      -0.736718       -20.0471
  17   2.0000      -0.713572       -19.4173
  18   2.0000      -0.675054       -18.3691
  19   2.0000      -0.615828       -16.7575
  20   2.0000      -0.598712       -16.2918
  21   2.0000      -0.588841       -16.0232
  22   2.0000      -0.545773       -14.8512
  23   2.0000      -0.519009       -14.1230
  24   0.0000      -0.126601        -3.4450
  25   0.0000      -0.120786        -3.2868
  26   0.0000      -0.090983        -2.4758
  27   0.0000      -0.075437        -2.0527
  28   0.0000      -0.056435        -1.5357

MULLIKEN ATOMIC CHARGES
-----------------------
   0 C :    0.150898
   1 C :    1.010499
   2 N :   -0.366579
   3 H :   -0.126184
   4 H :   -0.139762
   5 C :    1.057464
   6 N :    0.131554
   7 N :    0.046692
   8 H :   -0.046517
   9 H :   -0.103688
  10 H :   -0.134390
  11 H :   -0.002481
  12 H :   -0.129999
  13 H :   -0.103594
  14 H :   -0.094985
  15 H :   -0.148928
Sum of atomic charges:    1.0000000

LOEWDIN ATOMIC CHARGES
----------------------
   0 C :    0.020618
   1 C :    0.160713
   2 N :    0.042356
   3 H :    0.038073
   4 H :    0.043040
   5 C :   -0.038391
   6 N :    0.267058
   7 N :    0.284896
   8 H :    0.014752
   9 H :    0.035365
  10 H :    0.054246
  11 H :    0.032708
  12 H :    0.044163
  13 H :   -0.003078
  14 H :   -0.001876
  15 H :    0.005358

  Mayer bond orders larger than 0.100000
B(  0-C ,  1-C ) :   1.2885 B(  0-C ,  2-N ) :   0.9851 B(  0-C ,  3-H ) :   0.8325
B(  0-C ,  4-H ) :   0.8690 B(  0-C , 10-H ) :  -0.1170 B(  0-C , 13-H ) :   0.2378
B(  0-C , 14-H ) :   0.2671 B(  0-C , 15-H ) :   0.3174 B(  1-C , 13-H ) :   0.7375
B(  1-C , 14-H ) :   0.6795 B(  1-C , 15-H ) :   0.6881 B(  2-N ,  3-H ) :   0.1755
B(  2-N ,  4-H ) :   0.1636 B(  2-N ,  5-C ) :   1.1232 B(  2-N ,  6-N ) :   0.2594
B(  2-N ,  7-N ) :   0.1939 B(  2-N , 10-H ) :   1.1773 B(  5-C ,  6-N ) :   1.0089
B(  5-C ,  7-N ) :   0.9799 B(  5-C ,  8-H ) :  -0.1169 B(  5-C ,  9-H ) :  -0.1253
B(  5-C , 10-H ) :  -0.2310 B(  5-C , 12-H ) :  -0.1146 B(  6-N ,  7-N ) :   0.1425
B(  6-N , 11-H ) :   1.0705 B(  6-N , 12-H ) :   1.2196 B(  7-N ,  8-H ) :   1.0571
B(  7-N ,  9-H ) :   1.2201 B(  8-H ,  9-H ) :  -0.1566 B( 11-H , 12-H ) :  -0.1457

FINAL SINGLE POINT ENERGY      -284.063598252533

DIPOLE MOMENT
-------------
                                X             Y             Z
Electronic contribution:      4.71073       2.48076      -1.70784
Nuclear contribution   :     -3.96322      -1.85512       1.24891
                        -----------------------------------------
Total Dipole Moment    :      0.74751       0.62565      -0.45894
                        -----------------------------------------
Magnitude (a.u.)       :      1.07742
Magnitude (Debye)      :      2.73857

Rotational constants in cm-1:     0.261404     0.067000     0.054949
Rotational constants in MHz :  7836.702504  2008.609425  1647.329138

                             ****ORCA TERMINATED NORMALLY****
TOTAL RUN TIME: 0 days 0 hours 0 minutes 41 seconds 986 msec
