                         Program Version 5.0.0 -  RELEASE  -
|  1> !CAM-B3LYP RIJCOSX def2-SVPD def2/J TightSCF
|  2> *xyz 0 1
|  3> C         -0.05517        1.61942       -3.78858
|  4> C          1.22302        2.46987       -3.75691
|  5> H          1.11470        3.25807       -4.53300
|  6> H          1.23773        3.01124       -2.79216
|  7> F          2.35381        1.71203       -3.93448
|  8> H         -0.10198        1.08015       -4.71156
|  9> H         -0.91014        2.25726       -3.70441
| 10> H         -0.04403        0.92826       -2.97183
| 11> *
| 12>
| 13> %MaxCore 64000
| 14>
| 15> %pal nprocs 4
| 16> end
| 17>
| 18> %scf
| 19>   MaxIter 150
| 20> end
| 21>
| 22>
| 23>                          ****END OF INPUT****

CARTESIAN COORDINATES (ANGSTROEM)
---------------------------------
  C     -0.055170    1.619420   -3.788580
  C      1.223020    2.469870   -3.756910
  H      1.114700    3.258070   -4.533000
  H      1.237730    3.011240   -2.792160
  F      2.353810    1.712030   -3.934480
  H     -0.101980    1.080150   -4.711560
  H     -0.910140    2.257260   -3.704410
  H     -0.044030    0.928260   -2.971830

 Total Charge           Charge          ....    0
 Multiplicity           Mult            ....    1
 Number of Electrons    NEL             ....   26
 Basis Dimension        Dim             ....  103

ORBITAL ENERGIES
----------------

  NO   OCC          E(Eh)            E(eV)
   0   2.0000     -24.762169      -673.8129
   1   2.0000     -10.341719      -281.4125
   2   2.0000     -10.256821      -279.1023
   3   2.0000      -1.265295       -34.4304
   4   2.0000      -0.842800       -22.9337
   5   2.0000      -0.706310       -19.2197
   6   2.0000      -0.583974       -15.8907
   7   2.0000      -0.573065       -15.5939
   8   2.0000      -0.533714       -14.5231
   9   2.0000      -0.477354       -12.9895
  10   2.0000      -0.470799       -12.8111
  11   2.0000      -0.407760       -11.0957
  12   2.0000      -0.401730       -10.9316
  13   0.0000       0.051576         1.4035
  14   0.0000       0.082388         2.2419
  15   0.0000       0.109638         2.9834
  16   0.0000       0.114186         3.1072
  17   0.0000       0.142352         3.8736

MULLIKEN ATOMIC CHARGES
-----------------------
   0 C :    0.534510
   1 C :    0.528336
   2 H :   -0.120786
   3 H :   -0.137475
   4 F :   -0.438501
   5 H :   -0.131191
   6 H :   -0.107550
   7 H :   -0.127342
Sum of atomic charges:    0.0000000

LOEWDIN ATOMIC CHARGES
----------------------
   0 C :    0.136428
   1 C :    0.062068
   2 H :    0.032513
   3 H :    0.030042
   4 F :   -0.218746
   5 H :   -0.013937
   6 H :   -0.013555
   7 H :   -0.014813

  Mayer bond orders larger than 0.100000
B(  0-C ,  1-C ) :   1.3143 B(  0-C ,  5-H ) :   0.8572 B(  0-C ,  6-H ) :   0.8303
B(  0-C ,  7-H ) :   0.8594 B(  1-C ,  2-H ) :   0.9197 B(  1-C ,  3-H ) :   0.9233
B(  1-C ,  4-F ) :   0.7674 B(  1-C ,  5-H ) :   0.1559 B(  1-C ,  6-H ) :   0.1305
B(  1-C ,  7-H ) :   0.1495

FINAL SINGLE POINT ENERGY      -178.862712813050

DIPOLE MOMENT
-------------
                                X             Y             Z
Electronic contribution:      4.98829      -0.71542      -0.42713
Nuclear contribution   :     -5.66833       1.07099       0.52006
                        -----------------------------------------
Total Dipole Moment    :     -0.68004       0.35557       0.09293
                        -----------------------------------------
Magnitude (a.u.)       :      0.77299
Magnitude (Debye)      :      1.96480

Rotational constants in cm-1:     1.245689     0.305293     0.269541
Rotational constants in MHz : 37344.801915  9152.442838  8080.640229

                             ****ORCA TERMINATED NORMALLY****
TOTAL RUN TIME: 0 days 0 hours 0 minutes 14 seconds 942 msec
