                         Program Version 5.0.0 -  RELEASE  -
|  1> !CAM-B3LYP RIJCOSX def2-SVPD def2/J TightSCF
|  2> *xyz 0 1
|  3> C          1.63556       -1.67040       -5.29211
|  4> C          0.33848       -1.50091       -4.50540
|  5> C          2.48451       -0.50741       -5.14039
|  6> H          1.39834       -1.82924       -6.35259
|  7> H          2.15586       -2.56540       -4.93209
|  8> C          3.45115       -0.14953       -5.95259
|  9> N          3.92267        1.08956       -5.85071
| 10> N          3.96616       -1.00618       -6.86788
| 11> H          3.52139       -1.90647       -6.99527
| 12> H          4.44482       -0.62347       -7.67035
| 13> H          2.25200        0.24080       -4.49879
| 14> H          3.46428        1.64078       -5.13639
| 15> H          4.83447        1.31375       -6.22465
| 16> H         -0.17658       -0.62881       -4.85045
| 17> H          0.56384       -1.39374       -3.46490
| 18> H         -0.28102       -2.36136       -4.64938
| 19> *
| 20>
| 21> %MaxCore 64000
| 22>
| 23> %pal nprocs 4
| 24> end
| 25>
| 26> %scf
| 27>   MaxIter 150
| 28> end
| 29>
| 30>
| 31>                          ****END OF INPUT****

CARTESIAN COORDINATES (ANGSTROEM)
---------------------------------
  C      1.635560   -1.670400   -5.292110
  C      0.338480   -1.500910   -4.505400
  C      2.484510   -0.507410   -5.140390
  H      1.398340   -1.829240   -6.352590
  H      2.155860   -2.565400   -4.932090
  C      3.451150   -0.149530   -5.952590
  N      3.922670    1.089560   -5.850710
  N      3.966160   -1.006180   -6.867880
  H      3.521390   -1.906470   -6.995270
  H      4.444820   -0.623470   -7.670350
  H      2.252000    0.240800   -4.498790
  H      3.464280    1.640780   -5.136390
  H      4.834470    1.313750   -6.224650
  H     -0.176580   -0.628810   -4.850450
  H      0.563840   -1.393740   -3.464900
  H     -0.281020   -2.361360   -4.649380

 Total Charge           Charge          ....    0
 Multiplicity           Mult            ....    1
 Number of Electrons    NEL             ....   48
 Basis Dimension        Dim             ....  200

ORBITAL ENERGIES
----------------

  NO   OCC          E(Eh)            E(eV)
   0   2.0000     -14.406488      -392.0205
   1   2.0000     -14.401202      -391.8766
   2   2.0000     -10.299830      -280.2726
   3   2.0000     -10.235991      -278.5355
   4   2.0000     -10.227683      -278.3094
   5   2.0000     -10.181107      -277.0420
   6   2.0000      -1.033908       -28.1341
   7   2.0000      -0.943500       -25.6739
   8   2.0000      -0.853679       -23.2298
   9   2.0000      -0.773098       -21.0371
  10   2.0000      -0.684376       -18.6228
  11   2.0000      -0.653624       -17.7860
  12   2.0000      -0.606401       -16.5010
  13   2.0000      -0.584185       -15.8965
  14   2.0000      -0.536649       -14.6030
  15   2.0000      -0.512647       -13.9498
  16   2.0000      -0.498957       -13.5773
  17   2.0000      -0.465759       -12.6740
  18   2.0000      -0.448079       -12.1929
  19   2.0000      -0.408434       -11.1140
  20   2.0000      -0.397580       -10.8187
  21   2.0000      -0.396345       -10.7851
  22   2.0000      -0.331091        -9.0094
  23   2.0000      -0.222001        -6.0409
  24   0.0000       0.049465         1.3460
  25   0.0000       0.071437         1.9439
  26   0.0000       0.076074         2.0701
  27   0.0000       0.100709         2.7404
  28   0.0000       0.107420         2.9231

MULLIKEN ATOMIC CHARGES
-----------------------
   0 C :   -0.081726
   1 C :    1.174120
   2 C :   -0.071019
   3 H :   -0.219681
   4 H :   -0.146589
   5 C :    0.401871
   6 N :    0.167954
   7 N :    0.041527
   8 H :   -0.049183
   9 H :   -0.199158
  10 H :   -0.439589
  11 H :    0.033673
  12 H :   -0.242325
  13 H :   -0.084803
  14 H :   -0.081186
  15 H :   -0.203887
Sum of atomic charges:   -0.0000000

LOEWDIN ATOMIC CHARGES
----------------------
   0 C :   -0.116277
   1 C :    0.111575
   2 C :   -0.039419
   3 H :    0.016519
   4 H :    0.018489
   5 C :   -0.229647
   6 N :    0.177702
   7 N :    0.206393
   8 H :   -0.016644
   9 H :   -0.013974
  10 H :   -0.051065
  11 H :    0.000245
  12 H :   -0.008355
  13 H :   -0.015656
  14 H :   -0.015601
  15 H :   -0.024285

  Mayer bond orders larger than 0.100000
B(  0-C ,  1-C ) :   1.1760 B(  0-C ,  2-C ) :   0.9797 B(  0-C ,  3-H ) :   0.8231
B(  0-C ,  4-H ) :   0.7110 B(  0-C , 10-H ) :   0.2280 B(  0-C , 13-H ) :   0.2536
B(  0-C , 14-H ) :   0.2677 B(  0-C , 15-H ) :   0.3648 B(  1-C ,  2-C ) :   0.1050
B(  1-C , 10-H ) :  -0.1221 B(  1-C , 13-H ) :   0.7164 B(  1-C , 14-H ) :   0.6764
B(  1-C , 15-H ) :   0.6083 B(  2-C ,  3-H ) :   0.1444 B(  2-C ,  4-H ) :   0.2761
B(  2-C ,  5-C ) :   1.6356 B(  2-C ,  6-N ) :   0.3216 B(  2-C ,  7-N ) :   0.2205
B(  2-C ,  8-H ) :  -0.1268 B(  2-C , 10-H ) :   0.8041 B(  2-C , 11-H ) :  -0.1002
B(  3-H , 10-H ) :   0.1325 B(  5-C ,  6-N ) :   1.0020 B(  5-C ,  7-N ) :   1.0105
B(  6-N ,  7-N ) :   0.1004 B(  6-N , 11-H ) :   1.0466 B(  6-N , 12-H ) :   1.2069
B(  7-N ,  8-H ) :   1.0577 B(  7-N ,  9-H ) :   1.2092 B(  8-H ,  9-H ) :  -0.1336
B( 11-H , 12-H ) :  -0.1445

FINAL SINGLE POINT ENERGY      -267.594042287347

DIPOLE MOMENT
-------------
                                X             Y             Z
Electronic contribution:      4.51112       2.15474      -1.89823
Nuclear contribution   :     -3.99655      -1.83277       1.34879
                        -----------------------------------------
Total Dipole Moment    :      0.51457       0.32197      -0.54945
                        -----------------------------------------
Magnitude (a.u.)       :      0.81874
Magnitude (Debye)      :      2.08108

Rotational constants in cm-1:     0.262971     0.067064     0.055026
Rotational constants in MHz :  7883.664566  2010.513309  1649.636654

                             ****ORCA TERMINATED NORMALLY****
TOTAL RUN TIME: 0 days 0 hours 0 minutes 42 seconds 433 msec
