                         Program Version 5.0.0 -  RELEASE  -
|  1> !CAM-B3LYP RIJCOSX def2-SVPD def2/J TightSCF
|  2> *xyz 0 1
|  3> C          1.63556       -1.67040       -5.29211
|  4> C          0.33848       -1.50091       -4.50540
|  5> N          2.48451       -0.50741       -5.14039
|  6> H          1.39834       -1.82924       -6.35259
|  7> H          2.15586       -2.56540       -4.93209
|  8> C          3.45115       -0.14953       -5.95259
|  9> C          3.92267        1.08956       -5.85071
| 10> N          3.96616       -1.00618       -6.86788
| 11> H          3.52139       -1.90647       -6.99527
| 12> H          4.44482       -0.62347       -7.67035
| 13> H          2.25200        0.24080       -4.49879
| 14> H          3.46428        1.64078       -5.13639
| 15> H          4.83447        1.31375       -6.22465
| 16> H         -0.17658       -0.62881       -4.85045
| 17> H          0.56384       -1.39374       -3.46490
| 18> H         -0.28102       -2.36136       -4.64938
| 19> *
| 20>
| 21> %MaxCore 64000
| 22>
| 23> %pal nprocs 4
| 24> end
| 25>
| 26> %scf
| 27>   MaxIter 150
| 28> end
| 29>
| 30>
| 31>                          ****END OF INPUT****

CARTESIAN COORDINATES (ANGSTROEM)
---------------------------------
  C      1.635560   -1.670400   -5.292110
  C      0.338480   -1.500910   -4.505400
  N      2.484510   -0.507410   -5.140390
  H      1.398340   -1.829240   -6.352590
  H      2.155860   -2.565400   -4.932090
  C      3.451150   -0.149530   -5.952590
  C      3.922670    1.089560   -5.850710
  N      3.966160   -1.006180   -6.867880
  H      3.521390   -1.906470   -6.995270
  H      4.444820   -0.623470   -7.670350
  H      2.252000    0.240800   -4.498790
  H      3.464280    1.640780   -5.136390
  H      4.834470    1.313750   -6.224650
  H     -0.176580   -0.628810   -4.850450
  H      0.563840   -1.393740   -3.464900
  H     -0.281020   -2.361360   -4.649380

 Total Charge           Charge          ....    0
 Multiplicity           Mult            ....    1
 Number of Electrons    NEL             ....   48
 Basis Dimension        Dim             ....  200

ORBITAL ENERGIES
----------------

  NO   OCC          E(Eh)            E(eV)
   0   2.0000     -14.404804      -391.9747
   1   2.0000     -14.404671      -391.9710
   2   2.0000     -10.304490      -280.3994
   3   2.0000     -10.301752      -280.3249
   4   2.0000     -10.259822      -279.1840
   5   2.0000     -10.167687      -276.6768
   6   2.0000      -1.046794       -28.4847
   7   2.0000      -0.957413       -26.0525
   8   2.0000      -0.855592       -23.2818
   9   2.0000      -0.778166       -21.1750
  10   2.0000      -0.701934       -19.1006
  11   2.0000      -0.670297       -18.2397
  12   2.0000      -0.608146       -16.5485
  13   2.0000      -0.568283       -15.4638
  14   2.0000      -0.553766       -15.0687
  15   2.0000      -0.533412       -14.5149
  16   2.0000      -0.488684       -13.2978
  17   2.0000      -0.466640       -12.6979
  18   2.0000      -0.448924       -12.2158
  19   2.0000      -0.443841       -12.0775
  20   2.0000      -0.443293       -12.0626
  21   2.0000      -0.417262       -11.3543
  22   2.0000      -0.323973        -8.8158
  23   2.0000      -0.220164        -5.9910
  24   0.0000       0.044142         1.2012
  25   0.0000       0.063277         1.7218
  26   0.0000       0.073576         2.0021
  27   0.0000       0.101856         2.7716
  28   0.0000       0.110305         3.0016

MULLIKEN ATOMIC CHARGES
-----------------------
   0 C :    0.165174
   1 C :    1.026296
   2 N :   -0.272093
   3 H :   -0.179483
   4 H :   -0.210521
   5 C :    0.467178
   6 C :    0.606203
   7 N :    0.113207
   8 H :   -0.172746
   9 H :   -0.099109
  10 H :   -0.157298
  11 H :   -0.315347
  12 H :   -0.542319
  13 H :   -0.130171
  14 H :   -0.118486
  15 H :   -0.180484
Sum of atomic charges:    0.0000000

LOEWDIN ATOMIC CHARGES
----------------------
   0 C :   -0.009475
   1 C :    0.131176
   2 N :   -0.020003
   3 H :    0.020033
   4 H :    0.020208
   5 C :   -0.234489
   6 C :    0.138068
   7 N :    0.203310
   8 H :   -0.029168
   9 H :    0.002606
  10 H :    0.028765
  11 H :   -0.106763
  12 H :   -0.100758
  13 H :   -0.013164
  14 H :   -0.014538
  15 H :   -0.015806

  Mayer bond orders larger than 0.100000
B(  0-C ,  1-C ) :   1.2492 B(  0-C ,  2-N ) :   0.9641 B(  0-C ,  3-H ) :   0.8499
B(  0-C ,  4-H ) :   0.8734 B(  0-C , 10-H ) :  -0.1269 B(  0-C , 13-H ) :   0.2597
B(  0-C , 14-H ) :   0.2775 B(  0-C , 15-H ) :   0.3256 B(  1-C , 13-H ) :   0.7274
B(  1-C , 14-H ) :   0.6768 B(  1-C , 15-H ) :   0.6788 B(  2-N ,  3-H ) :   0.1662
B(  2-N ,  4-H ) :   0.1956 B(  2-N ,  5-C ) :   1.1659 B(  2-N ,  6-C ) :   0.2529
B(  2-N ,  7-N ) :   0.1106 B(  2-N , 10-H ) :   1.1336 B(  5-C ,  6-C ) :   1.6372
B(  5-C ,  7-N ) :   0.9453 B(  5-C ,  9-H ) :  -0.1074 B(  5-C , 10-H ) :  -0.1654
B(  5-C , 11-H ) :   0.2488 B(  5-C , 12-H ) :   0.2884 B(  6-C ,  7-N ) :   0.2322
B(  6-C , 11-H ) :   0.7703 B(  6-C , 12-H ) :   0.5798 B(  7-N ,  8-H ) :   1.0531
B(  7-N ,  9-H ) :   1.1831 B(  8-H ,  9-H ) :  -0.1473

FINAL SINGLE POINT ENERGY      -267.583124186313

DIPOLE MOMENT
-------------
                                X             Y             Z
Electronic contribution:      2.96071       0.56071      -1.29043
Nuclear contribution   :     -3.69145      -1.49398       1.19810
                        -----------------------------------------
Total Dipole Moment    :     -0.73074      -0.93327      -0.09233
                        -----------------------------------------
Magnitude (a.u.)       :      1.18890
Magnitude (Debye)      :      3.02196

Rotational constants in cm-1:     0.270790     0.068966     0.056679
Rotational constants in MHz :  8118.084803  2067.559423  1699.196934

                             ****ORCA TERMINATED NORMALLY****
TOTAL RUN TIME: 0 days 0 hours 0 minutes 42 seconds 316 msec
