                         Program Version 5.0.0 -  RELEASE  -
|  1> !CAM-B3LYP RIJCOSX def2-SVPD def2/J TightSCF
|  2> *xyz 0 1
|  3> C          1.63556       -1.67040       -5.29211
|  4> C          0.33848       -1.50091       -4.50540
|  5> N          2.48451       -0.50741       -5.14039
|  6> H          1.39834       -1.82924       -6.35259
|  7> H          2.15586       -2.56540       -4.93209
|  8> C          3.45115       -0.14953       -5.95259
|  9> N          3.92267        1.08956       -5.85071
| 10> C          3.96616       -1.00618       -6.86788
| 11> H          3.52139       -1.90647       -6.99527
| 12> H          4.44482       -0.62347       -7.67035
| 13> H          2.25200        0.24080       -4.49879
| 14> H          3.46428        1.64078       -5.13639
| 15> H          4.83447        1.31375       -6.22465
| 16> H         -0.17658       -0.62881       -4.85045
| 17> H          0.56384       -1.39374       -3.46490
| 18> H         -0.28102       -2.36136       -4.64938
| 19> *
| 20>
| 21> %MaxCore 64000
| 22>
| 23> %pal nprocs 4
| 24> end
| 25>
| 26> %scf
| 27>   MaxIter 150
| 28> end
| 29>
| 30>
| 31>                          ****END OF INPUT****

CARTESIAN COORDINATES (ANGSTROEM)
---------------------------------
  C      1.635560   -1.670400   -5.292110
  C      0.338480   -1.500910   -4.505400
  N      2.484510   -0.507410   -5.140390
  H      1.398340   -1.829240   -6.352590
  H      2.155860   -2.565400   -4.932090
  C      3.451150   -0.149530   -5.952590
  N      3.922670    1.089560   -5.850710
  C      3.966160   -1.006180   -6.867880
  H      3.521390   -1.906470   -6.995270
  H      4.444820   -0.623470   -7.670350
  H      2.252000    0.240800   -4.498790
  H      3.464280    1.640780   -5.136390
  H      4.834470    1.313750   -6.224650
  H     -0.176580   -0.628810   -4.850450
  H      0.563840   -1.393740   -3.464900
  H     -0.281020   -2.361360   -4.649380

 Total Charge           Charge          ....    0
 Multiplicity           Mult            ....    1
 Number of Electrons    NEL             ....   48
 Basis Dimension        Dim             ....  200

ORBITAL ENERGIES
----------------

  NO   OCC          E(Eh)            E(eV)
   0   2.0000     -14.411268      -392.1506
   1   2.0000     -14.407017      -392.0349
   2   2.0000     -10.306283      -280.4482
   3   2.0000     -10.294775      -280.1351
   4   2.0000     -10.255984      -279.0795
   5   2.0000     -10.169861      -276.7360
   6   2.0000      -1.055423       -28.7195
   7   2.0000      -0.962809       -26.1994
   8   2.0000      -0.841113       -22.8878
   9   2.0000      -0.779377       -21.2079
  10   2.0000      -0.719495       -19.5785
  11   2.0000      -0.641051       -17.4439
  12   2.0000      -0.609397       -16.5825
  13   2.0000      -0.596362       -16.2278
  14   2.0000      -0.548141       -14.9157
  15   2.0000      -0.537696       -14.6314
  16   2.0000      -0.472084       -12.8460
  17   2.0000      -0.464423       -12.6376
  18   2.0000      -0.462301       -12.5798
  19   2.0000      -0.439095       -11.9484
  20   2.0000      -0.429701       -11.6928
  21   2.0000      -0.417954       -11.3731
  22   2.0000      -0.317443        -8.6381
  23   2.0000      -0.224589        -6.1114
  24   0.0000       0.043853         1.1933
  25   0.0000       0.060258         1.6397
  26   0.0000       0.077081         2.0975
  27   0.0000       0.100635         2.7384
  28   0.0000       0.108647         2.9564

MULLIKEN ATOMIC CHARGES
-----------------------
   0 C :    0.178523
   1 C :    1.031703
   2 N :   -0.307855
   3 H :   -0.129295
   4 H :   -0.165564
   5 C :    0.338482
   6 N :    0.220560
   7 C :    0.578496
   8 H :   -0.211319
   9 H :   -0.527561
  10 H :   -0.271827
  11 H :   -0.155365
  12 H :   -0.142559
  13 H :   -0.129428
  14 H :   -0.125803
  15 H :   -0.181189
Sum of atomic charges:   -0.0000000

LOEWDIN ATOMIC CHARGES
----------------------
   0 C :    0.002644
   1 C :    0.128461
   2 N :   -0.020413
   3 H :    0.027338
   4 H :    0.028284
   5 C :   -0.244389
   6 N :    0.189139
   7 C :    0.159112
   8 H :   -0.125264
   9 H :   -0.109774
  10 H :    0.017319
  11 H :   -0.014545
  12 H :    0.011229
  13 H :   -0.016292
  14 H :   -0.017717
  15 H :   -0.015132

  Mayer bond orders larger than 0.100000
B(  0-C ,  1-C ) :   1.2432 B(  0-C ,  2-N ) :   1.0047 B(  0-C ,  3-H ) :   0.8353
B(  0-C ,  4-H ) :   0.8630 B(  0-C , 10-H ) :  -0.1193 B(  0-C , 13-H ) :   0.2421
B(  0-C , 14-H ) :   0.2810 B(  0-C , 15-H ) :   0.3196 B(  1-C , 13-H ) :   0.7368
B(  1-C , 14-H ) :   0.6641 B(  1-C , 15-H ) :   0.6770 B(  2-N ,  3-H ) :   0.1938
B(  2-N ,  4-H ) :   0.1643 B(  2-N ,  5-C ) :   1.1628 B(  2-N ,  6-N ) :   0.1773
B(  2-N ,  7-C ) :   0.3166 B(  2-N , 10-H ) :   1.1901 B(  5-C ,  6-N ) :   0.9763
B(  5-C ,  7-C ) :   1.7794 B(  5-C ,  8-H ) :   0.3086 B(  5-C ,  9-H ) :   0.2370
B(  5-C , 10-H ) :  -0.2256 B(  6-N ,  7-C ) :   0.2506 B(  6-N , 11-H ) :   1.0717
B(  6-N , 12-H ) :   1.2080 B(  7-C ,  8-H ) :   0.6334 B(  7-C ,  9-H ) :   0.6632
B(  8-H ,  9-H ) :   0.2131 B( 11-H , 12-H ) :  -0.1344

FINAL SINGLE POINT ENERGY      -267.583831091465

DIPOLE MOMENT
-------------
                                X             Y             Z
Electronic contribution:      3.03016       2.61286      -0.21453
Nuclear contribution   :     -3.68222      -1.93858       0.98231
                        -----------------------------------------
Total Dipole Moment    :     -0.65207       0.67428       0.76778
                        -----------------------------------------
Magnitude (a.u.)       :      1.21216
Magnitude (Debye)      :      3.08107

Rotational constants in cm-1:     0.275407     0.068040     0.056255
Rotational constants in MHz :  8256.498401  2039.796466  1686.484500

                             ****ORCA TERMINATED NORMALLY****
TOTAL RUN TIME: 0 days 0 hours 0 minutes 42 seconds 265 msec
