                         Program Version 5.0.0 -  RELEASE  -
|  1> !LC-PBE RIJCOSX def2-SVP def2/J TightSCF
|  2> *xyz -1 1
|  3> C         -0.91495        0.61511        2.50554
|  4> C         -0.05915        1.50352        3.41058
|  5> H          0.36536        2.34431        2.86116
|  6> H         -0.69226        1.92021        4.19898
|  7> C          1.08303        0.74964        4.08571
|  8> O          2.22817        1.26348        4.01983
|  9> O          0.81003       -0.34541        4.63627
| 10> H         -0.30401        0.20228        1.73015
| 11> H         -1.69811        1.19946        2.06954
| 12> H         -1.34124       -0.17772        3.08397
| 13> *
| 14>
| 15> %MaxCore 64000
| 16>
| 17> %pal nprocs 4
| 18> end
| 19>
| 20> %scf
| 21>   MaxIter 150
| 22> end
| 23>
| 24>
| 25>                          ****END OF INPUT****

CARTESIAN COORDINATES (ANGSTROEM)
---------------------------------
  C     -0.914950    0.615110    2.505540
  C     -0.059150    1.503520    3.410580
  H      0.365360    2.344310    2.861160
  H     -0.692260    1.920210    4.198980
  C      1.083030    0.749640    4.085710
  O      2.228170    1.263480    4.019830
  O      0.810030   -0.345410    4.636270
  H     -0.304010    0.202280    1.730150
  H     -1.698110    1.199460    2.069540
  H     -1.341240   -0.177720    3.083970

 Total Charge           Charge          ....   -1
 Multiplicity           Mult            ....    1
 Number of Electrons    NEL             ....   40
 Basis Dimension        Dim             ....   95

ORBITAL ENERGIES
----------------

  NO   OCC          E(Eh)            E(eV)
   0   2.0000     -18.685426      -508.4563
   1   2.0000     -18.683767      -508.4112
   2   2.0000      -9.984753      -271.6989
   3   2.0000      -9.955931      -270.9147
   4   2.0000      -9.937410      -270.4107
   5   2.0000      -0.946029       -25.7428
   6   2.0000      -0.841137       -22.8885
   7   2.0000      -0.765546       -20.8316
   8   2.0000      -0.621645       -16.9158
   9   2.0000      -0.452442       -12.3116
  10   2.0000      -0.428630       -11.6636
  11   2.0000      -0.381270       -10.3749
  12   2.0000      -0.354683        -9.6514
  13   2.0000      -0.336986        -9.1698
  14   2.0000      -0.325165        -8.8482
  15   2.0000      -0.290847        -7.9143
  16   2.0000      -0.277670        -7.5558
  17   2.0000      -0.143184        -3.8962
  18   2.0000      -0.141837        -3.8596
  19   2.0000      -0.129225        -3.5164
  20   0.0000       0.305843         8.3224
  21   0.0000       0.358204         9.7472
  22   0.0000       0.371331        10.1044
  23   0.0000       0.375042        10.2054
  24   0.0000       0.383108        10.4249

MULLIKEN ATOMIC CHARGES
-----------------------
   0 C :   -0.117632
   1 C :   -0.134666
   2 H :    0.007938
   3 H :    0.017859
   4 C :    0.009427
   5 O :   -0.428657
   6 O :   -0.433228
   7 H :    0.034173
   8 H :   -0.002014
   9 H :    0.046800
Sum of atomic charges:   -1.0000000

LOEWDIN ATOMIC CHARGES
----------------------
   0 C :   -0.097554
   1 C :   -0.120697
   2 H :    0.012472
   3 H :    0.020419
   4 C :   -0.061256
   5 O :   -0.402199
   6 O :   -0.405709
   7 H :    0.023186
   8 H :    0.005387
   9 H :    0.025950

  Mayer bond orders larger than 0.100000
B(  0-C ,  1-C ) :   1.0642 B(  0-C ,  7-H ) :   0.9799 B(  0-C ,  8-H ) :   0.9760
B(  0-C ,  9-H ) :   0.9667 B(  1-C ,  2-H ) :   0.9584 B(  1-C ,  3-H ) :   0.9541
B(  1-C ,  4-C ) :   0.9137 B(  4-C ,  5-O ) :   1.8985 B(  4-C ,  6-O ) :   1.8633
B(  5-O ,  6-O ) :   0.1060

FINAL SINGLE POINT ENERGY      -266.833650680953

DIPOLE MOMENT
-------------
                                X             Y             Z
Electronic contribution:      4.80170      -1.03481       3.40824
Nuclear contribution   :     -6.38408       1.63097      -4.40540
                        -----------------------------------------
Total Dipole Moment    :     -1.58237       0.59616      -0.99716
                        -----------------------------------------
Magnitude (a.u.)       :      1.96307
Magnitude (Debye)      :      4.98973

Rotational constants in cm-1:     0.319732     0.134414     0.104753
Rotational constants in MHz :  9585.336550  4029.633034  3140.404334

                             ****ORCA TERMINATED NORMALLY****
TOTAL RUN TIME: 0 days 0 hours 0 minutes 11 seconds 310 msec
