                         Program Version 5.0.0 -  RELEASE  -
|  1> !LC-PBE RIJCOSX def2-SVP def2/J TightSCF
|  2> *xyz 1 1
|  3> C          4.60295       -2.44010        2.63478
|  4> C          3.86085       -1.59157        3.62289
|  5> N          2.75650       -2.04616        4.16633
|  6> N          4.25433       -0.36291        3.86046
|  7> H          3.56526        0.31099        4.16898
|  8> H          5.05429       -0.01606        3.33784
|  9> H          2.43970       -2.97389        3.89740
| 10> H          2.06687       -1.41253        4.54981
| 11> C          3.74469       -2.58056        1.36188
| 12> H          5.56156       -1.97135        2.40708
| 13> H          4.81050       -3.42255        3.06310
| 14> H          4.26314       -3.18477        0.64702
| 15> H          3.56325       -1.61180        0.94535
| 16> H          2.81197       -3.04259        1.60980
| 17> *
| 18>
| 19> %MaxCore 64000
| 20>
| 21> %pal nprocs 4
| 22> end
| 23>
| 24> %scf
| 25>   MaxIter 150
| 26> end
| 27>
| 28>
| 29>                          ****END OF INPUT****

CARTESIAN COORDINATES (ANGSTROEM)
---------------------------------
  C      4.602950   -2.440100    2.634780
  C      3.860850   -1.591570    3.622890
  N      2.756500   -2.046160    4.166330
  N      4.254330   -0.362910    3.860460
  H      3.565260    0.310990    4.168980
  H      5.054290   -0.016060    3.337840
  H      2.439700   -2.973890    3.897400
  H      2.066870   -1.412530    4.549810
  C      3.744690   -2.580560    1.361880
  H      5.561560   -1.971350    2.407080
  H      4.810500   -3.422550    3.063100
  H      4.263140   -3.184770    0.647020
  H      3.563250   -1.611800    0.945350
  H      2.811970   -3.042590    1.609800

 Total Charge           Charge          ....    1
 Multiplicity           Mult            ....    1
 Number of Electrons    NEL             ....   40
 Basis Dimension        Dim             ....  115

ORBITAL ENERGIES
----------------

  NO   OCC          E(Eh)            E(eV)
   0   2.0000     -14.475357      -393.8945
   1   2.0000     -14.474995      -393.8846
   2   2.0000     -10.458688      -284.5954
   3   2.0000     -10.329503      -281.0801
   4   2.0000     -10.288100      -279.9534
   5   2.0000      -1.381481       -37.5920
   6   2.0000      -1.272649       -34.6305
   7   2.0000      -1.145525       -31.1713
   8   2.0000      -1.020026       -27.7563
   9   2.0000      -0.973787       -26.4981
  10   2.0000      -0.924230       -25.1496
  11   2.0000      -0.902918       -24.5696
  12   2.0000      -0.839187       -22.8354
  13   2.0000      -0.816758       -22.2251
  14   2.0000      -0.770051       -20.9542
  15   2.0000      -0.745896       -20.2969
  16   2.0000      -0.685184       -18.6448
  17   2.0000      -0.677038       -18.4231
  18   2.0000      -0.662433       -18.0257
  19   2.0000      -0.626808       -17.0563
  20   0.0000      -0.116380        -3.1669
  21   0.0000      -0.049194        -1.3386
  22   0.0000      -0.004262        -0.1160
  23   0.0000      -0.002528        -0.0688
  24   0.0000       0.028873         0.7857

MULLIKEN ATOMIC CHARGES
-----------------------
   0 C :   -0.128577
   1 C :   -0.031274
   2 N :   -0.056510
   3 N :   -0.053865
   4 H :    0.203487
   5 H :    0.214426
   6 H :    0.212963
   7 H :    0.205393
   8 C :   -0.133911
   9 H :    0.113747
  10 H :    0.145325
  11 H :    0.132055
  12 H :    0.094894
  13 H :    0.081848
Sum of atomic charges:    1.0000000

LOEWDIN ATOMIC CHARGES
----------------------
   0 C :   -0.059419
   1 C :    0.157781
   2 N :    0.079694
   3 N :    0.080734
   4 H :    0.121595
   5 H :    0.129313
   6 H :    0.127979
   7 H :    0.122088
   8 C :   -0.057491
   9 H :    0.065447
  10 H :    0.076985
  11 H :    0.066390
  12 H :    0.048813
  13 H :    0.040090

  Mayer bond orders larger than 0.100000
B(  0-C ,  1-C ) :   1.0162 B(  0-C ,  8-C ) :   1.0377 B(  0-C ,  9-H ) :   0.9351
B(  0-C , 10-H ) :   0.9279 B(  1-C ,  2-N ) :   1.5051 B(  1-C ,  3-N ) :   1.5158
B(  2-N ,  6-H ) :   0.9195 B(  2-N ,  7-H ) :   0.9268 B(  3-N ,  4-H ) :   0.9266
B(  3-N ,  5-H ) :   0.9162 B(  8-C , 11-H ) :   0.9631 B(  8-C , 12-H ) :   0.9683
B(  8-C , 13-H ) :   0.9751

FINAL SINGLE POINT ENERGY      -228.117136302584

DIPOLE MOMENT
-------------
                                X             Y             Z
Electronic contribution:     -0.26657       1.82931       3.74538
Nuclear contribution   :     -0.22400      -1.16268      -3.30447
                        -----------------------------------------
Total Dipole Moment    :     -0.49058       0.66663       0.44091
                        -----------------------------------------
Magnitude (a.u.)       :      0.93780
Magnitude (Debye)      :      2.38370

Rotational constants in cm-1:     0.258103     0.130571     0.102508
Rotational constants in MHz :  7737.732062  3914.431392  3073.119154

                             ****ORCA TERMINATED NORMALLY****
TOTAL RUN TIME: 0 days 0 hours 0 minutes 13 seconds 471 msec
