                         Program Version 5.0.0 -  RELEASE  -
|  1> !LC-PBE RIJCOSX def2-TZVP def2/J TightSCF xyzfile
|  2>
|  3> *xyzfile 0 1 B.xyz
|  4>
|  5> %MaxCore 64000
|  6>
|  7> %pal nprocs 18
|  8> end
|  9>
| 10> %scf
| 11>   MaxIter 150
| 12> end
| 13>
| 14>
| 15>                          ****END OF INPUT****

CARTESIAN COORDINATES (ANGSTROEM)
---------------------------------
  C      4.602954   -2.440100    2.634780
  C     -0.914947    0.615112    2.505538
  C     -0.059146    1.503524    3.410578
  H      0.365364    2.344315    2.861161
  H     -0.692261    1.920207    4.198985
  C      1.083027    0.749640    4.085705
  C      3.860851   -1.591565    3.622893
  N      2.756502   -2.046159    4.166333
  N      4.254325   -0.362905    3.860455
  H      3.565256    0.310994    4.168983
  H      5.054292   -0.016059    3.337838
  H      2.439696   -2.973894    3.897395
  H      2.066869   -1.412532    4.549813
  O      2.228167    1.263475    4.019826
  O      0.810034   -0.345411    4.636269
  C      3.744685   -2.580557    1.361882
  C      0.772139    0.636882    0.562129
  C     -0.130740   -0.193985    1.470763
  H     -0.840563   -0.760165    0.856377
  H      0.466691   -0.938942    2.006959
  H     -1.647961    1.245963    1.991076
  H     -1.478180   -0.081046    3.130424
  C      3.203721   -1.256004    0.826211
  H      2.898939   -3.239289    1.583074
  H      4.334962   -3.095523    0.600188
  C      2.107815   -1.442385   -0.216865
  H      2.786775   -0.672760    1.650711
  H      4.021008   -0.652993    0.414046
  C      1.390662   -0.145912   -0.602422
  H      1.372179   -2.152184    0.176151
  H      2.523302   -1.906787   -1.117115
  H      1.561361    1.100094    1.161831
  H      0.195516    1.468325    0.142758
  H      0.602893   -0.398214   -1.319716
  H      2.087247    0.508272   -1.137335
  H      5.561557   -1.971347    2.407084
  H      4.810498   -3.422552    3.063099

 Total Charge           Charge          ....    0
 Multiplicity           Mult            ....    1
 Number of Electrons    NEL             ....  118
 Basis Dimension        Dim             ....  597

ORBITAL ENERGIES
----------------

  NO   OCC          E(Eh)            E(eV)
   0   2.0000     -18.897307      -514.2219
   1   2.0000     -18.895217      -514.1650
   2   2.0000     -14.255428      -387.9099
   3   2.0000     -14.255198      -387.9037
   4   2.0000     -10.261745      -279.2363
   5   2.0000     -10.182659      -277.0842
   6   2.0000     -10.169061      -276.7142
   7   2.0000     -10.149580      -276.1841
   8   2.0000     -10.124430      -275.4998
   9   2.0000     -10.115409      -275.2543
  10   2.0000     -10.107270      -275.0328
  11   2.0000     -10.096097      -274.7288
  12   2.0000     -10.092853      -274.6405
  13   2.0000     -10.089203      -274.5412
  14   2.0000     -10.080228      -274.2969
  15   2.0000      -1.199273       -32.6339
  16   2.0000      -1.177086       -32.0301
  17   2.0000      -1.092075       -29.7169
  18   2.0000      -1.072177       -29.1754
  19   2.0000      -1.021282       -27.7905
  20   2.0000      -0.985795       -26.8248
  21   2.0000      -0.953061       -25.9341
  22   2.0000      -0.908337       -24.7171
  23   2.0000      -0.866402       -23.5760
  24   2.0000      -0.822610       -22.3844
  25   2.0000      -0.804597       -21.8942
  26   2.0000      -0.779839       -21.2205
  27   2.0000      -0.746106       -20.3026
  28   2.0000      -0.732602       -19.9351
  29   2.0000      -0.723226       -19.6800
  30   2.0000      -0.702282       -19.1101
  31   2.0000      -0.664979       -18.0950
  32   2.0000      -0.648129       -17.6365
  33   2.0000      -0.633245       -17.2315
  34   2.0000      -0.624033       -16.9808
  35   2.0000      -0.610897       -16.6234
  36   2.0000      -0.601688       -16.3728
  37   2.0000      -0.587854       -15.9963
  38   2.0000      -0.576794       -15.6954
  39   2.0000      -0.561191       -15.2708
  40   2.0000      -0.555690       -15.1211
  41   2.0000      -0.547599       -14.9009
  42   2.0000      -0.541059       -14.7230
  43   2.0000      -0.535105       -14.5609
  44   2.0000      -0.513492       -13.9728
  45   2.0000      -0.506330       -13.7779
  46   2.0000      -0.499587       -13.5944
  47   2.0000      -0.495652       -13.4874
  48   2.0000      -0.481550       -13.1036
  49   2.0000      -0.463731       -12.6188
  50   2.0000      -0.458744       -12.4830
  51   2.0000      -0.451406       -12.2834
  52   2.0000      -0.435987       -11.8638
  53   2.0000      -0.429802       -11.6955
  54   2.0000      -0.427275       -11.6267
  55   2.0000      -0.418883       -11.3984
  56   2.0000      -0.365520        -9.9463
  57   2.0000      -0.354899        -9.6573
  58   2.0000      -0.353571        -9.6212
  59   0.0000       0.057433         1.5628
  60   0.0000       0.084608         2.3023
  61   0.0000       0.104202         2.8355
  62   0.0000       0.119604         3.2546
  63   0.0000       0.133424         3.6307

MULLIKEN ATOMIC CHARGES
-----------------------
   0 C :   -0.324996
   1 C :   -0.262700
   2 C :   -0.295951
   3 H :    0.160630
   4 H :    0.151106
   5 C :    0.258979
   6 C :    0.120188
   7 N :   -0.301208
   8 N :   -0.305329
   9 H :    0.303414
  10 H :    0.266676
  11 H :    0.268540
  12 H :    0.304695
  13 O :   -0.522320
  14 O :   -0.505826
  15 C :   -0.349087
  16 C :   -0.398976
  17 C :   -0.325461
  18 H :    0.151631
  19 H :    0.151831
  20 H :    0.139250
  21 H :    0.155896
  22 C :   -0.296885
  23 H :    0.176939
  24 H :    0.167051
  25 C :   -0.347310
  26 H :    0.201515
  27 H :    0.151667
  28 C :   -0.250382
  29 H :    0.170126
  30 H :    0.154086
  31 H :    0.202311
  32 H :    0.155854
  33 H :    0.153349
  34 H :    0.147576
  35 H :    0.173680
  36 H :    0.199443
Sum of atomic charges:   -0.0000000

LOEWDIN ATOMIC CHARGES
----------------------
   0 C :   -0.227103
   1 C :   -0.284469
   2 C :   -0.256021
   3 H :    0.146930
   4 H :    0.153995
   5 C :   -0.644324
   6 C :   -0.339063
   7 N :    0.100855
   8 N :    0.094715
   9 H :    0.160010
  10 H :    0.191679
  11 H :    0.193128
  12 H :    0.160444
  13 O :   -0.062392
  14 O :   -0.056042
  15 C :   -0.268944
  16 C :   -0.289350
  17 C :   -0.289996
  18 H :    0.143089
  19 H :    0.143015
  20 H :    0.141284
  21 H :    0.149249
  22 C :   -0.280868
  23 H :    0.147530
  24 H :    0.150630
  25 C :   -0.287644
  26 H :    0.156043
  27 H :    0.145979
  28 C :   -0.285682
  29 H :    0.146588
  30 H :    0.143520
  31 H :    0.148764
  32 H :    0.146510
  33 H :    0.145652
  34 H :    0.143562
  35 H :    0.156647
  36 H :    0.162080

  Mayer bond orders larger than 0.100000
B(  0-C ,  6-C ) :   0.9493 B(  0-C , 15-C ) :   0.9062 B(  0-C , 35-H ) :   0.9835
B(  0-C , 36-H ) :   0.9787 B(  1-C ,  2-C ) :   0.9229 B(  1-C , 17-C ) :   0.9698
B(  1-C , 20-H ) :   0.9806 B(  1-C , 21-H ) :   0.9775 B(  2-C ,  3-H ) :   0.9812
B(  2-C ,  4-H ) :   0.9628 B(  2-C ,  5-C ) :   0.9404 B(  5-C , 13-O ) :   1.6890
B(  5-C , 14-O ) :   1.7059 B(  6-C ,  7-N ) :   1.4834 B(  6-C ,  8-N ) :   1.4912
B(  7-N , 11-H ) :   0.9096 B(  7-N , 12-H ) :   0.7544 B(  8-N ,  9-H ) :   0.7606
B(  8-N , 10-H ) :   0.9079 B(  9-H , 13-O ) :   0.1900 B( 12-H , 14-O ) :   0.1967
B( 15-C , 22-C ) :   0.8684 B( 15-C , 23-H ) :   0.9918 B( 15-C , 24-H ) :   0.9733
B( 16-C , 17-C ) :   0.8625 B( 16-C , 28-C ) :   0.9394 B( 16-C , 31-H ) :   0.9742
B( 16-C , 32-H ) :   0.9752 B( 17-C , 18-H ) :   0.9774 B( 17-C , 19-H ) :   0.9733
B( 22-C , 25-C ) :   0.9270 B( 22-C , 26-H ) :   0.9474 B( 22-C , 27-H ) :   0.9632
B( 25-C , 28-C ) :   0.9483 B( 25-C , 29-H ) :   0.9836 B( 25-C , 30-H ) :   0.9777
B( 28-C , 33-H ) :   0.9872 B( 28-C , 34-H ) :   0.9934

FINAL SINGLE POINT ENERGY      -690.466816832967

DIPOLE MOMENT
-------------
                                X             Y             Z
Electronic contribution:      3.46452       1.56990      12.93386
Nuclear contribution   :     -1.50655      -3.48027     -14.35034
                        -----------------------------------------
Total Dipole Moment    :      1.95797      -1.91038      -1.41648
                        -----------------------------------------
Magnitude (a.u.)       :      3.08052
Magnitude (Debye)      :      7.83005

Rotational constants in cm-1:     0.021781     0.017296     0.011403
Rotational constants in MHz :   652.971749   518.510612   341.853154

                             ****ORCA TERMINATED NORMALLY****
TOTAL RUN TIME: 0 days 0 hours 1 minutes 47 seconds 832 msec
