                         Program Version 5.0.0 -  RELEASE  -
|  1> !LC-PBE RIJCOSX def2-SVP def2/J TightSCF
|  2> *xyz 0 1
|  3> C         -0.91495        0.61511        2.50554
|  4> C         -0.05915        1.50352        3.41058
|  5> H          0.36536        2.34431        2.86116
|  6> H         -0.69226        1.92021        4.19898
|  7> C          1.08303        0.74964        4.08571
|  8> F          2.22817        1.26348        4.01983
|  9> O          0.81003       -0.34541        4.63627
| 10> H         -0.30401        0.20228        1.73015
| 11> H         -1.69811        1.19946        2.06954
| 12> H         -1.34124       -0.17772        3.08397
| 13> *
| 14>
| 15> %MaxCore 64000
| 16>
| 17> %pal nprocs 4
| 18> end
| 19>
| 20> %scf
| 21>   MaxIter 150
| 22> end
| 23>
| 24>
| 25>                          ****END OF INPUT****

CARTESIAN COORDINATES (ANGSTROEM)
---------------------------------
  C     -0.914950    0.615110    2.505540
  C     -0.059150    1.503520    3.410580
  H      0.365360    2.344310    2.861160
  H     -0.692260    1.920210    4.198980
  C      1.083030    0.749640    4.085710
  F      2.228170    1.263480    4.019830
  O      0.810030   -0.345410    4.636270
  H     -0.304010    0.202280    1.730150
  H     -1.698110    1.199460    2.069540
  H     -1.341240   -0.177720    3.083970

 Total Charge           Charge          ....    0
 Multiplicity           Mult            ....    1
 Number of Electrons    NEL             ....   40
 Basis Dimension        Dim             ....   95

ORBITAL ENERGIES
----------------

  NO   OCC          E(Eh)            E(eV)
   0   2.0000     -24.563853      -668.4164
   1   2.0000     -18.988598      -516.7060
   2   2.0000     -10.305725      -280.4330
   3   2.0000     -10.156700      -276.3779
   4   2.0000     -10.129147      -275.6281
   5   2.0000      -1.455003       -39.5926
   6   2.0000      -1.183058       -32.1926
   7   2.0000      -0.971531       -26.4367
   8   2.0000      -0.846263       -23.0280
   9   2.0000      -0.787345       -21.4247
  10   2.0000      -0.700664       -19.0660
  11   2.0000      -0.683852       -18.6086
  12   2.0000      -0.650707       -17.7066
  13   2.0000      -0.608740       -16.5646
  14   2.0000      -0.571883       -15.5617
  15   2.0000      -0.533280       -14.5113
  16   2.0000      -0.509957       -13.8766
  17   2.0000      -0.505516       -13.7558
  18   2.0000      -0.476411       -12.9638
  19   2.0000      -0.424371       -11.5477
  20   0.0000       0.078518         2.1366
  21   0.0000       0.153896         4.1877
  22   0.0000       0.198294         5.3959
  23   0.0000       0.204643         5.5686
  24   0.0000       0.222461         6.0535

MULLIKEN ATOMIC CHARGES
-----------------------
   0 C :   -0.130456
   1 C :   -0.214520
   2 H :    0.080780
   3 H :    0.113083
   4 C :    0.223105
   5 F :   -0.057541
   6 O :   -0.249592
   7 H :    0.071574
   8 H :    0.071531
   9 H :    0.092036
Sum of atomic charges:    0.0000000

LOEWDIN ATOMIC CHARGES
----------------------
   0 C :   -0.073843
   1 C :   -0.103487
   2 H :    0.041861
   3 H :    0.064695
   4 C :    0.094265
   5 F :    0.051620
   6 O :   -0.198332
   7 H :    0.038637
   8 H :    0.039703
   9 H :    0.044881

  Mayer bond orders larger than 0.100000
B(  0-C ,  1-C ) :   1.0677 B(  0-C ,  7-H ) :   0.9804 B(  0-C ,  8-H ) :   0.9739
B(  0-C ,  9-H ) :   0.9688 B(  1-C ,  2-H ) :   0.9507 B(  1-C ,  3-H ) :   0.9364
B(  1-C ,  4-C ) :   0.9815 B(  4-C ,  5-F ) :   1.2318 B(  4-C ,  6-O ) :   2.0985

FINAL SINGLE POINT ENERGY      -291.360039852672

DIPOLE MOMENT
-------------
                                X             Y             Z
Electronic contribution:      7.75303      -0.17026       4.11918
Nuclear contribution   :     -8.12386       1.06915      -4.71960
                        -----------------------------------------
Total Dipole Moment    :     -0.37083       0.89888      -0.60041
                        -----------------------------------------
Magnitude (a.u.)       :      1.14281
Magnitude (Debye)      :      2.90478

Rotational constants in cm-1:     0.309513     0.127560     0.099675
Rotational constants in MHz :  9278.979128  3824.146597  2988.174827

                             ****ORCA TERMINATED NORMALLY****
TOTAL RUN TIME: 0 days 0 hours 0 minutes 11 seconds 28 msec
