                         Program Version 5.0.0 -  RELEASE  -
|  1> !LC-PBE RIJCOSX def2-SVP def2/J TightSCF
|  2> *xyz 0 1
|  3> C          4.60295       -2.44010        2.63478
|  4> C          3.86085       -1.59157        3.62289
|  5> C          2.75650       -2.04616        4.16633
|  6> N          4.25433       -0.36291        3.86046
|  7> H          3.56526        0.31099        4.16898
|  8> H          5.05429       -0.01606        3.33784
|  9> H          2.43970       -2.97389        3.89740
| 10> H          2.06687       -1.41253        4.54981
| 11> C          3.74469       -2.58056        1.36188
| 12> H          5.56156       -1.97135        2.40708
| 13> H          4.81050       -3.42255        3.06310
| 14> H          4.26314       -3.18477        0.64702
| 15> H          3.56325       -1.61180        0.94535
| 16> H          2.81197       -3.04259        1.60980
| 17> *
| 18>
| 19> %MaxCore 64000
| 20>
| 21> %pal nprocs 4
| 22> end
| 23>
| 24> %scf
| 25>   MaxIter 150
| 26> end
| 27>
| 28>
| 29>                          ****END OF INPUT****

CARTESIAN COORDINATES (ANGSTROEM)
---------------------------------
  C      4.602950   -2.440100    2.634780
  C      3.860850   -1.591570    3.622890
  C      2.756500   -2.046160    4.166330
  N      4.254330   -0.362910    3.860460
  H      3.565260    0.310990    4.168980
  H      5.054290   -0.016060    3.337840
  H      2.439700   -2.973890    3.897400
  H      2.066870   -1.412530    4.549810
  C      3.744690   -2.580560    1.361880
  H      5.561560   -1.971350    2.407080
  H      4.810500   -3.422550    3.063100
  H      4.263140   -3.184770    0.647020
  H      3.563250   -1.611800    0.945350
  H      2.811970   -3.042590    1.609800

 Total Charge           Charge          ....    0
 Multiplicity           Mult            ....    1
 Number of Electrons    NEL             ....   40
 Basis Dimension        Dim             ....  115

ORBITAL ENERGIES
----------------

  NO   OCC          E(Eh)            E(eV)
   0   2.0000     -14.221376      -386.9833
   1   2.0000     -10.145014      -276.0599
   2   2.0000     -10.127279      -275.5773
   3   2.0000     -10.111344      -275.1437
   4   2.0000     -10.050719      -273.4940
   5   2.0000      -1.095443       -29.8085
   6   2.0000      -0.950795       -25.8725
   7   2.0000      -0.871966       -23.7274
   8   2.0000      -0.797591       -21.7036
   9   2.0000      -0.707746       -19.2587
  10   2.0000      -0.666391       -18.1334
  11   2.0000      -0.626321       -17.0431
  12   2.0000      -0.591163       -16.0864
  13   2.0000      -0.550028       -14.9670
  14   2.0000      -0.523499       -14.2451
  15   2.0000      -0.510297       -13.8859
  16   2.0000      -0.482745       -13.1362
  17   2.0000      -0.471157       -12.8208
  18   2.0000      -0.459155       -12.4942
  19   2.0000      -0.303478        -8.2581
  20   0.0000       0.143545         3.9061
  21   0.0000       0.145736         3.9657
  22   0.0000       0.189700         5.1620
  23   0.0000       0.196732         5.3534
  24   0.0000       0.213800         5.8178

MULLIKEN ATOMIC CHARGES
-----------------------
   0 C :   -0.078089
   1 C :   -0.124205
   2 C :   -0.145510
   3 N :   -0.142212
   4 H :    0.146656
   5 H :    0.135858
   6 H :    0.008835
   7 H :    0.000722
   8 C :   -0.111711
   9 H :    0.042447
  10 H :    0.083108
  11 H :    0.059316
  12 H :    0.057076
  13 H :    0.067709
Sum of atomic charges:   -0.0000000

LOEWDIN ATOMIC CHARGES
----------------------
   0 C :   -0.056846
   1 C :    0.003840
   2 C :   -0.202868
   3 N :   -0.024147
   4 H :    0.086297
   5 H :    0.076959
   6 H :    0.008232
   7 H :    0.004397
   8 C :   -0.074915
   9 H :    0.029135
  10 H :    0.049399
  11 H :    0.031154
  12 H :    0.033153
  13 H :    0.036210

  Mayer bond orders larger than 0.100000
B(  0-C ,  1-C ) :   0.9964 B(  0-C ,  8-C ) :   1.0701 B(  0-C ,  9-H ) :   0.9538
B(  0-C , 10-H ) :   0.9490 B(  1-C ,  2-C ) :   1.8800 B(  1-C ,  3-N ) :   1.2502
B(  2-C ,  6-H ) :   0.9584 B(  2-C ,  7-H ) :   0.9705 B(  3-N ,  4-H ) :   0.9516
B(  3-N ,  5-H ) :   0.9524 B(  8-C , 11-H ) :   0.9753 B(  8-C , 12-H ) :   0.9729
B(  8-C , 13-H ) :   0.9771

FINAL SINGLE POINT ENERGY      -211.673977549159

DIPOLE MOMENT
-------------
                                X             Y             Z
Electronic contribution:      0.84555       1.82213       2.51425
Nuclear contribution   :     -0.47010      -1.22282      -3.06417
                        -----------------------------------------
Total Dipole Moment    :      0.37544       0.59931      -0.54991
                        -----------------------------------------
Magnitude (a.u.)       :      0.89584
Magnitude (Debye)      :      2.27706

Rotational constants in cm-1:     0.271862     0.131962     0.105499
Rotational constants in MHz :  8150.219120  3956.123671  3162.785522

                             ****ORCA TERMINATED NORMALLY****
TOTAL RUN TIME: 0 days 0 hours 0 minutes 14 seconds 217 msec
