                         Program Version 5.0.0 -  RELEASE  -
|  1> !LC-PBE RIJCOSX def2-SVP def2/J TightSCF
|  2> *xyz 0 1
|  3> C         -0.91495        0.61511        2.50554
|  4> C         -0.05915        1.50352        3.41058
|  5> H          0.36536        2.34431        2.86116
|  6> H         -0.69226        1.92021        4.19898
|  7> C          1.08303        0.74964        4.08571
|  8> O          2.22817        1.26348        4.01983
|  9> F          0.81003       -0.34541        4.63627
| 10> H         -0.30401        0.20228        1.73015
| 11> H         -1.69811        1.19946        2.06954
| 12> H         -1.34124       -0.17772        3.08397
| 13> *
| 14>
| 15> %MaxCore 64000
| 16>
| 17> %pal nprocs 4
| 18> end
| 19>
| 20> %scf
| 21>   MaxIter 150
| 22> end
| 23>
| 24>
| 25>                          ****END OF INPUT****

CARTESIAN COORDINATES (ANGSTROEM)
---------------------------------
  C     -0.914950    0.615110    2.505540
  C     -0.059150    1.503520    3.410580
  H      0.365360    2.344310    2.861160
  H     -0.692260    1.920210    4.198980
  C      1.083030    0.749640    4.085710
  O      2.228170    1.263480    4.019830
  F      0.810030   -0.345410    4.636270
  H     -0.304010    0.202280    1.730150
  H     -1.698110    1.199460    2.069540
  H     -1.341240   -0.177720    3.083970

 Total Charge           Charge          ....    0
 Multiplicity           Mult            ....    1
 Number of Electrons    NEL             ....   40
 Basis Dimension        Dim             ....   95

ORBITAL ENERGIES
----------------

  NO   OCC          E(Eh)            E(eV)
   0   2.0000     -24.565603      -668.4641
   1   2.0000     -18.986922      -516.6604
   2   2.0000     -10.304726      -280.4058
   3   2.0000     -10.155764      -276.3524
   4   2.0000     -10.134770      -275.7811
   5   2.0000      -1.456748       -39.6401
   6   2.0000      -1.180632       -32.1266
   7   2.0000      -0.976163       -26.5628
   8   2.0000      -0.841516       -22.8988
   9   2.0000      -0.794745       -21.6261
  10   2.0000      -0.703484       -19.1428
  11   2.0000      -0.691344       -18.8124
  12   2.0000      -0.640590       -17.4313
  13   2.0000      -0.608912       -16.5693
  14   2.0000      -0.573307       -15.6005
  15   2.0000      -0.538886       -14.6638
  16   2.0000      -0.517546       -14.0832
  17   2.0000      -0.508644       -13.8409
  18   2.0000      -0.477844       -13.0028
  19   2.0000      -0.418562       -11.3896
  20   0.0000       0.081994         2.2312
  21   0.0000       0.148891         4.0515
  22   0.0000       0.195776         5.3273
  23   0.0000       0.205549         5.5933
  24   0.0000       0.223190         6.0733

MULLIKEN ATOMIC CHARGES
-----------------------
   0 C :   -0.153942
   1 C :   -0.208117
   2 H :    0.107520
   3 H :    0.102240
   4 C :    0.222464
   5 O :   -0.245553
   6 F :   -0.058932
   7 H :    0.079472
   8 H :    0.078387
   9 H :    0.076461
Sum of atomic charges:   -0.0000000

LOEWDIN ATOMIC CHARGES
----------------------
   0 C :   -0.084769
   1 C :   -0.098856
   2 H :    0.058357
   3 H :    0.057121
   4 C :    0.092469
   5 O :   -0.196351
   6 F :    0.052205
   7 H :    0.039842
   8 H :    0.042679
   9 H :    0.037303

  Mayer bond orders larger than 0.100000
B(  0-C ,  1-C ) :   1.0476 B(  0-C ,  7-H ) :   0.9789 B(  0-C ,  8-H ) :   0.9729
B(  0-C ,  9-H ) :   0.9737 B(  1-C ,  2-H ) :   0.9564 B(  1-C ,  3-H ) :   0.9401
B(  1-C ,  4-C ) :   0.9902 B(  4-C ,  5-O ) :   2.1169 B(  4-C ,  6-F ) :   1.2198

FINAL SINGLE POINT ENERGY      -291.358790678490

DIPOLE MOMENT
-------------
                                X             Y             Z
Electronic contribution:      5.37765      -2.84716       5.12986
Nuclear contribution   :     -6.57765       2.82334      -5.39171
                        -----------------------------------------
Total Dipole Moment    :     -1.20000      -0.02382      -0.26185
                        -----------------------------------------
Magnitude (a.u.)       :      1.22847
Magnitude (Debye)      :      3.12252

Rotational constants in cm-1:     0.294245     0.132994     0.101060
Rotational constants in MHz :  8821.228602  3987.049251  3029.696815

                             ****ORCA TERMINATED NORMALLY****
TOTAL RUN TIME: 0 days 0 hours 0 minutes 10 seconds 898 msec
