                         Program Version 5.0.0 -  RELEASE  -
|  1> !LC-PBE RIJCOSX def2-SVP def2/J TightSCF
|  2> *xyz 0 1
|  3> C          4.60295       -2.44010        2.63478
|  4> C          3.86085       -1.59157        3.62289
|  5> N          2.75650       -2.04616        4.16633
|  6> C          4.25433       -0.36291        3.86046
|  7> H          3.56526        0.31099        4.16898
|  8> H          5.05429       -0.01606        3.33784
|  9> H          2.43970       -2.97389        3.89740
| 10> H          2.06687       -1.41253        4.54981
| 11> C          3.74469       -2.58056        1.36188
| 12> H          5.56156       -1.97135        2.40708
| 13> H          4.81050       -3.42255        3.06310
| 14> H          4.26314       -3.18477        0.64702
| 15> H          3.56325       -1.61180        0.94535
| 16> H          2.81197       -3.04259        1.60980
| 17> *
| 18>
| 19> %MaxCore 64000
| 20>
| 21> %pal nprocs 4
| 22> end
| 23>
| 24> %scf
| 25>   MaxIter 150
| 26> end
| 27>
| 28>
| 29>                          ****END OF INPUT****

CARTESIAN COORDINATES (ANGSTROEM)
---------------------------------
  C      4.602950   -2.440100    2.634780
  C      3.860850   -1.591570    3.622890
  N      2.756500   -2.046160    4.166330
  C      4.254330   -0.362910    3.860460
  H      3.565260    0.310990    4.168980
  H      5.054290   -0.016060    3.337840
  H      2.439700   -2.973890    3.897400
  H      2.066870   -1.412530    4.549810
  C      3.744690   -2.580560    1.361880
  H      5.561560   -1.971350    2.407080
  H      4.810500   -3.422550    3.063100
  H      4.263140   -3.184770    0.647020
  H      3.563250   -1.611800    0.945350
  H      2.811970   -3.042590    1.609800

 Total Charge           Charge          ....    0
 Multiplicity           Mult            ....    1
 Number of Electrons    NEL             ....   40
 Basis Dimension        Dim             ....  115

ORBITAL ENERGIES
----------------

  NO   OCC          E(Eh)            E(eV)
   0   2.0000     -14.222274      -387.0077
   1   2.0000     -10.146017      -276.0872
   2   2.0000     -10.126836      -275.5652
   3   2.0000     -10.115696      -275.2621
   4   2.0000     -10.051977      -273.5282
   5   2.0000      -1.095665       -29.8146
   6   2.0000      -0.948569       -25.8119
   7   2.0000      -0.881106       -23.9761
   8   2.0000      -0.792324       -21.5602
   9   2.0000      -0.715544       -19.4709
  10   2.0000      -0.668363       -18.1871
  11   2.0000      -0.621739       -16.9184
  12   2.0000      -0.579773       -15.7764
  13   2.0000      -0.569862       -15.5067
  14   2.0000      -0.521151       -14.1812
  15   2.0000      -0.514412       -13.9979
  16   2.0000      -0.485754       -13.2180
  17   2.0000      -0.471491       -12.8299
  18   2.0000      -0.453962       -12.3529
  19   2.0000      -0.306078        -8.3288
  20   0.0000       0.140768         3.8305
  21   0.0000       0.148378         4.0376
  22   0.0000       0.192680         5.2431
  23   0.0000       0.196453         5.3458
  24   0.0000       0.209391         5.6978

MULLIKEN ATOMIC CHARGES
-----------------------
   0 C :   -0.078875
   1 C :   -0.121506
   2 N :   -0.141421
   3 C :   -0.137597
   4 H :   -0.000592
   5 H :    0.006277
   6 H :    0.136290
   7 H :    0.147708
   8 C :   -0.114289
   9 H :    0.066826
  10 H :    0.061960
  11 H :    0.066310
  12 H :    0.065699
  13 H :    0.043209
Sum of atomic charges:   -0.0000000

LOEWDIN ATOMIC CHARGES
----------------------
   0 C :   -0.054919
   1 C :    0.005211
   2 N :   -0.023611
   3 C :   -0.203419
   4 H :    0.004378
   5 H :    0.008957
   6 H :    0.076794
   7 H :    0.086473
   8 C :   -0.080089
   9 H :    0.046728
  10 H :    0.034567
  11 H :    0.035179
  12 H :    0.038304
  13 H :    0.025447

  Mayer bond orders larger than 0.100000
B(  0-C ,  1-C ) :   1.0202 B(  0-C ,  8-C ) :   1.0609 B(  0-C ,  9-H ) :   0.9481
B(  0-C , 10-H ) :   0.9481 B(  1-C ,  2-N ) :   1.2460 B(  1-C ,  3-C ) :   1.8858
B(  2-N ,  6-H ) :   0.9558 B(  2-N ,  7-H ) :   0.9514 B(  3-C ,  4-H ) :   0.9699
B(  3-C ,  5-H ) :   0.9527 B(  8-C , 11-H ) :   0.9759 B(  8-C , 12-H ) :   0.9717
B(  8-C , 13-H ) :   0.9763

FINAL SINGLE POINT ENERGY      -211.674825746661

DIPOLE MOMENT
-------------
                                X             Y             Z
Electronic contribution:     -0.53862       0.26697       2.81469
Nuclear contribution   :     -0.12319      -0.83296      -3.13501
                        -----------------------------------------
Total Dipole Moment    :     -0.66181      -0.56599      -0.32032
                        -----------------------------------------
Magnitude (a.u.)       :      0.92787
Magnitude (Debye)      :      2.35845

Rotational constants in cm-1:     0.266453     0.134423     0.106086
Rotational constants in MHz :  7988.053142  4029.892766  3180.375228

                             ****ORCA TERMINATED NORMALLY****
TOTAL RUN TIME: 0 days 0 hours 0 minutes 14 seconds 723 msec
