                         Program Version 5.0.0 -  RELEASE  -
|  1> !LC-PBE RIJCOSX def2-TZVP def2/J TightSCF xyzfile
|  2>
|  3> *xyzfile 0 1 D2.xyz
|  4>
|  5> %MaxCore 64000
|  6>
|  7> %pal nprocs 18
|  8> end
|  9>
| 10> %scf
| 11>   MaxIter 150
| 12> end
| 13>
| 14>
| 15>                          ****END OF INPUT****

CARTESIAN COORDINATES (ANGSTROEM)
---------------------------------
  C      4.602954   -2.440100    2.634780
  C     -0.914947    0.615112    2.505538
  C     -0.059146    1.503524    3.410578
  H      0.365364    2.344315    2.861161
  H     -0.692261    1.920207    4.198985
  C      1.083027    0.749640    4.085705
  C      3.860851   -1.591565    3.622893
  N      2.756502   -2.046159    4.166333
  C      4.254325   -0.362905    3.860455
  H      3.565256    0.310994    4.168983
  H      5.054292   -0.016059    3.337838
  H      2.439696   -2.973894    3.897395
  H      2.066869   -1.412532    4.549813
  F      2.228167    1.263475    4.019826
  O      0.810034   -0.345411    4.636269
  C      3.744685   -2.580557    1.361882
  C      0.772139    0.636882    0.562129
  C     -0.130740   -0.193985    1.470763
  H     -0.840563   -0.760165    0.856377
  H      0.466691   -0.938942    2.006959
  H     -1.647961    1.245963    1.991076
  H     -1.478180   -0.081046    3.130424
  C      3.203721   -1.256004    0.826211
  H      2.898939   -3.239289    1.583074
  H      4.334962   -3.095523    0.600188
  C      2.107815   -1.442385   -0.216865
  H      2.786775   -0.672760    1.650711
  H      4.021008   -0.652993    0.414046
  C      1.390662   -0.145912   -0.602422
  H      1.372179   -2.152184    0.176151
  H      2.523302   -1.906787   -1.117115
  H      1.561361    1.100094    1.161831
  H      0.195516    1.468325    0.142758
  H      0.602893   -0.398214   -1.319716
  H      2.087247    0.508272   -1.137335
  H      5.561557   -1.971347    2.407084
  H      4.810498   -3.422552    3.063099

 Total Charge           Charge          ....    0
 Multiplicity           Mult            ....    1
 Number of Electrons    NEL             ....  118
 Basis Dimension        Dim             ....  597

ORBITAL ENERGIES
----------------

  NO   OCC          E(Eh)            E(eV)
   0   2.0000     -24.578024      -668.8020
   1   2.0000     -19.008593      -517.2501
   2   2.0000     -14.176357      -385.7583
   3   2.0000     -10.325050      -280.9589
   4   2.0000     -10.157572      -276.4016
   5   2.0000     -10.135580      -275.8032
   6   2.0000     -10.119475      -275.3649
   7   2.0000     -10.118825      -275.3472
   8   2.0000     -10.116724      -275.2901
   9   2.0000     -10.111445      -275.1464
  10   2.0000     -10.106673      -275.0166
  11   2.0000     -10.104946      -274.9696
  12   2.0000     -10.102087      -274.8918
  13   2.0000     -10.098554      -274.7956
  14   2.0000     -10.016277      -272.5568
  15   2.0000      -1.498934       -40.7881
  16   2.0000      -1.230012       -33.4703
  17   2.0000      -1.084063       -29.4988
  18   2.0000      -1.018101       -27.7039
  19   2.0000      -0.988589       -26.9009
  20   2.0000      -0.959324       -26.1045
  21   2.0000      -0.920096       -25.0371
  22   2.0000      -0.887077       -24.1386
  23   2.0000      -0.871755       -23.7217
  24   2.0000      -0.833740       -22.6872
  25   2.0000      -0.814994       -22.1771
  26   2.0000      -0.774401       -21.0725
  27   2.0000      -0.746992       -20.3267
  28   2.0000      -0.728340       -19.8191
  29   2.0000      -0.720729       -19.6120
  30   2.0000      -0.710976       -19.3466
  31   2.0000      -0.703186       -19.1347
  32   2.0000      -0.677493       -18.4355
  33   2.0000      -0.647464       -17.6184
  34   2.0000      -0.636594       -17.3226
  35   2.0000      -0.627123       -17.0649
  36   2.0000      -0.609015       -16.5721
  37   2.0000      -0.599687       -16.3183
  38   2.0000      -0.587611       -15.9897
  39   2.0000      -0.577176       -15.7057
  40   2.0000      -0.568504       -15.4698
  41   2.0000      -0.549463       -14.9517
  42   2.0000      -0.546067       -14.8593
  43   2.0000      -0.533907       -14.5284
  44   2.0000      -0.516807       -14.0630
  45   2.0000      -0.508755       -13.8439
  46   2.0000      -0.504548       -13.7294
  47   2.0000      -0.500327       -13.6146
  48   2.0000      -0.484323       -13.1791
  49   2.0000      -0.478777       -13.0282
  50   2.0000      -0.473681       -12.8895
  51   2.0000      -0.461458       -12.5569
  52   2.0000      -0.452077       -12.3016
  53   2.0000      -0.447187       -12.1686
  54   2.0000      -0.443034       -12.0556
  55   2.0000      -0.437084       -11.8937
  56   2.0000      -0.429877       -11.6975
  57   2.0000      -0.420367       -11.4388
  58   2.0000      -0.289136        -7.8678
  59   0.0000       0.046349         1.2612
  60   0.0000       0.106615         2.9011
  61   0.0000       0.118484         3.2241
  62   0.0000       0.127957         3.4819
  63   0.0000       0.132033         3.5928

MULLIKEN ATOMIC CHARGES
-----------------------
   0 C :   -0.300428
   1 C :   -0.274063
   2 C :   -0.347497
   3 H :    0.192609
   4 H :    0.192470
   5 C :    0.369028
   6 C :    0.022611
   7 N :   -0.421962
   8 C :   -0.403587
   9 H :    0.095599
  10 H :    0.111951
  11 H :    0.235344
  12 H :    0.268828
  13 F :   -0.059824
  14 O :   -0.337885
  15 C :   -0.326618
  16 C :   -0.378587
  17 C :   -0.373917
  18 H :    0.167126
  19 H :    0.187654
  20 H :    0.162711
  21 H :    0.177960
  22 C :   -0.248388
  23 H :    0.152550
  24 H :    0.147936
  25 C :   -0.337424
  26 H :    0.145229
  27 H :    0.146244
  28 C :   -0.251657
  29 H :    0.164852
  30 H :    0.153483
  31 H :    0.179268
  32 H :    0.160021
  33 H :    0.153740
  34 H :    0.151373
  35 H :    0.160433
  36 H :    0.162815
Sum of atomic charges:   -0.0000000

LOEWDIN ATOMIC CHARGES
----------------------
   0 C :   -0.229322
   1 C :   -0.274613
   2 C :   -0.246042
   3 H :    0.155655
   4 H :    0.169618
   5 C :   -0.482412
   6 C :   -0.396924
   7 N :   -0.000035
   8 C :   -0.307928
   9 H :    0.093288
  10 H :    0.108224
  11 H :    0.170570
  12 H :    0.150138
  13 F :    0.361243
  14 O :    0.083501
  15 C :   -0.275767
  16 C :   -0.291470
  17 C :   -0.287907
  18 H :    0.150275
  19 H :    0.149588
  20 H :    0.150592
  21 H :    0.154655
  22 C :   -0.278203
  23 H :    0.140666
  24 H :    0.143111
  25 C :   -0.289979
  26 H :    0.150166
  27 H :    0.145578
  28 C :   -0.284263
  29 H :    0.144211
  30 H :    0.143838
  31 H :    0.142258
  32 H :    0.145826
  33 H :    0.145221
  34 H :    0.145455
  35 H :    0.154941
  36 H :    0.146247

  Mayer bond orders larger than 0.100000
B(  0-C ,  6-C ) :   0.9129 B(  0-C , 15-C ) :   0.9169 B(  0-C , 35-H ) :   0.9914
B(  0-C , 36-H ) :   0.9974 B(  1-C ,  2-C ) :   0.9212 B(  1-C , 17-C ) :   0.9563
B(  1-C , 20-H ) :   0.9750 B(  1-C , 21-H ) :   0.9768 B(  2-C ,  3-H ) :   0.9672
B(  2-C ,  4-H ) :   0.9457 B(  2-C ,  5-C ) :   0.9625 B(  5-C , 13-F ) :   1.1804
B(  5-C , 14-O ) :   1.9497 B(  6-C ,  7-N ) :   1.1760 B(  6-C ,  8-C ) :   1.7714
B(  7-N , 11-H ) :   0.9338 B(  7-N , 12-H ) :   0.8564 B(  8-C ,  9-H ) :   0.9951
B(  8-C , 10-H ) :   1.0004 B( 15-C , 22-C ) :   0.9072 B( 15-C , 23-H ) :   0.9957
B( 15-C , 24-H ) :   0.9751 B( 16-C , 17-C ) :   0.8626 B( 16-C , 28-C ) :   0.9525
B( 16-C , 31-H ) :   0.9757 B( 16-C , 32-H ) :   0.9742 B( 17-C , 18-H ) :   0.9746
B( 17-C , 19-H ) :   0.9686 B( 22-C , 25-C ) :   0.9149 B( 22-C , 26-H ) :   0.9799
B( 22-C , 27-H ) :   0.9671 B( 25-C , 28-C ) :   0.9413 B( 25-C , 29-H ) :   0.9863
B( 25-C , 30-H ) :   0.9808 B( 28-C , 33-H ) :   0.9885 B( 28-C , 34-H ) :   0.9910

FINAL SINGLE POINT ENERGY      -698.333079873779

DIPOLE MOMENT
-------------
                                X             Y             Z
Electronic contribution:      0.05153       6.25508      15.07416
Nuclear contribution   :     -1.39991      -5.60370     -16.00470
                        -----------------------------------------
Total Dipole Moment    :     -1.34838       0.65138      -0.93054
                        -----------------------------------------
Magnitude (a.u.)       :      1.76304
Magnitude (Debye)      :      4.48130

Rotational constants in cm-1:     0.021622     0.017313     0.011402
Rotational constants in MHz :   648.226014   519.043632   341.814105

                             ****ORCA TERMINATED NORMALLY****
TOTAL RUN TIME: 0 days 0 hours 1 minutes 57 seconds 54 msec
