                         Program Version 5.0.0 -  RELEASE  -
|  1> !LC-PBE RIJCOSX def2-TZVP def2/J TightSCF xyzfile
|  2>
|  3> *xyzfile 0 1 D3.xyz
|  4>
|  5> %MaxCore 64000
|  6>
|  7> %pal nprocs 18
|  8> end
|  9>
| 10> %scf
| 11>   MaxIter 150
| 12> end
| 13>
| 14>
| 15>                          ****END OF INPUT****

CARTESIAN COORDINATES (ANGSTROEM)
---------------------------------
  C      4.602954   -2.440100    2.634780
  C     -0.914947    0.615112    2.505538
  C     -0.059146    1.503524    3.410578
  H      0.365364    2.344315    2.861161
  H     -0.692261    1.920207    4.198985
  C      1.083027    0.749640    4.085705
  C      3.860851   -1.591565    3.622893
  C      2.756502   -2.046159    4.166333
  N      4.254325   -0.362905    3.860455
  H      3.565256    0.310994    4.168983
  H      5.054292   -0.016059    3.337838
  H      2.439696   -2.973894    3.897395
  H      2.066869   -1.412532    4.549813
  O      2.228167    1.263475    4.019826
  F      0.810034   -0.345411    4.636269
  C      3.744685   -2.580557    1.361882
  C      0.772139    0.636882    0.562129
  C     -0.130740   -0.193985    1.470763
  H     -0.840563   -0.760165    0.856377
  H      0.466691   -0.938942    2.006959
  H     -1.647961    1.245963    1.991076
  H     -1.478180   -0.081046    3.130424
  C      3.203721   -1.256004    0.826211
  H      2.898939   -3.239289    1.583074
  H      4.334962   -3.095523    0.600188
  C      2.107815   -1.442385   -0.216865
  H      2.786775   -0.672760    1.650711
  H      4.021008   -0.652993    0.414046
  C      1.390662   -0.145912   -0.602422
  H      1.372179   -2.152184    0.176151
  H      2.523302   -1.906787   -1.117115
  H      1.561361    1.100094    1.161831
  H      0.195516    1.468325    0.142758
  H      0.602893   -0.398214   -1.319716
  H      2.087247    0.508272   -1.137335
  H      5.561557   -1.971347    2.407084
  H      4.810498   -3.422552    3.063099

 Total Charge           Charge          ....    0
 Multiplicity           Mult            ....    1
 Number of Electrons    NEL             ....  118
 Basis Dimension        Dim             ....  597

ORBITAL ENERGIES
----------------

  NO   OCC          E(Eh)            E(eV)
   0   2.0000     -24.577305      -668.7825
   1   2.0000     -19.007387      -517.2173
   2   2.0000     -14.173713      -385.6863
   3   2.0000     -10.323638      -280.9205
   4   2.0000     -10.155862      -276.3551
   5   2.0000     -10.137347      -275.8512
   6   2.0000     -10.120572      -275.3948
   7   2.0000     -10.118707      -275.3440
   8   2.0000     -10.113897      -275.2131
   9   2.0000     -10.109800      -275.1016
  10   2.0000     -10.103582      -274.9324
  11   2.0000     -10.102702      -274.9085
  12   2.0000     -10.102019      -274.8899
  13   2.0000     -10.097634      -274.7706
  14   2.0000     -10.015458      -272.5345
  15   2.0000      -1.498595       -40.7788
  16   2.0000      -1.227263       -33.3955
  17   2.0000      -1.082441       -29.4547
  18   2.0000      -1.019293       -27.7364
  19   2.0000      -0.988288       -26.8927
  20   2.0000      -0.958864       -26.0920
  21   2.0000      -0.919190       -25.0124
  22   2.0000      -0.883892       -24.0519
  23   2.0000      -0.863498       -23.4970
  24   2.0000      -0.832907       -22.6646
  25   2.0000      -0.815665       -22.1954
  26   2.0000      -0.777321       -21.1520
  27   2.0000      -0.750913       -20.4334
  28   2.0000      -0.728929       -19.8352
  29   2.0000      -0.724750       -19.7215
  30   2.0000      -0.710932       -19.3454
  31   2.0000      -0.695833       -18.9346
  32   2.0000      -0.670552       -18.2467
  33   2.0000      -0.641739       -17.4626
  34   2.0000      -0.634724       -17.2717
  35   2.0000      -0.627077       -17.0636
  36   2.0000      -0.613468       -16.6933
  37   2.0000      -0.593777       -16.1575
  38   2.0000      -0.588718       -16.0198
  39   2.0000      -0.573665       -15.6102
  40   2.0000      -0.566894       -15.4260
  41   2.0000      -0.549655       -14.9569
  42   2.0000      -0.547204       -14.8902
  43   2.0000      -0.529487       -14.4081
  44   2.0000      -0.522304       -14.2126
  45   2.0000      -0.510968       -13.9041
  46   2.0000      -0.505315       -13.7503
  47   2.0000      -0.498377       -13.5615
  48   2.0000      -0.483557       -13.1583
  49   2.0000      -0.474126       -12.9016
  50   2.0000      -0.471599       -12.8329
  51   2.0000      -0.464581       -12.6419
  52   2.0000      -0.452409       -12.3107
  53   2.0000      -0.445325       -12.1179
  54   2.0000      -0.436722       -11.8838
  55   2.0000      -0.435850       -11.8601
  56   2.0000      -0.428503       -11.6602
  57   2.0000      -0.420224       -11.4349
  58   2.0000      -0.287533        -7.8242
  59   0.0000       0.051088         1.3902
  60   0.0000       0.105408         2.8683
  61   0.0000       0.124557         3.3894
  62   0.0000       0.128155         3.4873
  63   0.0000       0.131523         3.5789

MULLIKEN ATOMIC CHARGES
-----------------------
   0 C :   -0.295755
   1 C :   -0.300335
   2 C :   -0.339771
   3 H :    0.203815
   4 H :    0.188283
   5 C :    0.364530
   6 C :    0.040361
   7 C :   -0.443778
   8 N :   -0.410940
   9 H :    0.264555
  10 H :    0.232833
  11 H :    0.114878
  12 H :    0.110486
  13 O :   -0.346699
  14 F :   -0.057267
  15 C :   -0.311934
  16 C :   -0.390149
  17 C :   -0.359039
  18 H :    0.167882
  19 H :    0.193488
  20 H :    0.164389
  21 H :    0.174789
  22 C :   -0.267355
  23 H :    0.159911
  24 H :    0.140814
  25 C :   -0.344191
  26 H :    0.162614
  27 H :    0.140355
  28 C :   -0.251269
  29 H :    0.166271
  30 H :    0.153143
  31 H :    0.197624
  32 H :    0.158296
  33 H :    0.152785
  34 H :    0.150220
  35 H :    0.144843
  36 H :    0.171317
Sum of atomic charges:    0.0000000

LOEWDIN ATOMIC CHARGES
----------------------
   0 C :   -0.228364
   1 C :   -0.282533
   2 C :   -0.242422
   3 H :    0.165539
   4 H :    0.165170
   5 C :   -0.483434
   6 C :   -0.394014
   7 C :   -0.312412
   8 N :   -0.002374
   9 H :    0.149873
  10 H :    0.168510
  11 H :    0.109616
  12 H :    0.093352
  13 O :    0.079740
  14 F :    0.364437
  15 C :   -0.270635
  16 C :   -0.290650
  17 C :   -0.287659
  18 H :    0.150534
  19 H :    0.150757
  20 H :    0.151421
  21 H :    0.150557
  22 C :   -0.281450
  23 H :    0.146710
  24 H :    0.140137
  25 C :   -0.288839
  26 H :    0.151277
  27 H :    0.142222
  28 C :   -0.284770
  29 H :    0.145197
  30 H :    0.143858
  31 H :    0.146847
  32 H :    0.145449
  33 H :    0.144699
  34 H :    0.145204
  35 H :    0.142309
  36 H :    0.156143

  Mayer bond orders larger than 0.100000
B(  0-C ,  6-C ) :   0.8955 B(  0-C , 15-C ) :   0.9349 B(  0-C , 35-H ) :   1.0019
B(  0-C , 36-H ) :   0.9905 B(  1-C ,  2-C ) :   0.9102 B(  1-C , 17-C ) :   0.9410
B(  1-C , 20-H ) :   0.9734 B(  1-C , 21-H ) :   0.9851 B(  2-C ,  3-H ) :   0.9677
B(  2-C ,  4-H ) :   0.9512 B(  2-C ,  5-C ) :   0.9677 B(  5-C , 13-O ) :   1.9414
B(  5-C , 14-F ) :   1.1798 B(  6-C ,  7-C ) :   1.7244 B(  6-C ,  8-N ) :   1.1887
B(  7-C , 11-H ) :   1.0012 B(  7-C , 12-H ) :   1.0043 B(  8-N ,  9-H ) :   0.8641
B(  8-N , 10-H ) :   0.9326 B(  9-H , 13-O ) :   0.1001 B( 15-C , 22-C ) :   0.9192
B( 15-C , 23-H ) :   0.9836 B( 15-C , 24-H ) :   0.9784 B( 16-C , 17-C ) :   0.8589
B( 16-C , 28-C ) :   0.9497 B( 16-C , 31-H ) :   0.9713 B( 16-C , 32-H ) :   0.9744
B( 17-C , 18-H ) :   0.9744 B( 17-C , 19-H ) :   0.9701 B( 22-C , 25-C ) :   0.9201
B( 22-C , 26-H ) :   0.9677 B( 22-C , 27-H ) :   0.9678 B( 25-C , 28-C ) :   0.9405
B( 25-C , 29-H ) :   0.9864 B( 25-C , 30-H ) :   0.9795 B( 28-C , 33-H ) :   0.9898
B( 28-C , 34-H ) :   0.9911

FINAL SINGLE POINT ENERGY      -698.334212856478

DIPOLE MOMENT
-------------
                                X             Y             Z
Electronic contribution:     -1.25587       4.75862      15.90857
Nuclear contribution   :      0.05905      -3.94566     -16.70013
                        -----------------------------------------
Total Dipole Moment    :     -1.19682       0.81296      -0.79156
                        -----------------------------------------
Magnitude (a.u.)       :      1.64920
Magnitude (Debye)      :      4.19193

Rotational constants in cm-1:     0.021602     0.017295     0.011353
Rotational constants in MHz :   647.614981   518.478934   340.359556

                             ****ORCA TERMINATED NORMALLY****
TOTAL RUN TIME: 0 days 0 hours 1 minutes 34 seconds 716 msec
