                         Program Version 5.0.0 -  RELEASE  -
|  1> !LC-PBE RIJCOSX def2-TZVP def2/J TightSCF xyzfile
|  2>
|  3> *xyzfile 0 1 D4.xyz
|  4>
|  5> %MaxCore 64000
|  6>
|  7> %pal nprocs 18
|  8> end
|  9>
| 10> %scf
| 11>   MaxIter 150
| 12> end
| 13>
| 14>
| 15>                          ****END OF INPUT****

CARTESIAN COORDINATES (ANGSTROEM)
---------------------------------
  C      4.602954   -2.440100    2.634780
  C     -0.914947    0.615112    2.505538
  C     -0.059146    1.503524    3.410578
  H      0.365364    2.344315    2.861161
  H     -0.692261    1.920207    4.198985
  C      1.083027    0.749640    4.085705
  C      3.860851   -1.591565    3.622893
  N      2.756502   -2.046159    4.166333
  C      4.254325   -0.362905    3.860455
  H      3.565256    0.310994    4.168983
  H      5.054292   -0.016059    3.337838
  H      2.439696   -2.973894    3.897395
  H      2.066869   -1.412532    4.549813
  O      2.228167    1.263475    4.019826
  F      0.810034   -0.345411    4.636269
  C      3.744685   -2.580557    1.361882
  C      0.772139    0.636882    0.562129
  C     -0.130740   -0.193985    1.470763
  H     -0.840563   -0.760165    0.856377
  H      0.466691   -0.938942    2.006959
  H     -1.647961    1.245963    1.991076
  H     -1.478180   -0.081046    3.130424
  C      3.203721   -1.256004    0.826211
  H      2.898939   -3.239289    1.583074
  H      4.334962   -3.095523    0.600188
  C      2.107815   -1.442385   -0.216865
  H      2.786775   -0.672760    1.650711
  H      4.021008   -0.652993    0.414046
  C      1.390662   -0.145912   -0.602422
  H      1.372179   -2.152184    0.176151
  H      2.523302   -1.906787   -1.117115
  H      1.561361    1.100094    1.161831
  H      0.195516    1.468325    0.142758
  H      0.602893   -0.398214   -1.319716
  H      2.087247    0.508272   -1.137335
  H      5.561557   -1.971347    2.407084
  H      4.810498   -3.422552    3.063099

 Total Charge           Charge          ....    0
 Multiplicity           Mult            ....    1
 Number of Electrons    NEL             ....  118
 Basis Dimension        Dim             ....  597

ORBITAL ENERGIES
----------------

  NO   OCC          E(Eh)            E(eV)
   0   2.0000     -24.589713      -669.1201
   1   2.0000     -18.998858      -516.9852
   2   2.0000     -14.189088      -386.1047
   3   2.0000     -10.319180      -280.7992
   4   2.0000     -10.155400      -276.3425
   5   2.0000     -10.138570      -275.8845
   6   2.0000     -10.123402      -275.4718
   7   2.0000     -10.113936      -275.2142
   8   2.0000     -10.113312      -275.1972
   9   2.0000     -10.109690      -275.0986
  10   2.0000     -10.105000      -274.9710
  11   2.0000     -10.103683      -274.9352
  12   2.0000     -10.100150      -274.8390
  13   2.0000     -10.095664      -274.7170
  14   2.0000     -10.005811      -272.2720
  15   2.0000      -1.509471       -41.0748
  16   2.0000      -1.220028       -33.1987
  17   2.0000      -1.090214       -29.6662
  18   2.0000      -1.020137       -27.7593
  19   2.0000      -0.988182       -26.8898
  20   2.0000      -0.959174       -26.1005
  21   2.0000      -0.917918       -24.9778
  22   2.0000      -0.888565       -24.1791
  23   2.0000      -0.861717       -23.4485
  24   2.0000      -0.844113       -22.9695
  25   2.0000      -0.813815       -22.1450
  26   2.0000      -0.777725       -21.1630
  27   2.0000      -0.747513       -20.3409
  28   2.0000      -0.740790       -20.1579
  29   2.0000      -0.730823       -19.8867
  30   2.0000      -0.710628       -19.3372
  31   2.0000      -0.694846       -18.9077
  32   2.0000      -0.671191       -18.2640
  33   2.0000      -0.648764       -17.6538
  34   2.0000      -0.636970       -17.3328
  35   2.0000      -0.631739       -17.1905
  36   2.0000      -0.606547       -16.5050
  37   2.0000      -0.592325       -16.1180
  38   2.0000      -0.584954       -15.9174
  39   2.0000      -0.579157       -15.7597
  40   2.0000      -0.564000       -15.3472
  41   2.0000      -0.554721       -15.0947
  42   2.0000      -0.547960       -14.9108
  43   2.0000      -0.528102       -14.3704
  44   2.0000      -0.518611       -14.1121
  45   2.0000      -0.510335       -13.8869
  46   2.0000      -0.507302       -13.8044
  47   2.0000      -0.494932       -13.4678
  48   2.0000      -0.488056       -13.2807
  49   2.0000      -0.479121       -13.0375
  50   2.0000      -0.475819       -12.9477
  51   2.0000      -0.460764       -12.5380
  52   2.0000      -0.452264       -12.3067
  53   2.0000      -0.448908       -12.2154
  54   2.0000      -0.436357       -11.8739
  55   2.0000      -0.434385       -11.8202
  56   2.0000      -0.428260       -11.6536
  57   2.0000      -0.398631       -10.8473
  58   2.0000      -0.287267        -7.8169
  59   0.0000       0.052994         1.4420
  60   0.0000       0.102081         2.7778
  61   0.0000       0.116599         3.1728
  62   0.0000       0.126635         3.4459
  63   0.0000       0.133843         3.6421

MULLIKEN ATOMIC CHARGES
-----------------------
   0 C :   -0.302462
   1 C :   -0.302197
   2 C :   -0.338537
   3 H :    0.206447
   4 H :    0.186591
   5 C :    0.342559
   6 C :    0.016237
   7 N :   -0.436664
   8 C :   -0.394398
   9 H :    0.147357
  10 H :    0.104409
  11 H :    0.241972
  12 H :    0.242833
  13 O :   -0.290451
  14 F :   -0.094900
  15 C :   -0.319575
  16 C :   -0.390705
  17 C :   -0.348412
  18 H :    0.168523
  19 H :    0.166449
  20 H :    0.165032
  21 H :    0.172104
  22 C :   -0.268466
  23 H :    0.147934
  24 H :    0.148149
  25 C :   -0.333481
  26 H :    0.164667
  27 H :    0.146865
  28 C :   -0.252343
  29 H :    0.160489
  30 H :    0.153198
  31 H :    0.206241
  32 H :    0.158652
  33 H :    0.151802
  34 H :    0.152283
  35 H :    0.162057
  36 H :    0.159741
Sum of atomic charges:    0.0000000

LOEWDIN ATOMIC CHARGES
----------------------
   0 C :   -0.231733
   1 C :   -0.284287
   2 C :   -0.243726
   3 H :    0.166828
   4 H :    0.164340
   5 C :   -0.495672
   6 C :   -0.403964
   7 N :   -0.012572
   8 C :   -0.283876
   9 H :    0.094965
  10 H :    0.108042
  11 H :    0.171615
  12 H :    0.154708
  13 O :    0.106881
  14 F :    0.348727
  15 C :   -0.277419
  16 C :   -0.289875
  17 C :   -0.288962
  18 H :    0.150360
  19 H :    0.144667
  20 H :    0.151669
  21 H :    0.148876
  22 C :   -0.277399
  23 H :    0.138736
  24 H :    0.142887
  25 C :   -0.290762
  26 H :    0.152798
  27 H :    0.146453
  28 C :   -0.284457
  29 H :    0.142657
  30 H :    0.143636
  31 H :    0.149275
  32 H :    0.145812
  33 H :    0.144308
  34 H :    0.146120
  35 H :    0.155872
  36 H :    0.144473

  Mayer bond orders larger than 0.100000
B(  0-C ,  6-C ) :   0.9153 B(  0-C , 15-C ) :   0.9161 B(  0-C , 35-H ) :   0.9908
B(  0-C , 36-H ) :   0.9990 B(  1-C ,  2-C ) :   0.9070 B(  1-C , 17-C ) :   0.9396
B(  1-C , 20-H ) :   0.9728 B(  1-C , 21-H ) :   0.9875 B(  2-C ,  3-H ) :   0.9673
B(  2-C ,  4-H ) :   0.9518 B(  2-C ,  5-C ) :   0.9706 B(  5-C , 13-O ) :   2.0200
B(  5-C , 14-F ) :   1.1161 B(  6-C ,  7-N ) :   1.1289 B(  6-C ,  8-C ) :   1.7933
B(  7-N , 11-H ) :   0.9319 B(  7-N , 12-H ) :   0.8993 B(  8-C ,  9-H ) :   0.9775
B(  8-C , 10-H ) :   1.0004 B( 15-C , 22-C ) :   0.8977 B( 15-C , 23-H ) :   0.9987
B( 15-C , 24-H ) :   0.9751 B( 16-C , 17-C ) :   0.8610 B( 16-C , 28-C ) :   0.9502
B( 16-C , 31-H ) :   0.9685 B( 16-C , 32-H ) :   0.9742 B( 17-C , 18-H ) :   0.9739
B( 17-C , 19-H ) :   0.9754 B( 22-C , 25-C ) :   0.9084 B( 22-C , 26-H ) :   0.9832
B( 22-C , 27-H ) :   0.9675 B( 25-C , 28-C ) :   0.9418 B( 25-C , 29-H ) :   0.9881
B( 25-C , 30-H ) :   0.9805 B( 28-C , 33-H ) :   0.9896 B( 28-C , 34-H ) :   0.9902

FINAL SINGLE POINT ENERGY      -698.321395400388

DIPOLE MOMENT
-------------
                                X             Y             Z
Electronic contribution:     -2.32078       3.57651      16.16123
Nuclear contribution   :      0.32481      -3.64700     -16.75441
                        -----------------------------------------
Total Dipole Moment    :     -1.99598      -0.07049      -0.59317
                        -----------------------------------------
Magnitude (a.u.)       :      2.08345
Magnitude (Debye)      :      5.29570

Rotational constants in cm-1:     0.021629     0.017327     0.011372
Rotational constants in MHz :   648.414821   519.443407   340.925013

                             ****ORCA TERMINATED NORMALLY****
TOTAL RUN TIME: 0 days 0 hours 1 minutes 40 seconds 303 msec
