                         Program Version 5.0.0 -  RELEASE  -
|  1> !LC-PBE RIJCOSX def2-TZVPD def2/J TightSCF
|  2> *xyz -1 1
|  3> C         -0.91495        0.61511        2.50554
|  4> C         -0.05915        1.50352        3.41058
|  5> H          0.36536        2.34431        2.86116
|  6> H         -0.69226        1.92021        4.19898
|  7> C          1.08303        0.74964        4.08571
|  8> O          2.22817        1.26348        4.01983
|  9> O          0.81003       -0.34541        4.63627
| 10> H         -0.30401        0.20228        1.73015
| 11> H         -1.69811        1.19946        2.06954
| 12> H         -1.34124       -0.17772        3.08397
| 13> *
| 14>
| 15> %MaxCore 64000
| 16>
| 17> %pal nprocs 4
| 18> end
| 19>
| 20> %scf
| 21>   MaxIter 150
| 22> end
| 23>
| 24>
| 25>                          ****END OF INPUT****

CARTESIAN COORDINATES (ANGSTROEM)
---------------------------------
  C     -0.914950    0.615110    2.505540
  C     -0.059150    1.503520    3.410580
  H      0.365360    2.344310    2.861160
  H     -0.692260    1.920210    4.198980
  C      1.083030    0.749640    4.085710
  O      2.228170    1.263480    4.019830
  O      0.810030   -0.345410    4.636270
  H     -0.304010    0.202280    1.730150
  H     -1.698110    1.199460    2.069540
  H     -1.341240   -0.177720    3.083970

 Total Charge           Charge          ....   -1
 Multiplicity           Mult            ....    1
 Number of Electrons    NEL             ....   40
 Basis Dimension        Dim             ....  236

ORBITAL ENERGIES
----------------

  NO   OCC          E(Eh)            E(eV)
   0   2.0000     -18.708774      -509.0916
   1   2.0000     -18.708191      -509.0758
   2   2.0000     -10.001721      -272.1607
   3   2.0000      -9.949426      -270.7376
   4   2.0000      -9.941312      -270.5169
   5   2.0000      -0.988029       -26.8856
   6   2.0000      -0.885347       -24.0915
   7   2.0000      -0.783581       -21.3223
   8   2.0000      -0.639942       -17.4137
   9   2.0000      -0.471067       -12.8184
  10   2.0000      -0.439693       -11.9646
  11   2.0000      -0.404644       -11.0109
  12   2.0000      -0.374473       -10.1899
  13   2.0000      -0.354387        -9.6434
  14   2.0000      -0.346525        -9.4294
  15   2.0000      -0.313712        -8.5365
  16   2.0000      -0.297520        -8.0959
  17   2.0000      -0.176945        -4.8149
  18   2.0000      -0.172346        -4.6898
  19   2.0000      -0.162323        -4.4170
  20   0.0000       0.188072         5.1177
  21   0.0000       0.208613         5.6767
  22   0.0000       0.214964         5.8495
  23   0.0000       0.231368         6.2958
  24   0.0000       0.254571         6.9272

MULLIKEN ATOMIC CHARGES
-----------------------
   0 C :   -1.112404
   1 C :   -0.365908
   2 H :    0.281845
   3 H :    0.265108
   4 C :    0.354293
   5 O :   -0.708798
   6 O :   -0.692350
   7 H :    0.329817
   8 H :    0.336576
   9 H :    0.311822
Sum of atomic charges:   -1.0000000

LOEWDIN ATOMIC CHARGES
----------------------
   0 C :   -0.153492
   1 C :   -0.229795
   2 H :    0.098054
   3 H :    0.106356
   4 C :   -0.793878
   5 O :   -0.110712
   6 O :   -0.102581
   7 H :    0.070498
   8 H :    0.052117
   9 H :    0.063434

  Mayer bond orders larger than 0.100000
B(  0-C ,  1-C ) :   0.5415 B(  0-C ,  7-H ) :   0.9392 B(  0-C ,  8-H ) :   0.9146
B(  0-C ,  9-H ) :   0.9895 B(  1-C ,  2-H ) :   0.9708 B(  1-C ,  3-H ) :   0.9376
B(  1-C ,  4-C ) :   0.9625 B(  4-C ,  5-O ) :   1.4668 B(  4-C ,  6-O ) :   1.4819

FINAL SINGLE POINT ENERGY      -267.158078319907

DIPOLE MOMENT
-------------
                                X             Y             Z
Electronic contribution:      4.66009      -0.96919       3.32115
Nuclear contribution   :     -6.38408       1.63097      -4.40540
                        -----------------------------------------
Total Dipole Moment    :     -1.72399       0.66178      -1.08425
                        -----------------------------------------
Magnitude (a.u.)       :      2.14142
Magnitude (Debye)      :      5.44306

Rotational constants in cm-1:     0.319732     0.134414     0.104753
Rotational constants in MHz :  9585.336550  4029.633034  3140.404334

                             ****ORCA TERMINATED NORMALLY****
TOTAL RUN TIME: 0 days 0 hours 0 minutes 31 seconds 572 msec
