                         Program Version 5.0.0 -  RELEASE  -
|  1> !LC-PBE RIJCOSX def2-TZVPD def2/J TightSCF
|  2> *xyz 1 1
|  3> C          4.60295       -2.44010        2.63478
|  4> C          3.86085       -1.59157        3.62289
|  5> N          2.75650       -2.04616        4.16633
|  6> N          4.25433       -0.36291        3.86046
|  7> H          3.56526        0.31099        4.16898
|  8> H          5.05429       -0.01606        3.33784
|  9> H          2.43970       -2.97389        3.89740
| 10> H          2.06687       -1.41253        4.54981
| 11> C          3.74469       -2.58056        1.36188
| 12> H          5.56156       -1.97135        2.40708
| 13> H          4.81050       -3.42255        3.06310
| 14> H          4.26314       -3.18477        0.64702
| 15> H          3.56325       -1.61180        0.94535
| 16> H          2.81197       -3.04259        1.60980
| 17> *
| 18>
| 19> %MaxCore 64000
| 20>
| 21> %pal nprocs 4
| 22> end
| 23>
| 24> %scf
| 25>   MaxIter 150
| 26> end
| 27>
| 28>
| 29>                          ****END OF INPUT****

CARTESIAN COORDINATES (ANGSTROEM)
---------------------------------
  C      4.602950   -2.440100    2.634780
  C      3.860850   -1.591570    3.622890
  N      2.756500   -2.046160    4.166330
  N      4.254330   -0.362910    3.860460
  H      3.565260    0.310990    4.168980
  H      5.054290   -0.016060    3.337840
  H      2.439700   -2.973890    3.897400
  H      2.066870   -1.412530    4.549810
  C      3.744690   -2.580560    1.361880
  H      5.561560   -1.971350    2.407080
  H      4.810500   -3.422550    3.063100
  H      4.263140   -3.184770    0.647020
  H      3.563250   -1.611800    0.945350
  H      2.811970   -3.042590    1.609800

 Total Charge           Charge          ....    1
 Multiplicity           Mult            ....    1
 Number of Electrons    NEL             ....   40
 Basis Dimension        Dim             ....  266

ORBITAL ENERGIES
----------------

  NO   OCC          E(Eh)            E(eV)
   0   2.0000     -14.460152      -393.4807
   1   2.0000     -14.459257      -393.4564
   2   2.0000     -10.447878      -284.3012
   3   2.0000     -10.318899      -280.7915
   4   2.0000     -10.274480      -279.5828
   5   2.0000      -1.388031       -37.7703
   6   2.0000      -1.280416       -34.8419
   7   2.0000      -1.150715       -31.3125
   8   2.0000      -1.024901       -27.8890
   9   2.0000      -0.975438       -26.5430
  10   2.0000      -0.921959       -25.0878
  11   2.0000      -0.904416       -24.6104
  12   2.0000      -0.836618       -22.7655
  13   2.0000      -0.815684       -22.1959
  14   2.0000      -0.769572       -20.9411
  15   2.0000      -0.744408       -20.2564
  16   2.0000      -0.684220       -18.6186
  17   2.0000      -0.676673       -18.4132
  18   2.0000      -0.662406       -18.0250
  19   2.0000      -0.626911       -17.0591
  20   0.0000      -0.125319        -3.4101
  21   0.0000      -0.093377        -2.5409
  22   0.0000      -0.056579        -1.5396
  23   0.0000      -0.052238        -1.4215
  24   0.0000      -0.036857        -1.0029

MULLIKEN ATOMIC CHARGES
-----------------------
   0 C :   -0.800265
   1 C :    0.774495
   2 N :   -0.411485
   3 N :   -0.407629
   4 H :    0.270523
   5 H :    0.278948
   6 H :    0.288373
   7 H :    0.248134
   8 C :   -1.099369
   9 H :    0.383401
  10 H :    0.361874
  11 H :    0.361006
  12 H :    0.363102
  13 H :    0.388895
Sum of atomic charges:    1.0000000

LOEWDIN ATOMIC CHARGES
----------------------
   0 C :   -0.157150
   1 C :   -0.374496
   2 N :    0.219460
   3 N :    0.221294
   4 H :    0.154134
   5 H :    0.155583
   6 H :    0.155107
   7 H :    0.156062
   8 C :   -0.075239
   9 H :    0.133507
  10 H :    0.143755
  11 H :    0.095132
  12 H :    0.093091
  13 H :    0.079759

  Mayer bond orders larger than 0.100000
B(  0-C ,  1-C ) :   0.7522 B(  0-C ,  8-C ) :   0.6068 B(  0-C ,  9-H ) :   0.8705
B(  0-C , 10-H ) :   0.9638 B(  1-C ,  2-N ) :   1.1137 B(  1-C ,  3-N ) :   1.1646
B(  2-N ,  6-H ) :   0.9116 B(  2-N ,  7-H ) :   0.9894 B(  3-N ,  4-H ) :   0.9530
B(  3-N ,  5-H ) :   0.9209 B(  8-C , 11-H ) :   0.9574 B(  8-C , 12-H ) :   0.9435
B(  8-C , 13-H ) :   0.8554

FINAL SINGLE POINT ENERGY      -228.364660632795

DIPOLE MOMENT
-------------
                                X             Y             Z
Electronic contribution:     -0.23574       1.78849       3.72095
Nuclear contribution   :     -0.22400      -1.16268      -3.30447
                        -----------------------------------------
Total Dipole Moment    :     -0.45974       0.62581       0.41648
                        -----------------------------------------
Magnitude (a.u.)       :      0.88117
Magnitude (Debye)      :      2.23975

Rotational constants in cm-1:     0.258103     0.130571     0.102508
Rotational constants in MHz :  7737.732062  3914.431392  3073.119154

                             ****ORCA TERMINATED NORMALLY****
TOTAL RUN TIME: 0 days 0 hours 0 minutes 44 seconds 762 msec
