                         Program Version 5.0.0 -  RELEASE  -
|  1> !LC-PBE RIJCOSX def2-TZVPD def2/J TightSCF xyzfile
|  2>
|  3> *xyzfile 0 1 B.xyz
|  4>
|  5> %MaxCore 64000
|  6>
|  7> %pal nprocs 4
|  8> end
|  9>
| 10> %scf
| 11>   MaxIter 150
| 12> end
| 13>
| 14>
| 15>                          ****END OF INPUT****

CARTESIAN COORDINATES (ANGSTROEM)
---------------------------------
  C      4.602954   -2.440100    2.634780
  C     -0.914947    0.615112    2.505538
  C     -0.059146    1.503524    3.410578
  H      0.365364    2.344315    2.861161
  H     -0.692261    1.920207    4.198985
  C      1.083027    0.749640    4.085705
  C      3.860851   -1.591565    3.622893
  N      2.756502   -2.046159    4.166333
  N      4.254325   -0.362905    3.860455
  H      3.565256    0.310994    4.168983
  H      5.054292   -0.016059    3.337838
  H      2.439696   -2.973894    3.897395
  H      2.066869   -1.412532    4.549813
  O      2.228167    1.263475    4.019826
  O      0.810034   -0.345411    4.636269
  C      3.744685   -2.580557    1.361882
  C      0.772139    0.636882    0.562129
  C     -0.130740   -0.193985    1.470763
  H     -0.840563   -0.760165    0.856377
  H      0.466691   -0.938942    2.006959
  H     -1.647961    1.245963    1.991076
  H     -1.478180   -0.081046    3.130424
  C      3.203721   -1.256004    0.826211
  H      2.898939   -3.239289    1.583074
  H      4.334962   -3.095523    0.600188
  C      2.107815   -1.442385   -0.216865
  H      2.786775   -0.672760    1.650711
  H      4.021008   -0.652993    0.414046
  C      1.390662   -0.145912   -0.602422
  H      1.372179   -2.152184    0.176151
  H      2.523302   -1.906787   -1.117115
  H      1.561361    1.100094    1.161831
  H      0.195516    1.468325    0.142758
  H      0.602893   -0.398214   -1.319716
  H      2.087247    0.508272   -1.137335
  H      5.561557   -1.971347    2.407084
  H      4.810498   -3.422552    3.063099

 Total Charge           Charge          ....    0
 Multiplicity           Mult            ....    1
 Number of Electrons    NEL             ....  118
 Basis Dimension        Dim             ....  759

ORBITAL ENERGIES
----------------

  NO   OCC          E(Eh)            E(eV)
   0   2.0000     -18.899417      -514.2793
   1   2.0000     -18.897272      -514.2209
   2   2.0000     -14.255751      -387.9187
   3   2.0000     -14.255540      -387.9130
   4   2.0000     -10.262177      -279.2480
   5   2.0000     -10.184497      -277.1343
   6   2.0000     -10.168938      -276.7109
   7   2.0000     -10.149541      -276.1830
   8   2.0000     -10.124513      -275.5020
   9   2.0000     -10.115553      -275.2582
  10   2.0000     -10.107477      -275.0384
  11   2.0000     -10.096474      -274.7390
  12   2.0000     -10.093320      -274.6532
  13   2.0000     -10.089861      -274.5591
  14   2.0000     -10.081220      -274.3239
  15   2.0000      -1.199492       -32.6398
  16   2.0000      -1.178422       -32.0665
  17   2.0000      -1.092532       -29.7293
  18   2.0000      -1.073314       -29.2064
  19   2.0000      -1.021167       -27.7874
  20   2.0000      -0.985917       -26.8282
  21   2.0000      -0.953360       -25.9422
  22   2.0000      -0.908548       -24.7228
  23   2.0000      -0.866711       -23.5844
  24   2.0000      -0.822790       -22.3893
  25   2.0000      -0.804734       -21.8979
  26   2.0000      -0.779811       -21.2197
  27   2.0000      -0.746404       -20.3107
  28   2.0000      -0.732587       -19.9347
  29   2.0000      -0.723237       -19.6803
  30   2.0000      -0.702567       -19.1178
  31   2.0000      -0.665025       -18.0963
  32   2.0000      -0.648002       -17.6330
  33   2.0000      -0.633268       -17.2321
  34   2.0000      -0.624611       -16.9965
  35   2.0000      -0.611293       -16.6341
  36   2.0000      -0.601963       -16.3803
  37   2.0000      -0.588175       -16.0051
  38   2.0000      -0.577304       -15.7092
  39   2.0000      -0.561743       -15.2858
  40   2.0000      -0.556173       -15.1342
  41   2.0000      -0.547829       -14.9072
  42   2.0000      -0.541720       -14.7410
  43   2.0000      -0.535708       -14.5774
  44   2.0000      -0.514113       -13.9897
  45   2.0000      -0.506614       -13.7857
  46   2.0000      -0.499735       -13.5985
  47   2.0000      -0.495986       -13.4965
  48   2.0000      -0.481841       -13.1116
  49   2.0000      -0.464027       -12.6268
  50   2.0000      -0.459023       -12.4907
  51   2.0000      -0.451782       -12.2936
  52   2.0000      -0.436262       -11.8713
  53   2.0000      -0.430053       -11.7023
  54   2.0000      -0.427705       -11.6384
  55   2.0000      -0.419333       -11.4106
  56   2.0000      -0.367055        -9.9881
  57   2.0000      -0.356371        -9.6973
  58   2.0000      -0.354951        -9.6587
  59   0.0000       0.041104         1.1185
  60   0.0000       0.057445         1.5631
  61   0.0000       0.061733         1.6798
  62   0.0000       0.068443         1.8624
  63   0.0000       0.074961         2.0398

MULLIKEN ATOMIC CHARGES
-----------------------
   0 C :   -0.889550
   1 C :   -0.866471
   2 C :   -0.633919
   3 H :    0.353146
   4 H :    0.381570
   5 C :    0.622178
   6 C :    0.196340
   7 N :   -0.264204
   8 N :   -0.320709
   9 H :    0.371715
  10 H :    0.229252
  11 H :    0.248755
  12 H :    0.322356
  13 O :   -0.839754
  14 O :   -0.839392
  15 C :   -0.814483
  16 C :   -0.656598
  17 C :   -0.580508
  18 H :    0.387713
  19 H :    0.304235
  20 H :    0.383322
  21 H :    0.357548
  22 C :    0.045511
  23 H :    0.384131
  24 H :    0.429786
  25 C :   -0.897423
  26 H :    0.077370
  27 H :    0.299324
  28 C :   -0.894915
  29 H :    0.425968
  30 H :    0.404862
  31 H :    0.371292
  32 H :    0.364192
  33 H :    0.396327
  34 H :    0.369965
  35 H :    0.395942
  36 H :    0.375127
Sum of atomic charges:   -0.0000000

LOEWDIN ATOMIC CHARGES
----------------------
   0 C :   -0.127149
   1 C :   -0.222533
   2 C :   -0.142919
   3 H :    0.116601
   4 H :    0.127691
   5 C :   -0.669934
   6 C :   -0.399831
   7 N :    0.227291
   8 N :    0.212698
   9 H :    0.055811
  10 H :    0.143080
  11 H :    0.145085
  12 H :    0.055080
  13 O :   -0.050872
  14 O :   -0.047155
  15 C :   -0.205140
  16 C :   -0.231096
  17 C :   -0.231055
  18 H :    0.126046
  19 H :    0.108737
  20 H :    0.118229
  21 H :    0.117985
  22 C :   -0.227839
  23 H :    0.119449
  24 H :    0.127711
  25 C :   -0.234938
  26 H :    0.099176
  27 H :    0.138204
  28 C :   -0.227534
  29 H :    0.117601
  30 H :    0.122930
  31 H :    0.113938
  32 H :    0.126181
  33 H :    0.118467
  34 H :    0.118674
  35 H :    0.128043
  36 H :    0.133285

  Mayer bond orders larger than 0.100000
B(  0-C ,  6-C ) :   0.6450 B(  0-C , 15-C ) :   0.6689 B(  0-C , 35-H ) :   0.9241
B(  0-C , 36-H ) :   1.0406 B(  1-C ,  2-C ) :   0.7502 B(  1-C , 17-C ) :   0.8224
B(  1-C , 20-H ) :   0.9071 B(  1-C , 21-H ) :   0.9144 B(  2-C ,  3-H ) :   0.9813
B(  2-C ,  4-H ) :   0.8524 B(  2-C ,  5-C ) :   0.8953 B(  2-C , 16-C ) :   0.1074
B(  2-C , 17-C ) :  -0.1078 B(  5-C , 13-O ) :   1.2139 B(  5-C , 14-O ) :   1.2082
B(  6-C ,  7-N ) :   1.1901 B(  6-C ,  8-N ) :   1.3068 B(  6-C , 13-O ) :   0.1043
B(  7-N , 11-H ) :   0.9492 B(  7-N , 12-H ) :   0.7321 B(  7-N , 14-O ) :  -0.1309
B(  8-N ,  9-H ) :   0.7655 B(  8-N , 10-H ) :   0.9476 B(  8-N , 13-O ) :  -0.1131
B( 13-O , 14-O ) :   0.1315 B( 15-C , 22-C ) :   0.5015 B( 15-C , 23-H ) :   0.8960
B( 15-C , 24-H ) :   0.8730 B( 15-C , 25-C ) :   0.2251 B( 16-C , 17-C ) :   0.4194
B( 16-C , 19-H ) :  -0.1192 B( 16-C , 25-C ) :  -0.1036 B( 16-C , 28-C ) :   0.7705
B( 16-C , 31-H ) :   1.0103 B( 16-C , 32-H ) :   0.8806 B( 17-C , 18-H ) :   0.8810
B( 17-C , 19-H ) :   1.0822 B( 22-C , 25-C ) :   0.5017 B( 22-C , 26-H ) :   1.0103
B( 22-C , 27-H ) :   0.8872 B( 25-C , 28-C ) :   0.8191 B( 25-C , 29-H ) :   0.8919
B( 25-C , 30-H ) :   0.8776 B( 26-H , 27-H ) :   0.1894 B( 28-C , 33-H ) :   0.9339
B( 28-C , 34-H ) :   0.9331

FINAL SINGLE POINT ENERGY      -690.470920510424

DIPOLE MOMENT
-------------
                                X             Y             Z
Electronic contribution:      3.44380       1.58308      12.92902
Nuclear contribution   :     -1.50655      -3.48027     -14.35034
                        -----------------------------------------
Total Dipole Moment    :      1.93725      -1.89720      -1.42132
                        -----------------------------------------
Magnitude (a.u.)       :      3.06144
Magnitude (Debye)      :      7.78157

Rotational constants in cm-1:     0.021781     0.017296     0.011403
Rotational constants in MHz :   652.971749   518.510612   341.853154

                             ****ORCA TERMINATED NORMALLY****
TOTAL RUN TIME: 0 days 0 hours 9 minutes 15 seconds 50 msec
