                         Program Version 5.0.0 -  RELEASE  -
|  1> !LC-PBE RIJCOSX def2-TZVPD def2/J TightSCF
|  2> *xyz 0 1
|  3> C         -0.91495        0.61511        2.50554
|  4> C         -0.05915        1.50352        3.41058
|  5> H          0.36536        2.34431        2.86116
|  6> H         -0.69226        1.92021        4.19898
|  7> C          1.08303        0.74964        4.08571
|  8> F          2.22817        1.26348        4.01983
|  9> O          0.81003       -0.34541        4.63627
| 10> H         -0.30401        0.20228        1.73015
| 11> H         -1.69811        1.19946        2.06954
| 12> H         -1.34124       -0.17772        3.08397
| 13> *
| 14>
| 15> %MaxCore 64000
| 16>
| 17> %pal nprocs 4
| 18> end
| 19>
| 20> %scf
| 21>   MaxIter 150
| 22> end
| 23>
| 24>
| 25>                          ****END OF INPUT****

CARTESIAN COORDINATES (ANGSTROEM)
---------------------------------
  C     -0.914950    0.615110    2.505540
  C     -0.059150    1.503520    3.410580
  H      0.365360    2.344310    2.861160
  H     -0.692260    1.920210    4.198980
  C      1.083030    0.749640    4.085710
  F      2.228170    1.263480    4.019830
  O      0.810030   -0.345410    4.636270
  H     -0.304010    0.202280    1.730150
  H     -1.698110    1.199460    2.069540
  H     -1.341240   -0.177720    3.083970

 Total Charge           Charge          ....    0
 Multiplicity           Mult            ....    1
 Number of Electrons    NEL             ....   40
 Basis Dimension        Dim             ....  236

ORBITAL ENERGIES
----------------

  NO   OCC          E(Eh)            E(eV)
   0   2.0000     -24.562549      -668.3809
   1   2.0000     -18.985320      -516.6168
   2   2.0000     -10.302958      -280.3577
   3   2.0000     -10.150156      -276.1998
   4   2.0000     -10.117310      -275.3060
   5   2.0000      -1.478584       -40.2343
   6   2.0000      -1.200736       -32.6737
   7   2.0000      -0.981082       -26.6966
   8   2.0000      -0.857299       -23.3283
   9   2.0000      -0.797333       -21.6965
  10   2.0000      -0.707293       -19.2464
  11   2.0000      -0.690746       -18.7961
  12   2.0000      -0.661084       -17.9890
  13   2.0000      -0.612409       -16.6645
  14   2.0000      -0.578285       -15.7359
  15   2.0000      -0.536513       -14.5993
  16   2.0000      -0.513856       -13.9827
  17   2.0000      -0.508863       -13.8469
  18   2.0000      -0.482408       -13.1270
  19   2.0000      -0.432392       -11.7660
  20   0.0000       0.055569         1.5121
  21   0.0000       0.068333         1.8594
  22   0.0000       0.083802         2.2804
  23   0.0000       0.089189         2.4270
  24   0.0000       0.101139         2.7521

MULLIKEN ATOMIC CHARGES
-----------------------
   0 C :   -1.190071
   1 C :   -0.430107
   2 H :    0.342123
   3 H :    0.318802
   4 C :    0.514179
   5 F :   -0.166807
   6 O :   -0.467503
   7 H :    0.368193
   8 H :    0.355655
   9 H :    0.355535
Sum of atomic charges:    0.0000000

LOEWDIN ATOMIC CHARGES
----------------------
   0 C :   -0.111104
   1 C :   -0.176309
   2 H :    0.118088
   3 H :    0.132018
   4 C :   -0.501374
   5 F :    0.216331
   6 O :    0.081218
   7 H :    0.083575
   8 H :    0.077387
   9 H :    0.080169

  Mayer bond orders larger than 0.100000
B(  0-C ,  1-C ) :   0.6230 B(  0-C ,  7-H ) :   0.8988 B(  0-C ,  8-H ) :   0.9184
B(  0-C ,  9-H ) :   0.9548 B(  1-C ,  2-H ) :   0.9064 B(  1-C ,  3-H ) :   0.9143
B(  1-C ,  4-C ) :   0.9322 B(  4-C ,  5-F ) :   1.0409 B(  4-C ,  6-O ) :   1.7420

FINAL SINGLE POINT ENERGY      -291.697510843930

DIPOLE MOMENT
-------------
                                X             Y             Z
Electronic contribution:      7.70938      -0.12901       4.06740
Nuclear contribution   :     -8.12386       1.06915      -4.71960
                        -----------------------------------------
Total Dipole Moment    :     -0.41449       0.94014      -0.65219
                        -----------------------------------------
Magnitude (a.u.)       :      1.21697
Magnitude (Debye)      :      3.09329

Rotational constants in cm-1:     0.309513     0.127560     0.099675
Rotational constants in MHz :  9278.979128  3824.146597  2988.174827

                             ****ORCA TERMINATED NORMALLY****
TOTAL RUN TIME: 0 days 0 hours 0 minutes 31 seconds 702 msec
