                         Program Version 5.0.0 -  RELEASE  -
|  1> !LC-PBE RIJCOSX def2-TZVPD def2/J TightSCF
|  2> *xyz 0 1
|  3> C          4.60295       -2.44010        2.63478
|  4> C          3.86085       -1.59157        3.62289
|  5> C          2.75650       -2.04616        4.16633
|  6> N          4.25433       -0.36291        3.86046
|  7> H          3.56526        0.31099        4.16898
|  8> H          5.05429       -0.01606        3.33784
|  9> H          2.43970       -2.97389        3.89740
| 10> H          2.06687       -1.41253        4.54981
| 11> C          3.74469       -2.58056        1.36188
| 12> H          5.56156       -1.97135        2.40708
| 13> H          4.81050       -3.42255        3.06310
| 14> H          4.26314       -3.18477        0.64702
| 15> H          3.56325       -1.61180        0.94535
| 16> H          2.81197       -3.04259        1.60980
| 17> *
| 18>
| 19> %MaxCore 64000
| 20>
| 21> %pal nprocs 4
| 22> end
| 23>
| 24> %scf
| 25>   MaxIter 150
| 26> end
| 27>
| 28>
| 29>                          ****END OF INPUT****

CARTESIAN COORDINATES (ANGSTROEM)
---------------------------------
  C      4.602950   -2.440100    2.634780
  C      3.860850   -1.591570    3.622890
  C      2.756500   -2.046160    4.166330
  N      4.254330   -0.362910    3.860460
  H      3.565260    0.310990    4.168980
  H      5.054290   -0.016060    3.337840
  H      2.439700   -2.973890    3.897400
  H      2.066870   -1.412530    4.549810
  C      3.744690   -2.580560    1.361880
  H      5.561560   -1.971350    2.407080
  H      4.810500   -3.422550    3.063100
  H      4.263140   -3.184770    0.647020
  H      3.563250   -1.611800    0.945350
  H      2.811970   -3.042590    1.609800

 Total Charge           Charge          ....    0
 Multiplicity           Mult            ....    1
 Number of Electrons    NEL             ....   40
 Basis Dimension        Dim             ....  266

ORBITAL ENERGIES
----------------

  NO   OCC          E(Eh)            E(eV)
   0   2.0000     -14.213414      -386.7666
   1   2.0000     -10.138247      -275.8757
   2   2.0000     -10.118004      -275.3249
   3   2.0000     -10.098476      -274.7935
   4   2.0000     -10.040902      -273.2268
   5   2.0000      -1.109418       -30.1888
   6   2.0000      -0.959983       -26.1225
   7   2.0000      -0.882745       -24.0207
   8   2.0000      -0.805398       -21.9160
   9   2.0000      -0.714599       -19.4452
  10   2.0000      -0.671271       -18.2662
  11   2.0000      -0.630525       -17.1575
  12   2.0000      -0.593472       -16.1492
  13   2.0000      -0.552815       -15.0429
  14   2.0000      -0.526064       -14.3149
  15   2.0000      -0.513352       -13.9690
  16   2.0000      -0.484517       -13.1844
  17   2.0000      -0.473239       -12.8775
  18   2.0000      -0.462413       -12.5829
  19   2.0000      -0.309991        -8.4353
  20   0.0000       0.066290         1.8038
  21   0.0000       0.089111         2.4248
  22   0.0000       0.089451         2.4341
  23   0.0000       0.098525         2.6810
  24   0.0000       0.122661         3.3378

MULLIKEN ATOMIC CHARGES
-----------------------
   0 C :   -0.790186
   1 C :    0.624893
   2 C :   -1.109284
   3 N :   -0.495680
   4 H :    0.216402
   5 H :    0.240309
   6 H :    0.360123
   7 H :    0.296750
   8 C :   -1.064623
   9 H :    0.365139
  10 H :    0.320710
  11 H :    0.336135
  12 H :    0.321673
  13 H :    0.377639
Sum of atomic charges:    0.0000000

LOEWDIN ATOMIC CHARGES
----------------------
   0 C :   -0.208415
   1 C :   -0.518974
   2 C :   -0.010226
   3 N :    0.090338
   4 H :    0.119144
   5 H :    0.112640
   6 H :    0.036108
   7 H :    0.034621
   8 C :   -0.112007
   9 H :    0.111059
  10 H :    0.123785
  11 H :    0.070152
  12 H :    0.080669
  13 H :    0.071106

  Mayer bond orders larger than 0.100000
B(  0-C ,  1-C ) :   0.6330 B(  0-C ,  8-C ) :   0.6015 B(  0-C ,  9-H ) :   0.9709
B(  0-C , 10-H ) :   0.9836 B(  1-C ,  2-C ) :   1.3498 B(  1-C ,  3-N ) :   0.8508
B(  1-C ,  7-H ) :  -0.1339 B(  1-C ,  9-H ) :  -0.1049 B(  2-C ,  3-N ) :   0.1113
B(  2-C ,  6-H ) :   0.8918 B(  2-C ,  7-H ) :   1.0647 B(  3-N ,  4-H ) :   0.9820
B(  3-N ,  5-H ) :   0.9728 B(  8-C , 11-H ) :   0.9457 B(  8-C , 12-H ) :   0.9584
B(  8-C , 13-H ) :   0.9206

FINAL SINGLE POINT ENERGY      -211.908316928918

DIPOLE MOMENT
-------------
                                X             Y             Z
Electronic contribution:      0.80155       1.76075       2.52149
Nuclear contribution   :     -0.47010      -1.22282      -3.06417
                        -----------------------------------------
Total Dipole Moment    :      0.33145       0.53793      -0.54268
                        -----------------------------------------
Magnitude (a.u.)       :      0.83290
Magnitude (Debye)      :      2.11708

Rotational constants in cm-1:     0.271862     0.131962     0.105499
Rotational constants in MHz :  8150.219120  3956.123671  3162.785522

                             ****ORCA TERMINATED NORMALLY****
TOTAL RUN TIME: 0 days 0 hours 0 minutes 47 seconds 766 msec
