                         Program Version 5.0.0 -  RELEASE  -
|  1> !LC-PBE RIJCOSX def2-TZVPD def2/J TightSCF
|  2> *xyz 0 1
|  3> C         -0.91495        0.61511        2.50554
|  4> C         -0.05915        1.50352        3.41058
|  5> H          0.36536        2.34431        2.86116
|  6> H         -0.69226        1.92021        4.19898
|  7> C          1.08303        0.74964        4.08571
|  8> O          2.22817        1.26348        4.01983
|  9> F          0.81003       -0.34541        4.63627
| 10> H         -0.30401        0.20228        1.73015
| 11> H         -1.69811        1.19946        2.06954
| 12> H         -1.34124       -0.17772        3.08397
| 13> *
| 14>
| 15> %MaxCore 64000
| 16>
| 17> %pal nprocs 4
| 18> end
| 19>
| 20> %scf
| 21>   MaxIter 150
| 22> end
| 23>
| 24>
| 25>                          ****END OF INPUT****

CARTESIAN COORDINATES (ANGSTROEM)
---------------------------------
  C     -0.914950    0.615110    2.505540
  C     -0.059150    1.503520    3.410580
  H      0.365360    2.344310    2.861160
  H     -0.692260    1.920210    4.198980
  C      1.083030    0.749640    4.085710
  O      2.228170    1.263480    4.019830
  F      0.810030   -0.345410    4.636270
  H     -0.304010    0.202280    1.730150
  H     -1.698110    1.199460    2.069540
  H     -1.341240   -0.177720    3.083970

 Total Charge           Charge          ....    0
 Multiplicity           Mult            ....    1
 Number of Electrons    NEL             ....   40
 Basis Dimension        Dim             ....  236

ORBITAL ENERGIES
----------------

  NO   OCC          E(Eh)            E(eV)
   0   2.0000     -24.563537      -668.4078
   1   2.0000     -18.984365      -516.5908
   2   2.0000     -10.302323      -280.3405
   3   2.0000     -10.149585      -276.1842
   4   2.0000     -10.123096      -275.4634
   5   2.0000      -1.479858       -40.2690
   6   2.0000      -1.198883       -32.6233
   7   2.0000      -0.985733       -26.8232
   8   2.0000      -0.852581       -23.1999
   9   2.0000      -0.804882       -21.9020
  10   2.0000      -0.709832       -19.3155
  11   2.0000      -0.698441       -19.0055
  12   2.0000      -0.650469       -17.7002
  13   2.0000      -0.613331       -16.6896
  14   2.0000      -0.578106       -15.7311
  15   2.0000      -0.543006       -14.7759
  16   2.0000      -0.522272       -14.2117
  17   2.0000      -0.511828       -13.9276
  18   2.0000      -0.484801       -13.1921
  19   2.0000      -0.426500       -11.6057
  20   0.0000       0.055445         1.5087
  21   0.0000       0.070622         1.9217
  22   0.0000       0.082372         2.2415
  23   0.0000       0.088622         2.4115
  24   0.0000       0.101004         2.7485

MULLIKEN ATOMIC CHARGES
-----------------------
   0 C :   -1.210106
   1 C :   -0.391590
   2 H :    0.301312
   3 H :    0.335491
   4 C :    0.512899
   5 O :   -0.483382
   6 F :   -0.159031
   7 H :    0.381274
   8 H :    0.347180
   9 H :    0.365955
Sum of atomic charges:    0.0000000

LOEWDIN ATOMIC CHARGES
----------------------
   0 C :   -0.114959
   1 C :   -0.171988
   2 H :    0.126568
   3 H :    0.129954
   4 C :   -0.505904
   5 O :    0.076696
   6 F :    0.220642
   7 H :    0.084033
   8 H :    0.077972
   9 H :    0.076988

  Mayer bond orders larger than 0.100000
B(  0-C ,  1-C ) :   0.5616 B(  0-C ,  7-H ) :   0.9104 B(  0-C ,  8-H ) :   0.9390
B(  0-C ,  9-H ) :   0.9227 B(  1-C ,  2-H ) :   0.9491 B(  1-C ,  3-H ) :   0.9020
B(  1-C ,  4-C ) :   0.9327 B(  4-C ,  5-O ) :   1.7325 B(  4-C ,  6-F ) :   1.0380

FINAL SINGLE POINT ENERGY      -291.696591163804

DIPOLE MOMENT
-------------
                                X             Y             Z
Electronic contribution:      5.29474      -2.83049       5.08850
Nuclear contribution   :     -6.57765       2.82334      -5.39171
                        -----------------------------------------
Total Dipole Moment    :     -1.28291      -0.00715      -0.30320
                        -----------------------------------------
Magnitude (a.u.)       :      1.31827
Magnitude (Debye)      :      3.35078

Rotational constants in cm-1:     0.294245     0.132994     0.101060
Rotational constants in MHz :  8821.228602  3987.049251  3029.696815

                             ****ORCA TERMINATED NORMALLY****
TOTAL RUN TIME: 0 days 0 hours 0 minutes 32 seconds 730 msec
