                         Program Version 5.0.0 -  RELEASE  -
|  1> !LC-PBE RIJCOSX def2-TZVPD def2/J TightSCF
|  2> *xyz 0 1
|  3> C          4.60295       -2.44010        2.63478
|  4> C          3.86085       -1.59157        3.62289
|  5> N          2.75650       -2.04616        4.16633
|  6> C          4.25433       -0.36291        3.86046
|  7> H          3.56526        0.31099        4.16898
|  8> H          5.05429       -0.01606        3.33784
|  9> H          2.43970       -2.97389        3.89740
| 10> H          2.06687       -1.41253        4.54981
| 11> C          3.74469       -2.58056        1.36188
| 12> H          5.56156       -1.97135        2.40708
| 13> H          4.81050       -3.42255        3.06310
| 14> H          4.26314       -3.18477        0.64702
| 15> H          3.56325       -1.61180        0.94535
| 16> H          2.81197       -3.04259        1.60980
| 17> *
| 18>
| 19> %MaxCore 64000
| 20>
| 21> %pal nprocs 4
| 22> end
| 23>
| 24> %scf
| 25>   MaxIter 150
| 26> end
| 27>
| 28>
| 29>                          ****END OF INPUT****

CARTESIAN COORDINATES (ANGSTROEM)
---------------------------------
  C      4.602950   -2.440100    2.634780
  C      3.860850   -1.591570    3.622890
  N      2.756500   -2.046160    4.166330
  C      4.254330   -0.362910    3.860460
  H      3.565260    0.310990    4.168980
  H      5.054290   -0.016060    3.337840
  H      2.439700   -2.973890    3.897400
  H      2.066870   -1.412530    4.549810
  C      3.744690   -2.580560    1.361880
  H      5.561560   -1.971350    2.407080
  H      4.810500   -3.422550    3.063100
  H      4.263140   -3.184770    0.647020
  H      3.563250   -1.611800    0.945350
  H      2.811970   -3.042590    1.609800

 Total Charge           Charge          ....    0
 Multiplicity           Mult            ....    1
 Number of Electrons    NEL             ....   40
 Basis Dimension        Dim             ....  266

ORBITAL ENERGIES
----------------

  NO   OCC          E(Eh)            E(eV)
   0   2.0000     -14.213246      -386.7621
   1   2.0000     -10.139221      -275.9022
   2   2.0000     -10.117664      -275.3156
   3   2.0000     -10.102398      -274.9002
   4   2.0000     -10.042225      -273.2628
   5   2.0000      -1.109199       -30.1828
   6   2.0000      -0.957602       -26.0577
   7   2.0000      -0.891712       -24.2647
   8   2.0000      -0.800146       -21.7731
   9   2.0000      -0.721861       -19.6428
  10   2.0000      -0.673028       -18.3140
  11   2.0000      -0.625566       -17.0225
  12   2.0000      -0.581682       -15.8284
  13   2.0000      -0.572672       -15.5832
  14   2.0000      -0.524375       -14.2690
  15   2.0000      -0.516960       -14.0672
  16   2.0000      -0.487162       -13.2564
  17   2.0000      -0.473628       -12.8881
  18   2.0000      -0.456555       -12.4235
  19   2.0000      -0.312471        -8.5028
  20   0.0000       0.065181         1.7737
  21   0.0000       0.088721         2.4142
  22   0.0000       0.092803         2.5253
  23   0.0000       0.096581         2.6281
  24   0.0000       0.121518         3.3067

MULLIKEN ATOMIC CHARGES
-----------------------
   0 C :   -0.785020
   1 C :    0.598732
   2 N :   -0.489237
   3 C :   -1.059990
   4 H :    0.317548
   5 H :    0.293744
   6 H :    0.237128
   7 H :    0.199236
   8 C :   -1.031995
   9 H :    0.346999
  10 H :    0.353279
  11 H :    0.341279
  12 H :    0.326358
  13 H :    0.351938
Sum of atomic charges:   -0.0000000

LOEWDIN ATOMIC CHARGES
----------------------
   0 C :   -0.210042
   1 C :   -0.523043
   2 N :    0.090981
   3 C :   -0.004209
   4 H :    0.033158
   5 H :    0.032245
   6 H :    0.114461
   7 H :    0.121297
   8 C :   -0.111807
   9 H :    0.118029
  10 H :    0.118786
  11 H :    0.071638
  12 H :    0.082872
  13 H :    0.065635

  Mayer bond orders larger than 0.100000
B(  0-C ,  1-C ) :   0.7375 B(  0-C ,  8-C ) :   0.6183 B(  0-C ,  9-H ) :   0.8915
B(  0-C , 10-H ) :   0.9660 B(  1-C ,  2-N ) :   0.7885 B(  1-C ,  3-C ) :   1.4045
B(  1-C ,  4-H ) :  -0.1190 B(  2-N ,  3-C ) :   0.1107 B(  2-N ,  6-H ) :   0.9572
B(  2-N ,  7-H ) :   1.0111 B(  3-C ,  4-H ) :   1.0165 B(  3-C ,  5-H ) :   0.9939
B(  8-C , 11-H ) :   0.9548 B(  8-C , 12-H ) :   0.9893 B(  8-C , 13-H ) :   0.8985

FINAL SINGLE POINT ENERGY      -211.908777325114

DIPOLE MOMENT
-------------
                                X             Y             Z
Electronic contribution:     -0.48149       0.30819       2.79558
Nuclear contribution   :     -0.12319      -0.83296      -3.13501
                        -----------------------------------------
Total Dipole Moment    :     -0.60468      -0.52477      -0.33943
                        -----------------------------------------
Magnitude (a.u.)       :      0.86961
Magnitude (Debye)      :      2.21038

Rotational constants in cm-1:     0.266453     0.134423     0.106086
Rotational constants in MHz :  7988.053142  4029.892766  3180.375228

                             ****ORCA TERMINATED NORMALLY****
TOTAL RUN TIME: 0 days 0 hours 0 minutes 47 seconds 712 msec
