                         Program Version 5.0.0 -  RELEASE  -
|  1> !LC-PBE RIJCOSX def2-TZVPD def2/J TightSCF xyzfile
|  2>
|  3> *xyzfile 0 1 D1.xyz
|  4>
|  5> %MaxCore 64000
|  6>
|  7> %pal nprocs 4
|  8> end
|  9>
| 10> %scf
| 11>   MaxIter 150
| 12> end
| 13>
| 14>
| 15>                          ****END OF INPUT****

CARTESIAN COORDINATES (ANGSTROEM)
---------------------------------
  C      4.602954   -2.440100    2.634780
  C     -0.914947    0.615112    2.505538
  C     -0.059146    1.503524    3.410578
  H      0.365364    2.344315    2.861161
  H     -0.692261    1.920207    4.198985
  C      1.083027    0.749640    4.085705
  C      3.860851   -1.591565    3.622893
  C      2.756502   -2.046159    4.166333
  N      4.254325   -0.362905    3.860455
  H      3.565256    0.310994    4.168983
  H      5.054292   -0.016059    3.337838
  H      2.439696   -2.973894    3.897395
  H      2.066869   -1.412532    4.549813
  F      2.228167    1.263475    4.019826
  O      0.810034   -0.345411    4.636269
  C      3.744685   -2.580557    1.361882
  C      0.772139    0.636882    0.562129
  C     -0.130740   -0.193985    1.470763
  H     -0.840563   -0.760165    0.856377
  H      0.466691   -0.938942    2.006959
  H     -1.647961    1.245963    1.991076
  H     -1.478180   -0.081046    3.130424
  C      3.203721   -1.256004    0.826211
  H      2.898939   -3.239289    1.583074
  H      4.334962   -3.095523    0.600188
  C      2.107815   -1.442385   -0.216865
  H      2.786775   -0.672760    1.650711
  H      4.021008   -0.652993    0.414046
  C      1.390662   -0.145912   -0.602422
  H      1.372179   -2.152184    0.176151
  H      2.523302   -1.906787   -1.117115
  H      1.561361    1.100094    1.161831
  H      0.195516    1.468325    0.142758
  H      0.602893   -0.398214   -1.319716
  H      2.087247    0.508272   -1.137335
  H      5.561557   -1.971347    2.407084
  H      4.810498   -3.422552    3.063099

 Total Charge           Charge          ....    0
 Multiplicity           Mult            ....    1
 Number of Electrons    NEL             ....  118
 Basis Dimension        Dim             ....  759

ORBITAL ENERGIES
----------------

  NO   OCC          E(Eh)            E(eV)
   0   2.0000     -24.588064      -669.0752
   1   2.0000     -18.998074      -516.9639
   2   2.0000     -14.189134      -386.1060
   3   2.0000     -10.318306      -280.7754
   4   2.0000     -10.155012      -276.3319
   5   2.0000     -10.132267      -275.7130
   6   2.0000     -10.116382      -275.2807
   7   2.0000     -10.116098      -275.2730
   8   2.0000     -10.115807      -275.2651
   9   2.0000     -10.111082      -275.1365
  10   2.0000     -10.104522      -274.9580
  11   2.0000     -10.103154      -274.9208
  12   2.0000     -10.102713      -274.9088
  13   2.0000     -10.100372      -274.8451
  14   2.0000     -10.008452      -272.3438
  15   2.0000      -1.507113       -41.0106
  16   2.0000      -1.220200       -33.2033
  17   2.0000      -1.091498       -29.7012
  18   2.0000      -1.015481       -27.6326
  19   2.0000      -0.988050       -26.8862
  20   2.0000      -0.960219       -26.1289
  21   2.0000      -0.918838       -25.0028
  22   2.0000      -0.890760       -24.2388
  23   2.0000      -0.858806       -23.3693
  24   2.0000      -0.842284       -22.9197
  25   2.0000      -0.813863       -22.1463
  26   2.0000      -0.775476       -21.1018
  27   2.0000      -0.751856       -20.4591
  28   2.0000      -0.734368       -19.9832
  29   2.0000      -0.724647       -19.7187
  30   2.0000      -0.709778       -19.3140
  31   2.0000      -0.691757       -18.8237
  32   2.0000      -0.677751       -18.4425
  33   2.0000      -0.646320       -17.5873
  34   2.0000      -0.632698       -17.2166
  35   2.0000      -0.628076       -17.0908
  36   2.0000      -0.617378       -16.7997
  37   2.0000      -0.597314       -16.2537
  38   2.0000      -0.589176       -16.0323
  39   2.0000      -0.570816       -15.5327
  40   2.0000      -0.566897       -15.4261
  41   2.0000      -0.549048       -14.9404
  42   2.0000      -0.542279       -14.7562
  43   2.0000      -0.529150       -14.3989
  44   2.0000      -0.522876       -14.2282
  45   2.0000      -0.506847       -13.7920
  46   2.0000      -0.503432       -13.6991
  47   2.0000      -0.495566       -13.4851
  48   2.0000      -0.485136       -13.2012
  49   2.0000      -0.475105       -12.9283
  50   2.0000      -0.473687       -12.8897
  51   2.0000      -0.464305       -12.6344
  52   2.0000      -0.452881       -12.3235
  53   2.0000      -0.446942       -12.1619
  54   2.0000      -0.436469       -11.8769
  55   2.0000      -0.434874       -11.8335
  56   2.0000      -0.429789       -11.6952
  57   2.0000      -0.404744       -11.0136
  58   2.0000      -0.288316        -7.8455
  59   0.0000       0.045307         1.2329
  60   0.0000       0.057736         1.5711
  61   0.0000       0.069518         1.8917
  62   0.0000       0.071953         1.9580
  63   0.0000       0.075279         2.0484

MULLIKEN ATOMIC CHARGES
-----------------------
   0 C :   -1.034552
   1 C :   -0.860964
   2 C :   -0.685905
   3 H :    0.410740
   4 H :    0.398088
   5 C :    0.638816
   6 C :   -0.113086
   7 C :   -1.228343
   8 N :   -0.378551
   9 H :    0.378133
  10 H :    0.232589
  11 H :    0.346495
  12 H :    0.801634
  13 F :   -0.292457
  14 O :   -0.540274
  15 C :   -0.848712
  16 C :   -0.647521
  17 C :   -0.642162
  18 H :    0.399095
  19 H :    0.362304
  20 H :    0.397728
  21 H :    0.385578
  22 C :    0.090531
  23 H :    0.403958
  24 H :    0.420269
  25 C :   -0.883096
  26 H :    0.054145
  27 H :    0.299344
  28 C :   -0.909229
  29 H :    0.389855
  30 H :    0.415843
  31 H :    0.371162
  32 H :    0.345901
  33 H :    0.391522
  34 H :    0.377472
  35 H :    0.416339
  36 H :    0.337314
Sum of atomic charges:   -0.0000000

LOEWDIN ATOMIC CHARGES
----------------------
   0 C :   -0.157810
   1 C :   -0.209650
   2 C :   -0.115382
   3 H :    0.123568
   4 H :    0.138349
   5 C :   -0.451034
   6 C :   -0.510936
   7 C :    0.012945
   8 N :    0.106510
   9 H :    0.071210
  10 H :    0.117580
  11 H :    0.049651
  12 H :   -0.017988
  13 F :    0.204511
  14 O :    0.083580
  15 C :   -0.212673
  16 C :   -0.234584
  17 C :   -0.224672
  18 H :    0.132194
  19 H :    0.116383
  20 H :    0.125946
  21 H :    0.124793
  22 C :   -0.232059
  23 H :    0.118672
  24 H :    0.119612
  25 C :   -0.235551
  26 H :    0.093134
  27 H :    0.133950
  28 C :   -0.227262
  29 H :    0.118087
  30 H :    0.123216
  31 H :    0.110103
  32 H :    0.124968
  33 H :    0.118486
  34 H :    0.119230
  35 H :    0.116515
  36 H :    0.126408

  Mayer bond orders larger than 0.100000
B(  0-C ,  6-C ) :   0.5701 B(  0-C , 15-C ) :   0.7281 B(  0-C , 35-H ) :   0.9634
B(  0-C , 36-H ) :   1.0487 B(  1-C ,  2-C ) :   0.7649 B(  1-C , 17-C ) :   0.8022
B(  1-C , 20-H ) :   0.9039 B(  1-C , 21-H ) :   0.9028 B(  2-C ,  3-H ) :   0.9401
B(  2-C ,  4-H ) :   0.8451 B(  2-C ,  5-C ) :   0.8178 B(  2-C , 16-C ) :   0.1142
B(  5-C , 13-F ) :   0.8203 B(  5-C , 14-O ) :   1.6646 B(  6-C ,  7-C ) :   1.6894
B(  6-C ,  8-N ) :   0.9207 B(  6-C , 12-H ) :  -0.1215 B(  6-C , 35-H ) :  -0.1342
B(  7-C , 11-H ) :   1.1095 B(  7-C , 12-H ) :   0.5403 B(  8-N ,  9-H ) :   0.7570
B(  8-N , 10-H ) :   0.9310 B( 12-H , 14-O ) :  -0.2856 B( 13-F , 14-O ) :   0.1018
B( 15-C , 22-C ) :   0.5599 B( 15-C , 23-H ) :   0.8749 B( 15-C , 24-H ) :   0.8757
B( 15-C , 25-C ) :   0.2374 B( 16-C , 17-C ) :   0.3885 B( 16-C , 19-H ) :  -0.1227
B( 16-C , 22-C ) :   0.1307 B( 16-C , 25-C ) :  -0.1157 B( 16-C , 28-C ) :   0.8521
B( 16-C , 31-H ) :   1.0122 B( 16-C , 32-H ) :   0.9060 B( 17-C , 18-H ) :   0.8529
B( 17-C , 19-H ) :   1.0808 B( 17-C , 31-H ) :  -0.1181 B( 22-C , 25-C ) :   0.4784
B( 22-C , 26-H ) :   1.0667 B( 22-C , 27-H ) :   0.8780 B( 25-C , 28-C ) :   0.7915
B( 25-C , 29-H ) :   0.9304 B( 25-C , 30-H ) :   0.8675 B( 26-H , 27-H ) :   0.1813
B( 28-C , 33-H ) :   0.9389 B( 28-C , 34-H ) :   0.9279

FINAL SINGLE POINT ENERGY      -698.326382357629

DIPOLE MOMENT
-------------
                                X             Y             Z
Electronic contribution:      1.15769       7.39661      14.90237
Nuclear contribution   :     -1.66567      -5.90236     -15.95042
                        -----------------------------------------
Total Dipole Moment    :     -0.50797       1.49424      -1.04806
                        -----------------------------------------
Magnitude (a.u.)       :      1.89452
Magnitude (Debye)      :      4.81550

Rotational constants in cm-1:     0.021600     0.017292     0.011381
Rotational constants in MHz :   647.565282   518.410024   341.193038

                             ****ORCA TERMINATED NORMALLY****
TOTAL RUN TIME: 0 days 0 hours 10 minutes 21 seconds 219 msec
