                         Program Version 5.0.0 -  RELEASE  -
|  1> !LC-PBE RIJCOSX def2-TZVPD def2/J TightSCF xyzfile
|  2>
|  3> *xyzfile 0 1 D2.xyz
|  4>
|  5> %MaxCore 64000
|  6>
|  7> %pal nprocs 4
|  8> end
|  9>
| 10> %scf
| 11>   MaxIter 150
| 12> end
| 13>
| 14>
| 15>                          ****END OF INPUT****

CARTESIAN COORDINATES (ANGSTROEM)
---------------------------------
  C      4.602954   -2.440100    2.634780
  C     -0.914947    0.615112    2.505538
  C     -0.059146    1.503524    3.410578
  H      0.365364    2.344315    2.861161
  H     -0.692261    1.920207    4.198985
  C      1.083027    0.749640    4.085705
  C      3.860851   -1.591565    3.622893
  N      2.756502   -2.046159    4.166333
  C      4.254325   -0.362905    3.860455
  H      3.565256    0.310994    4.168983
  H      5.054292   -0.016059    3.337838
  H      2.439696   -2.973894    3.897395
  H      2.066869   -1.412532    4.549813
  F      2.228167    1.263475    4.019826
  O      0.810034   -0.345411    4.636269
  C      3.744685   -2.580557    1.361882
  C      0.772139    0.636882    0.562129
  C     -0.130740   -0.193985    1.470763
  H     -0.840563   -0.760165    0.856377
  H      0.466691   -0.938942    2.006959
  H     -1.647961    1.245963    1.991076
  H     -1.478180   -0.081046    3.130424
  C      3.203721   -1.256004    0.826211
  H      2.898939   -3.239289    1.583074
  H      4.334962   -3.095523    0.600188
  C      2.107815   -1.442385   -0.216865
  H      2.786775   -0.672760    1.650711
  H      4.021008   -0.652993    0.414046
  C      1.390662   -0.145912   -0.602422
  H      1.372179   -2.152184    0.176151
  H      2.523302   -1.906787   -1.117115
  H      1.561361    1.100094    1.161831
  H      0.195516    1.468325    0.142758
  H      0.602893   -0.398214   -1.319716
  H      2.087247    0.508272   -1.137335
  H      5.561557   -1.971347    2.407084
  H      4.810498   -3.422552    3.063099

 Total Charge           Charge          ....    0
 Multiplicity           Mult            ....    1
 Number of Electrons    NEL             ....  118
 Basis Dimension        Dim             ....  759

ORBITAL ENERGIES
----------------

  NO   OCC          E(Eh)            E(eV)
   0   2.0000     -24.578355      -668.8110
   1   2.0000     -19.009078      -517.2633
   2   2.0000     -14.177390      -385.7864
   3   2.0000     -10.325660      -280.9755
   4   2.0000     -10.157807      -276.4080
   5   2.0000     -10.135754      -275.8079
   6   2.0000     -10.119587      -275.3680
   7   2.0000     -10.119554      -275.3671
   8   2.0000     -10.116895      -275.2947
   9   2.0000     -10.111574      -275.1499
  10   2.0000     -10.106834      -275.0209
  11   2.0000     -10.105084      -274.9733
  12   2.0000     -10.102313      -274.8979
  13   2.0000     -10.098776      -274.8017
  14   2.0000     -10.017062      -272.5781
  15   2.0000      -1.499209       -40.7955
  16   2.0000      -1.230302       -33.4782
  17   2.0000      -1.084476       -29.5101
  18   2.0000      -1.018141       -27.7050
  19   2.0000      -0.988641       -26.9023
  20   2.0000      -0.959407       -26.1068
  21   2.0000      -0.920225       -25.0406
  22   2.0000      -0.887284       -24.1442
  23   2.0000      -0.872037       -23.7293
  24   2.0000      -0.833988       -22.6940
  25   2.0000      -0.815117       -22.1804
  26   2.0000      -0.774534       -21.0761
  27   2.0000      -0.747104       -20.3297
  28   2.0000      -0.728582       -19.8257
  29   2.0000      -0.720852       -19.6154
  30   2.0000      -0.711258       -19.3543
  31   2.0000      -0.703345       -19.1390
  32   2.0000      -0.677735       -18.4421
  33   2.0000      -0.647653       -17.6235
  34   2.0000      -0.636629       -17.3236
  35   2.0000      -0.627198       -17.0669
  36   2.0000      -0.609181       -16.5767
  37   2.0000      -0.599851       -16.3228
  38   2.0000      -0.587812       -15.9952
  39   2.0000      -0.577296       -15.7090
  40   2.0000      -0.568666       -15.4742
  41   2.0000      -0.549547       -14.9539
  42   2.0000      -0.546277       -14.8650
  43   2.0000      -0.534085       -14.5332
  44   2.0000      -0.516977       -14.0676
  45   2.0000      -0.508863       -13.8469
  46   2.0000      -0.504733       -13.7345
  47   2.0000      -0.500639       -13.6231
  48   2.0000      -0.484512       -13.1842
  49   2.0000      -0.478857       -13.0304
  50   2.0000      -0.473841       -12.8939
  51   2.0000      -0.461657       -12.5623
  52   2.0000      -0.452199       -12.3050
  53   2.0000      -0.447275       -12.1710
  54   2.0000      -0.443228       -12.0608
  55   2.0000      -0.437170       -11.8960
  56   2.0000      -0.429977       -11.7003
  57   2.0000      -0.420624       -11.4458
  58   2.0000      -0.289721        -7.8837
  59   0.0000       0.041124         1.1191
  60   0.0000       0.059375         1.6157
  61   0.0000       0.065752         1.7892
  62   0.0000       0.070838         1.9276
  63   0.0000       0.076015         2.0685

MULLIKEN ATOMIC CHARGES
-----------------------
   0 C :   -0.958231
   1 C :   -0.860086
   2 C :   -0.653368
   3 H :    0.411131
   4 H :    0.392614
   5 C :    0.641620
   6 C :   -0.037841
   7 N :   -0.321157
   8 C :   -1.167264
   9 H :    0.635073
  10 H :    0.307714
  11 H :    0.237016
  12 H :    0.331483
  13 F :   -0.251257
  14 O :   -0.629468
  15 C :   -0.830248
  16 C :   -0.667430
  17 C :   -0.636643
  18 H :    0.407025
  19 H :    0.345090
  20 H :    0.407036
  21 H :    0.378036
  22 C :    0.096369
  23 H :    0.402667
  24 H :    0.406169
  25 C :   -0.871907
  26 H :    0.034017
  27 H :    0.303847
  28 C :   -0.902411
  29 H :    0.393299
  30 H :    0.394227
  31 H :    0.388747
  32 H :    0.353370
  33 H :    0.394086
  34 H :    0.375978
  35 H :    0.372330
  36 H :    0.378366
Sum of atomic charges:   -0.0000000

LOEWDIN ATOMIC CHARGES
----------------------
   0 C :   -0.158224
   1 C :   -0.210439
   2 C :   -0.112578
   3 H :    0.125724
   4 H :    0.139331
   5 C :   -0.444837
   6 C :   -0.513203
   7 N :    0.121790
   8 C :    0.001051
   9 H :    0.002587
  10 H :    0.042360
  11 H :    0.120373
  12 H :    0.043557
  13 F :    0.200850
  14 O :    0.084432
  15 C :   -0.212291
  16 C :   -0.233305
  17 C :   -0.226570
  18 H :    0.132006
  19 H :    0.113798
  20 H :    0.126547
  21 H :    0.123989
  22 C :   -0.228891
  23 H :    0.113231
  24 H :    0.121152
  25 C :   -0.237879
  26 H :    0.093597
  27 H :    0.138550
  28 C :   -0.226576
  29 H :    0.115983
  30 H :    0.122773
  31 H :    0.112188
  32 H :    0.125353
  33 H :    0.118293
  34 H :    0.120101
  35 H :    0.122916
  36 H :    0.122261

  Mayer bond orders larger than 0.100000
B(  0-C ,  6-C ) :   0.6735 B(  0-C , 15-C ) :   0.6952 B(  0-C , 35-H ) :   0.8847
B(  0-C , 36-H ) :   1.0785 B(  1-C ,  2-C ) :   0.7631 B(  1-C , 17-C ) :   0.8028
B(  1-C , 20-H ) :   0.8901 B(  1-C , 21-H ) :   0.9084 B(  2-C ,  3-H ) :   0.9321
B(  2-C ,  4-H ) :   0.8451 B(  2-C ,  5-C ) :   0.8286 B(  2-C , 16-C ) :   0.1167
B(  5-C , 13-F ) :   0.8810 B(  5-C , 14-O ) :   1.5258 B(  6-C ,  7-N ) :   0.7756
B(  6-C ,  8-C ) :   1.8945 B(  6-C ,  9-H ) :  -0.1303 B(  6-C , 10-H ) :  -0.1130
B(  7-N , 11-H ) :   0.9362 B(  7-N , 12-H ) :   0.7754 B(  8-C ,  9-H ) :   0.6640
B(  8-C , 10-H ) :   1.1429 B(  8-C , 26-H ) :  -0.1706 B(  9-H , 13-F ) :  -0.1324
B( 13-F , 14-O ) :   0.1051 B( 15-C , 22-C ) :   0.5386 B( 15-C , 23-H ) :   0.8718
B( 15-C , 24-H ) :   0.8929 B( 15-C , 25-C ) :   0.2179 B( 16-C , 17-C ) :   0.3834
B( 16-C , 19-H ) :  -0.1209 B( 16-C , 22-C ) :   0.1316 B( 16-C , 25-C ) :  -0.1076
B( 16-C , 28-C ) :   0.8591 B( 16-C , 31-H ) :   1.0008 B( 16-C , 32-H ) :   0.8997
B( 17-C , 18-H ) :   0.8508 B( 17-C , 19-H ) :   1.0891 B( 17-C , 31-H ) :  -0.1183
B( 22-C , 25-C ) :   0.5076 B( 22-C , 26-H ) :   1.1014 B( 22-C , 27-H ) :   0.7950
B( 25-C , 28-C ) :   0.7938 B( 25-C , 29-H ) :   0.9314 B( 25-C , 30-H ) :   0.8938
B( 26-H , 27-H ) :   0.2619 B( 28-C , 33-H ) :   0.9383 B( 28-C , 34-H ) :   0.9283

FINAL SINGLE POINT ENERGY      -698.336564298594

DIPOLE MOMENT
-------------
                                X             Y             Z
Electronic contribution:      0.05789       6.26892      15.07099
Nuclear contribution   :     -1.39991      -5.60370     -16.00470
                        -----------------------------------------
Total Dipole Moment    :     -1.34201       0.66521      -0.93371
                        -----------------------------------------
Magnitude (a.u.)       :      1.76503
Magnitude (Debye)      :      4.48634

Rotational constants in cm-1:     0.021622     0.017313     0.011402
Rotational constants in MHz :   648.226014   519.043632   341.814105

                             ****ORCA TERMINATED NORMALLY****
TOTAL RUN TIME: 0 days 0 hours 10 minutes 15 seconds 55 msec
