                         Program Version 5.0.0 -  RELEASE  -
|  1> !LC-PBE RIJCOSX def2-TZVPD def2/J TightSCF xyzfile
|  2>
|  3> *xyzfile 0 1 D3.xyz
|  4>
|  5> %MaxCore 64000
|  6>
|  7> %pal nprocs 4
|  8> end
|  9>
| 10> %scf
| 11>   MaxIter 150
| 12> end
| 13>
| 14>
| 15>                          ****END OF INPUT****

CARTESIAN COORDINATES (ANGSTROEM)
---------------------------------
  C      4.602954   -2.440100    2.634780
  C     -0.914947    0.615112    2.505538
  C     -0.059146    1.503524    3.410578
  H      0.365364    2.344315    2.861161
  H     -0.692261    1.920207    4.198985
  C      1.083027    0.749640    4.085705
  C      3.860851   -1.591565    3.622893
  C      2.756502   -2.046159    4.166333
  N      4.254325   -0.362905    3.860455
  H      3.565256    0.310994    4.168983
  H      5.054292   -0.016059    3.337838
  H      2.439696   -2.973894    3.897395
  H      2.066869   -1.412532    4.549813
  O      2.228167    1.263475    4.019826
  F      0.810034   -0.345411    4.636269
  C      3.744685   -2.580557    1.361882
  C      0.772139    0.636882    0.562129
  C     -0.130740   -0.193985    1.470763
  H     -0.840563   -0.760165    0.856377
  H      0.466691   -0.938942    2.006959
  H     -1.647961    1.245963    1.991076
  H     -1.478180   -0.081046    3.130424
  C      3.203721   -1.256004    0.826211
  H      2.898939   -3.239289    1.583074
  H      4.334962   -3.095523    0.600188
  C      2.107815   -1.442385   -0.216865
  H      2.786775   -0.672760    1.650711
  H      4.021008   -0.652993    0.414046
  C      1.390662   -0.145912   -0.602422
  H      1.372179   -2.152184    0.176151
  H      2.523302   -1.906787   -1.117115
  H      1.561361    1.100094    1.161831
  H      0.195516    1.468325    0.142758
  H      0.602893   -0.398214   -1.319716
  H      2.087247    0.508272   -1.137335
  H      5.561557   -1.971347    2.407084
  H      4.810498   -3.422552    3.063099

 Total Charge           Charge          ....    0
 Multiplicity           Mult            ....    1
 Number of Electrons    NEL             ....  118
 Basis Dimension        Dim             ....  759

ORBITAL ENERGIES
----------------

  NO   OCC          E(Eh)            E(eV)
   0   2.0000     -24.577629      -668.7913
   1   2.0000     -19.007957      -517.2328
   2   2.0000     -14.174956      -385.7202
   3   2.0000     -10.324341      -280.9396
   4   2.0000     -10.156141      -276.3627
   5   2.0000     -10.137549      -275.8567
   6   2.0000     -10.120783      -275.4005
   7   2.0000     -10.119493      -275.3654
   8   2.0000     -10.114091      -275.2184
   9   2.0000     -10.109946      -275.1056
  10   2.0000     -10.103764      -274.9374
  11   2.0000     -10.102945      -274.9151
  12   2.0000     -10.102287      -274.8972
  13   2.0000     -10.097889      -274.7775
  14   2.0000     -10.016366      -272.5592
  15   2.0000      -1.498884       -40.7867
  16   2.0000      -1.227665       -33.4065
  17   2.0000      -1.082972       -29.4692
  18   2.0000      -1.019397       -27.7392
  19   2.0000      -0.988386       -26.8954
  20   2.0000      -0.959012       -26.0960
  21   2.0000      -0.919373       -25.0174
  22   2.0000      -0.884130       -24.0584
  23   2.0000      -0.863848       -23.5065
  24   2.0000      -0.833217       -22.6730
  25   2.0000      -0.815822       -22.1996
  26   2.0000      -0.777500       -21.1569
  27   2.0000      -0.751069       -20.4376
  28   2.0000      -0.729219       -19.8431
  29   2.0000      -0.724957       -19.7271
  30   2.0000      -0.711154       -19.3515
  31   2.0000      -0.696111       -18.9421
  32   2.0000      -0.670893       -18.2559
  33   2.0000      -0.641969       -17.4689
  34   2.0000      -0.634814       -17.2742
  35   2.0000      -0.627241       -17.0681
  36   2.0000      -0.613713       -16.7000
  37   2.0000      -0.593956       -16.1624
  38   2.0000      -0.588886       -16.0244
  39   2.0000      -0.573942       -15.6178
  40   2.0000      -0.567091       -15.4313
  41   2.0000      -0.549875       -14.9629
  42   2.0000      -0.547409       -14.8958
  43   2.0000      -0.529751       -14.4153
  44   2.0000      -0.522518       -14.2184
  45   2.0000      -0.511121       -13.9083
  46   2.0000      -0.505652       -13.7595
  47   2.0000      -0.498599       -13.5676
  48   2.0000      -0.483774       -13.1642
  49   2.0000      -0.474364       -12.9081
  50   2.0000      -0.471908       -12.8413
  51   2.0000      -0.464764       -12.6469
  52   2.0000      -0.452636       -12.3168
  53   2.0000      -0.445464       -12.1217
  54   2.0000      -0.436976       -11.8907
  55   2.0000      -0.435975       -11.8635
  56   2.0000      -0.428666       -11.6646
  57   2.0000      -0.420541       -11.4435
  58   2.0000      -0.288186        -7.8419
  59   0.0000       0.044407         1.2084
  60   0.0000       0.060173         1.6374
  61   0.0000       0.067776         1.8443
  62   0.0000       0.071874         1.9558
  63   0.0000       0.076275         2.0756

MULLIKEN ATOMIC CHARGES
-----------------------
   0 C :   -1.018628
   1 C :   -0.914362
   2 C :   -0.606831
   3 H :    0.370497
   4 H :    0.412342
   5 C :    0.618854
   6 C :   -0.062551
   7 C :   -1.194482
   8 N :   -0.368157
   9 H :    0.372960
  10 H :    0.226436
  11 H :    0.357635
  12 H :    0.700547
  13 O :   -0.618149
  14 F :   -0.255551
  15 C :   -0.847512
  16 C :   -0.672598
  17 C :   -0.551519
  18 H :    0.395605
  19 H :    0.315865
  20 H :    0.397625
  21 H :    0.384663
  22 C :    0.109366
  23 H :    0.398707
  24 H :    0.414703
  25 C :   -0.879688
  26 H :    0.060489
  27 H :    0.294249
  28 C :   -0.900679
  29 H :    0.383389
  30 H :    0.414626
  31 H :    0.387133
  32 H :    0.352733
  33 H :    0.388458
  34 H :    0.377398
  35 H :    0.415258
  36 H :    0.341169
Sum of atomic charges:    0.0000000

LOEWDIN ATOMIC CHARGES
----------------------
   0 C :   -0.156019
   1 C :   -0.214473
   2 C :   -0.109520
   3 H :    0.131909
   4 H :    0.137471
   5 C :   -0.448233
   6 C :   -0.508275
   7 C :    0.005554
   8 N :    0.109826
   9 H :    0.044107
  10 H :    0.118157
  11 H :    0.045276
  12 H :    0.000980
  13 O :    0.081682
  14 F :    0.203598
  15 C :   -0.213176
  16 C :   -0.231650
  17 C :   -0.225806
  18 H :    0.131829
  19 H :    0.115261
  20 H :    0.126309
  21 H :    0.121922
  22 C :   -0.230676
  23 H :    0.117516
  24 H :    0.119613
  25 C :   -0.236257
  26 H :    0.094406
  27 H :    0.135043
  28 C :   -0.226904
  29 H :    0.116956
  30 H :    0.122993
  31 H :    0.113352
  32 H :    0.125460
  33 H :    0.117837
  34 H :    0.119916
  35 H :    0.117688
  36 H :    0.126331

  Mayer bond orders larger than 0.100000
B(  0-C ,  6-C ) :   0.5887 B(  0-C , 15-C ) :   0.7257 B(  0-C , 35-H ) :   0.9549
B(  0-C , 36-H ) :   1.0487 B(  1-C ,  2-C ) :   0.7109 B(  1-C , 17-C ) :   0.7257
B(  1-C , 20-H ) :   0.8974 B(  1-C , 21-H ) :   0.9371 B(  2-C ,  3-H ) :   0.9676
B(  2-C ,  4-H ) :   0.8578 B(  2-C ,  5-C ) :   0.8316 B(  2-C , 16-C ) :   0.1175
B(  2-C , 17-C ) :  -0.1583 B(  5-C , 13-O ) :   1.5689 B(  5-C , 14-F ) :   0.8769
B(  6-C ,  7-C ) :   1.7113 B(  6-C ,  8-N ) :   0.9035 B(  6-C , 13-O ) :   0.1234
B(  6-C , 35-H ) :  -0.1248 B(  7-C , 11-H ) :   1.0868 B(  7-C , 12-H ) :   0.5573
B(  8-N ,  9-H ) :   0.7911 B(  8-N , 10-H ) :   0.9282 B( 12-H , 14-F ) :  -0.1222
B( 15-C , 22-C ) :   0.5518 B( 15-C , 23-H ) :   0.8783 B( 15-C , 24-H ) :   0.8791
B( 15-C , 25-C ) :   0.2351 B( 16-C , 17-C ) :   0.4360 B( 16-C , 22-C ) :   0.1130
B( 16-C , 25-C ) :  -0.1108 B( 16-C , 28-C ) :   0.8348 B( 16-C , 31-H ) :   0.9990
B( 16-C , 32-H ) :   0.8961 B( 17-C , 18-H ) :   0.8783 B( 17-C , 19-H ) :   1.0638
B( 17-C , 31-H ) :  -0.1023 B( 22-C , 25-C ) :   0.4640 B( 22-C , 26-H ) :   1.0475
B( 22-C , 27-H ) :   0.8680 B( 25-C , 28-C ) :   0.7894 B( 25-C , 29-H ) :   0.9370
B( 25-C , 30-H ) :   0.8677 B( 26-H , 27-H ) :   0.1993 B( 28-C , 33-H ) :   0.9445
B( 28-C , 34-H ) :   0.9252

FINAL SINGLE POINT ENERGY      -698.337757988293

DIPOLE MOMENT
-------------
                                X             Y             Z
Electronic contribution:     -1.27131       4.74729      15.90843
Nuclear contribution   :      0.05905      -3.94566     -16.70013
                        -----------------------------------------
Total Dipole Moment    :     -1.21227       0.80163      -0.79170
                        -----------------------------------------
Magnitude (a.u.)       :      1.65499
Magnitude (Debye)      :      4.20665

Rotational constants in cm-1:     0.021602     0.017295     0.011353
Rotational constants in MHz :   647.614981   518.478934   340.359556

                             ****ORCA TERMINATED NORMALLY****
TOTAL RUN TIME: 0 days 0 hours 10 minutes 13 seconds 810 msec
