                         Program Version 5.0.0 -  RELEASE  -
|  1> !LC-PBE RIJCOSX def2-TZVPD def2/J TightSCF xyzfile
|  2>
|  3> *xyzfile 0 1 D4.xyz
|  4>
|  5> %MaxCore 64000
|  6>
|  7> %pal nprocs 4
|  8> end
|  9>
| 10> %scf
| 11>   MaxIter 150
| 12> end
| 13>
| 14>
| 15>                          ****END OF INPUT****

CARTESIAN COORDINATES (ANGSTROEM)
---------------------------------
  C      4.602954   -2.440100    2.634780
  C     -0.914947    0.615112    2.505538
  C     -0.059146    1.503524    3.410578
  H      0.365364    2.344315    2.861161
  H     -0.692261    1.920207    4.198985
  C      1.083027    0.749640    4.085705
  C      3.860851   -1.591565    3.622893
  N      2.756502   -2.046159    4.166333
  C      4.254325   -0.362905    3.860455
  H      3.565256    0.310994    4.168983
  H      5.054292   -0.016059    3.337838
  H      2.439696   -2.973894    3.897395
  H      2.066869   -1.412532    4.549813
  O      2.228167    1.263475    4.019826
  F      0.810034   -0.345411    4.636269
  C      3.744685   -2.580557    1.361882
  C      0.772139    0.636882    0.562129
  C     -0.130740   -0.193985    1.470763
  H     -0.840563   -0.760165    0.856377
  H      0.466691   -0.938942    2.006959
  H     -1.647961    1.245963    1.991076
  H     -1.478180   -0.081046    3.130424
  C      3.203721   -1.256004    0.826211
  H      2.898939   -3.239289    1.583074
  H      4.334962   -3.095523    0.600188
  C      2.107815   -1.442385   -0.216865
  H      2.786775   -0.672760    1.650711
  H      4.021008   -0.652993    0.414046
  C      1.390662   -0.145912   -0.602422
  H      1.372179   -2.152184    0.176151
  H      2.523302   -1.906787   -1.117115
  H      1.561361    1.100094    1.161831
  H      0.195516    1.468325    0.142758
  H      0.602893   -0.398214   -1.319716
  H      2.087247    0.508272   -1.137335
  H      5.561557   -1.971347    2.407084
  H      4.810498   -3.422552    3.063099

 Total Charge           Charge          ....    0
 Multiplicity           Mult            ....    1
 Number of Electrons    NEL             ....  118
 Basis Dimension        Dim             ....  759

ORBITAL ENERGIES
----------------

  NO   OCC          E(Eh)            E(eV)
   0   2.0000     -24.589893      -669.1250
   1   2.0000     -18.999464      -517.0017
   2   2.0000     -14.190224      -386.1356
   3   2.0000     -10.319874      -280.8180
   4   2.0000     -10.155654      -276.3494
   5   2.0000     -10.138711      -275.8884
   6   2.0000     -10.123522      -275.4750
   7   2.0000     -10.114114      -275.2190
   8   2.0000     -10.114109      -275.2189
   9   2.0000     -10.109841      -275.1028
  10   2.0000     -10.105216      -274.9769
  11   2.0000     -10.103861      -274.9400
  12   2.0000     -10.100439      -274.8469
  13   2.0000     -10.095950      -274.7248
  14   2.0000     -10.006697      -272.2961
  15   2.0000      -1.509632       -41.0792
  16   2.0000      -1.220453       -33.2102
  17   2.0000      -1.090654       -29.6782
  18   2.0000      -1.020191       -27.7608
  19   2.0000      -0.988264       -26.8920
  20   2.0000      -0.959293       -26.1037
  21   2.0000      -0.918059       -24.9817
  22   2.0000      -0.888784       -24.1851
  23   2.0000      -0.862050       -23.4576
  24   2.0000      -0.844271       -22.9738
  25   2.0000      -0.813970       -22.1492
  26   2.0000      -0.777852       -21.1664
  27   2.0000      -0.747686       -20.3456
  28   2.0000      -0.740968       -20.1628
  29   2.0000      -0.730975       -19.8908
  30   2.0000      -0.710737       -19.3401
  31   2.0000      -0.695165       -18.9164
  32   2.0000      -0.671497       -18.2724
  33   2.0000      -0.648988       -17.6599
  34   2.0000      -0.637007       -17.3338
  35   2.0000      -0.631827       -17.1929
  36   2.0000      -0.606654       -16.5079
  37   2.0000      -0.592523       -16.1234
  38   2.0000      -0.585142       -15.9225
  39   2.0000      -0.579349       -15.7649
  40   2.0000      -0.564267       -15.3545
  41   2.0000      -0.554924       -15.1003
  42   2.0000      -0.548142       -14.9157
  43   2.0000      -0.528351       -14.3772
  44   2.0000      -0.518736       -14.1155
  45   2.0000      -0.510481       -13.8909
  46   2.0000      -0.507646       -13.8137
  47   2.0000      -0.495320       -13.4783
  48   2.0000      -0.488241       -13.2857
  49   2.0000      -0.479261       -13.0414
  50   2.0000      -0.476021       -12.9532
  51   2.0000      -0.461012       -12.5448
  52   2.0000      -0.452428       -12.3112
  53   2.0000      -0.449009       -12.2181
  54   2.0000      -0.436482       -11.8773
  55   2.0000      -0.434556       -11.8249
  56   2.0000      -0.428401       -11.6574
  57   2.0000      -0.399105       -10.8602
  58   2.0000      -0.287921        -7.8347
  59   0.0000       0.045146         1.2285
  60   0.0000       0.058477         1.5912
  61   0.0000       0.065486         1.7820
  62   0.0000       0.070912         1.9296
  63   0.0000       0.075397         2.0517

MULLIKEN ATOMIC CHARGES
-----------------------
   0 C :   -0.966352
   1 C :   -0.917882
   2 C :   -0.591462
   3 H :    0.363381
   4 H :    0.408737
   5 C :    0.574424
   6 C :   -0.104804
   7 N :   -0.338852
   8 C :   -1.142355
   9 H :    0.707221
  10 H :    0.283018
  11 H :    0.244838
  12 H :    0.362594
  13 O :   -0.545878
  14 F :   -0.314782
  15 C :   -0.817809
  16 C :   -0.700345
  17 C :   -0.535971
  18 H :    0.404782
  19 H :    0.292034
  20 H :    0.403862
  21 H :    0.385824
  22 C :    0.101022
  23 H :    0.394900
  24 H :    0.403298
  25 C :   -0.875346
  26 H :    0.050772
  27 H :    0.303089
  28 C :   -0.891473
  29 H :    0.386683
  30 H :    0.392075
  31 H :    0.406432
  32 H :    0.360105
  33 H :    0.391665
  34 H :    0.376630
  35 H :    0.369962
  36 H :    0.375962
Sum of atomic charges:    0.0000000

LOEWDIN ATOMIC CHARGES
----------------------
   0 C :   -0.160139
   1 C :   -0.216765
   2 C :   -0.110502
   3 H :    0.132834
   4 H :    0.136753
   5 C :   -0.452737
   6 C :   -0.515837
   7 N :    0.119048
   8 C :    0.006290
   9 H :   -0.018274
  10 H :    0.045928
  11 H :    0.119483
  12 H :    0.069623
  13 O :    0.082443
  14 F :    0.208257
  15 C :   -0.213957
  16 C :   -0.230450
  17 C :   -0.228023
  18 H :    0.131401
  19 H :    0.112341
  20 H :    0.126379
  21 H :    0.120557
  22 C :   -0.227443
  23 H :    0.111675
  24 H :    0.120751
  25 C :   -0.238778
  26 H :    0.095217
  27 H :    0.139467
  28 C :   -0.226424
  29 H :    0.114731
  30 H :    0.122510
  31 H :    0.115271
  32 H :    0.125871
  33 H :    0.117585
  34 H :    0.120672
  35 H :    0.123389
  36 H :    0.120854

  Mayer bond orders larger than 0.100000
B(  0-C ,  6-C ) :   0.6693 B(  0-C , 15-C ) :   0.6912 B(  0-C , 35-H ) :   0.8817
B(  0-C , 36-H ) :   1.0918 B(  1-C ,  2-C ) :   0.7042 B(  1-C , 17-C ) :   0.7249
B(  1-C , 20-H ) :   0.8917 B(  1-C , 21-H ) :   0.9334 B(  2-C ,  3-H ) :   0.9667
B(  2-C ,  4-H ) :   0.8618 B(  2-C ,  5-C ) :   0.8411 B(  2-C , 16-C ) :   0.1207
B(  2-C , 17-C ) :  -0.1681 B(  5-C , 13-O ) :   1.6590 B(  5-C , 14-F ) :   0.7800
B(  6-C ,  7-N ) :   0.8084 B(  6-C ,  8-C ) :   1.8575 B(  6-C ,  9-H ) :  -0.1447
B(  6-C , 10-H ) :  -0.1181 B(  7-N , 11-H ) :   0.9371 B(  7-N , 12-H ) :   0.7429
B(  8-C ,  9-H ) :   0.6890 B(  8-C , 10-H ) :   1.1896 B(  8-C , 26-H ) :  -0.1511
B(  9-H , 13-O ) :  -0.2991 B( 13-O , 14-F ) :   0.1048 B( 15-C , 22-C ) :   0.5185
B( 15-C , 23-H ) :   0.8796 B( 15-C , 24-H ) :   0.8924 B( 15-C , 25-C ) :   0.2165
B( 16-C , 17-C ) :   0.4374 B( 16-C , 22-C ) :   0.1115 B( 16-C , 25-C ) :  -0.1014
B( 16-C , 28-C ) :   0.8381 B( 16-C , 31-H ) :   0.9850 B( 16-C , 32-H ) :   0.8890
B( 17-C , 18-H ) :   0.8683 B( 17-C , 19-H ) :   1.0752 B( 17-C , 31-H ) :  -0.1003
B( 22-C , 25-C ) :   0.4985 B( 22-C , 26-H ) :   1.0847 B( 22-C , 27-H ) :   0.7965
B( 25-C , 28-C ) :   0.7922 B( 25-C , 29-H ) :   0.9368 B( 25-C , 30-H ) :   0.8952
B( 26-H , 27-H ) :   0.2649 B( 28-C , 33-H ) :   0.9426 B( 28-C , 34-H ) :   0.9246

FINAL SINGLE POINT ENERGY      -698.325030350116

DIPOLE MOMENT
-------------
                                X             Y             Z
Electronic contribution:     -2.30974       3.59256      16.15540
Nuclear contribution   :      0.32481      -3.64700     -16.75441
                        -----------------------------------------
Total Dipole Moment    :     -1.98493      -0.05444      -0.59900
                        -----------------------------------------
Magnitude (a.u.)       :      2.07406
Magnitude (Debye)      :      5.27184

Rotational constants in cm-1:     0.021629     0.017327     0.011372
Rotational constants in MHz :   648.414821   519.443407   340.925013

                             ****ORCA TERMINATED NORMALLY****
TOTAL RUN TIME: 0 days 0 hours 10 minutes 13 seconds 667 msec
