                         Program Version 5.0.0 -  RELEASE  -
|  1> !LC-BLYP RIJCOSX def2-SVPD def2/J TightSCF
|  2> *xyz -1 1
|  3> C          3.80351        1.37472       -3.26081
|  4> C          3.93993        0.32036       -4.36773
|  5> H          4.10504       -0.65508       -3.90773
|  6> H          3.02280        0.28052       -4.95712
|  7> C          5.10585        0.66802       -5.30546
|  8> O          4.80913        1.15019       -6.41436
|  9> O          6.26737        0.56500       -4.81948
| 10> H          3.64113        2.33595       -3.70189
| 11> H          4.69995        1.39701       -2.67703
| 12> H          2.97435        1.12625       -2.63180
| 13> *
| 14>
| 15> %MaxCore 64000
| 16>
| 17> %pal nprocs 4
| 18> end
| 19>
| 20> %scf
| 21>   MaxIter 150
| 22> end
| 23>
| 24>
| 25>                          ****END OF INPUT****

CARTESIAN COORDINATES (ANGSTROEM)
---------------------------------
  C      3.803510    1.374720   -3.260810
  C      3.939930    0.320360   -4.367730
  H      4.105040   -0.655080   -3.907730
  H      3.022800    0.280520   -4.957120
  C      5.105850    0.668020   -5.305460
  O      4.809130    1.150190   -6.414360
  O      6.267370    0.565000   -4.819480
  H      3.641130    2.335950   -3.701890
  H      4.699950    1.397010   -2.677030
  H      2.974350    1.126250   -2.631800

 Total Charge           Charge          ....   -1
 Multiplicity           Mult            ....    1
 Number of Electrons    NEL             ....   40
 Basis Dimension        Dim             ....  146

ORBITAL ENERGIES
----------------

  NO   OCC          E(Eh)            E(eV)
   0   2.0000     -18.699658      -508.8436
   1   2.0000     -18.695950      -508.7427
   2   2.0000      -9.975475      -271.4465
   3   2.0000      -9.925078      -270.0751
   4   2.0000      -9.912164      -269.7237
   5   2.0000      -0.909568       -24.7506
   6   2.0000      -0.815057       -22.1788
   7   2.0000      -0.710806       -19.3420
   8   2.0000      -0.576714       -15.6932
   9   2.0000      -0.427406       -11.6303
  10   2.0000      -0.399175       -10.8621
  11   2.0000      -0.362792        -9.8721
  12   2.0000      -0.338230        -9.2037
  13   2.0000      -0.317191        -8.6312
  14   2.0000      -0.312968        -8.5163
  15   2.0000      -0.279786        -7.6134
  16   2.0000      -0.272080        -7.4037
  17   2.0000      -0.152664        -4.1542
  18   2.0000      -0.142605        -3.8805
  19   2.0000      -0.132368        -3.6019
  20   0.0000       0.206221         5.6116
  21   0.0000       0.238051         6.4777
  22   0.0000       0.250360         6.8126
  23   0.0000       0.275932         7.5085
  24   0.0000       0.298021         8.1096

MULLIKEN ATOMIC CHARGES
-----------------------
   0 C :    0.730195
   1 C :   -0.083130
   2 H :   -0.095293
   3 H :   -0.098764
   4 C :    0.126123
   5 O :   -0.537259
   6 O :   -0.590952
   7 H :   -0.158022
   8 H :   -0.124475
   9 H :   -0.168422
Sum of atomic charges:   -1.0000000

LOEWDIN ATOMIC CHARGES
----------------------
   0 C :    0.093123
   1 C :   -0.052785
   2 H :    0.008423
   3 H :    0.003842
   4 C :   -0.349966
   5 O :   -0.305461
   6 O :   -0.317777
   7 H :   -0.017443
   8 H :   -0.022696
   9 H :   -0.039261

  Mayer bond orders larger than 0.100000
B(  0-C ,  1-C ) :   1.2985 B(  0-C ,  2-H ) :   0.1130 B(  0-C ,  3-H ) :   0.1149
B(  0-C ,  7-H ) :   0.7996 B(  0-C ,  8-H ) :   0.7943 B(  0-C ,  9-H ) :   0.8073
B(  1-C ,  2-H ) :   0.8780 B(  1-C ,  3-H ) :   0.9189 B(  1-C ,  4-C ) :   1.0361
B(  1-C ,  7-H ) :   0.2008 B(  1-C ,  8-H ) :   0.2037 B(  1-C ,  9-H ) :   0.1770
B(  3-H ,  4-C ) :   0.1614 B(  4-C ,  5-O ) :   1.6353 B(  4-C ,  6-O ) :   1.6272

FINAL SINGLE POINT ENERGY      -267.061781479956

DIPOLE MOMENT
-------------
                                X             Y             Z
Electronic contribution:      3.65690      -0.50725      -4.44086
Nuclear contribution   :     -5.15232       0.33441       5.87398
                        -----------------------------------------
Total Dipole Moment    :     -1.49542      -0.17284       1.43312
                        -----------------------------------------
Magnitude (a.u.)       :      2.07846
Magnitude (Debye)      :      5.28302

Rotational constants in cm-1:     0.295355     0.137164     0.110193
Rotational constants in MHz :  8854.523706  4112.077980  3303.490503

                             ****ORCA TERMINATED NORMALLY****
TOTAL RUN TIME: 0 days 0 hours 0 minutes 16 seconds 312 msec
