                         Program Version 5.0.0 -  RELEASE  -
|  1> !LC-BLYP RIJCOSX def2-SVPD def2/J TightSCF
|  2> *xyz 1 1
|  3> C          3.90595        2.81985       -3.75292
|  4> N          5.29562        3.13151       -4.10533
|  5> C          3.80351        1.37472       -3.26081
|  6> C          5.70862        3.46889       -5.32419
|  7> N          6.90470        3.03895       -5.71708
|  8> N          4.98188        4.29357       -6.09746
|  9> H          5.00055        4.10131       -7.08776
| 10> H          4.08469        4.59690       -5.73965
| 11> H          5.96336        2.52611       -3.64239
| 12> H          7.04716        2.06686       -5.47360
| 13> H          7.19815        3.30799       -6.64523
| 14> H          3.28202        2.94919       -4.64026
| 15> H          3.56525        3.51457       -2.98252
| 16> H          4.14157        0.71142       -4.02935
| 17> H          2.78528        1.15146       -3.01944
| 18> H          4.41205        1.25066       -2.38949
| 19> *
| 20>
| 21> %MaxCore 64000
| 22>
| 23> %pal nprocs 4
| 24> end
| 25>
| 26> %scf
| 27>   MaxIter 150
| 28> end
| 29>
| 30>
| 31>                          ****END OF INPUT****

CARTESIAN COORDINATES (ANGSTROEM)
---------------------------------
  C      3.905950    2.819850   -3.752920
  N      5.295620    3.131510   -4.105330
  C      3.803510    1.374720   -3.260810
  C      5.708620    3.468890   -5.324190
  N      6.904700    3.038950   -5.717080
  N      4.981880    4.293570   -6.097460
  H      5.000550    4.101310   -7.087760
  H      4.084690    4.596900   -5.739650
  H      5.963360    2.526110   -3.642390
  H      7.047160    2.066860   -5.473600
  H      7.198150    3.307990   -6.645230
  H      3.282020    2.949190   -4.640260
  H      3.565250    3.514570   -2.982520
  H      4.141570    0.711420   -4.029350
  H      2.785280    1.151460   -3.019440
  H      4.412050    1.250660   -2.389490

 Total Charge           Charge          ....    1
 Multiplicity           Mult            ....    1
 Number of Electrons    NEL             ....   48
 Basis Dimension        Dim             ....  200

ORBITAL ENERGIES
----------------

  NO   OCC          E(Eh)            E(eV)
   0   2.0000     -14.417268      -392.3138
   1   2.0000     -14.416367      -392.2893
   2   2.0000     -14.415930      -392.2774
   3   2.0000     -10.427275      -283.7406
   4   2.0000     -10.296014      -280.1688
   5   2.0000     -10.230021      -278.3730
   6   2.0000      -1.317986       -35.8642
   7   2.0000      -1.205066       -32.7915
   8   2.0000      -1.195885       -32.5417
   9   2.0000      -1.039807       -28.2946
  10   2.0000      -0.938058       -25.5259
  11   2.0000      -0.915642       -24.9159
  12   2.0000      -0.885579       -24.0978
  13   2.0000      -0.851154       -23.1611
  14   2.0000      -0.809147       -22.0180
  15   2.0000      -0.792432       -21.5632
  16   2.0000      -0.759376       -20.6637
  17   2.0000      -0.732436       -19.9306
  18   2.0000      -0.703677       -19.1480
  19   2.0000      -0.663786       -18.0625
  20   2.0000      -0.637939       -17.3592
  21   2.0000      -0.621681       -16.9168
  22   2.0000      -0.591408       -16.0930
  23   2.0000      -0.558529       -15.1983
  24   0.0000      -0.116064        -3.1583
  25   0.0000      -0.097700        -2.6586
  26   0.0000      -0.063564        -1.7297
  27   0.0000      -0.051430        -1.3995
  28   0.0000      -0.031959        -0.8697

MULLIKEN ATOMIC CHARGES
-----------------------
   0 C :    0.435311
   1 N :   -0.203850
   2 C :    0.936826
   3 C :    0.476000
   4 N :    0.210438
   5 N :    0.218852
   6 H :   -0.041951
   7 H :   -0.033937
   8 H :   -0.086341
   9 H :   -0.010349
  10 H :   -0.022432
  11 H :   -0.173672
  12 H :   -0.321095
  13 H :   -0.134363
  14 H :   -0.147671
  15 H :   -0.101766
Sum of atomic charges:    1.0000000

LOEWDIN ATOMIC CHARGES
----------------------
   0 C :    0.022106
   1 N :    0.067308
   2 C :    0.148851
   3 C :   -0.079324
   4 N :    0.281401
   5 N :    0.293452
   6 H :    0.038637
   7 H :    0.024513
   8 H :    0.047232
   9 H :    0.038247
  10 H :    0.037818
  11 H :    0.027887
  12 H :    0.043171
  13 H :   -0.002691
  14 H :    0.010089
  15 H :    0.001303

  Mayer bond orders larger than 0.100000
B(  0-C ,  1-N ) :   0.9637 B(  0-C ,  2-C ) :   1.3073 B(  0-C , 11-H ) :   0.7649
B(  0-C , 12-H ) :   0.8482 B(  0-C , 13-H ) :   0.2541 B(  0-C , 14-H ) :   0.2722
B(  0-C , 15-H ) :   0.1764 B(  1-N ,  3-C ) :   1.2563 B(  1-N ,  4-N ) :   0.1949
B(  1-N ,  8-H ) :   1.1086 B(  1-N , 11-H ) :   0.1187 B(  1-N , 12-H ) :   0.1590
B(  2-C , 13-H ) :   0.7375 B(  2-C , 14-H ) :   0.7392 B(  2-C , 15-H ) :   0.7734
B(  3-C ,  4-N ) :   1.1006 B(  3-C ,  5-N ) :   1.0917 B(  3-C ,  8-H ) :  -0.1835
B(  4-N ,  5-N ) :   0.1063 B(  4-N ,  9-H ) :   1.0303 B(  4-N , 10-H ) :   0.9816
B(  5-N ,  6-H ) :   1.1264 B(  5-N ,  7-H ) :   0.9732 B(  6-H ,  7-H ) :  -0.1230

FINAL SINGLE POINT ENERGY      -283.469527902843

DIPOLE MOMENT
-------------
                                X             Y             Z
Electronic contribution:      3.50972       3.40233      -2.66219
Nuclear contribution   :     -3.31456      -3.64300       1.57303
                        -----------------------------------------
Total Dipole Moment    :      0.19516      -0.24067      -1.08916
                        -----------------------------------------
Magnitude (a.u.)       :      1.13238
Magnitude (Debye)      :      2.87827

Rotational constants in cm-1:     0.229487     0.071000     0.059428
Rotational constants in MHz :  6879.840828  2128.520047  1781.605314

                             ****ORCA TERMINATED NORMALLY****
TOTAL RUN TIME: 0 days 0 hours 0 minutes 32 seconds 176 msec
