                         Program Version 5.0.0 -  RELEASE  -
|  1> !LC-BLYP RIJCOSX def2-SVPD def2/J TightSCF
|  2> *xyz 0 1
|  3> C          3.80351        1.37472       -3.26081
|  4> C          3.93993        0.32036       -4.36773
|  5> H          4.10504       -0.65508       -3.90773
|  6> H          3.02280        0.28052       -4.95712
|  7> C          5.10585        0.66802       -5.30546
|  8> F          4.80913        1.15019       -6.41436
|  9> O          6.26737        0.56500       -4.81948
| 10> H          3.64113        2.33595       -3.70189
| 11> H          4.69995        1.39701       -2.67703
| 12> H          2.97435        1.12625       -2.63180
| 13> *
| 14>
| 15> %MaxCore 64000
| 16>
| 17> %pal nprocs 4
| 18> end
| 19>
| 20> %scf
| 21>   MaxIter 150
| 22> end
| 23>
| 24>
| 25>                          ****END OF INPUT****

CARTESIAN COORDINATES (ANGSTROEM)
---------------------------------
  C      3.803510    1.374720   -3.260810
  C      3.939930    0.320360   -4.367730
  H      4.105040   -0.655080   -3.907730
  H      3.022800    0.280520   -4.957120
  C      5.105850    0.668020   -5.305460
  F      4.809130    1.150190   -6.414360
  O      6.267370    0.565000   -4.819480
  H      3.641130    2.335950   -3.701890
  H      4.699950    1.397010   -2.677030
  H      2.974350    1.126250   -2.631800

 Total Charge           Charge          ....    0
 Multiplicity           Mult            ....    1
 Number of Electrons    NEL             ....   40
 Basis Dimension        Dim             ....  146

ORBITAL ENERGIES
----------------

  NO   OCC          E(Eh)            E(eV)
   0   2.0000     -24.554355      -668.1580
   1   2.0000     -18.969093      -516.1753
   2   2.0000     -10.273392      -279.5532
   3   2.0000     -10.119645      -275.3695
   4   2.0000     -10.094338      -274.6809
   5   2.0000      -1.398493       -38.0549
   6   2.0000      -1.117946       -30.4209
   7   2.0000      -0.907616       -24.6975
   8   2.0000      -0.794162       -21.6103
   9   2.0000      -0.749516       -20.3954
  10   2.0000      -0.667453       -18.1623
  11   2.0000      -0.648296       -17.6410
  12   2.0000      -0.613026       -16.6813
  13   2.0000      -0.572849       -15.5880
  14   2.0000      -0.540909       -14.7189
  15   2.0000      -0.505493       -13.7552
  16   2.0000      -0.482370       -13.1260
  17   2.0000      -0.474995       -12.9253
  18   2.0000      -0.452944       -12.3252
  19   2.0000      -0.395800       -10.7703
  20   0.0000       0.044729         1.2171
  21   0.0000       0.063859         1.7377
  22   0.0000       0.096508         2.6261
  23   0.0000       0.106048         2.8857
  24   0.0000       0.129160         3.5146

MULLIKEN ATOMIC CHARGES
-----------------------
   0 C :    0.777098
   1 C :   -0.103038
   2 H :   -0.051436
   3 H :   -0.081369
   4 C :    0.463314
   5 F :   -0.257115
   6 O :   -0.364328
   7 H :   -0.142986
   8 H :   -0.109215
   9 H :   -0.130925
Sum of atomic charges:    0.0000000

LOEWDIN ATOMIC CHARGES
----------------------
   0 C :    0.131402
   1 C :   -0.005628
   2 H :    0.041396
   3 H :    0.026860
   4 C :   -0.055219
   5 F :   -0.002775
   6 O :   -0.119046
   7 H :   -0.005140
   8 H :   -0.003721
   9 H :   -0.008129

  Mayer bond orders larger than 0.100000
B(  0-C ,  1-C ) :   1.3151 B(  0-C ,  2-H ) :   0.1064 B(  0-C ,  3-H ) :   0.1103
B(  0-C ,  7-H ) :   0.7921 B(  0-C ,  8-H ) :   0.7918 B(  0-C ,  9-H ) :   0.8130
B(  1-C ,  2-H ) :   0.8743 B(  1-C ,  3-H ) :   0.9173 B(  1-C ,  4-C ) :   1.0820
B(  1-C ,  7-H ) :   0.1840 B(  1-C ,  8-H ) :   0.1854 B(  1-C ,  9-H ) :   0.1689
B(  4-C ,  5-F ) :   0.8923 B(  4-C ,  6-O ) :   1.9426 B(  5-F ,  6-O ) :   0.1133

FINAL SINGLE POINT ENERGY      -291.574821434034

DIPOLE MOMENT
-------------
                                X             Y             Z
Electronic contribution:      3.96332      -0.02148      -7.42688
Nuclear contribution   :     -5.17129      -0.01923       7.59895
                        -----------------------------------------
Total Dipole Moment    :     -1.20798      -0.04071       0.17207
                        -----------------------------------------
Magnitude (a.u.)       :      1.22085
Magnitude (Debye)      :      3.10315

Rotational constants in cm-1:     0.282073     0.131822     0.105134
Rotational constants in MHz :  8456.328792  3951.925810  3151.840112

                             ****ORCA TERMINATED NORMALLY****
TOTAL RUN TIME: 0 days 0 hours 0 minutes 18 seconds 279 msec
