                         Program Version 5.0.0 -  RELEASE  -
|  1> !LC-BLYP RIJCOSX def2-SVPD def2/J TightSCF
|  2> *xyz 0 1
|  3> C          3.90595        2.81985       -3.75292
|  4> C          5.29562        3.13151       -4.10533
|  5> C          3.80351        1.37472       -3.26081
|  6> C          5.70862        3.46889       -5.32419
|  7> N          6.90470        3.03895       -5.71708
|  8> N          4.98188        4.29357       -6.09746
|  9> H          5.00055        4.10131       -7.08776
| 10> H          4.08469        4.59690       -5.73965
| 11> H          5.96336        2.52611       -3.64239
| 12> H          7.04716        2.06686       -5.47360
| 13> H          7.19815        3.30799       -6.64523
| 14> H          3.28202        2.94919       -4.64026
| 15> H          3.56525        3.51457       -2.98252
| 16> H          4.14157        0.71142       -4.02935
| 17> H          2.78528        1.15146       -3.01944
| 18> H          4.41205        1.25066       -2.38949
| 19> *
| 20>
| 21> %MaxCore 64000
| 22>
| 23> %pal nprocs 4
| 24> end
| 25>
| 26> %scf
| 27>   MaxIter 150
| 28> end
| 29>
| 30>
| 31>                          ****END OF INPUT****

CARTESIAN COORDINATES (ANGSTROEM)
---------------------------------
  C      3.905950    2.819850   -3.752920
  C      5.295620    3.131510   -4.105330
  C      3.803510    1.374720   -3.260810
  C      5.708620    3.468890   -5.324190
  N      6.904700    3.038950   -5.717080
  N      4.981880    4.293570   -6.097460
  H      5.000550    4.101310   -7.087760
  H      4.084690    4.596900   -5.739650
  H      5.963360    2.526110   -3.642390
  H      7.047160    2.066860   -5.473600
  H      7.198150    3.307990   -6.645230
  H      3.282020    2.949190   -4.640260
  H      3.565250    3.514570   -2.982520
  H      4.141570    0.711420   -4.029350
  H      2.785280    1.151460   -3.019440
  H      4.412050    1.250660   -2.389490

 Total Charge           Charge          ....    0
 Multiplicity           Mult            ....    1
 Number of Electrons    NEL             ....   48
 Basis Dimension        Dim             ....  200

ORBITAL ENERGIES
----------------

  NO   OCC          E(Eh)            E(eV)
   0   2.0000     -14.193725      -386.2309
   1   2.0000     -14.189805      -386.1242
   2   2.0000     -10.131351      -275.6881
   3   2.0000     -10.064114      -273.8585
   4   2.0000     -10.057139      -273.6687
   5   2.0000     -10.013564      -272.4829
   6   2.0000      -1.061488       -28.8846
   7   2.0000      -0.971355       -26.4319
   8   2.0000      -0.882266       -24.0077
   9   2.0000      -0.799098       -21.7446
  10   2.0000      -0.717482       -19.5237
  11   2.0000      -0.683124       -18.5888
  12   2.0000      -0.642009       -17.4699
  13   2.0000      -0.615419       -16.7464
  14   2.0000      -0.582238       -15.8435
  15   2.0000      -0.553973       -15.0744
  16   2.0000      -0.526801       -14.3350
  17   2.0000      -0.494667       -13.4606
  18   2.0000      -0.474087       -12.9006
  19   2.0000      -0.453238       -12.3332
  20   2.0000      -0.426227       -11.5982
  21   2.0000      -0.423943       -11.5361
  22   2.0000      -0.376268       -10.2388
  23   2.0000      -0.265216        -7.2169
  24   0.0000       0.067182         1.8281
  25   0.0000       0.095213         2.5909
  26   0.0000       0.098105         2.6696
  27   0.0000       0.115782         3.1506
  28   0.0000       0.127186         3.4609

MULLIKEN ATOMIC CHARGES
-----------------------
   0 C :    0.116539
   1 C :    0.034642
   2 C :    0.993892
   3 C :   -0.017273
   4 N :    0.238452
   5 N :    0.218013
   6 H :   -0.120244
   7 H :   -0.028957
   8 H :   -0.358422
   9 H :   -0.003324
  10 H :   -0.134859
  11 H :   -0.263777
  12 H :   -0.237137
  13 H :   -0.116485
  14 H :   -0.210129
  15 H :   -0.110930
Sum of atomic charges:    0.0000000

LOEWDIN ATOMIC CHARGES
----------------------
   0 C :   -0.114887
   1 C :   -0.026946
   2 C :    0.102379
   3 C :   -0.262144
   4 N :    0.198270
   5 N :    0.210170
   6 H :   -0.011652
   7 H :   -0.007742
   8 H :   -0.052887
   9 H :    0.002936
  10 H :   -0.012339
  11 H :    0.006376
  12 H :    0.014420
  13 H :   -0.012901
  14 H :   -0.020251
  15 H :   -0.012802

  Mayer bond orders larger than 0.100000
B(  0-C ,  1-C ) :   0.9858 B(  0-C ,  2-C ) :   1.2854 B(  0-C ,  3-C ) :   0.1275
B(  0-C ,  8-H ) :   0.2212 B(  0-C , 11-H ) :   0.7796 B(  0-C , 12-H ) :   0.7696
B(  0-C , 13-H ) :   0.2630 B(  0-C , 14-H ) :   0.3166 B(  0-C , 15-H ) :   0.2175
B(  1-C ,  3-C ) :   1.9045 B(  1-C ,  4-N ) :   0.3144 B(  1-C ,  5-N ) :   0.1845
B(  1-C ,  8-H ) :   0.4972 B(  1-C , 11-H ) :   0.1215 B(  1-C , 12-H ) :   0.1855
B(  2-C , 13-H ) :   0.7256 B(  2-C , 14-H ) :   0.7050 B(  2-C , 15-H ) :   0.7517
B(  3-C ,  4-N ) :   1.0463 B(  3-C ,  5-N ) :   1.0822 B(  3-C ,  8-H ) :   0.3609
B(  3-C , 10-H ) :   0.1025 B(  4-N ,  9-H ) :   1.0170 B(  4-N , 10-H ) :   0.9157
B(  5-N ,  6-H ) :   1.0735 B(  5-N ,  7-H ) :   0.9783

FINAL SINGLE POINT ENERGY      -267.008331712362

DIPOLE MOMENT
-------------
                                X             Y             Z
Electronic contribution:      3.14558       3.24447      -2.82614
Nuclear contribution   :     -3.27358      -3.61654       1.70633
                        -----------------------------------------
Total Dipole Moment    :     -0.12799      -0.37207      -1.11981
                        -----------------------------------------
Magnitude (a.u.)       :      1.18693
Magnitude (Debye)      :      3.01693

Rotational constants in cm-1:     0.231961     0.071249     0.059473
Rotational constants in MHz :  6954.024434  2135.976855  1782.962814

                             ****ORCA TERMINATED NORMALLY****
TOTAL RUN TIME: 0 days 0 hours 0 minutes 33 seconds 418 msec
