                         Program Version 5.0.0 -  RELEASE  -
|  1> !LC-BLYP RIJCOSX def2-SVPD def2/J TightSCF
|  2> *xyz 0 1
|  3> C          3.80351        1.37472       -3.26081
|  4> C          3.93993        0.32036       -4.36773
|  5> H          4.10504       -0.65508       -3.90773
|  6> H          3.02280        0.28052       -4.95712
|  7> C          5.10585        0.66802       -5.30546
|  8> O          4.80913        1.15019       -6.41436
|  9> F          6.26737        0.56500       -4.81948
| 10> H          3.64113        2.33595       -3.70189
| 11> H          4.69995        1.39701       -2.67703
| 12> H          2.97435        1.12625       -2.63180
| 13> *
| 14>
| 15> %MaxCore 64000
| 16>
| 17> %pal nprocs 4
| 18> end
| 19>
| 20> %scf
| 21>   MaxIter 150
| 22> end
| 23>
| 24>
| 25>                          ****END OF INPUT****

CARTESIAN COORDINATES (ANGSTROEM)
---------------------------------
  C      3.803510    1.374720   -3.260810
  C      3.939930    0.320360   -4.367730
  H      4.105040   -0.655080   -3.907730
  H      3.022800    0.280520   -4.957120
  C      5.105850    0.668020   -5.305460
  O      4.809130    1.150190   -6.414360
  F      6.267370    0.565000   -4.819480
  H      3.641130    2.335950   -3.701890
  H      4.699950    1.397010   -2.677030
  H      2.974350    1.126250   -2.631800

 Total Charge           Charge          ....    0
 Multiplicity           Mult            ....    1
 Number of Electrons    NEL             ....   40
 Basis Dimension        Dim             ....  146

ORBITAL ENERGIES
----------------

  NO   OCC          E(Eh)            E(eV)
   0   2.0000     -24.547756      -667.9784
   1   2.0000     -18.971883      -516.2512
   2   2.0000     -10.271538      -279.5028
   3   2.0000     -10.119105      -275.3548
   4   2.0000     -10.097157      -274.7576
   5   2.0000      -1.385028       -37.6885
   6   2.0000      -1.128453       -30.7068
   7   2.0000      -0.909582       -24.7510
   8   2.0000      -0.788800       -21.4643
   9   2.0000      -0.747578       -20.3426
  10   2.0000      -0.661701       -18.0058
  11   2.0000      -0.644844       -17.5471
  12   2.0000      -0.609539       -16.5864
  13   2.0000      -0.572519       -15.5790
  14   2.0000      -0.541356       -14.7310
  15   2.0000      -0.509613       -13.8673
  16   2.0000      -0.488358       -13.2889
  17   2.0000      -0.475010       -12.9257
  18   2.0000      -0.462033       -12.5726
  19   2.0000      -0.396097       -10.7783
  20   0.0000       0.048685         1.3248
  21   0.0000       0.063551         1.7293
  22   0.0000       0.096668         2.6305
  23   0.0000       0.105813         2.8793
  24   0.0000       0.129741         3.5304

MULLIKEN ATOMIC CHARGES
-----------------------
   0 C :    0.760839
   1 C :   -0.082293
   2 H :   -0.067320
   3 H :   -0.077256
   4 C :    0.470589
   5 O :   -0.322714
   6 F :   -0.296538
   7 H :   -0.136964
   8 H :   -0.122240
   9 H :   -0.126102
Sum of atomic charges:    0.0000000

LOEWDIN ATOMIC CHARGES
----------------------
   0 C :    0.128856
   1 C :   -0.003575
   2 H :    0.033810
   3 H :    0.037806
   4 C :   -0.056419
   5 O :   -0.107587
   6 F :   -0.014564
   7 H :   -0.001877
   8 H :   -0.008837
   9 H :   -0.007614

  Mayer bond orders larger than 0.100000
B(  0-C ,  1-C ) :   1.3023 B(  0-C ,  2-H ) :   0.1077 B(  0-C ,  3-H ) :   0.1014
B(  0-C ,  7-H ) :   0.8065 B(  0-C ,  8-H ) :   0.7826 B(  0-C ,  9-H ) :   0.8198
B(  1-C ,  2-H ) :   0.8755 B(  1-C ,  3-H ) :   0.9292 B(  1-C ,  4-C ) :   1.0555
B(  1-C ,  7-H ) :   0.1839 B(  1-C ,  8-H ) :   0.1798 B(  1-C ,  9-H ) :   0.1662
B(  3-H ,  4-C ) :   0.1228 B(  4-C ,  5-O ) :   1.9627 B(  4-C ,  6-F ) :   0.8485
B(  5-O ,  6-F ) :   0.1181

FINAL SINGLE POINT ENERGY      -291.580068374666

DIPOLE MOMENT
-------------
                                X             Y             Z
Electronic contribution:      6.39146      -1.00185      -4.74665
Nuclear contribution   :     -6.76123       0.61881       5.86003
                        -----------------------------------------
Total Dipole Moment    :     -0.36977      -0.38304       1.11338
                        -----------------------------------------
Magnitude (a.u.)       :      1.23412
Magnitude (Debye)      :      3.13688

Rotational constants in cm-1:     0.275298     0.134631     0.105723
Rotational constants in MHz :  8253.224169  4036.137572  3169.487264

                             ****ORCA TERMINATED NORMALLY****
TOTAL RUN TIME: 0 days 0 hours 0 minutes 18 seconds 540 msec
