                         Program Version 5.0.0 -  RELEASE  -
|  1> !LC-BLYP RIJCOSX def2-SVPD def2/J TightSCF
|  2> *xyz 0 1
|  3> C          3.90595        2.81985       -3.75292
|  4> N          5.29562        3.13151       -4.10533
|  5> C          3.80351        1.37472       -3.26081
|  6> C          5.70862        3.46889       -5.32419
|  7> C          6.90470        3.03895       -5.71708
|  8> N          4.98188        4.29357       -6.09746
|  9> H          5.00055        4.10131       -7.08776
| 10> H          4.08469        4.59690       -5.73965
| 11> H          5.96336        2.52611       -3.64239
| 12> H          7.04716        2.06686       -5.47360
| 13> H          7.19815        3.30799       -6.64523
| 14> H          3.28202        2.94919       -4.64026
| 15> H          3.56525        3.51457       -2.98252
| 16> H          4.14157        0.71142       -4.02935
| 17> H          2.78528        1.15146       -3.01944
| 18> H          4.41205        1.25066       -2.38949
| 19> *
| 20>
| 21> %MaxCore 64000
| 22>
| 23> %pal nprocs 4
| 24> end
| 25>
| 26> %scf
| 27>   MaxIter 150
| 28> end
| 29>
| 30>
| 31>                          ****END OF INPUT****

CARTESIAN COORDINATES (ANGSTROEM)
---------------------------------
  C      3.905950    2.819850   -3.752920
  N      5.295620    3.131510   -4.105330
  C      3.803510    1.374720   -3.260810
  C      5.708620    3.468890   -5.324190
  C      6.904700    3.038950   -5.717080
  N      4.981880    4.293570   -6.097460
  H      5.000550    4.101310   -7.087760
  H      4.084690    4.596900   -5.739650
  H      5.963360    2.526110   -3.642390
  H      7.047160    2.066860   -5.473600
  H      7.198150    3.307990   -6.645230
  H      3.282020    2.949190   -4.640260
  H      3.565250    3.514570   -2.982520
  H      4.141570    0.711420   -4.029350
  H      2.785280    1.151460   -3.019440
  H      4.412050    1.250660   -2.389490

 Total Charge           Charge          ....    0
 Multiplicity           Mult            ....    1
 Number of Electrons    NEL             ....   48
 Basis Dimension        Dim             ....  200

ORBITAL ENERGIES
----------------

  NO   OCC          E(Eh)            E(eV)
   0   2.0000     -14.193093      -386.2137
   1   2.0000     -14.190516      -386.1436
   2   2.0000     -10.136430      -275.8263
   3   2.0000     -10.126338      -275.5517
   4   2.0000     -10.086128      -274.4575
   5   2.0000      -9.998905      -272.0840
   6   2.0000      -1.066774       -29.0284
   7   2.0000      -0.983920       -26.7738
   8   2.0000      -0.878840       -23.9144
   9   2.0000      -0.810293       -22.0492
  10   2.0000      -0.734663       -19.9912
  11   2.0000      -0.703316       -19.1382
  12   2.0000      -0.641584       -17.4584
  13   2.0000      -0.600012       -16.3272
  14   2.0000      -0.593587       -16.1523
  15   2.0000      -0.556743       -15.1498
  16   2.0000      -0.526942       -14.3388
  17   2.0000      -0.506977       -13.7955
  18   2.0000      -0.484110       -13.1733
  19   2.0000      -0.476058       -12.9542
  20   2.0000      -0.472373       -12.8539
  21   2.0000      -0.439882       -11.9698
  22   2.0000      -0.361343        -9.8327
  23   2.0000      -0.269855        -7.3431
  24   0.0000       0.064678         1.7600
  25   0.0000       0.086307         2.3485
  26   0.0000       0.101664         2.7664
  27   0.0000       0.112391         3.0583
  28   0.0000       0.130424         3.5490

MULLIKEN ATOMIC CHARGES
-----------------------
   0 C :    0.429796
   1 N :   -0.234434
   2 C :    0.936202
   3 C :    0.042493
   4 C :    0.666121
   5 N :    0.231365
   6 H :   -0.056851
   7 H :   -0.129172
   8 H :   -0.055013
   9 H :   -0.344967
  10 H :   -0.460965
  11 H :   -0.180191
  12 H :   -0.379157
  13 H :   -0.151171
  14 H :   -0.200810
  15 H :   -0.113247
Sum of atomic charges:   -0.0000000

LOEWDIN ATOMIC CHARGES
----------------------
   0 C :   -0.009086
   1 N :    0.005692
   2 C :    0.120695
   3 C :   -0.264475
   4 C :    0.137236
   5 N :    0.213677
   6 H :    0.003780
   7 H :   -0.020533
   8 H :    0.018686
   9 H :   -0.101664
  10 H :   -0.102639
  11 H :    0.014209
  12 H :    0.017870
  13 H :   -0.008000
  14 H :   -0.013076
  15 H :   -0.012372

  Mayer bond orders larger than 0.100000
B(  0-C ,  1-N ) :   0.9396 B(  0-C ,  2-C ) :   1.2882 B(  0-C , 11-H ) :   0.7596
B(  0-C , 12-H ) :   0.8259 B(  0-C , 13-H ) :   0.2710 B(  0-C , 14-H ) :   0.2795
B(  0-C , 15-H ) :   0.1846 B(  1-N ,  3-C ) :   1.2406 B(  1-N ,  4-C ) :   0.2380
B(  1-N ,  8-H ) :   1.0576 B(  1-N , 11-H ) :   0.1225 B(  1-N , 12-H ) :   0.1624
B(  2-C , 13-H ) :   0.7337 B(  2-C , 14-H ) :   0.7391 B(  2-C , 15-H ) :   0.7674
B(  3-C ,  4-C ) :   1.8146 B(  3-C ,  5-N ) :   1.0166 B(  3-C ,  8-H ) :  -0.1395
B(  3-C ,  9-H ) :   0.2480 B(  3-C , 10-H ) :   0.3828 B(  4-C ,  5-N ) :   0.2205
B(  4-C ,  9-H ) :   0.7719 B(  4-C , 10-H ) :   0.4536 B(  5-N ,  6-H ) :   1.0949
B(  5-N ,  7-H ) :   0.9340 B(  6-H ,  7-H ) :  -0.1222 B(  9-H , 10-H ) :   0.1889

FINAL SINGLE POINT ENERGY      -266.996578539506

DIPOLE MOMENT
-------------
                                X             Y             Z
Electronic contribution:      1.50985       3.22361      -1.27177
Nuclear contribution   :     -2.93222      -3.63618       1.36440
                        -----------------------------------------
Total Dipole Moment    :     -1.42237      -0.41257       0.09264
                        -----------------------------------------
Magnitude (a.u.)       :      1.48390
Magnitude (Debye)      :      3.77176

Rotational constants in cm-1:     0.237993     0.072843     0.061284
Rotational constants in MHz :  7134.860770  2183.763760  1837.240960

                             ****ORCA TERMINATED NORMALLY****
TOTAL RUN TIME: 0 days 0 hours 0 minutes 34 seconds 150 msec
