                         Program Version 5.0.0 -  RELEASE  -
|  1> !LC-BLYP RIJCOSX def2-SVPD def2/J TightSCF
|  2> *xyz 0 1
|  3> C          3.90595        2.81985       -3.75292
|  4> N          5.29562        3.13151       -4.10533
|  5> C          3.80351        1.37472       -3.26081
|  6> C          5.70862        3.46889       -5.32419
|  7> N          6.90470        3.03895       -5.71708
|  8> C          4.98188        4.29357       -6.09746
|  9> H          5.00055        4.10131       -7.08776
| 10> H          4.08469        4.59690       -5.73965
| 11> H          5.96336        2.52611       -3.64239
| 12> H          7.04716        2.06686       -5.47360
| 13> H          7.19815        3.30799       -6.64523
| 14> H          3.28202        2.94919       -4.64026
| 15> H          3.56525        3.51457       -2.98252
| 16> H          4.14157        0.71142       -4.02935
| 17> H          2.78528        1.15146       -3.01944
| 18> H          4.41205        1.25066       -2.38949
| 19> *
| 20>
| 21> %MaxCore 64000
| 22>
| 23> %pal nprocs 4
| 24> end
| 25>
| 26> %scf
| 27>   MaxIter 150
| 28> end
| 29>
| 30>
| 31>                          ****END OF INPUT****

CARTESIAN COORDINATES (ANGSTROEM)
---------------------------------
  C      3.905950    2.819850   -3.752920
  N      5.295620    3.131510   -4.105330
  C      3.803510    1.374720   -3.260810
  C      5.708620    3.468890   -5.324190
  N      6.904700    3.038950   -5.717080
  C      4.981880    4.293570   -6.097460
  H      5.000550    4.101310   -7.087760
  H      4.084690    4.596900   -5.739650
  H      5.963360    2.526110   -3.642390
  H      7.047160    2.066860   -5.473600
  H      7.198150    3.307990   -6.645230
  H      3.282020    2.949190   -4.640260
  H      3.565250    3.514570   -2.982520
  H      4.141570    0.711420   -4.029350
  H      2.785280    1.151460   -3.019440
  H      4.412050    1.250660   -2.389490

 Total Charge           Charge          ....    0
 Multiplicity           Mult            ....    1
 Number of Electrons    NEL             ....   48
 Basis Dimension        Dim             ....  200

ORBITAL ENERGIES
----------------

  NO   OCC          E(Eh)            E(eV)
   0   2.0000     -14.192993      -386.2110
   1   2.0000     -14.192093      -386.1865
   2   2.0000     -10.135764      -275.8081
   3   2.0000     -10.119974      -275.3785
   4   2.0000     -10.083920      -274.3974
   5   2.0000     -10.004648      -272.2403
   6   2.0000      -1.071599       -29.1597
   7   2.0000      -0.986322       -26.8392
   8   2.0000      -0.867184       -23.5973
   9   2.0000      -0.812051       -22.0970
  10   2.0000      -0.749523       -20.3956
  11   2.0000      -0.672104       -18.2889
  12   2.0000      -0.644595       -17.5403
  13   2.0000      -0.621927       -16.9235
  14   2.0000      -0.581632       -15.8270
  15   2.0000      -0.562346       -15.3022
  16   2.0000      -0.511356       -13.9147
  17   2.0000      -0.505307       -13.7501
  18   2.0000      -0.496141       -13.5007
  19   2.0000      -0.474249       -12.9050
  20   2.0000      -0.465025       -12.6540
  21   2.0000      -0.441378       -12.0105
  22   2.0000      -0.358822        -9.7640
  23   2.0000      -0.273223        -7.4348
  24   0.0000       0.064779         1.7627
  25   0.0000       0.092026         2.5042
  26   0.0000       0.100287         2.7289
  27   0.0000       0.115931         3.1546
  28   0.0000       0.124672         3.3925

MULLIKEN ATOMIC CHARGES
-----------------------
   0 C :    0.451546
   1 N :   -0.115331
   2 C :    0.956405
   3 C :   -0.078557
   4 N :    0.171315
   5 C :    0.620945
   6 H :   -0.513067
   7 H :   -0.217569
   8 H :   -0.193126
   9 H :   -0.054277
  10 H :   -0.005989
  11 H :   -0.135216
  12 H :   -0.407217
  13 H :   -0.159033
  14 H :   -0.179473
  15 H :   -0.141356
Sum of atomic charges:    0.0000000

LOEWDIN ATOMIC CHARGES
----------------------
   0 C :    0.001822
   1 N :    0.006825
   2 C :    0.117586
   3 C :   -0.275072
   4 N :    0.200911
   5 C :    0.155045
   6 H :   -0.102482
   7 H :   -0.107676
   8 H :    0.008797
   9 H :   -0.009470
  10 H :    0.002640
  11 H :    0.018855
  12 H :    0.022651
  13 H :   -0.012356
  14 H :   -0.012226
  15 H :   -0.015849

  Mayer bond orders larger than 0.100000
B(  0-C ,  1-N ) :   0.9815 B(  0-C ,  2-C ) :   1.2606 B(  0-C , 11-H ) :   0.7919
B(  0-C , 12-H ) :   0.8275 B(  0-C , 13-H ) :   0.2386 B(  0-C , 14-H ) :   0.2850
B(  0-C , 15-H ) :   0.1930 B(  1-N ,  3-C ) :   1.2097 B(  1-N ,  4-N ) :   0.1706
B(  1-N ,  5-C ) :   0.2165 B(  1-N ,  8-H ) :   1.0085 B(  1-N , 11-H ) :   0.1276
B(  1-N , 12-H ) :   0.1505 B(  2-C , 13-H ) :   0.7594 B(  2-C , 14-H ) :   0.7247
B(  2-C , 15-H ) :   0.7573 B(  3-C ,  4-N ) :   1.1047 B(  3-C ,  5-C ) :   1.9217
B(  3-C ,  6-H ) :   0.2398 B(  3-C ,  7-H ) :   0.3379 B(  3-C ,  8-H ) :  -0.1144
B(  4-N ,  5-C ) :   0.1504 B(  4-N ,  9-H ) :   0.9457 B(  4-N , 10-H ) :   0.9756
B(  5-C ,  6-H ) :   0.6964 B(  5-C ,  7-H ) :   0.4702 B(  6-H ,  7-H ) :   0.3213

FINAL SINGLE POINT ENERGY      -267.000843600659

DIPOLE MOMENT
-------------
                                X             Y             Z
Electronic contribution:      3.37338       2.05765      -0.98812
Nuclear contribution   :     -3.34013      -3.37002       1.28371
                        -----------------------------------------
Total Dipole Moment    :      0.03325      -1.31237       0.29559
                        -----------------------------------------
Magnitude (a.u.)       :      1.34566
Magnitude (Debye)      :      3.42039

Rotational constants in cm-1:     0.239537     0.072280     0.060961
Rotational constants in MHz :  7181.153552  2166.902802  1827.551447

                             ****ORCA TERMINATED NORMALLY****
TOTAL RUN TIME: 0 days 0 hours 0 minutes 34 seconds 175 msec
