                         Program Version 5.0.0 -  RELEASE  -
|  1> !LC-BLYP RIJCOSX def2-SVPD def2/J TightSCF xyzfile
|  2>
|  3> *xyzfile 0 1 D2.xyz
|  4>
|  5> %MaxCore 64000
|  6>
|  7> %pal nprocs 4
|  8> end
|  9>
| 10> %scf
| 11>   MaxIter 150
| 12> end
| 13>
| 14>
| 15>                          ****END OF INPUT****

CARTESIAN COORDINATES (ANGSTROEM)
---------------------------------
  C      3.905947    2.819855   -3.752920
  N      5.295615    3.131515   -4.105334
  C      3.803511    1.374716   -3.260807
  C      3.939934    0.320362   -4.367729
  H      4.105043   -0.655085   -3.907733
  H      3.022801    0.280517   -4.957117
  C      5.105846    0.668022   -5.305463
  C      5.708619    3.468885   -5.324190
  C      6.904696    3.038954   -5.717084
  N      4.981884    4.293570   -6.097457
  H      5.000546    4.101311   -7.087761
  H      4.084693    4.596899   -5.739652
  H      5.963358    2.526112   -3.642391
  H      7.047164    2.066861   -5.473604
  H      7.198145    3.307994   -6.645225
  H      3.282025    2.949187   -4.640259
  H      3.565254    3.514574   -2.982523
  H      4.574833    1.215157   -2.500443
  H      2.843514    1.260845   -2.751465
  F      4.809132    1.150187   -6.414361
  O      6.267366    0.564999   -4.819481

 Total Charge           Charge          ....    0
 Multiplicity           Mult            ....    1
 Number of Electrons    NEL             ....   78
 Basis Dimension        Dim             ....  294

ORBITAL ENERGIES
----------------

  NO   OCC          E(Eh)            E(eV)
   0   2.0000     -24.559152      -668.2885
   1   2.0000     -18.971793      -516.2487
   2   2.0000     -14.190760      -386.1502
   3   2.0000     -14.189144      -386.1062
   4   2.0000     -10.280659      -279.7509
   5   2.0000     -10.134509      -275.7740
   6   2.0000     -10.127432      -275.5814
   7   2.0000     -10.127212      -275.5755
   8   2.0000     -10.117576      -275.3132
   9   2.0000      -9.982711      -271.6434
  10   2.0000      -1.403155       -38.1818
  11   2.0000      -1.128222       -30.7005
  12   2.0000      -1.066333       -29.0164
  13   2.0000      -0.985705       -26.8224
  14   2.0000      -0.925472       -25.1834
  15   2.0000      -0.849573       -23.1181
  16   2.0000      -0.805162       -21.9096
  17   2.0000      -0.770043       -20.9539
  18   2.0000      -0.728794       -19.8315
  19   2.0000      -0.703035       -19.1305
  20   2.0000      -0.677664       -18.4402
  21   2.0000      -0.656685       -17.8693
  22   2.0000      -0.643841       -17.5198
  23   2.0000      -0.616306       -16.7705
  24   2.0000      -0.603768       -16.4294
  25   2.0000      -0.591403       -16.0929
  26   2.0000      -0.574255       -15.6263
  27   2.0000      -0.547264       -14.8918
  28   2.0000      -0.524033       -14.2597
  29   2.0000      -0.511849       -13.9281
  30   2.0000      -0.501414       -13.6442
  31   2.0000      -0.496105       -13.4997
  32   2.0000      -0.471231       -12.8229
  33   2.0000      -0.467641       -12.7251
  34   2.0000      -0.450972       -12.2716
  35   2.0000      -0.439909       -11.9705
  36   2.0000      -0.385677       -10.4948
  37   2.0000      -0.358856        -9.7650
  38   2.0000      -0.261919        -7.1272
  39   0.0000       0.034776         0.9463
  40   0.0000       0.058097         1.5809
  41   0.0000       0.079624         2.1667
  42   0.0000       0.084514         2.2998
  43   0.0000       0.097093         2.6420

MULLIKEN ATOMIC CHARGES
-----------------------
   0 C :    0.889082
   1 N :   -0.140406
   2 C :    0.290072
   3 C :    0.450330
   4 H :   -0.153142
   5 H :   -0.086241
   6 C :    0.452190
   7 C :   -0.290988
   8 C :    1.070946
   9 N :    0.260514
  10 H :   -0.029530
  11 H :   -0.053194
  12 H :   -0.059094
  13 H :   -0.672443
  14 H :   -0.349333
  15 H :   -0.091940
  16 H :   -0.441718
  17 H :   -0.023967
  18 H :   -0.255707
  19 F :   -0.282011
  20 O :   -0.483420
Sum of atomic charges:    0.0000000

LOEWDIN ATOMIC CHARGES
----------------------
   0 C :    0.041098
   1 N :    0.025303
   2 C :   -0.016259
   3 C :    0.053448
   4 H :    0.044510
   5 H :    0.032089
   6 C :   -0.031605
   7 C :   -0.279557
   8 C :    0.162126
   9 N :    0.218086
  10 H :    0.002837
  11 H :   -0.021246
  12 H :    0.013910
  13 H :   -0.156175
  14 H :   -0.086546
  15 H :    0.019675
  16 H :    0.021631
  17 H :    0.038025
  18 H :    0.031341
  19 F :    0.009842
  20 O :   -0.122533

  Mayer bond orders larger than 0.100000
B(  0-C ,  1-N ) :   0.9195 B(  0-C ,  2-C ) :   1.1761 B(  0-C ,  3-C ) :   0.1191
B(  0-C , 15-H ) :   0.6731 B(  0-C , 16-H ) :   0.7780 B(  0-C , 18-H ) :   0.2032
B(  1-N ,  2-C ) :   0.1456 B(  1-N ,  7-C ) :   1.2477 B(  1-N ,  8-C ) :   0.1976
B(  1-N , 12-H ) :   1.0154 B(  1-N , 15-H ) :   0.1490 B(  2-C ,  3-C ) :   1.1930
B(  2-C ,  4-H ) :   0.1981 B(  2-C ,  5-H ) :   0.1416 B(  2-C , 17-H ) :   0.8010
B(  2-C , 18-H ) :   0.8575 B(  3-C ,  4-H ) :   0.7460 B(  3-C ,  5-H ) :   0.8251
B(  3-C ,  6-C ) :   1.1005 B(  4-H ,  6-C ) :   0.1374 B(  5-H ,  6-C ) :   0.1620
B(  6-C , 19-F ) :   0.8564 B(  6-C , 20-O ) :   1.8788 B(  7-C ,  8-C ) :   1.8962
B(  7-C ,  9-N ) :   0.9904 B(  7-C , 11-H ) :   0.1784 B(  7-C , 12-H ) :  -0.1634
B(  7-C , 13-H ) :   0.1851 B(  7-C , 14-H ) :   0.5441 B(  8-C ,  9-N ) :   0.2578
B(  8-C , 13-H ) :   0.3398 B(  8-C , 14-H ) :   0.1673 B(  9-N , 10-H ) :   1.0364
B(  9-N , 11-H ) :   0.8413 B( 10-H , 11-H ) :  -0.1401 B( 13-H , 14-H ) :   0.2036
B( 13-H , 20-O ) :   0.2399 B( 15-H , 16-H ) :  -0.1603 B( 17-H , 18-H ) :  -0.1179
B( 19-F , 20-O ) :   0.1132

FINAL SINGLE POINT ENERGY      -518.225325225212

DIPOLE MOMENT
-------------
                                X             Y             Z
Electronic contribution:      2.03942      -3.79231      -5.16307
Nuclear contribution   :     -4.40347       3.21582       5.36161
                        -----------------------------------------
Total Dipole Moment    :     -2.36405      -0.57649       0.19855
                        -----------------------------------------
Magnitude (a.u.)       :      2.44141
Magnitude (Debye)      :      6.20558

Rotational constants in cm-1:     0.061226     0.043199     0.033926
Rotational constants in MHz :  1835.503528  1295.087558  1017.061512

                             ****ORCA TERMINATED NORMALLY****
TOTAL RUN TIME: 0 days 0 hours 1 minutes 23 seconds 301 msec
