                         Program Version 5.0.0 -  RELEASE  -
|  1> !LC-BLYP RIJCOSX def2-SVPD def2/J TightSCF xyzfile
|  2>
|  3> *xyzfile 0 1 D4.xyz
|  4>
|  5> %MaxCore 64000
|  6>
|  7> %pal nprocs 4
|  8> end
|  9>
| 10> %scf
| 11>   MaxIter 150
| 12> end
| 13>
| 14>
| 15>                          ****END OF INPUT****

CARTESIAN COORDINATES (ANGSTROEM)
---------------------------------
  C      3.905947    2.819855   -3.752920
  C      5.295615    3.131515   -4.105334
  C      3.803511    1.374716   -3.260807
  C      3.939934    0.320362   -4.367729
  H      4.105043   -0.655085   -3.907733
  H      3.022801    0.280517   -4.957117
  C      5.105846    0.668022   -5.305463
  C      5.708619    3.468885   -5.324190
  N      6.904696    3.038954   -5.717084
  N      4.981884    4.293570   -6.097457
  H      5.000546    4.101311   -7.087761
  H      4.084693    4.596899   -5.739652
  H      5.963358    2.526112   -3.642391
  H      7.047164    2.066861   -5.473604
  H      7.198145    3.307994   -6.645225
  H      3.282025    2.949187   -4.640259
  H      3.565254    3.514574   -2.982523
  H      4.574833    1.215157   -2.500443
  H      2.843514    1.260845   -2.751465
  O      4.809132    1.150187   -6.414361
  F      6.267366    0.564999   -4.819481

 Total Charge           Charge          ....    0
 Multiplicity           Mult            ....    1
 Number of Electrons    NEL             ....   78
 Basis Dimension        Dim             ....  294

ORBITAL ENERGIES
----------------

  NO   OCC          E(Eh)            E(eV)
   0   2.0000     -24.557408      -668.2410
   1   2.0000     -18.971064      -516.2289
   2   2.0000     -14.190502      -386.1432
   3   2.0000     -14.179690      -385.8490
   4   2.0000     -10.274105      -279.5726
   5   2.0000     -10.132945      -275.7314
   6   2.0000     -10.113132      -275.1923
   7   2.0000     -10.094027      -274.6724
   8   2.0000     -10.073080      -274.1024
   9   2.0000     -10.014529      -272.5092
  10   2.0000      -1.396561       -38.0024
  11   2.0000      -1.131182       -30.7810
  12   2.0000      -1.057076       -28.7645
  13   2.0000      -0.966826       -26.3087
  14   2.0000      -0.924664       -25.1614
  15   2.0000      -0.855774       -23.2868
  16   2.0000      -0.798505       -21.7284
  17   2.0000      -0.765014       -20.8171
  18   2.0000      -0.715348       -19.4656
  19   2.0000      -0.698956       -19.0196
  20   2.0000      -0.667579       -18.1658
  21   2.0000      -0.652283       -17.7495
  22   2.0000      -0.634194       -17.2573
  23   2.0000      -0.615232       -16.7413
  24   2.0000      -0.605754       -16.4834
  25   2.0000      -0.573450       -15.6044
  26   2.0000      -0.573087       -15.5945
  27   2.0000      -0.547920       -14.9097
  28   2.0000      -0.534907       -14.5556
  29   2.0000      -0.503321       -13.6961
  30   2.0000      -0.492529       -13.4024
  31   2.0000      -0.478057       -13.0086
  32   2.0000      -0.466327       -12.6894
  33   2.0000      -0.447678       -12.1819
  34   2.0000      -0.439573       -11.9614
  35   2.0000      -0.427795       -11.6409
  36   2.0000      -0.395364       -10.7584
  37   2.0000      -0.366661        -9.9773
  38   2.0000      -0.267597        -7.2817
  39   0.0000       0.046254         1.2586
  40   0.0000       0.066700         1.8150
  41   0.0000       0.084725         2.3055
  42   0.0000       0.092917         2.5284
  43   0.0000       0.102526         2.7899

MULLIKEN ATOMIC CHARGES
-----------------------
   0 C :    0.616741
   1 C :    0.092845
   2 C :    0.330434
   3 C :    0.540394
   4 H :   -0.171478
   5 H :   -0.066746
   6 C :    0.367716
   7 C :   -0.127759
   8 N :    0.441565
   9 N :    0.200626
  10 H :   -0.070303
  11 H :   -0.014742
  12 H :   -0.398073
  13 H :   -0.154571
  14 H :   -0.020749
  15 H :   -0.237413
  16 H :   -0.321771
  17 H :   -0.061491
  18 H :   -0.274106
  19 O :   -0.298012
  20 F :   -0.373106
Sum of atomic charges:    0.0000000

LOEWDIN ATOMIC CHARGES
----------------------
   0 C :   -0.054341
   1 C :   -0.028427
   2 C :   -0.030349
   3 C :    0.054939
   4 H :    0.034865
   5 H :    0.041070
   6 C :   -0.049312
   7 C :   -0.268191
   8 N :    0.229494
   9 N :    0.230115
  10 H :   -0.003633
  11 H :   -0.003960
  12 H :   -0.055613
  13 H :   -0.055375
  14 H :    0.003359
  15 H :    0.016410
  16 H :    0.017298
  17 H :    0.032639
  18 H :    0.027185
  19 O :   -0.113948
  20 F :   -0.024226

  Mayer bond orders larger than 0.100000
B(  0-C ,  1-C ) :   0.9774 B(  0-C ,  2-C ) :   1.2204 B(  0-C , 12-H ) :   0.2251
B(  0-C , 15-H ) :   0.6904 B(  0-C , 16-H ) :   0.7114 B(  0-C , 18-H ) :   0.2332
B(  1-C ,  2-C ) :   0.2105 B(  1-C ,  7-C ) :   1.7953 B(  1-C ,  8-N ) :   0.3672
B(  1-C ,  9-N ) :   0.1910 B(  1-C , 12-H ) :   0.3073 B(  1-C , 15-H ) :   0.1227
B(  1-C , 16-H ) :   0.1855 B(  2-C ,  3-C ) :   1.1512 B(  2-C ,  4-H ) :   0.2074
B(  2-C ,  5-H ) :   0.1310 B(  2-C , 17-H ) :   0.7953 B(  2-C , 18-H ) :   0.7989
B(  3-C ,  4-H ) :   0.7496 B(  3-C ,  5-H ) :   0.8036 B(  3-C ,  6-C ) :   1.1006
B(  3-C , 17-H ) :   0.1037 B(  4-H ,  6-C ) :   0.1208 B(  5-H ,  6-C ) :   0.2411
B(  6-C , 19-O ) :   1.9296 B(  6-C , 20-F ) :   0.7382 B(  7-C ,  8-N ) :   0.9312
B(  7-C ,  9-N ) :   1.1067 B(  7-C , 12-H ) :   0.3484 B(  7-C , 14-H ) :   0.2258
B(  8-N ,  9-N ) :   0.1185 B(  8-N , 13-H ) :   0.9086 B(  8-N , 14-H ) :   0.7855
B(  9-N , 10-H ) :   1.0297 B(  9-N , 11-H ) :   0.9724 B( 10-H , 11-H ) :  -0.1131
B( 15-H , 16-H ) :  -0.1265 B( 17-H , 18-H ) :  -0.1146 B( 19-O , 20-F ) :   0.1201

FINAL SINGLE POINT ENERGY      -518.256049391572

DIPOLE MOMENT
-------------
                                X             Y             Z
Electronic contribution:      5.78331      -4.55199      -3.88903
Nuclear contribution   :     -6.25608       3.89116       3.75052
                        -----------------------------------------
Total Dipole Moment    :     -0.47277      -0.66083      -0.13850
                        -----------------------------------------
Magnitude (a.u.)       :      0.82426
Magnitude (Debye)      :      2.09509

Rotational constants in cm-1:     0.061229     0.042568     0.033282
Rotational constants in MHz :  1835.590871  1276.154029   997.769927

                             ****ORCA TERMINATED NORMALLY****
TOTAL RUN TIME: 0 days 0 hours 1 minutes 24 seconds 317 msec
