                         Program Version 5.0.0 -  RELEASE  -
|  1> !LC-BLYP RIJCOSX def2-SVPD def2/J TightSCF xyzfile
|  2>
|  3> *xyzfile 0 1 D6.xyz
|  4>
|  5> %MaxCore 64000
|  6>
|  7> %pal nprocs 4
|  8> end
|  9>
| 10> %scf
| 11>   MaxIter 150
| 12> end
| 13>
| 14>
| 15>                          ****END OF INPUT****

CARTESIAN COORDINATES (ANGSTROEM)
---------------------------------
  C      3.905947    2.819855   -3.752920
  N      5.295615    3.131515   -4.105334
  C      3.803511    1.374716   -3.260807
  C      3.939934    0.320362   -4.367729
  H      4.105043   -0.655085   -3.907733
  H      3.022801    0.280517   -4.957117
  C      5.105846    0.668022   -5.305463
  C      5.708619    3.468885   -5.324190
  N      6.904696    3.038954   -5.717084
  C      4.981884    4.293570   -6.097457
  H      5.000546    4.101311   -7.087761
  H      4.084693    4.596899   -5.739652
  H      5.963358    2.526112   -3.642391
  H      7.047164    2.066861   -5.473604
  H      7.198145    3.307994   -6.645225
  H      3.282025    2.949187   -4.640259
  H      3.565254    3.514574   -2.982523
  H      4.574833    1.215157   -2.500443
  H      2.843514    1.260845   -2.751465
  O      4.809132    1.150187   -6.414361
  F      6.267366    0.564999   -4.819481

 Total Charge           Charge          ....    0
 Multiplicity           Mult            ....    1
 Number of Electrons    NEL             ....   78
 Basis Dimension        Dim             ....  294

ORBITAL ENERGIES
----------------

  NO   OCC          E(Eh)            E(eV)
   0   2.0000     -24.571378      -668.6212
   1   2.0000     -18.983380      -516.5640
   2   2.0000     -14.198258      -386.3543
   3   2.0000     -14.177903      -385.8004
   4   2.0000     -10.283397      -279.8255
   5   2.0000     -10.130238      -275.6578
   6   2.0000     -10.129102      -275.6269
   7   2.0000     -10.129023      -275.6247
   8   2.0000     -10.118821      -275.3471
   9   2.0000      -9.998221      -272.0654
  10   2.0000      -1.410985       -38.3948
  11   2.0000      -1.141830       -31.0708
  12   2.0000      -1.071382       -29.1538
  13   2.0000      -0.988165       -26.8893
  14   2.0000      -0.923336       -25.1253
  15   2.0000      -0.843743       -22.9594
  16   2.0000      -0.807454       -21.9719
  17   2.0000      -0.786847       -21.4112
  18   2.0000      -0.743029       -20.2189
  19   2.0000      -0.691870       -18.8267
  20   2.0000      -0.683618       -18.6022
  21   2.0000      -0.670325       -18.2405
  22   2.0000      -0.630631       -17.1603
  23   2.0000      -0.616790       -16.7837
  24   2.0000      -0.607661       -16.5353
  25   2.0000      -0.592393       -16.1198
  26   2.0000      -0.587759       -15.9937
  27   2.0000      -0.536866       -14.6089
  28   2.0000      -0.532192       -14.4817
  29   2.0000      -0.511690       -13.9238
  30   2.0000      -0.501339       -13.6421
  31   2.0000      -0.492502       -13.4017
  32   2.0000      -0.484929       -13.1956
  33   2.0000      -0.469641       -12.7796
  34   2.0000      -0.461853       -12.5677
  35   2.0000      -0.436214       -11.8700
  36   2.0000      -0.404647       -11.0110
  37   2.0000      -0.356900        -9.7117
  38   2.0000      -0.267898        -7.2899
  39   0.0000       0.035735         0.9724
  40   0.0000       0.057253         1.5579
  41   0.0000       0.084729         2.3056
  42   0.0000       0.088922         2.4197
  43   0.0000       0.097157         2.6438

MULLIKEN ATOMIC CHARGES
-----------------------
   0 C :    0.920107
   1 N :   -0.032103
   2 C :    0.321723
   3 C :    0.525724
   4 H :   -0.168895
   5 H :   -0.062646
   6 C :    0.342389
   7 C :   -0.206179
   8 N :    0.372516
   9 C :    0.598467
  10 H :   -0.510078
  11 H :   -0.277734
  12 H :   -0.181629
  13 H :   -0.188495
  14 H :    0.058336
  15 H :   -0.046373
  16 H :   -0.533623
  17 H :   -0.076301
  18 H :   -0.250700
  19 O :   -0.251167
  20 F :   -0.353342
Sum of atomic charges:   -0.0000000

LOEWDIN ATOMIC CHARGES
----------------------
   0 C :    0.055876
   1 N :    0.024484
   2 C :   -0.021031
   3 C :    0.055424
   4 H :    0.036872
   5 H :    0.044370
   6 C :   -0.051272
   7 C :   -0.290809
   8 N :    0.227820
   9 C :    0.161408
  10 H :   -0.091194
  11 H :   -0.104835
  12 H :    0.003917
  13 H :   -0.067138
  14 H :    0.015257
  15 H :    0.030055
  16 H :    0.026441
  17 H :    0.029807
  18 H :    0.032860
  19 O :   -0.089855
  20 F :   -0.028455

  Mayer bond orders larger than 0.100000
B(  0-C ,  1-N ) :   0.9377 B(  0-C ,  2-C ) :   1.1292 B(  0-C ,  3-C ) :   0.1037
B(  0-C , 15-H ) :   0.7086 B(  0-C , 16-H ) :   0.8077 B(  0-C , 18-H ) :   0.2128
B(  1-N ,  2-C ) :   0.1858 B(  1-N ,  7-C ) :   1.3267 B(  1-N ,  9-C ) :   0.2370
B(  1-N , 12-H ) :   0.9244 B(  1-N , 15-H ) :   0.1582 B(  2-C ,  3-C ) :   1.1706
B(  2-C ,  4-H ) :   0.2054 B(  2-C ,  5-H ) :   0.1269 B(  2-C , 17-H ) :   0.7938
B(  2-C , 18-H ) :   0.8477 B(  3-C ,  4-H ) :   0.7410 B(  3-C ,  5-H ) :   0.7852
B(  3-C ,  6-C ) :   1.1022 B(  4-H ,  6-C ) :   0.1258 B(  5-H ,  6-C ) :   0.2690
B(  6-C , 19-O ) :   1.9721 B(  6-C , 20-F ) :   0.7399 B(  7-C ,  8-N ) :   1.0935
B(  7-C ,  9-C ) :   1.9774 B(  7-C , 10-H ) :   0.2593 B(  7-C , 11-H ) :   0.3373
B(  7-C , 12-H ) :  -0.1423 B(  7-C , 13-H ) :   0.1733 B(  7-C , 14-H ) :   0.1187
B(  7-C , 15-H ) :   0.1116 B(  8-N ,  9-C ) :   0.1610 B(  8-N , 13-H ) :   0.8316
B(  8-N , 14-H ) :   0.8800 B(  9-C , 10-H ) :   0.6766 B(  9-C , 11-H ) :   0.4912
B( 10-H , 11-H ) :   0.1844 B( 12-H , 13-H ) :   0.1054 B( 15-H , 16-H ) :  -0.1523
B( 17-H , 18-H ) :  -0.1090 B( 19-O , 20-F ) :   0.1247

FINAL SINGLE POINT ENERGY      -518.241282351852

DIPOLE MOMENT
-------------
                                X             Y             Z
Electronic contribution:      5.92780      -5.71572      -2.31195
Nuclear contribution   :     -6.29470       4.03423       3.50525
                        -----------------------------------------
Total Dipole Moment    :     -0.36690      -1.68149       1.19330
                        -----------------------------------------
Magnitude (a.u.)       :      2.09428
Magnitude (Debye)      :      5.32324

Rotational constants in cm-1:     0.061094     0.043661     0.033867
Rotational constants in MHz :  1831.559881  1308.929520  1015.295167

                             ****ORCA TERMINATED NORMALLY****
TOTAL RUN TIME: 0 days 0 hours 1 minutes 30 seconds 560 msec
