                         Program Version 5.0.0 -  RELEASE  -
|  1> !LC-BLYP RIJCOSX def2-TZVP def2/J TightSCF
|  2> *xyz -1 1
|  3> C         -1.91658       -2.48508       -3.64367
|  4> C         -1.36353       -1.98134       -2.29361
|  5> O         -0.35039       -2.74969       -1.79601
|  6> H         -2.22622       -1.90839       -1.60204
|  7> H         -1.05135       -0.91567       -2.44333
|  8> H         -1.11522       -2.57167       -4.34739
|  9> H         -2.64227       -1.79099       -4.01314
| 10> H         -2.37564       -3.44180       -3.50640
| 11> *
| 12>
| 13> %MaxCore 64000
| 14> %pal nprocs 4
| 15> end
| 16>
| 17> %scf
| 18>   MaxIter 150
| 19> end
| 20>
| 21>
| 22>                          ****END OF INPUT****

CARTESIAN COORDINATES (ANGSTROEM)
---------------------------------
  C     -1.916580   -2.485080   -3.643670
  C     -1.363530   -1.981340   -2.293610
  O     -0.350390   -2.749690   -1.796010
  H     -2.226220   -1.908390   -1.602040
  H     -1.051350   -0.915670   -2.443330
  H     -1.115220   -2.571670   -4.347390
  H     -2.642270   -1.790990   -4.013140
  H     -2.375640   -3.441800   -3.506400

 Total Charge           Charge          ....   -1
 Multiplicity           Mult            ....    1
 Number of Electrons    NEL             ....   26
 Basis Dimension        Dim             ....  123

ORBITAL ENERGIES
----------------

  NO   OCC          E(Eh)            E(eV)
   0   2.0000     -18.578789      -505.5545
   1   2.0000      -9.873631      -268.6752
   2   2.0000      -9.852460      -268.0991
   3   2.0000      -0.760751       -20.7011
   4   2.0000      -0.626276       -17.0418
   5   2.0000      -0.470294       -12.7974
   6   2.0000      -0.349130        -9.5003
   7   2.0000      -0.325108        -8.8466
   8   2.0000      -0.266885        -7.2623
   9   2.0000      -0.247865        -6.7447
  10   2.0000      -0.198047        -5.3891
  11   2.0000      -0.050692        -1.3794
  12   2.0000      -0.047548        -1.2939
  13   0.0000       0.280328         7.6281
  14   0.0000       0.317929         8.6513
  15   0.0000       0.343078         9.3356
  16   0.0000       0.348548         9.4845
  17   0.0000       0.381733        10.3875

MULLIKEN ATOMIC CHARGES
-----------------------
   0 C :   -0.223155
   1 C :   -0.013562
   2 O :   -0.733783
   3 H :   -0.054507
   4 H :   -0.057872
   5 H :    0.044330
   6 H :   -0.005132
   7 H :    0.043681
Sum of atomic charges:   -1.0000000

LOEWDIN ATOMIC CHARGES
----------------------
   0 C :   -0.377511
   1 C :   -0.574843
   2 O :   -0.421414
   3 H :    0.056702
   4 H :    0.055079
   5 H :    0.091444
   6 H :    0.079676
   7 H :    0.090866

  Mayer bond orders larger than 0.100000
B(  0-C ,  1-C ) :   0.8676 B(  0-C ,  2-O ) :  -0.2164 B(  0-C ,  5-H ) :   0.9704
B(  0-C ,  6-H ) :   0.9390 B(  0-C ,  7-H ) :   0.9740 B(  1-C ,  2-O ) :   1.6786
B(  1-C ,  3-H ) :   0.9294 B(  1-C ,  4-H ) :   0.9340

FINAL SINGLE POINT ENERGY      -154.100931131187

DIPOLE MOMENT
-------------
                                X             Y             Z
Electronic contribution:      2.12820      -0.95340       1.86715
Nuclear contribution   :     -3.14382       1.30299      -2.83231
                        -----------------------------------------
Total Dipole Moment    :     -1.01563       0.34959      -0.96515
                        -----------------------------------------
Magnitude (a.u.)       :      1.44403
Magnitude (Debye)      :      3.67044

Rotational constants in cm-1:     1.288206     0.322942     0.285188
Rotational constants in MHz : 38619.437223  9681.562038  8549.712012

                             ****ORCA TERMINATED NORMALLY****
TOTAL RUN TIME: 0 days 0 hours 0 minutes 12 seconds 891 msec
