                         Program Version 5.0.0 -  RELEASE  -
|  1> !LC-BLYP RIJCOSX def2-TZVP def2/J TightSCF
|  2> *xyz 1 1
|  3> C          1.64703       -2.34528       -5.02041
|  4> C          2.20996       -2.81239       -3.66571
|  5> C          2.48901       -1.66851       -2.73754
|  6> N          3.59631       -0.94761       -2.95225
|  7> N          1.66394       -1.41369       -1.77781
|  8> H          0.81164       -1.96318       -1.70275
|  9> H          1.84550       -0.63508       -1.15875
| 10> H          4.20535       -1.17600       -3.73383
| 11> H          3.81723       -0.12585       -2.40604
| 12> H          3.14311       -3.36280       -3.81152
| 13> H          1.48768       -3.45893       -3.16521
| 14> H          1.46566       -3.19589       -5.64368
| 15> H          2.35406       -1.69850       -5.49654
| 16> H          0.73014       -1.81680       -4.86253
| 17> *
| 18>
| 19> %MaxCore 64000
| 20> %pal nprocs 4
| 21> end
| 22>
| 23> %scf
| 24>   MaxIter 150
| 25> end
| 26>
| 27>
| 28>                          ****END OF INPUT****

CARTESIAN COORDINATES (ANGSTROEM)
---------------------------------
  C      1.647030   -2.345280   -5.020410
  C      2.209960   -2.812390   -3.665710
  C      2.489010   -1.668510   -2.737540
  N      3.596310   -0.947610   -2.952250
  N      1.663940   -1.413690   -1.777810
  H      0.811640   -1.963180   -1.702750
  H      1.845500   -0.635080   -1.158750
  H      4.205350   -1.176000   -3.733830
  H      3.817230   -0.125850   -2.406040
  H      3.143110   -3.362800   -3.811520
  H      1.487680   -3.458930   -3.165210
  H      1.465660   -3.195890   -5.643680
  H      2.354060   -1.698500   -5.496540
  H      0.730140   -1.816800   -4.862530

 Total Charge           Charge          ....    1
 Multiplicity           Mult            ....    1
 Number of Electrons    NEL             ....   40
 Basis Dimension        Dim             ....  209

ORBITAL ENERGIES
----------------

  NO   OCC          E(Eh)            E(eV)
   0   2.0000     -14.420794      -392.4098
   1   2.0000     -14.411201      -392.1487
   2   2.0000     -10.393422      -282.8194
   3   2.0000     -10.267192      -279.3845
   4   2.0000     -10.222145      -278.1587
   5   2.0000      -1.307380       -35.5756
   6   2.0000      -1.210653       -32.9436
   7   2.0000      -1.078281       -29.3415
   8   2.0000      -0.967603       -26.3298
   9   2.0000      -0.924784       -25.1646
  10   2.0000      -0.880555       -23.9611
  11   2.0000      -0.856613       -23.3096
  12   2.0000      -0.805064       -21.9069
  13   2.0000      -0.758751       -20.6467
  14   2.0000      -0.726868       -19.7791
  15   2.0000      -0.717689       -19.5293
  16   2.0000      -0.644038       -17.5252
  17   2.0000      -0.634729       -17.2719
  18   2.0000      -0.628686       -17.1074
  19   2.0000      -0.591715       -16.1014
  20   0.0000      -0.124796        -3.3959
  21   0.0000      -0.096651        -2.6300
  22   0.0000      -0.050340        -1.3698
  23   0.0000      -0.049608        -1.3499
  24   0.0000      -0.014294        -0.3890

MULLIKEN ATOMIC CHARGES
-----------------------
   0 C :   -0.372645
   1 C :   -0.347384
   2 C :    0.291839
   3 N :   -0.331721
   4 N :   -0.267064
   5 H :    0.302069
   6 H :    0.281211
   7 H :    0.301912
   8 H :    0.281039
   9 H :    0.199443
  10 H :    0.161822
  11 H :    0.190416
  12 H :    0.150391
  13 H :    0.158671
Sum of atomic charges:    1.0000000

LOEWDIN ATOMIC CHARGES
----------------------
   0 C :   -0.273881
   1 C :   -0.229436
   2 C :   -0.297830
   3 N :    0.095341
   4 N :    0.135306
   5 H :    0.218034
   6 H :    0.205619
   7 H :    0.210568
   8 H :    0.196960
   9 H :    0.171020
  10 H :    0.162744
  11 H :    0.143375
  12 H :    0.129081
  13 H :    0.133100

  Mayer bond orders larger than 0.100000
B(  0-C ,  1-C ) :   0.9153 B(  0-C , 11-H ) :   0.9688 B(  0-C , 12-H ) :   0.9658
B(  0-C , 13-H ) :   0.9563 B(  1-C ,  2-C ) :   0.9385 B(  1-C ,  9-H ) :   0.9511
B(  1-C , 10-H ) :   0.9752 B(  2-C ,  3-N ) :   1.4120 B(  2-C ,  4-N ) :   1.4986
B(  3-N ,  7-H ) :   0.8909 B(  3-N ,  8-H ) :   0.8979 B(  4-N ,  5-H ) :   0.8851
B(  4-N ,  6-H ) :   0.8942

FINAL SINGLE POINT ENERGY      -228.507275037948

DIPOLE MOMENT
-------------
                                X             Y             Z
Electronic contribution:      1.19773       1.66172       3.64007
Nuclear contribution   :     -0.98617      -1.03178      -2.77619
                        -----------------------------------------
Total Dipole Moment    :      0.21156       0.62995       0.86388
                        -----------------------------------------
Magnitude (a.u.)       :      1.08990
Magnitude (Debye)      :      2.77031

Rotational constants in cm-1:     0.257311     0.127495     0.099037
Rotational constants in MHz :  7713.982239  3822.189706  2969.039713

                             ****ORCA TERMINATED NORMALLY****
TOTAL RUN TIME: 0 days 0 hours 0 minutes 28 seconds 984 msec
