                         Program Version 5.0.0 -  RELEASE  -
|  1> !LC-BLYP RIJCOSX def2-TZVP def2/J TightSCF xyzfile
|  2>
|  3> *xyzfile 0 1 B.xyz
|  4>
|  5> %MaxCore 64000
|  6>
|  7> %pal nprocs 18
|  8> end
|  9>
| 10> %scf
| 11>   MaxIter 150
| 12> end
| 13>
| 14>
| 15>                          ****END OF INPUT****

CARTESIAN COORDINATES (ANGSTROEM)
---------------------------------
  C      1.647032   -2.345276   -5.020411
  C      0.217628   -1.814022   -4.924389
  C      2.209964   -2.812388   -3.665708
  C     -0.811356   -2.908780   -4.607625
  C     -1.916579   -2.485081   -3.643665
  H     -2.554525   -1.712428   -4.091993
  C     -1.363531   -1.981337   -2.293608
  H     -2.553448   -3.355667   -3.458815
  O     -0.350395   -2.749689   -1.796006
  H      2.308385   -1.588704   -5.457128
  H      1.674286   -3.203478   -5.697392
  C      2.489007   -1.668510   -2.737538
  N      3.596314   -0.947608   -2.952247
  N      1.663936   -1.413685   -1.777806
  H      0.811642   -1.963178   -1.702755
  H      1.845503   -0.635078   -1.158749
  H      4.205351   -1.176003   -3.733825
  H      3.817230   -0.125845   -2.406041
  H     -1.244829   -3.280884   -5.541040
  H     -0.306331   -3.757746   -4.142734
  H     -0.036244   -1.318555   -5.865303
  H      0.175004   -1.035382   -4.158095
  H      3.143106   -3.362803   -3.811524
  H      1.487683   -3.458935   -3.165211
  H     -2.226220   -1.908386   -1.602039
  H     -1.051353   -0.915671   -2.443331

 Total Charge           Charge          ....    0
 Multiplicity           Mult            ....    1
 Number of Electrons    NEL             ....   80
 Basis Dimension        Dim             ....  406

ORBITAL ENERGIES
----------------

  NO   OCC          E(Eh)            E(eV)
   0   2.0000     -18.787668      -511.2384
   1   2.0000     -14.245563      -387.6415
   2   2.0000     -14.200123      -386.4050
   3   2.0000     -10.209440      -277.8130
   4   2.0000     -10.092648      -274.6349
   5   2.0000     -10.080668      -274.3089
   6   2.0000     -10.050713      -273.4938
   7   2.0000     -10.040865      -273.2258
   8   2.0000     -10.030906      -272.9548
   9   2.0000     -10.013851      -272.4907
  10   2.0000      -1.123593       -30.5745
  11   2.0000      -1.029368       -28.0105
  12   2.0000      -0.970760       -26.4157
  13   2.0000      -0.925965       -25.1968
  14   2.0000      -0.863020       -23.4840
  15   2.0000      -0.812317       -22.1043
  16   2.0000      -0.756774       -20.5929
  17   2.0000      -0.739063       -20.1109
  18   2.0000      -0.702089       -19.1048
  19   2.0000      -0.696129       -18.9426
  20   2.0000      -0.667962       -18.1762
  21   2.0000      -0.626747       -17.0547
  22   2.0000      -0.604776       -16.4568
  23   2.0000      -0.594474       -16.1764
  24   2.0000      -0.569700       -15.5023
  25   2.0000      -0.544993       -14.8300
  26   2.0000      -0.535366       -14.5681
  27   2.0000      -0.505717       -13.7613
  28   2.0000      -0.491140       -13.3646
  29   2.0000      -0.488037       -13.2802
  30   2.0000      -0.454343       -12.3633
  31   2.0000      -0.448277       -12.1982
  32   2.0000      -0.435749       -11.8573
  33   2.0000      -0.415870       -11.3164
  34   2.0000      -0.408146       -11.1062
  35   2.0000      -0.394947       -10.7470
  36   2.0000      -0.386081       -10.5058
  37   2.0000      -0.378244       -10.2925
  38   2.0000      -0.261582        -7.1180
  39   2.0000      -0.255269        -6.9462
  40   0.0000       0.047996         1.3060
  41   0.0000       0.051529         1.4022
  42   0.0000       0.087093         2.3699
  43   0.0000       0.115027         3.1300
  44   0.0000       0.126619         3.4455

MULLIKEN ATOMIC CHARGES
-----------------------
   0 C :   -0.251496
   1 C :   -0.244497
   2 C :   -0.380688
   3 C :   -0.248263
   4 C :   -0.148170
   5 H :    0.080735
   6 C :   -0.127896
   7 H :    0.097914
   8 O :   -0.642208
   9 H :    0.116707
  10 H :    0.143823
  11 C :    0.244883
  12 N :   -0.375956
  13 N :   -0.255156
  14 H :    0.294933
  15 H :    0.216941
  16 H :    0.264508
  17 H :    0.246678
  18 H :    0.108839
  19 H :    0.126442
  20 H :    0.123145
  21 H :    0.131060
  22 H :    0.163272
  23 H :    0.215960
  24 H :    0.064876
  25 H :    0.033612
Sum of atomic charges:    0.0000000

LOEWDIN ATOMIC CHARGES
----------------------
   0 C :   -0.268348
   1 C :   -0.268714
   2 C :   -0.221175
   3 C :   -0.283525
   4 C :   -0.296244
   5 H :    0.127878
   6 C :   -0.503724
   7 H :    0.134444
   8 O :   -0.272113
   9 H :    0.132258
  10 H :    0.147821
  11 C :   -0.320252
  12 N :    0.037572
  13 N :    0.148225
  14 H :    0.100487
  15 H :    0.175685
  16 H :    0.189960
  17 H :    0.178104
  18 H :    0.132058
  19 H :    0.143505
  20 H :    0.136982
  21 H :    0.141636
  22 H :    0.151580
  23 H :    0.171200
  24 H :    0.103929
  25 H :    0.080773

  Mayer bond orders larger than 0.100000
B(  0-C ,  1-C ) :   0.9211 B(  0-C ,  2-C ) :   0.8992 B(  0-C ,  9-H ) :   0.9852
B(  0-C , 10-H ) :   0.9748 B(  1-C ,  3-C ) :   0.8886 B(  1-C , 20-H ) :   0.9776
B(  1-C , 21-H ) :   0.9903 B(  2-C , 11-C ) :   0.9237 B(  2-C , 22-H ) :   0.9712
B(  2-C , 23-H ) :   0.9566 B(  3-C ,  4-C ) :   0.9406 B(  3-C , 18-H ) :   0.9761
B(  3-C , 19-H ) :   0.9781 B(  4-C ,  5-H ) :   0.9671 B(  4-C ,  6-C ) :   0.8975
B(  4-C ,  7-H ) :   0.9686 B(  4-C ,  8-O ) :  -0.1140 B(  6-C ,  8-O ) :   1.2662
B(  6-C , 24-H ) :   0.9762 B(  6-C , 25-H ) :   0.9825 B(  8-O , 14-H ) :   0.4179
B( 11-C , 12-N ) :   1.2863 B( 11-C , 13-N ) :   1.6726 B( 12-N , 16-H ) :   0.9083
B( 12-N , 17-H ) :   0.9135 B( 13-N , 14-H ) :   0.6231 B( 13-N , 15-H ) :   0.9156

FINAL SINGLE POINT ENERGY      -460.055024748287

DIPOLE MOMENT
-------------
                                X             Y             Z
Electronic contribution:      5.60703       0.91022       4.33142
Nuclear contribution   :     -2.25948       0.71378      -5.15247
                        -----------------------------------------
Total Dipole Moment    :      3.34755       1.62400      -0.82105
                        -----------------------------------------
Magnitude (a.u.)       :      3.81020
Magnitude (Debye)      :      9.68475

Rotational constants in cm-1:     0.063973     0.031829     0.024059
Rotational constants in MHz :  1917.874550   954.201145   721.285252

                             ****ORCA TERMINATED NORMALLY****
TOTAL RUN TIME: 0 days 0 hours 0 minutes 50 seconds 213 msec
