                         Program Version 5.0.0 -  RELEASE  -
|  1> !LC-BLYP RIJCOSX def2-TZVP def2/J TightSCF
|  2> *xyz 0 1
|  3> C         -1.91658       -2.48508       -3.64367
|  4> C         -1.36353       -1.98134       -2.29361
|  5> F         -0.35039       -2.74969       -1.79601
|  6> H         -2.22622       -1.90839       -1.60204
|  7> H         -1.05135       -0.91567       -2.44333
|  8> H         -1.11522       -2.57167       -4.34739
|  9> H         -2.64227       -1.79099       -4.01314
| 10> H         -2.37564       -3.44180       -3.50640
| 11> *
| 12>
| 13> %MaxCore 64000
| 14> %pal nprocs 4
| 15> end
| 16>
| 17> %scf
| 18>   MaxIter 150
| 19> end
| 20>
| 21>
| 22>                          ****END OF INPUT****

CARTESIAN COORDINATES (ANGSTROEM)
---------------------------------
  C     -1.916580   -2.485080   -3.643670
  C     -1.363530   -1.981340   -2.293610
  F     -0.350390   -2.749690   -1.796010
  H     -2.226220   -1.908390   -1.602040
  H     -1.051350   -0.915670   -2.443330
  H     -1.115220   -2.571670   -4.347390
  H     -2.642270   -1.790990   -4.013140
  H     -2.375640   -3.441800   -3.506400

 Total Charge           Charge          ....    0
 Multiplicity           Mult            ....    1
 Number of Electrons    NEL             ....   26
 Basis Dimension        Dim             ....  123

ORBITAL ENERGIES
----------------

  NO   OCC          E(Eh)            E(eV)
   0   2.0000     -24.439071      -665.0209
   1   2.0000     -10.147862      -276.1374
   2   2.0000     -10.063453      -273.8405
   3   2.0000      -1.278991       -34.8031
   4   2.0000      -0.872960       -23.7545
   5   2.0000      -0.738928       -20.1073
   6   2.0000      -0.613281       -16.6882
   7   2.0000      -0.601307       -16.3624
   8   2.0000      -0.561663       -15.2836
   9   2.0000      -0.506647       -13.7866
  10   2.0000      -0.502120       -13.6634
  11   2.0000      -0.433520       -11.7967
  12   2.0000      -0.425675       -11.5832
  13   0.0000       0.105056         2.8587
  14   0.0000       0.144436         3.9303
  15   0.0000       0.165284         4.4976
  16   0.0000       0.169058         4.6003
  17   0.0000       0.181930         4.9506

MULLIKEN ATOMIC CHARGES
-----------------------
   0 C :   -0.381556
   1 C :   -0.012892
   2 F :   -0.213543
   3 H :    0.105872
   4 H :    0.105351
   5 H :    0.136061
   6 H :    0.126116
   7 H :    0.134590
Sum of atomic charges:    0.0000000

LOEWDIN ATOMIC CHARGES
----------------------
   0 C :   -0.324344
   1 C :   -0.394386
   2 F :    0.109957
   3 H :    0.120115
   4 H :    0.121772
   5 H :    0.121259
   6 H :    0.125454
   7 H :    0.120173

  Mayer bond orders larger than 0.100000
B(  0-C ,  1-C ) :   0.9542 B(  0-C ,  5-H ) :   0.9691 B(  0-C ,  6-H ) :   0.9573
B(  0-C ,  7-H ) :   0.9704 B(  1-C ,  2-F ) :   1.0284 B(  1-C ,  3-H ) :   0.9705
B(  1-C ,  4-H ) :   0.9727

FINAL SINGLE POINT ENERGY      -178.738842830758

DIPOLE MOMENT
-------------
                                X             Y             Z
Electronic contribution:      3.61582      -1.35308       3.42804
Nuclear contribution   :     -4.15401       1.70894      -3.75000
                        -----------------------------------------
Total Dipole Moment    :     -0.53820       0.35585      -0.32195
                        -----------------------------------------
Magnitude (a.u.)       :      0.72107
Magnitude (Debye)      :      1.83281

Rotational constants in cm-1:     1.266842     0.300492     0.266603
Rotational constants in MHz : 37978.968232  9008.526876  7992.551454

                             ****ORCA TERMINATED NORMALLY****
TOTAL RUN TIME: 0 days 0 hours 0 minutes 11 seconds 501 msec
