                         Program Version 5.0.0 -  RELEASE  -
|  1> !LC-BLYP RIJCOSX def2-TZVP def2/J TightSCF
|  2> *xyz 0 1
|  3> C          1.64703       -2.34528       -5.02041
|  4> C          2.20996       -2.81239       -3.66571
|  5> C          2.48901       -1.66851       -2.73754
|  6> C          3.59631       -0.94761       -2.95225
|  7> N          1.66394       -1.41369       -1.77781
|  8> H          0.81164       -1.96318       -1.70275
|  9> H          1.84550       -0.63508       -1.15875
| 10> H          4.20535       -1.17600       -3.73383
| 11> H          3.81723       -0.12585       -2.40604
| 12> H          3.14311       -3.36280       -3.81152
| 13> H          1.48768       -3.45893       -3.16521
| 14> H          1.46566       -3.19589       -5.64368
| 15> H          2.35406       -1.69850       -5.49654
| 16> H          0.73014       -1.81680       -4.86253
| 17> *
| 18>
| 19> %MaxCore 64000
| 20> %pal nprocs 4
| 21> end
| 22>
| 23> %scf
| 24>   MaxIter 150
| 25> end
| 26>
| 27>
| 28>                          ****END OF INPUT****

CARTESIAN COORDINATES (ANGSTROEM)
---------------------------------
  C      1.647030   -2.345280   -5.020410
  C      2.209960   -2.812390   -3.665710
  C      2.489010   -1.668510   -2.737540
  C      3.596310   -0.947610   -2.952250
  N      1.663940   -1.413690   -1.777810
  H      0.811640   -1.963180   -1.702750
  H      1.845500   -0.635080   -1.158750
  H      4.205350   -1.176000   -3.733830
  H      3.817230   -0.125850   -2.406040
  H      3.143110   -3.362800   -3.811520
  H      1.487680   -3.458930   -3.165210
  H      1.465660   -3.195890   -5.643680
  H      2.354060   -1.698500   -5.496540
  H      0.730140   -1.816800   -4.862530

 Total Charge           Charge          ....    0
 Multiplicity           Mult            ....    1
 Number of Electrons    NEL             ....   40
 Basis Dimension        Dim             ....  209

ORBITAL ENERGIES
----------------

  NO   OCC          E(Eh)            E(eV)
   0   2.0000     -14.172728      -385.6595
   1   2.0000     -10.089546      -274.5505
   2   2.0000     -10.067877      -273.9609
   3   2.0000     -10.051129      -273.5051
   4   2.0000      -9.995300      -271.9859
   5   2.0000      -1.040417       -28.3112
   6   2.0000      -0.888043       -24.1649
   7   2.0000      -0.815046       -22.1785
   8   2.0000      -0.747150       -20.3310
   9   2.0000      -0.673112       -18.3163
  10   2.0000      -0.635973       -17.3057
  11   2.0000      -0.585753       -15.9391
  12   2.0000      -0.547015       -14.8850
  13   2.0000      -0.515017       -14.0143
  14   2.0000      -0.496245       -13.5035
  15   2.0000      -0.481294       -13.0967
  16   2.0000      -0.448991       -12.2177
  17   2.0000      -0.436669       -11.8824
  18   2.0000      -0.431164       -11.7326
  19   2.0000      -0.278355        -7.5744
  20   0.0000       0.088134         2.3983
  21   0.0000       0.118332         3.2200
  22   0.0000       0.133572         3.6347
  23   0.0000       0.139464         3.7950
  24   0.0000       0.155819         4.2400

MULLIKEN ATOMIC CHARGES
-----------------------
   0 C :   -0.357072
   1 C :   -0.292225
   2 C :    0.207159
   3 C :   -0.469690
   4 N :   -0.381313
   5 H :    0.224997
   6 H :    0.229733
   7 H :    0.105020
   8 H :    0.101047
   9 H :    0.146924
  10 H :    0.096853
  11 H :    0.127610
  12 H :    0.137832
  13 H :    0.123125
Sum of atomic charges:    0.0000000

LOEWDIN ATOMIC CHARGES
----------------------
   0 C :   -0.303253
   1 C :   -0.246046
   2 C :   -0.379423
   3 C :   -0.298683
   4 N :    0.018092
   5 H :    0.175643
   6 H :    0.178875
   7 H :    0.107445
   8 H :    0.096856
   9 H :    0.153132
  10 H :    0.135561
  11 H :    0.117828
  12 H :    0.123653
  13 H :    0.120321

  Mayer bond orders larger than 0.100000
B(  0-C ,  1-C ) :   0.9273 B(  0-C , 11-H ) :   0.9818 B(  0-C , 12-H ) :   0.9745
B(  0-C , 13-H ) :   0.9737 B(  1-C ,  2-C ) :   0.9003 B(  1-C ,  9-H ) :   0.9902
B(  1-C , 10-H ) :   0.9941 B(  2-C ,  3-C ) :   1.7032 B(  2-C ,  4-N ) :   1.2037
B(  3-C ,  7-H ) :   1.0015 B(  3-C ,  8-H ) :   0.9939 B(  4-N ,  5-H ) :   0.9282
B(  4-N ,  6-H ) :   0.9251

FINAL SINGLE POINT ENERGY      -212.038481048534

DIPOLE MOMENT
-------------
                                X             Y             Z
Electronic contribution:     -0.07491       0.64535       3.03581
Nuclear contribution   :     -0.69146      -0.83112      -2.71336
                        -----------------------------------------
Total Dipole Moment    :     -0.76637      -0.18577       0.32244
                        -----------------------------------------
Magnitude (a.u.)       :      0.85194
Magnitude (Debye)      :      2.16547

Rotational constants in cm-1:     0.270661     0.129240     0.102040
Rotational constants in MHz :  8114.202941  3874.518141  3059.074383

                             ****ORCA TERMINATED NORMALLY****
TOTAL RUN TIME: 0 days 0 hours 0 minutes 30 seconds 31 msec
