                         Program Version 5.0.0 -  RELEASE  -
|  1> !LC-BLYP RIJCOSX def2-TZVP def2/J TightSCF
|  2> *xyz 0 1
|  3> C          1.64703       -2.34528       -5.02041
|  4> C          2.20996       -2.81239       -3.66571
|  5> C          2.48901       -1.66851       -2.73754
|  6> N          3.59631       -0.94761       -2.95225
|  7> C          1.66394       -1.41369       -1.77781
|  8> H          0.81164       -1.96318       -1.70275
|  9> H          1.84550       -0.63508       -1.15875
| 10> H          4.20535       -1.17600       -3.73383
| 11> H          3.81723       -0.12585       -2.40604
| 12> H          3.14311       -3.36280       -3.81152
| 13> H          1.48768       -3.45893       -3.16521
| 14> H          1.46566       -3.19589       -5.64368
| 15> H          2.35406       -1.69850       -5.49654
| 16> H          0.73014       -1.81680       -4.86253
| 17> *
| 18>
| 19> %MaxCore 64000
| 20> %pal nprocs 4
| 21> end
| 22>
| 23> %scf
| 24>   MaxIter 150
| 25> end
| 26>
| 27>
| 28>                          ****END OF INPUT****

CARTESIAN COORDINATES (ANGSTROEM)
---------------------------------
  C      1.647030   -2.345280   -5.020410
  C      2.209960   -2.812390   -3.665710
  C      2.489010   -1.668510   -2.737540
  N      3.596310   -0.947610   -2.952250
  C      1.663940   -1.413690   -1.777810
  H      0.811640   -1.963180   -1.702750
  H      1.845500   -0.635080   -1.158750
  H      4.205350   -1.176000   -3.733830
  H      3.817230   -0.125850   -2.406040
  H      3.143110   -3.362800   -3.811520
  H      1.487680   -3.458930   -3.165210
  H      1.465660   -3.195890   -5.643680
  H      2.354060   -1.698500   -5.496540
  H      0.730140   -1.816800   -4.862530

 Total Charge           Charge          ....    0
 Multiplicity           Mult            ....    1
 Number of Electrons    NEL             ....   40
 Basis Dimension        Dim             ....  209

ORBITAL ENERGIES
----------------

  NO   OCC          E(Eh)            E(eV)
   0   2.0000     -14.165744      -385.4695
   1   2.0000     -10.086190      -274.4592
   2   2.0000     -10.066155      -273.9140
   3   2.0000     -10.052215      -273.5347
   4   2.0000      -9.998789      -272.0809
   5   2.0000      -1.022491       -27.8234
   6   2.0000      -0.887518       -24.1506
   7   2.0000      -0.829131       -22.5618
   8   2.0000      -0.742256       -20.1978
   9   2.0000      -0.669570       -18.2199
  10   2.0000      -0.624342       -16.9892
  11   2.0000      -0.585949       -15.9445
  12   2.0000      -0.538094       -14.6423
  13   2.0000      -0.527060       -14.3420
  14   2.0000      -0.497313       -13.5326
  15   2.0000      -0.485933       -13.2229
  16   2.0000      -0.449107       -12.2208
  17   2.0000      -0.430290       -11.7088
  18   2.0000      -0.427894       -11.6436
  19   2.0000      -0.290214        -7.8971
  20   0.0000       0.088899         2.4191
  21   0.0000       0.121643         3.3101
  22   0.0000       0.137406         3.7390
  23   0.0000       0.143105         3.8941
  24   0.0000       0.152638         4.1535

MULLIKEN ATOMIC CHARGES
-----------------------
   0 C :   -0.359379
   1 C :   -0.297822
   2 C :    0.255312
   3 N :   -0.445722
   4 C :   -0.444123
   5 H :    0.103912
   6 H :    0.100223
   7 H :    0.227469
   8 H :    0.225850
   9 H :    0.122338
  10 H :    0.127814
  11 H :    0.130982
  12 H :    0.115214
  13 H :    0.137931
Sum of atomic charges:   -0.0000000

LOEWDIN ATOMIC CHARGES
----------------------
   0 C :   -0.306792
   1 C :   -0.246212
   2 C :   -0.367150
   3 N :   -0.016933
   4 C :   -0.271115
   5 H :    0.113829
   6 H :    0.104654
   7 H :    0.169611
   8 H :    0.169419
   9 H :    0.140338
  10 H :    0.150658
  11 H :    0.119029
  12 H :    0.116727
  13 H :    0.123937

  Mayer bond orders larger than 0.100000
B(  0-C ,  1-C ) :   0.9184 B(  0-C , 11-H ) :   0.9821 B(  0-C , 12-H ) :   0.9737
B(  0-C , 13-H ) :   0.9751 B(  1-C ,  2-C ) :   0.9211 B(  1-C ,  9-H ) :   0.9826
B(  1-C , 10-H ) :   0.9960 B(  2-C ,  3-N ) :   1.1229 B(  2-C ,  4-C ) :   1.7547
B(  3-N ,  7-H ) :   0.9333 B(  3-N ,  8-H ) :   0.9305 B(  4-C ,  5-H ) :   1.0019
B(  4-C ,  6-H ) :   0.9972

FINAL SINGLE POINT ENERGY      -212.043076562905

DIPOLE MOMENT
-------------
                                X             Y             Z
Electronic contribution:      1.66578       1.07775       1.98843
Nuclear contribution   :     -1.13902      -0.93906      -2.44135
                        -----------------------------------------
Total Dipole Moment    :      0.52676       0.13868      -0.45292
                        -----------------------------------------
Magnitude (a.u.)       :      0.70841
Magnitude (Debye)      :      1.80063

Rotational constants in cm-1:     0.267243     0.130607     0.102304
Rotational constants in MHz :  8011.748167  3915.504600  3066.999841

                             ****ORCA TERMINATED NORMALLY****
TOTAL RUN TIME: 0 days 0 hours 0 minutes 29 seconds 557 msec
