                         Program Version 5.0.0 -  RELEASE  -
|  1> !LC-BLYP RIJCOSX def2-TZVP def2/J TightSCF xyzfile
|  2>
|  3> *xyzfile 0 1 D1.xyz
|  4>
|  5> %MaxCore 64000
|  6>
|  7> %pal nprocs 18
|  8> end
|  9>
| 10> %scf
| 11>   MaxIter 150
| 12> end
| 13>
| 14>
| 15>                          ****END OF INPUT****

CARTESIAN COORDINATES (ANGSTROEM)
---------------------------------
  C      1.647032   -2.345276   -5.020411
  C      0.217628   -1.814022   -4.924389
  C      2.209964   -2.812388   -3.665708
  C     -0.811356   -2.908780   -4.607625
  C     -1.916579   -2.485081   -3.643665
  H     -2.554525   -1.712428   -4.091993
  C     -1.363531   -1.981337   -2.293608
  H     -2.553448   -3.355667   -3.458815
  F     -0.350395   -2.749689   -1.796006
  H      2.308385   -1.588704   -5.457128
  H      1.674286   -3.203478   -5.697392
  C      2.489007   -1.668510   -2.737538
  C      3.596314   -0.947608   -2.952247
  N      1.663936   -1.413685   -1.777806
  H      0.811642   -1.963178   -1.702755
  H      1.845503   -0.635078   -1.158749
  H      4.205351   -1.176003   -3.733825
  H      3.817230   -0.125845   -2.406041
  H     -1.244829   -3.280884   -5.541040
  H     -0.306331   -3.757746   -4.142734
  H     -0.036244   -1.318555   -5.865303
  H      0.175004   -1.035382   -4.158095
  H      3.143106   -3.362803   -3.811524
  H      1.487683   -3.458935   -3.165211
  H     -2.226220   -1.908386   -1.602039
  H     -1.051353   -0.915671   -2.443331

 Total Charge           Charge          ....    0
 Multiplicity           Mult            ....    1
 Number of Electrons    NEL             ....   80
 Basis Dimension        Dim             ....  406

ORBITAL ENERGIES
----------------

  NO   OCC          E(Eh)            E(eV)
   0   2.0000     -24.488426      -666.3640
   1   2.0000     -14.137162      -384.6917
   2   2.0000     -10.167429      -276.6698
   3   2.0000     -10.086575      -274.4697
   4   2.0000     -10.073827      -274.1228
   5   2.0000     -10.069969      -274.0178
   6   2.0000     -10.061513      -273.7877
   7   2.0000     -10.058262      -273.6992
   8   2.0000     -10.054133      -273.5869
   9   2.0000      -9.980225      -271.5757
  10   2.0000      -1.336498       -36.3680
  11   2.0000      -1.018691       -27.7200
  12   2.0000      -0.932496       -25.3745
  13   2.0000      -0.889913       -24.2158
  14   2.0000      -0.844423       -22.9779
  15   2.0000      -0.799936       -21.7674
  16   2.0000      -0.775718       -21.1084
  17   2.0000      -0.720695       -19.6111
  18   2.0000      -0.698489       -19.0069
  19   2.0000      -0.682730       -18.5780
  20   2.0000      -0.641706       -17.4617
  21   2.0000      -0.635393       -17.2899
  22   2.0000      -0.617877       -16.8133
  23   2.0000      -0.591828       -16.1045
  24   2.0000      -0.571792       -15.5592
  25   2.0000      -0.564581       -15.3630
  26   2.0000      -0.542034       -14.7495
  27   2.0000      -0.522496       -14.2178
  28   2.0000      -0.521224       -14.1832
  29   2.0000      -0.490064       -13.3353
  30   2.0000      -0.470097       -12.7920
  31   2.0000      -0.462816       -12.5939
  32   2.0000      -0.458878       -12.4867
  33   2.0000      -0.452816       -12.3217
  34   2.0000      -0.439471       -11.9586
  35   2.0000      -0.428847       -11.6695
  36   2.0000      -0.417229       -11.3534
  37   2.0000      -0.408461       -11.1148
  38   2.0000      -0.403646       -10.9838
  39   2.0000      -0.261046        -7.1034
  40   0.0000       0.092101         2.5062
  41   0.0000       0.106490         2.8977
  42   0.0000       0.114065         3.1039
  43   0.0000       0.125906         3.4261
  44   0.0000       0.133496         3.6326

MULLIKEN ATOMIC CHARGES
-----------------------
   0 C :   -0.210233
   1 C :   -0.266307
   2 C :   -0.358668
   3 C :   -0.279317
   4 C :   -0.244615
   5 H :    0.138228
   6 C :   -0.128343
   7 H :    0.137448
   8 F :   -0.182890
   9 H :    0.138093
  10 H :    0.119258
  11 C :    0.205906
  12 C :   -0.476552
  13 N :   -0.410065
  14 H :    0.267176
  15 H :    0.211462
  16 H :    0.097050
  17 H :    0.094152
  18 H :    0.136136
  19 H :    0.151024
  20 H :    0.129953
  21 H :    0.140120
  22 H :    0.153877
  23 H :    0.134553
  24 H :    0.143846
  25 H :    0.158706
Sum of atomic charges:   -0.0000000

LOEWDIN ATOMIC CHARGES
----------------------
   0 C :   -0.264666
   1 C :   -0.269309
   2 C :   -0.224110
   3 C :   -0.279238
   4 C :   -0.285678
   5 H :    0.149170
   6 C :   -0.371773
   7 H :    0.142802
   8 F :    0.181094
   9 H :    0.144404
  10 H :    0.138949
  11 C :   -0.380995
  12 C :   -0.312388
  13 N :    0.016759
  14 H :    0.118585
  15 H :    0.170036
  16 H :    0.104457
  17 H :    0.094654
  18 H :    0.142103
  19 H :    0.144807
  20 H :    0.139138
  21 H :    0.142907
  22 H :    0.154313
  23 H :    0.138902
  24 H :    0.132395
  25 H :    0.132683

  Mayer bond orders larger than 0.100000
B(  0-C ,  1-C ) :   0.9396 B(  0-C ,  2-C ) :   0.9055 B(  0-C ,  9-H ) :   0.9736
B(  0-C , 10-H ) :   0.9793 B(  1-C ,  3-C ) :   0.8673 B(  1-C , 20-H ) :   0.9780
B(  1-C , 21-H ) :   0.9907 B(  2-C , 11-C ) :   0.8768 B(  2-C , 22-H ) :   0.9902
B(  2-C , 23-H ) :   1.0176 B(  3-C ,  4-C ) :   0.9212 B(  3-C , 18-H ) :   0.9778
B(  3-C , 19-H ) :   0.9881 B(  4-C ,  5-H ) :   0.9566 B(  4-C ,  6-C ) :   0.9423
B(  4-C ,  7-H ) :   0.9800 B(  6-C ,  8-F ) :   0.9273 B(  6-C , 24-H ) :   0.9785
B(  6-C , 25-H ) :   0.9809 B(  8-F , 14-H ) :   0.1220 B( 11-C , 12-C ) :   1.6900
B( 11-C , 13-N ) :   1.2330 B( 12-C , 16-H ) :   0.9998 B( 12-C , 17-H ) :   0.9965
B( 13-N , 14-H ) :   0.8537 B( 13-N , 15-H ) :   0.9313

FINAL SINGLE POINT ENERGY      -468.005850827106

DIPOLE MOMENT
-------------
                                X             Y             Z
Electronic contribution:     -1.31994      -1.73674       6.92363
Nuclear contribution   :     -0.37390       1.73388      -6.94752
                        -----------------------------------------
Total Dipole Moment    :     -1.69385      -0.00286      -0.02389
                        -----------------------------------------
Magnitude (a.u.)       :      1.69402
Magnitude (Debye)      :      4.30585

Rotational constants in cm-1:     0.062220     0.032742     0.024374
Rotational constants in MHz :  1865.297979   981.573941   730.711364

                             ****ORCA TERMINATED NORMALLY****
TOTAL RUN TIME: 0 days 0 hours 0 minutes 47 seconds 446 msec
