                         Program Version 5.0.0 -  RELEASE  -
|  1> !LC-BLYP RIJCOSX def2-TZVP def2/J TightSCF xyzfile
|  2>
|  3> *xyzfile 0 1 D2.xyz
|  4>
|  5> %MaxCore 64000
|  6>
|  7> %pal nprocs 18
|  8> end
|  9>
| 10> %scf
| 11>   MaxIter 150
| 12> end
| 13>
| 14>
| 15>                          ****END OF INPUT****

CARTESIAN COORDINATES (ANGSTROEM)
---------------------------------
  C      1.647032   -2.345276   -5.020411
  C      0.217628   -1.814022   -4.924389
  C      2.209964   -2.812388   -3.665708
  C     -0.811356   -2.908780   -4.607625
  C     -1.916579   -2.485081   -3.643665
  H     -2.554525   -1.712428   -4.091993
  C     -1.363531   -1.981337   -2.293608
  H     -2.553448   -3.355667   -3.458815
  F     -0.350395   -2.749689   -1.796006
  H      2.308385   -1.588704   -5.457128
  H      1.674286   -3.203478   -5.697392
  C      2.489007   -1.668510   -2.737538
  N      3.596314   -0.947608   -2.952247
  C      1.663936   -1.413685   -1.777806
  H      0.811642   -1.963178   -1.702755
  H      1.845503   -0.635078   -1.158749
  H      4.205351   -1.176003   -3.733825
  H      3.817230   -0.125845   -2.406041
  H     -1.244829   -3.280884   -5.541040
  H     -0.306331   -3.757746   -4.142734
  H     -0.036244   -1.318555   -5.865303
  H      0.175004   -1.035382   -4.158095
  H      3.143106   -3.362803   -3.811524
  H      1.487683   -3.458935   -3.165211
  H     -2.226220   -1.908386   -1.602039
  H     -1.051353   -0.915671   -2.443331

 Total Charge           Charge          ....    0
 Multiplicity           Mult            ....    1
 Number of Electrons    NEL             ....   80
 Basis Dimension        Dim             ....  406

ORBITAL ENERGIES
----------------

  NO   OCC          E(Eh)            E(eV)
   0   2.0000     -24.454638      -665.4445
   1   2.0000     -14.151788      -385.0897
   2   2.0000     -10.148111      -276.1441
   3   2.0000     -10.074288      -274.1353
   4   2.0000     -10.068776      -273.9853
   5   2.0000     -10.062019      -273.8014
   6   2.0000     -10.059073      -273.7213
   7   2.0000     -10.055122      -273.6138
   8   2.0000     -10.053398      -273.5669
   9   2.0000      -9.965844      -271.1844
  10   2.0000      -1.305150       -35.5149
  11   2.0000      -1.008570       -27.4446
  12   2.0000      -0.922954       -25.1148
  13   2.0000      -0.886424       -24.1208
  14   2.0000      -0.834378       -22.7046
  15   2.0000      -0.808955       -22.0128
  16   2.0000      -0.766316       -20.8525
  17   2.0000      -0.710860       -19.3435
  18   2.0000      -0.678106       -18.4522
  19   2.0000      -0.673672       -18.3315
  20   2.0000      -0.632404       -17.2086
  21   2.0000      -0.618775       -16.8377
  22   2.0000      -0.601971       -16.3805
  23   2.0000      -0.592305       -16.1175
  24   2.0000      -0.567194       -15.4341
  25   2.0000      -0.550793       -14.9878
  26   2.0000      -0.544887       -14.8271
  27   2.0000      -0.533348       -14.5131
  28   2.0000      -0.503427       -13.6990
  29   2.0000      -0.483847       -13.1661
  30   2.0000      -0.468633       -12.7522
  31   2.0000      -0.456328       -12.4173
  32   2.0000      -0.448923       -12.2158
  33   2.0000      -0.436935       -11.8896
  34   2.0000      -0.424372       -11.5477
  35   2.0000      -0.420278       -11.4363
  36   2.0000      -0.407249       -11.0818
  37   2.0000      -0.404142       -10.9973
  38   2.0000      -0.388269       -10.5653
  39   2.0000      -0.273376        -7.4389
  40   0.0000       0.097050         2.6409
  41   0.0000       0.104424         2.8415
  42   0.0000       0.115103         3.1321
  43   0.0000       0.130242         3.5441
  44   0.0000       0.140914         3.8345

MULLIKEN ATOMIC CHARGES
-----------------------
   0 C :   -0.220561
   1 C :   -0.252478
   2 C :   -0.376607
   3 C :   -0.272542
   4 C :   -0.241763
   5 H :    0.130891
   6 C :   -0.123655
   7 H :    0.131387
   8 F :   -0.165172
   9 H :    0.120378
  10 H :    0.124619
  11 C :    0.288228
  12 N :   -0.451169
  13 C :   -0.550137
  14 H :    0.193001
  15 H :    0.091061
  16 H :    0.219770
  17 H :    0.221168
  18 H :    0.131256
  19 H :    0.143612
  20 H :    0.124910
  21 H :    0.151670
  22 H :    0.135898
  23 H :    0.156389
  24 H :    0.135093
  25 H :    0.154753
Sum of atomic charges:    0.0000000

LOEWDIN ATOMIC CHARGES
----------------------
   0 C :   -0.270781
   1 C :   -0.269071
   2 C :   -0.226365
   3 C :   -0.278877
   4 C :   -0.286890
   5 H :    0.146360
   6 C :   -0.370526
   7 H :    0.141142
   8 F :    0.180656
   9 H :    0.136917
  10 H :    0.139837
  11 C :   -0.375305
  12 N :   -0.023513
  13 C :   -0.274976
  14 H :    0.076625
  15 H :    0.099072
  16 H :    0.165601
  17 H :    0.166691
  18 H :    0.140111
  19 H :    0.144715
  20 H :    0.137134
  21 H :    0.145737
  22 H :    0.141982
  23 H :    0.151030
  24 H :    0.129238
  25 H :    0.133455

  Mayer bond orders larger than 0.100000
B(  0-C ,  1-C ) :   0.9364 B(  0-C ,  2-C ) :   0.8920 B(  0-C ,  9-H ) :   0.9749
B(  0-C , 10-H ) :   0.9833 B(  1-C ,  3-C ) :   0.8781 B(  1-C , 20-H ) :   0.9783
B(  1-C , 21-H ) :   0.9902 B(  2-C , 11-C ) :   0.8864 B(  2-C , 22-H ) :   0.9906
B(  2-C , 23-H ) :   1.0198 B(  3-C ,  4-C ) :   0.9270 B(  3-C , 18-H ) :   0.9787
B(  3-C , 19-H ) :   0.9868 B(  4-C ,  5-H ) :   0.9590 B(  4-C ,  6-C ) :   0.9435
B(  4-C ,  7-H ) :   0.9797 B(  6-C ,  8-F ) :   0.9497 B(  6-C , 24-H ) :   0.9797
B(  6-C , 25-H ) :   0.9809 B( 11-C , 12-N ) :   1.0951 B( 11-C , 13-C ) :   1.7109
B( 12-N , 16-H ) :   0.9351 B( 12-N , 17-H ) :   0.9335 B( 13-C , 14-H ) :   0.9803
B( 13-C , 15-H ) :   0.9863

FINAL SINGLE POINT ENERGY      -467.989248992002

DIPOLE MOMENT
-------------
                                X             Y             Z
Electronic contribution:      0.42448      -1.30250       6.05922
Nuclear contribution   :     -0.73748       1.64619      -6.72655
                        -----------------------------------------
Total Dipole Moment    :     -0.31300       0.34369      -0.66733
                        -----------------------------------------
Magnitude (a.u.)       :      0.81328
Magnitude (Debye)      :      2.06719

Rotational constants in cm-1:     0.063169     0.031711     0.023958
Rotational constants in MHz :  1893.751676   950.657187   718.229932

                             ****ORCA TERMINATED NORMALLY****
TOTAL RUN TIME: 0 days 0 hours 0 minutes 46 seconds 924 msec
