                         Program Version 5.0.0 -  RELEASE  -
|  1> !wB97X-D3 RIJCOSX def2-SVP def2/J TightSCF
|  2> *xyz -1 1
|  3> C          2.49670       -1.84416       -5.73570
|  4> O          2.45973       -0.50920       -5.50576
|  5> H          2.07863       -2.36209       -4.89793
|  6> H          3.51118       -2.15388       -5.87645
|  7> H          1.92949       -2.07059       -6.61428
|  8> *
|  9>
| 10> %MaxCore 64000
| 11>
| 12> %pal nprocs 18
| 13> end
| 14>
| 15> %scf
| 16>   MaxIter 150
| 17> end
| 18>
| 19>
| 20>                          ****END OF INPUT****

CARTESIAN COORDINATES (ANGSTROEM)
---------------------------------
  C      2.496700   -1.844160   -5.735700
  O      2.459730   -0.509200   -5.505760
  H      2.078630   -2.362090   -4.897930
  H      3.511180   -2.153880   -5.876450
  H      1.929490   -2.070590   -6.614280

 Total Charge           Charge          ....   -1
 Multiplicity           Mult            ....    1
 Number of Electrons    NEL             ....   18
 Basis Dimension        Dim             ....   43

ORBITAL ENERGIES
----------------

  NO   OCC          E(Eh)            E(eV)
   0   2.0000     -18.809262      -511.8260
   1   2.0000     -10.043610      -273.3005
   2   2.0000      -0.712334       -19.3836
   3   2.0000      -0.467197       -12.7131
   4   2.0000      -0.267833        -7.2881
   5   2.0000      -0.267828        -7.2880
   6   2.0000      -0.139751        -3.8028
   7   2.0000       0.019347         0.5265
   8   2.0000       0.019373         0.5272
   9   0.0000       0.370993        10.0952
  10   0.0000       0.446212        12.1420
  11   0.0000       0.446217        12.1422
  12   0.0000       0.539969        14.6933
  13   0.0000       0.816152        22.2086

MULLIKEN ATOMIC CHARGES
-----------------------
   0 C :    0.304680
   1 O :   -0.807899
   2 H :   -0.165632
   3 H :   -0.165564
   4 H :   -0.165584
Sum of atomic charges:   -1.0000000

LOEWDIN ATOMIC CHARGES
----------------------
   0 C :   -0.012484
   1 O :   -0.733584
   2 H :   -0.084642
   3 H :   -0.084643
   4 H :   -0.084647

  Mayer bond orders larger than 0.100000
B(  0-C ,  1-O ) :   1.4080 B(  0-C ,  2-H ) :   0.9106 B(  0-C ,  3-H ) :   0.9106
B(  0-C ,  4-H ) :   0.9106

Dispersion correction           -0.000086560
FINAL SINGLE POINT ENERGY      -114.930189477538

DIPOLE MOMENT
-------------
                                X             Y             Z
Electronic contribution:     -0.05848       2.11313       0.36398
Nuclear contribution   :      0.07809      -2.81948      -0.48564
                        -----------------------------------------
Total Dipole Moment    :      0.01961      -0.70635      -0.12166
                        -----------------------------------------
Magnitude (a.u.)       :      0.71701
Magnitude (Debye)      :      1.82251

Rotational constants in cm-1:     5.477724     0.956378     0.956377
Rotational constants in MHz : 164218.041992 28671.483536 28671.460928

                             ****ORCA TERMINATED NORMALLY****
TOTAL RUN TIME: 0 days 0 hours 0 minutes 3 seconds 211 msec
