                         Program Version 5.0.0 -  RELEASE  -
|  1> !wB97X-D3 RIJCOSX def2-SVP def2/J TightSCF
|  2> *xyz 1 1
|  3> C          4.99986       -1.59613       -5.92488
|  4> N          5.28156       -1.97413       -4.53576
|  5> C          4.79250       -1.36132       -3.45730
|  6> N          3.93990       -0.37492       -3.55736
|  7> N          5.25986       -1.75422       -2.23913
|  8> H          5.92282       -2.52145       -2.18672
|  9> H          4.65468       -1.64040       -1.44202
| 10> H          5.70914       -2.87560       -4.38702
| 11> H          3.33010       -0.31764       -4.36125
| 12> H          3.69849        0.11447       -2.70833
| 13> H          5.52133       -2.25562       -6.58673
| 14> H          5.32493       -0.59081       -6.09388
| 15> H          3.94785       -1.66624       -6.10727
| 16> *
| 17>
| 18> %MaxCore 64000
| 19>
| 20> %pal nprocs 18
| 21> end
| 22>
| 23> %scf
| 24>   MaxIter 150
| 25> end
| 26>
| 27>
| 28>                          ****END OF INPUT****

CARTESIAN COORDINATES (ANGSTROEM)
---------------------------------
  C      4.999860   -1.596130   -5.924880
  N      5.281560   -1.974130   -4.535760
  C      4.792500   -1.361320   -3.457300
  N      3.939900   -0.374920   -3.557360
  N      5.259860   -1.754220   -2.239130
  H      5.922820   -2.521450   -2.186720
  H      4.654680   -1.640400   -1.442020
  H      5.709140   -2.875600   -4.387020
  H      3.330100   -0.317640   -4.361250
  H      3.698490    0.114470   -2.708330
  H      5.521330   -2.255620   -6.586730
  H      5.324930   -0.590810   -6.093880
  H      3.947850   -1.666240   -6.107270

 Total Charge           Charge          ....    1
 Multiplicity           Mult            ....    1
 Number of Electrons    NEL             ....   40
 Basis Dimension        Dim             ....  110

ORBITAL ENERGIES
----------------

  NO   OCC          E(Eh)            E(eV)
   0   2.0000     -14.668231      -399.1429
   1   2.0000     -14.665120      -399.0582
   2   2.0000     -14.657200      -398.8427
   3   2.0000     -10.631197      -289.2896
   4   2.0000     -10.494542      -285.5710
   5   2.0000      -1.329987       -36.1908
   6   2.0000      -1.217026       -33.1170
   7   2.0000      -1.200492       -32.6671
   8   2.0000      -1.012915       -27.5628
   9   2.0000      -0.935107       -25.4456
  10   2.0000      -0.895653       -24.3719
  11   2.0000      -0.852443       -23.1962
  12   2.0000      -0.803888       -21.8749
  13   2.0000      -0.795076       -21.6351
  14   2.0000      -0.754530       -20.5318
  15   2.0000      -0.732458       -19.9312
  16   2.0000      -0.690849       -18.7989
  17   2.0000      -0.676445       -18.4070
  18   2.0000      -0.577886       -15.7251
  19   2.0000      -0.550450       -14.9785
  20   0.0000      -0.087583        -2.3833
  21   0.0000      -0.049710        -1.3527
  22   0.0000      -0.013465        -0.3664
  23   0.0000      -0.003315        -0.0902
  24   0.0000       0.011861         0.3228

MULLIKEN ATOMIC CHARGES
-----------------------
   0 C :    0.061262
   1 N :   -0.208422
   2 C :    0.109898
   3 N :   -0.048525
   4 N :   -0.102012
   5 H :    0.180956
   6 H :    0.182456
   7 H :    0.181905
   8 H :    0.190445
   9 H :    0.187845
  10 H :    0.097753
  11 H :    0.092441
  12 H :    0.074000
Sum of atomic charges:    1.0000000

LOEWDIN ATOMIC CHARGES
----------------------
   0 C :    0.052058
   1 N :    0.012189
   2 C :    0.158789
   3 N :    0.061346
   4 N :    0.019753
   5 H :    0.111998
   6 H :    0.106615
   7 H :    0.107180
   8 H :    0.116588
   9 H :    0.117267
  10 H :    0.057519
  11 H :    0.045459
  12 H :    0.033240

  Mayer bond orders larger than 0.100000
B(  0-C ,  1-N ) :   0.9253 B(  0-C , 10-H ) :   0.9715 B(  0-C , 11-H ) :   0.9760
B(  0-C , 12-H ) :   0.9765 B(  1-N ,  2-C ) :   1.3736 B(  1-N ,  7-H ) :   0.9137
B(  2-C ,  3-N ) :   1.4269 B(  2-C ,  4-N ) :   1.3569 B(  3-N ,  8-H ) :   0.9176
B(  3-N ,  9-H ) :   0.9220 B(  4-N ,  5-H ) :   0.9259 B(  4-N ,  6-H ) :   0.9303

Dispersion correction           -0.002409744
FINAL SINGLE POINT ENERGY      -244.836818669182

DIPOLE MOMENT
-------------
                                X             Y             Z
Electronic contribution:      0.13388       0.09781       2.72969
Nuclear contribution   :     -0.59263      -0.40751      -2.24260
                        -----------------------------------------
Total Dipole Moment    :     -0.45875      -0.30970       0.48709
                        -----------------------------------------
Magnitude (a.u.)       :      0.73731
Magnitude (Debye)      :      1.87409

Rotational constants in cm-1:     0.316984     0.131419     0.095004
Rotational constants in MHz :  9502.926758  3939.829875  2848.138998

                             ****ORCA TERMINATED NORMALLY****
TOTAL RUN TIME: 0 days 0 hours 0 minutes 6 seconds 397 msec
