                         Program Version 5.0.0 -  RELEASE  -
|  1> !wB97X-D3 RIJCOSX def2-SVP def2/J TightSCF
|  2> *xyz 0 1
|  3> C          4.99986       -1.59613       -5.92488
|  4> C          5.28156       -1.97413       -4.53576
|  5> C          4.79250       -1.36132       -3.45730
|  6> N          3.93990       -0.37492       -3.55736
|  7> N          5.25986       -1.75422       -2.23913
|  8> H          5.92282       -2.52145       -2.18672
|  9> H          4.65468       -1.64040       -1.44202
| 10> H          5.70914       -2.87560       -4.38702
| 11> H          3.33010       -0.31764       -4.36125
| 12> H          3.69849        0.11447       -2.70833
| 13> H          5.52133       -2.25562       -6.58673
| 14> H          5.32493       -0.59081       -6.09388
| 15> H          3.94785       -1.66624       -6.10727
| 16> *
| 17>
| 18> %MaxCore 64000
| 19>
| 20> %pal nprocs 18
| 21> end
| 22>
| 23> %scf
| 24>   MaxIter 150
| 25> end
| 26>
| 27>
| 28>                          ****END OF INPUT****

CARTESIAN COORDINATES (ANGSTROEM)
---------------------------------
  C      4.999860   -1.596130   -5.924880
  C      5.281560   -1.974130   -4.535760
  C      4.792500   -1.361320   -3.457300
  N      3.939900   -0.374920   -3.557360
  N      5.259860   -1.754220   -2.239130
  H      5.922820   -2.521450   -2.186720
  H      4.654680   -1.640400   -1.442020
  H      5.709140   -2.875600   -4.387020
  H      3.330100   -0.317640   -4.361250
  H      3.698490    0.114470   -2.708330
  H      5.521330   -2.255620   -6.586730
  H      5.324930   -0.590810   -6.093880
  H      3.947850   -1.666240   -6.107270

 Total Charge           Charge          ....    0
 Multiplicity           Mult            ....    1
 Number of Electrons    NEL             ....   40
 Basis Dimension        Dim             ....  110

ORBITAL ENERGIES
----------------

  NO   OCC          E(Eh)            E(eV)
   0   2.0000     -14.432433      -392.7265
   1   2.0000     -14.421752      -392.4358
   2   2.0000     -10.322990      -280.9028
   3   2.0000     -10.248170      -278.8669
   4   2.0000     -10.202431      -277.6223
   5   2.0000      -1.062590       -28.9145
   6   2.0000      -0.967857       -26.3367
   7   2.0000      -0.850903       -23.1543
   8   2.0000      -0.753640       -20.5076
   9   2.0000      -0.679981       -18.5032
  10   2.0000      -0.639581       -17.4039
  11   2.0000      -0.596815       -16.2402
  12   2.0000      -0.569127       -15.4867
  13   2.0000      -0.521483       -14.1903
  14   2.0000      -0.499142       -13.5824
  15   2.0000      -0.464542       -12.6408
  16   2.0000      -0.447123       -12.1668
  17   2.0000      -0.424908       -11.5623
  18   2.0000      -0.351391        -9.5618
  19   2.0000      -0.236651        -6.4396
  20   0.0000       0.135510         3.6874
  21   0.0000       0.167197         4.5497
  22   0.0000       0.179914         4.8957
  23   0.0000       0.189222         5.1490
  24   0.0000       0.206597         5.6218

MULLIKEN ATOMIC CHARGES
-----------------------
   0 C :    0.054476
   1 C :   -0.252991
   2 C :   -0.014301
   3 N :   -0.095019
   4 N :   -0.141315
   5 H :    0.127622
   6 H :    0.103603
   7 H :   -0.067856
   8 H :    0.137861
   9 H :    0.115625
  10 H :    0.012917
  11 H :    0.019135
  12 H :    0.000243
Sum of atomic charges:   -0.0000000

LOEWDIN ATOMIC CHARGES
----------------------
   0 C :   -0.060251
   1 C :   -0.230554
   2 C :    0.023049
   3 N :   -0.013136
   4 N :   -0.050844
   5 H :    0.082328
   6 H :    0.055804
   7 H :   -0.012183
   8 H :    0.084194
   9 H :    0.069775
  10 H :    0.027307
  11 H :    0.018085
  12 H :    0.006427

  Mayer bond orders larger than 0.100000
B(  0-C ,  1-C ) :   1.0579 B(  0-C , 10-H ) :   0.9579 B(  0-C , 11-H ) :   0.9692
B(  0-C , 12-H ) :   0.9666 B(  1-C ,  2-C ) :   1.7093 B(  1-C ,  7-H ) :   0.9558
B(  2-C ,  3-N ) :   1.2602 B(  2-C ,  4-N ) :   1.1983 B(  3-N ,  8-H ) :   0.9348
B(  3-N ,  9-H ) :   0.9496 B(  4-N ,  5-H ) :   0.9465 B(  4-N ,  6-H ) :   0.9524

Dispersion correction           -0.002410893
FINAL SINGLE POINT ENERGY      -228.368782646610

DIPOLE MOMENT
-------------
                                X             Y             Z
Electronic contribution:     -0.21337       0.66100       3.21348
Nuclear contribution   :     -0.50372      -0.52081      -2.36443
                        -----------------------------------------
Total Dipole Moment    :     -0.71709       0.14019       0.84905
                        -----------------------------------------
Magnitude (a.u.)       :      1.12016
Magnitude (Debye)      :      2.84722

Rotational constants in cm-1:     0.322219     0.132365     0.095965
Rotational constants in MHz :  9659.878542  3968.206057  2876.950547

                             ****ORCA TERMINATED NORMALLY****
TOTAL RUN TIME: 0 days 0 hours 0 minutes 5 seconds 880 msec
