                         Program Version 5.0.0 -  RELEASE  -
|  1> !wB97X-D3 RIJCOSX def2-SVP def2/J TightSCF
|  2> *xyz 0 1
|  3> C          4.99986       -1.59613       -5.92488
|  4> N          5.28156       -1.97413       -4.53576
|  5> C          4.79250       -1.36132       -3.45730
|  6> C          3.93990       -0.37492       -3.55736
|  7> N          5.25986       -1.75422       -2.23913
|  8> H          5.92282       -2.52145       -2.18672
|  9> H          4.65468       -1.64040       -1.44202
| 10> H          5.70914       -2.87560       -4.38702
| 11> H          3.33010       -0.31764       -4.36125
| 12> H          3.69849        0.11447       -2.70833
| 13> H          5.52133       -2.25562       -6.58673
| 14> H          5.32493       -0.59081       -6.09388
| 15> H          3.94785       -1.66624       -6.10727
| 16> *
| 17>
| 18> %MaxCore 64000
| 19>
| 20> %pal nprocs 18
| 21> end
| 22>
| 23> %scf
| 24>   MaxIter 150
| 25> end
| 26>
| 27>
| 28>                          ****END OF INPUT****

CARTESIAN COORDINATES (ANGSTROEM)
---------------------------------
  C      4.999860   -1.596130   -5.924880
  N      5.281560   -1.974130   -4.535760
  C      4.792500   -1.361320   -3.457300
  C      3.939900   -0.374920   -3.557360
  N      5.259860   -1.754220   -2.239130
  H      5.922820   -2.521450   -2.186720
  H      4.654680   -1.640400   -1.442020
  H      5.709140   -2.875600   -4.387020
  H      3.330100   -0.317640   -4.361250
  H      3.698490    0.114470   -2.708330
  H      5.521330   -2.255620   -6.586730
  H      5.324930   -0.590810   -6.093880
  H      3.947850   -1.666240   -6.107270

 Total Charge           Charge          ....    0
 Multiplicity           Mult            ....    1
 Number of Electrons    NEL             ....   40
 Basis Dimension        Dim             ....  110

ORBITAL ENERGIES
----------------

  NO   OCC          E(Eh)            E(eV)
   0   2.0000     -14.431339      -392.6967
   1   2.0000     -14.424712      -392.5164
   2   2.0000     -10.327394      -281.0227
   3   2.0000     -10.311584      -280.5925
   4   2.0000     -10.194507      -277.4066
   5   2.0000      -1.063853       -28.9489
   6   2.0000      -0.976788       -26.5798
   7   2.0000      -0.826133       -22.4802
   8   2.0000      -0.798441       -21.7267
   9   2.0000      -0.663655       -18.0590
  10   2.0000      -0.638577       -17.3766
  11   2.0000      -0.607057       -16.5189
  12   2.0000      -0.552543       -15.0354
  13   2.0000      -0.529908       -14.4195
  14   2.0000      -0.510340       -13.8871
  15   2.0000      -0.475049       -12.9267
  16   2.0000      -0.473003       -12.8711
  17   2.0000      -0.446103       -12.1391
  18   2.0000      -0.336177        -9.1478
  19   2.0000      -0.252123        -6.8606
  20   0.0000       0.136044         3.7019
  21   0.0000       0.166500         4.5307
  22   0.0000       0.182104         4.9553
  23   0.0000       0.187311         5.0970
  24   0.0000       0.209917         5.7121

MULLIKEN ATOMIC CHARGES
-----------------------
   0 C :    0.120855
   1 N :   -0.248340
   2 C :    0.058571
   3 C :   -0.151577
   4 N :   -0.158227
   5 H :    0.107191
   6 H :    0.133893
   7 H :    0.108998
   8 H :   -0.028569
   9 H :   -0.042421
  10 H :    0.026567
  11 H :    0.041428
  12 H :    0.031632
Sum of atomic charges:   -0.0000000

LOEWDIN ATOMIC CHARGES
----------------------
   0 C :    0.043207
   1 N :   -0.051397
   2 C :    0.045668
   3 C :   -0.249664
   4 N :   -0.047548
   5 H :    0.063965
   6 H :    0.077234
   7 H :    0.061944
   8 H :   -0.003293
   9 H :   -0.004969
  10 H :    0.023794
  11 H :    0.025657
  12 H :    0.015401

  Mayer bond orders larger than 0.100000
B(  0-C ,  1-N ) :   0.9957 B(  0-C , 10-H ) :   0.9794 B(  0-C , 11-H ) :   0.9724
B(  0-C , 12-H ) :   0.9760 B(  1-N ,  2-C ) :   1.1628 B(  1-N ,  7-H ) :   0.9407
B(  2-C ,  3-C ) :   1.7823 B(  2-C ,  4-N ) :   1.1819 B(  3-C ,  8-H ) :   0.9458
B(  3-C ,  9-H ) :   0.9453 B(  4-N ,  5-H ) :   0.9566 B(  4-N ,  6-H ) :   0.9523

Dispersion correction           -0.002406540
FINAL SINGLE POINT ENERGY      -228.359806002184

DIPOLE MOMENT
-------------
                                X             Y             Z
Electronic contribution:      1.16757      -0.96787       2.15419
Nuclear contribution   :     -0.77547      -0.19690      -2.16626
                        -----------------------------------------
Total Dipole Moment    :      0.39210      -1.16477      -0.01207
                        -----------------------------------------
Magnitude (a.u.)       :      1.22905
Magnitude (Debye)      :      3.12401

Rotational constants in cm-1:     0.340409     0.131955     0.097296
Rotational constants in MHz : 10205.195281  3955.909122  2916.861706

                             ****ORCA TERMINATED NORMALLY****
TOTAL RUN TIME: 0 days 0 hours 0 minutes 6 seconds 286 msec
