                         Program Version 5.0.0 -  RELEASE  -
|  1> !wB97X-D3 RIJCOSX def2-SVP def2/J TightSCF
|  2> *xyz 0 1
|  3> C          4.99986       -1.59613       -5.92488
|  4> N          5.28156       -1.97413       -4.53576
|  5> C          4.79250       -1.36132       -3.45730
|  6> N          3.93990       -0.37492       -3.55736
|  7> C          5.25986       -1.75422       -2.23913
|  8> H          5.92282       -2.52145       -2.18672
|  9> H          4.65468       -1.64040       -1.44202
| 10> H          5.70914       -2.87560       -4.38702
| 11> H          3.33010       -0.31764       -4.36125
| 12> H          3.69849        0.11447       -2.70833
| 13> H          5.52133       -2.25562       -6.58673
| 14> H          5.32493       -0.59081       -6.09388
| 15> H          3.94785       -1.66624       -6.10727
| 16> *
| 17>
| 18> %MaxCore 64000
| 19>
| 20> %pal nprocs 18
| 21> end
| 22>
| 23> %scf
| 24>   MaxIter 150
| 25> end
| 26>
| 27>
| 28>                          ****END OF INPUT****

CARTESIAN COORDINATES (ANGSTROEM)
---------------------------------
  C      4.999860   -1.596130   -5.924880
  N      5.281560   -1.974130   -4.535760
  C      4.792500   -1.361320   -3.457300
  N      3.939900   -0.374920   -3.557360
  C      5.259860   -1.754220   -2.239130
  H      5.922820   -2.521450   -2.186720
  H      4.654680   -1.640400   -1.442020
  H      5.709140   -2.875600   -4.387020
  H      3.330100   -0.317640   -4.361250
  H      3.698490    0.114470   -2.708330
  H      5.521330   -2.255620   -6.586730
  H      5.324930   -0.590810   -6.093880
  H      3.947850   -1.666240   -6.107270

 Total Charge           Charge          ....    0
 Multiplicity           Mult            ....    1
 Number of Electrons    NEL             ....   40
 Basis Dimension        Dim             ....  110

ORBITAL ENERGIES
----------------

  NO   OCC          E(Eh)            E(eV)
   0   2.0000     -14.434180      -392.7740
   1   2.0000     -14.430749      -392.6806
   2   2.0000     -10.332115      -281.1511
   3   2.0000     -10.321125      -280.8521
   4   2.0000     -10.189454      -277.2692
   5   2.0000      -1.074467       -29.2377
   6   2.0000      -0.988605       -26.9013
   7   2.0000      -0.842699       -22.9310
   8   2.0000      -0.763831       -20.7849
   9   2.0000      -0.701690       -19.0939
  10   2.0000      -0.641054       -17.4440
  11   2.0000      -0.590459       -16.0672
  12   2.0000      -0.575854       -15.6698
  13   2.0000      -0.549827       -14.9615
  14   2.0000      -0.500735       -13.6257
  15   2.0000      -0.481001       -13.0887
  16   2.0000      -0.472161       -12.8482
  17   2.0000      -0.441856       -12.0235
  18   2.0000      -0.344257        -9.3677
  19   2.0000      -0.237143        -6.4530
  20   0.0000       0.131338         3.5739
  21   0.0000       0.162133         4.4119
  22   0.0000       0.175208         4.7677
  23   0.0000       0.182348         4.9619
  24   0.0000       0.209408         5.6983

MULLIKEN ATOMIC CHARGES
-----------------------
   0 C :    0.090906
   1 N :   -0.235664
   2 C :   -0.021636
   3 N :   -0.096448
   4 C :   -0.143055
   5 H :   -0.050616
   6 H :   -0.037042
   7 H :    0.137738
   8 H :    0.118170
   9 H :    0.138066
  10 H :    0.037125
  11 H :    0.040827
  12 H :    0.021626
Sum of atomic charges:    0.0000000

LOEWDIN ATOMIC CHARGES
----------------------
   0 C :    0.027881
   1 N :   -0.048001
   2 C :    0.041132
   3 N :   -0.009740
   4 C :   -0.286304
   5 H :   -0.012002
   6 H :   -0.013548
   7 H :    0.082461
   8 H :    0.069529
   9 H :    0.088924
  10 H :    0.029920
  11 H :    0.021559
  12 H :    0.008189

  Mayer bond orders larger than 0.100000
B(  0-C ,  1-N ) :   0.9932 B(  0-C , 10-H ) :   0.9803 B(  0-C , 11-H ) :   0.9776
B(  0-C , 12-H ) :   0.9765 B(  1-N ,  2-C ) :   1.1851 B(  1-N ,  7-H ) :   0.9359
B(  2-C ,  3-N ) :   1.2516 B(  2-C ,  4-C ) :   1.7035 B(  3-N ,  8-H ) :   0.9463
B(  3-N ,  9-H ) :   0.9426 B(  4-C ,  5-H ) :   0.9529 B(  4-C ,  6-H ) :   0.9565

Dispersion correction           -0.002424049
FINAL SINGLE POINT ENERGY      -228.354197769595

DIPOLE MOMENT
-------------
                                X             Y             Z
Electronic contribution:     -0.20861       0.52231       0.73891
Nuclear contribution   :     -0.50812      -0.47627      -1.89926
                        -----------------------------------------
Total Dipole Moment    :     -0.71673       0.04604      -1.16035
                        -----------------------------------------
Magnitude (a.u.)       :      1.36463
Magnitude (Debye)      :      3.46862

Rotational constants in cm-1:     0.323645     0.137193     0.098606
Rotational constants in MHz :  9702.637007  4112.943433  2956.125886

                             ****ORCA TERMINATED NORMALLY****
TOTAL RUN TIME: 0 days 0 hours 0 minutes 6 seconds 43 msec
