                         Program Version 5.0.0 -  RELEASE  -
|  1> !wB97X-D3 RIJCOSX def2-SVP def2/J TightSCF xyzfile
|  2>
|  3> *xyzfile 0 1 D2.xyz
|  4>
|  5> %MaxCore 64000
|  6>
|  7> %pal nprocs 18
|  8> end
|  9>
| 10> %scf
| 11>   MaxIter 150
| 12> end
| 13>
| 14>
| 15>                          ****END OF INPUT****

CARTESIAN COORDINATES (ANGSTROEM)
---------------------------------
  C      4.999862   -1.596133   -5.924876
  N      5.281560   -1.974132   -4.535764
  C      3.766779   -2.266110   -6.511752
  C      2.496702   -1.844161   -5.735704
  H      1.626416   -2.217434   -6.308950
  H      2.481824   -2.456069   -4.793414
  F      2.459729   -0.509204   -5.505757
  C      4.792500   -1.361316   -3.457295
  C      3.939898   -0.374925   -3.557359
  N      5.259860   -1.754224   -2.239133
  H      5.922824   -2.521451   -2.186720
  H      4.654678   -1.640404   -1.442016
  H      5.709139   -2.875599   -4.387021
  H      3.330101   -0.317639   -4.361247
  H      3.698494    0.114468   -2.708333
  H      4.843333   -0.517930   -5.943019
  H      5.901695   -1.822503   -6.496467
  H      3.886191   -3.357076   -6.533604
  H      3.685602   -1.922168   -7.547128

 Total Charge           Charge          ....    0
 Multiplicity           Mult            ....    1
 Number of Electrons    NEL             ....   64
 Basis Dimension        Dim             ....  167

ORBITAL ENERGIES
----------------

  NO   OCC          E(Eh)            E(eV)
   0   2.0000     -24.787106      -674.4915
   1   2.0000     -14.426194      -392.5567
   2   2.0000     -14.416493      -392.2927
   3   2.0000     -10.368846      -282.1507
   4   2.0000     -10.319061      -280.7959
   5   2.0000     -10.315764      -280.7062
   6   2.0000     -10.296298      -280.1765
   7   2.0000     -10.166619      -276.6478
   8   2.0000      -1.318237       -35.8711
   9   2.0000      -1.059571       -28.8324
  10   2.0000      -0.975418       -26.5425
  11   2.0000      -0.890357       -24.2278
  12   2.0000      -0.811295       -22.0765
  13   2.0000      -0.795181       -21.6380
  14   2.0000      -0.714009       -19.4292
  15   2.0000      -0.666030       -18.1236
  16   2.0000      -0.646357       -17.5883
  17   2.0000      -0.615767       -16.7559
  18   2.0000      -0.612298       -16.6615
  19   2.0000      -0.592714       -16.1286
  20   2.0000      -0.580548       -15.7975
  21   2.0000      -0.551869       -15.0171
  22   2.0000      -0.521989       -14.2040
  23   2.0000      -0.501890       -13.6571
  24   2.0000      -0.478104       -13.0099
  25   2.0000      -0.469420       -12.7736
  26   2.0000      -0.450616       -12.2619
  27   2.0000      -0.435151       -11.8410
  28   2.0000      -0.426005       -11.5922
  29   2.0000      -0.392482       -10.6800
  30   2.0000      -0.332212        -9.0399
  31   2.0000      -0.239136        -6.5072
  32   0.0000       0.131620         3.5816
  33   0.0000       0.158127         4.3028
  34   0.0000       0.176042         4.7903
  35   0.0000       0.183244         4.9863
  36   0.0000       0.190587         5.1861

MULLIKEN ATOMIC CHARGES
-----------------------
   0 C :    0.089738
   1 N :   -0.226139
   2 C :   -0.100062
   3 C :    0.228876
   4 H :    0.035984
   5 H :    0.044940
   6 F :   -0.214771
   7 C :    0.020322
   8 C :   -0.205677
   9 N :   -0.150541
  10 H :    0.100774
  11 H :    0.131052
  12 H :    0.102938
  13 H :    0.046969
  14 H :   -0.058788
  15 H :    0.056155
  16 H :    0.030816
  17 H :    0.030399
  18 H :    0.037015
Sum of atomic charges:    0.0000000

LOEWDIN ATOMIC CHARGES
----------------------
   0 C :    0.040166
   1 N :   -0.047838
   2 C :   -0.073326
   3 C :    0.107399
   4 H :    0.018233
   5 H :    0.021704
   6 F :   -0.046962
   7 C :    0.030099
   8 C :   -0.251411
   9 N :   -0.050917
  10 H :    0.059911
  11 H :    0.075548
  12 H :    0.058489
  13 H :   -0.043560
  14 H :   -0.011170
  15 H :    0.034615
  16 H :    0.023192
  17 H :    0.028319
  18 H :    0.027510

  Mayer bond orders larger than 0.100000
B(  0-C ,  1-N ) :   0.9918 B(  0-C ,  2-C ) :   1.0647 B(  0-C , 15-H ) :   0.9372
B(  0-C , 16-H ) :   0.9630 B(  1-N ,  7-C ) :   1.1336 B(  1-N , 12-H ) :   0.9359
B(  2-C ,  3-C ) :   1.0557 B(  2-C , 17-H ) :   0.9444 B(  2-C , 18-H ) :   0.9459
B(  3-C ,  4-H ) :   0.9611 B(  3-C ,  5-H ) :   0.9506 B(  3-C ,  6-F ) :   0.9362
B(  6-F , 13-H ) :   0.1264 B(  7-C ,  8-C ) :   1.7995 B(  7-C ,  9-N ) :   1.1777
B(  8-C , 13-H ) :   0.9048 B(  8-C , 14-H ) :   0.9414 B(  9-N , 10-H ) :   0.9569
B(  9-N , 11-H ) :   0.9526

Dispersion correction           -0.006084770
FINAL SINGLE POINT ENERGY      -406.011816785201

DIPOLE MOMENT
-------------
                                X             Y             Z
Electronic contribution:     -2.25781       2.60867      -0.09546
Nuclear contribution   :      2.43398      -4.26587      -0.19921
                        -----------------------------------------
Total Dipole Moment    :      0.17618      -1.65721      -0.29467
                        -----------------------------------------
Magnitude (a.u.)       :      1.69239
Magnitude (Debye)      :      4.30173

Rotational constants in cm-1:     0.110089     0.049944     0.039407
Rotational constants in MHz :  3300.378855  1497.273856  1181.385913

                             ****ORCA TERMINATED NORMALLY****
TOTAL RUN TIME: 0 days 0 hours 0 minutes 11 seconds 9 msec
