                         Program Version 5.0.0 -  RELEASE  -
|  1> !B3LYP D3BJ RIJCOSX def2-TZVP def2/J TightSCF
|  2> *xyz -1 1
|  3> C         -5.57236       -5.80780       -0.81644
|  4> S         -6.90318       -4.61903       -0.52846
|  5> O         -8.11485       -5.25093       -0.95701
|  6> O         -6.53271       -3.42684       -1.31485
|  7> O         -6.86563       -4.29496        0.91412
|  8> C         -4.45780       -5.94187        0.22919
|  9> H         -5.17735       -5.54257       -1.79771
| 10> H         -6.07420       -6.76889       -0.92127
| 11> H         -3.75515       -6.68239       -0.09144
| 12> H         -4.88182       -6.23486        1.16689
| 13> H         -3.95908       -5.00189        0.34143
| 14> *
| 15> %MaxCore 64000
| 16>
| 17> %pal nprocs 4
| 18> end
| 19>
| 20> %scf
| 21>   MaxIter 150
| 22> end
| 23>
| 24>                          ****END OF INPUT****

CARTESIAN COORDINATES (ANGSTROEM)
---------------------------------
  C     -5.572360   -5.807800   -0.816440
  S     -6.903180   -4.619030   -0.528460
  O     -8.114850   -5.250930   -0.957010
  O     -6.532710   -3.426840   -1.314850
  O     -6.865630   -4.294960    0.914120
  C     -4.457800   -5.941870    0.229190
  H     -5.177350   -5.542570   -1.797710
  H     -6.074200   -6.768890   -0.921270
  H     -3.755150   -6.682390   -0.091440
  H     -4.881820   -6.234860    1.166890
  H     -3.959080   -5.001890    0.341430

 Total Charge           Charge          ....   -1
 Multiplicity           Mult            ....    1
 Number of Electrons    NEL             ....   58
 Basis Dimension        Dim             ....  222

ORBITAL ENERGIES
----------------

  NO   OCC          E(Eh)            E(eV)
   0   2.0000     -88.831343     -2417.2237
   1   2.0000     -18.899925      -514.2931
   2   2.0000     -18.885934      -513.9124
   3   2.0000     -18.884597      -513.8760
   4   2.0000     -10.026754      -272.8418
   5   2.0000     -10.024204      -272.7725
   6   2.0000      -7.874305      -214.2707
   7   2.0000      -5.837909      -158.8576
   8   2.0000      -5.836771      -158.8266
   9   2.0000      -5.836574      -158.8212
  10   2.0000      -0.913179       -24.8489
  11   2.0000      -0.783514       -21.3205
  12   2.0000      -0.760139       -20.6844
  13   2.0000      -0.627671       -17.0798
  14   2.0000      -0.505444       -13.7538
  15   2.0000      -0.375051       -10.2056
  16   2.0000      -0.315121        -8.5749
  17   2.0000      -0.305697        -8.3184
  18   2.0000      -0.269390        -7.3305
  19   2.0000      -0.251951        -6.8559
  20   2.0000      -0.250184        -6.8079
  21   2.0000      -0.221842        -6.0366
  22   2.0000      -0.216594        -5.8938
  23   2.0000      -0.142639        -3.8814
  24   2.0000      -0.140151        -3.8137
  25   2.0000      -0.109681        -2.9846
  26   2.0000      -0.098395        -2.6775
  27   2.0000      -0.091880        -2.5002
  28   2.0000      -0.055052        -1.4980
  29   0.0000       0.169825         4.6212
  30   0.0000       0.216840         5.9005
  31   0.0000       0.230429         6.2703
  32   0.0000       0.234400         6.3783
  33   0.0000       0.256971         6.9925

MULLIKEN ATOMIC CHARGES
-----------------------
   0 C :   -0.232234
   1 S :    0.846846
   2 O :   -0.544152
   3 O :   -0.592229
   4 O :   -0.593714
   5 C :   -0.283973
   6 H :    0.077974
   7 H :    0.073312
   8 H :    0.057746
   9 H :    0.097560
  10 H :    0.092864
Sum of atomic charges:   -1.0000000

LOEWDIN ATOMIC CHARGES
----------------------
   0 C :   -0.424122
   1 S :    0.426770
   2 O :   -0.367975
   3 O :   -0.426507
   4 O :   -0.422120
   5 C :   -0.335338
   6 H :    0.116111
   7 H :    0.114265
   8 H :    0.096772
   9 H :    0.111080
  10 H :    0.111064

  Mayer bond orders larger than 0.100000
B(  0-C ,  1-S ) :   0.8697 B(  0-C ,  5-C ) :   0.9480 B(  0-C ,  6-H ) :   0.9631
B(  0-C ,  7-H ) :   0.9576 B(  1-S ,  2-O ) :   1.8157 B(  1-S ,  3-O ) :   1.7602
B(  1-S ,  4-O ) :   1.7442 B(  5-C ,  8-H ) :   0.9609 B(  5-C ,  9-H ) :   0.9758
B(  5-C , 10-H ) :   0.9782

Dispersion correction           -0.016451882
FINAL SINGLE POINT ENERGY      -703.112868278874

DIPOLE MOMENT
-------------
                                X             Y             Z
Electronic contribution:     -6.73756       4.35968      -0.92002
Nuclear contribution   :      8.13140      -5.68016       0.80206
                        -----------------------------------------
Total Dipole Moment    :      1.39385      -1.32048      -0.11796
                        -----------------------------------------
Magnitude (a.u.)       :      1.92364
Magnitude (Debye)      :      4.88951

Rotational constants in cm-1:     0.162101     0.080498     0.079099
Rotational constants in MHz :  4859.669771  2413.267251  2371.338602

                             ****ORCA TERMINATED NORMALLY****
TOTAL RUN TIME: 0 days 0 hours 0 minutes 28 seconds 337 msec
