                         Program Version 5.0.0 -  RELEASE  -
|  1> !B3LYP D3BJ RIJCOSX def2-TZVP def2/J TightSCF
|  2> *xyz 1 1
|  3> C         -4.38262       -1.67089        1.21620
|  4> N         -5.76354       -1.91517        0.70501
|  5> C         -3.28173       -2.19127        0.29436
|  6> H         -5.84081       -2.11520       -0.30065
|  7> H         -6.40882       -1.14866        0.93612
|  8> H         -6.17478       -2.79061        1.05143
|  9> H         -4.32862       -2.13922        2.19810
| 10> H         -4.26158       -0.59740        1.35725
| 11> H         -3.36057       -1.71407       -0.66008
| 12> H         -3.38775       -3.24919        0.17403
| 13> H         -2.32559       -1.97514        0.72329
| 14> *
| 15> %MaxCore 64000
| 16>
| 17> %pal nprocs 4
| 18> end
| 19>
| 20> %scf
| 21>   MaxIter 150
| 22> end
| 23>
| 24>                          ****END OF INPUT****

CARTESIAN COORDINATES (ANGSTROEM)
---------------------------------
  C     -4.382620   -1.670890    1.216200
  N     -5.763540   -1.915170    0.705010
  C     -3.281730   -2.191270    0.294360
  H     -5.840810   -2.115200   -0.300650
  H     -6.408820   -1.148660    0.936120
  H     -6.174780   -2.790610    1.051430
  H     -4.328620   -2.139220    2.198100
  H     -4.261580   -0.597400    1.357250
  H     -3.360570   -1.714070   -0.660080
  H     -3.387750   -3.249190    0.174030
  H     -2.325590   -1.975140    0.723290

 Total Charge           Charge          ....    1
 Multiplicity           Mult            ....    1
 Number of Electrons    NEL             ....   26
 Basis Dimension        Dim             ....  141

ORBITAL ENERGIES
----------------

  NO   OCC          E(Eh)            E(eV)
   0   2.0000     -14.650412      -398.6580
   1   2.0000     -10.422999      -283.6242
   2   2.0000     -10.342017      -281.4206
   3   2.0000      -1.216092       -33.0916
   4   2.0000      -0.966560       -26.3014
   5   2.0000      -0.849615       -23.1192
   6   2.0000      -0.797592       -21.7036
   7   2.0000      -0.776460       -21.1285
   8   2.0000      -0.702958       -19.1285
   9   2.0000      -0.640776       -17.4364
  10   2.0000      -0.583919       -15.8893
  11   2.0000      -0.567201       -15.4343
  12   2.0000      -0.549731       -14.9589
  13   0.0000      -0.198513        -5.4018
  14   0.0000      -0.141470        -3.8496
  15   0.0000      -0.136832        -3.7234
  16   0.0000      -0.114022        -3.1027
  17   0.0000      -0.077844        -2.1183

MULLIKEN ATOMIC CHARGES
-----------------------
   0 C :   -0.159024
   1 N :   -0.286925
   2 C :   -0.344204
   3 H :    0.314446
   4 H :    0.330134
   5 H :    0.318894
   6 H :    0.182565
   7 H :    0.181216
   8 H :    0.147255
   9 H :    0.142925
  10 H :    0.172717
Sum of atomic charges:    1.0000000

LOEWDIN ATOMIC CHARGES
----------------------
   0 C :   -0.266397
   1 N :    0.168546
   2 C :   -0.271474
   3 H :    0.218941
   4 H :    0.223326
   5 H :    0.221047
   6 H :    0.150898
   7 H :    0.151675
   8 H :    0.128932
   9 H :    0.128205
  10 H :    0.146299

  Mayer bond orders larger than 0.100000
B(  0-C ,  1-N ) :   0.8271 B(  0-C ,  2-C ) :   0.9722 B(  0-C ,  6-H ) :   0.9602
B(  0-C ,  7-H ) :   0.9598 B(  1-N ,  3-H ) :   0.8806 B(  1-N ,  4-H ) :   0.8801
B(  1-N ,  5-H ) :   0.8863 B(  2-C ,  8-H ) :   0.9597 B(  2-C ,  9-H ) :   0.9633
B(  2-C , 10-H ) :   0.9574

Dispersion correction           -0.009932320
FINAL SINGLE POINT ENERGY      -135.501225009573

DIPOLE MOMENT
-------------
                                X             Y             Z
Electronic contribution:     -1.80914       0.24098       0.30729
Nuclear contribution   :      0.19437      -0.25358      -0.32106
                        -----------------------------------------
Total Dipole Moment    :     -1.61477      -0.01261      -0.01377
                        -----------------------------------------
Magnitude (a.u.)       :      1.61488
Magnitude (Debye)      :      4.10469

Rotational constants in cm-1:     1.030014     0.272489     0.242697
Rotational constants in MHz : 30879.030706  8169.007780  7275.865152

                             ****ORCA TERMINATED NORMALLY****
TOTAL RUN TIME: 0 days 0 hours 0 minutes 14 seconds 243 msec
