                         Program Version 5.0.0 -  RELEASE  -
|  1> !B3LYP D3BJ RIJCOSX def2-TZVP def2/J TightSCF
|  2> *xyz 0 1
|  3> C         -5.57236       -5.80780       -0.81644
|  4> S         -6.90318       -4.61903       -0.52846
|  5> F         -8.11485       -5.25093       -0.95701
|  6> O         -6.53271       -3.42684       -1.31485
|  7> O         -6.86563       -4.29496        0.91412
|  8> C         -4.45780       -5.94187        0.22919
|  9> H         -5.17735       -5.54257       -1.79771
| 10> H         -6.07420       -6.76889       -0.92127
| 11> H         -3.75515       -6.68239       -0.09144
| 12> H         -4.88182       -6.23486        1.16689
| 13> H         -3.95908       -5.00189        0.34143
| 14> *
| 15> %MaxCore 64000
| 16>
| 17> %pal nprocs 4
| 18> end
| 19>
| 20> %scf
| 21>   MaxIter 150
| 22> end
| 23>
| 24>                          ****END OF INPUT****

CARTESIAN COORDINATES (ANGSTROEM)
---------------------------------
  C     -5.572360   -5.807800   -0.816440
  S     -6.903180   -4.619030   -0.528460
  F     -8.114850   -5.250930   -0.957010
  O     -6.532710   -3.426840   -1.314850
  O     -6.865630   -4.294960    0.914120
  C     -4.457800   -5.941870    0.229190
  H     -5.177350   -5.542570   -1.797710
  H     -6.074200   -6.768890   -0.921270
  H     -3.755150   -6.682390   -0.091440
  H     -4.881820   -6.234860    1.166890
  H     -3.959080   -5.001890    0.341430

 Total Charge           Charge          ....    0
 Multiplicity           Mult            ....    1
 Number of Electrons    NEL             ....   58
 Basis Dimension        Dim             ....  222

ORBITAL ENERGIES
----------------

  NO   OCC          E(Eh)            E(eV)
   0   2.0000     -89.098836     -2424.5026
   1   2.0000     -24.806872      -675.0293
   2   2.0000     -19.126242      -520.4515
   3   2.0000     -19.125940      -520.4433
   4   2.0000     -10.231912      -278.4245
   5   2.0000     -10.188318      -277.2382
   6   2.0000      -8.142389      -221.5657
   7   2.0000      -6.109140      -166.2382
   8   2.0000      -6.102821      -166.0662
   9   2.0000      -6.102461      -166.0564
  10   2.0000      -1.392967       -37.9046
  11   2.0000      -1.091403       -29.6986
  12   2.0000      -0.995036       -27.0763
  13   2.0000      -0.820343       -22.3227
  14   2.0000      -0.740927       -20.1617
  15   2.0000      -0.679486       -18.4898
  16   2.0000      -0.593646       -16.1539
  17   2.0000      -0.591517       -16.0960
  18   2.0000      -0.554128       -15.0786
  19   2.0000      -0.493226       -13.4214
  20   2.0000      -0.477664       -12.9979
  21   2.0000      -0.443079       -12.0568
  22   2.0000      -0.428591       -11.6626
  23   2.0000      -0.406223       -11.0539
  24   2.0000      -0.392237       -10.6733
  25   2.0000      -0.377782       -10.2800
  26   2.0000      -0.324341        -8.8258
  27   2.0000      -0.321542        -8.7496
  28   2.0000      -0.299255        -8.1431
  29   0.0000       0.018607         0.5063
  30   0.0000       0.020391         0.5549
  31   0.0000       0.051842         1.4107
  32   0.0000       0.068749         1.8708
  33   0.0000       0.072363         1.9691

MULLIKEN ATOMIC CHARGES
-----------------------
   0 C :   -0.240052
   1 S :    0.880071
   2 F :   -0.098901
   3 O :   -0.442547
   4 O :   -0.446462
   5 C :   -0.299631
   6 H :    0.147989
   7 H :    0.117305
   8 H :    0.121777
   9 H :    0.128031
  10 H :    0.132421
Sum of atomic charges:   -0.0000000

LOEWDIN ATOMIC CHARGES
----------------------
   0 C :   -0.389908
   1 S :    0.545961
   2 F :    0.106332
   3 O :   -0.305645
   4 O :   -0.304505
   5 C :   -0.294749
   6 H :    0.140720
   7 H :    0.130103
   8 H :    0.123075
   9 H :    0.123416
  10 H :    0.125200

  Mayer bond orders larger than 0.100000
B(  0-C ,  1-S ) :   0.9024 B(  0-C ,  5-C ) :   0.9652 B(  0-C ,  6-H ) :   0.9408
B(  0-C ,  7-H ) :   0.9406 B(  1-S ,  2-F ) :   1.1403 B(  1-S ,  3-O ) :   1.8951
B(  1-S ,  4-O ) :   1.8835 B(  5-C ,  8-H ) :   0.9562 B(  5-C ,  9-H ) :   0.9688
B(  5-C , 10-H ) :   0.9717

Dispersion correction           -0.015710489
FINAL SINGLE POINT ENERGY      -727.629158142311

DIPOLE MOMENT
-------------
                                X             Y             Z
Electronic contribution:     -9.41976       3.58831      -1.86096
Nuclear contribution   :      9.80704      -5.24335       1.35017
                        -----------------------------------------
Total Dipole Moment    :      0.38728      -1.65504      -0.51079
                        -----------------------------------------
Magnitude (a.u.)       :      1.77484
Magnitude (Debye)      :      4.51127

Rotational constants in cm-1:     0.156316     0.078308     0.076228
Rotational constants in MHz :  4686.224999  2347.601204  2285.245115

                             ****ORCA TERMINATED NORMALLY****
TOTAL RUN TIME: 0 days 0 hours 0 minutes 28 seconds 89 msec
