                         Program Version 5.0.0 -  RELEASE  -
|  1> !B3LYP D3BJ RIJCOSX def2-TZVP def2/J TightSCF
|  2> *xyz 0 1
|  3> C         -4.38262       -1.67089        1.21620
|  4> C         -5.76354       -1.91517        0.70501
|  5> C         -3.28173       -2.19127        0.29436
|  6> H         -5.84081       -2.11520       -0.30065
|  7> H         -6.40882       -1.14866        0.93612
|  8> H         -6.17478       -2.79061        1.05143
|  9> H         -4.32862       -2.13922        2.19810
| 10> H         -4.26158       -0.59740        1.35725
| 11> H         -3.36057       -1.71407       -0.66008
| 12> H         -3.38775       -3.24919        0.17403
| 13> H         -2.32559       -1.97514        0.72329
| 14> *
| 15> %MaxCore 64000
| 16>
| 17> %pal nprocs 4
| 18> end
| 19>
| 20> %scf
| 21>   MaxIter 150
| 22> end
| 23>
| 24>                          ****END OF INPUT****

CARTESIAN COORDINATES (ANGSTROEM)
---------------------------------
  C     -4.382620   -1.670890    1.216200
  C     -5.763540   -1.915170    0.705010
  C     -3.281730   -2.191270    0.294360
  H     -5.840810   -2.115200   -0.300650
  H     -6.408820   -1.148660    0.936120
  H     -6.174780   -2.790610    1.051430
  H     -4.328620   -2.139220    2.198100
  H     -4.261580   -0.597400    1.357250
  H     -3.360570   -1.714070   -0.660080
  H     -3.387750   -3.249190    0.174030
  H     -2.325590   -1.975140    0.723290

 Total Charge           Charge          ....    0
 Multiplicity           Mult            ....    1
 Number of Electrons    NEL             ....   26
 Basis Dimension        Dim             ....  141

ORBITAL ENERGIES
----------------

  NO   OCC          E(Eh)            E(eV)
   0   2.0000     -10.154795      -276.3260
   1   2.0000     -10.145451      -276.0717
   2   2.0000     -10.126503      -275.5562
   3   2.0000      -0.786743       -21.4084
   4   2.0000      -0.691295       -18.8111
   5   2.0000      -0.589517       -16.0416
   6   2.0000      -0.461748       -12.5648
   7   2.0000      -0.440795       -11.9946
   8   2.0000      -0.409498       -11.1430
   9   2.0000      -0.385360       -10.4862
  10   2.0000      -0.340906        -9.2765
  11   2.0000      -0.333708        -9.0807
  12   2.0000      -0.322138        -8.7658
  13   0.0000       0.040621         1.1053
  14   0.0000       0.081823         2.2265
  15   0.0000       0.085330         2.3219
  16   0.0000       0.093488         2.5439
  17   0.0000       0.118902         3.2355

MULLIKEN ATOMIC CHARGES
-----------------------
   0 C :   -0.116175
   1 C :   -0.340442
   2 C :   -0.320332
   3 H :    0.104624
   4 H :    0.105006
   5 H :    0.107013
   6 H :    0.079896
   7 H :    0.079294
   8 H :    0.101413
   9 H :    0.096890
  10 H :    0.102816
Sum of atomic charges:    0.0000000

LOEWDIN ATOMIC CHARGES
----------------------
   0 C :   -0.311945
   1 C :   -0.306117
   2 C :   -0.301499
   3 H :    0.107799
   4 H :    0.107343
   5 H :    0.108006
   6 H :    0.129777
   7 H :    0.129010
   8 H :    0.112821
   9 H :    0.112573
  10 H :    0.112232

  Mayer bond orders larger than 0.100000
B(  0-C ,  1-C ) :   0.9460 B(  0-C ,  2-C ) :   0.9670 B(  0-C ,  6-H ) :   0.9753
B(  0-C ,  7-H ) :   0.9769 B(  1-C ,  3-H ) :   0.9824 B(  1-C ,  4-H ) :   0.9827
B(  1-C ,  5-H ) :   0.9806 B(  2-C ,  8-H ) :   0.9776 B(  2-C ,  9-H ) :   0.9782
B(  2-C , 10-H ) :   0.9801

Dispersion correction           -0.010011161
FINAL SINGLE POINT ENERGY      -119.090584988444

DIPOLE MOMENT
-------------
                                X             Y             Z
Electronic contribution:      0.18585       0.23995       0.33959
Nuclear contribution   :     -0.21528      -0.24783      -0.32864
                        -----------------------------------------
Total Dipole Moment    :     -0.02942      -0.00788       0.01095
                        -----------------------------------------
Magnitude (a.u.)       :      0.03237
Magnitude (Debye)      :      0.08228

Rotational constants in cm-1:     1.037566     0.286459     0.254172
Rotational constants in MHz : 31105.431429  8587.814531  7619.871198

                             ****ORCA TERMINATED NORMALLY****
TOTAL RUN TIME: 0 days 0 hours 0 minutes 14 seconds 6 msec
