                         Program Version 5.0.0 -  RELEASE  -
|  1> !B3LYP D3BJ RIJCOSX def2-TZVP def2/J TightSCF
|  2> *xyz 0 1
|  3> C         -5.57236       -5.80780       -0.81644
|  4> S         -6.90318       -4.61903       -0.52846
|  5> O         -8.11485       -5.25093       -0.95701
|  6> F         -6.53271       -3.42684       -1.31485
|  7> O         -6.86563       -4.29496        0.91412
|  8> C         -4.45780       -5.94187        0.22919
|  9> H         -5.17735       -5.54257       -1.79771
| 10> H         -6.07420       -6.76889       -0.92127
| 11> H         -3.75515       -6.68239       -0.09144
| 12> H         -4.88182       -6.23486        1.16689
| 13> H         -3.95908       -5.00189        0.34143
| 14> *
| 15> %MaxCore 64000
| 16>
| 17> %pal nprocs 4
| 18> end
| 19>
| 20> %scf
| 21>   MaxIter 150
| 22> end
| 23>
| 24>                          ****END OF INPUT****

CARTESIAN COORDINATES (ANGSTROEM)
---------------------------------
  C     -5.572360   -5.807800   -0.816440
  S     -6.903180   -4.619030   -0.528460
  O     -8.114850   -5.250930   -0.957010
  F     -6.532710   -3.426840   -1.314850
  O     -6.865630   -4.294960    0.914120
  C     -4.457800   -5.941870    0.229190
  H     -5.177350   -5.542570   -1.797710
  H     -6.074200   -6.768890   -0.921270
  H     -3.755150   -6.682390   -0.091440
  H     -4.881820   -6.234860    1.166890
  H     -3.959080   -5.001890    0.341430

 Total Charge           Charge          ....    0
 Multiplicity           Mult            ....    1
 Number of Electrons    NEL             ....   58
 Basis Dimension        Dim             ....  222

ORBITAL ENERGIES
----------------

  NO   OCC          E(Eh)            E(eV)
   0   2.0000     -89.096715     -2424.4449
   1   2.0000     -24.784587      -674.4229
   2   2.0000     -19.140603      -520.8423
   3   2.0000     -19.126076      -520.4470
   4   2.0000     -10.231347      -278.4091
   5   2.0000     -10.187919      -277.2274
   6   2.0000      -8.140318      -221.5093
   7   2.0000      -6.107163      -166.1844
   8   2.0000      -6.100871      -166.0131
   9   2.0000      -6.100322      -165.9982
  10   2.0000      -1.356314       -36.9072
  11   2.0000      -1.108969       -30.1766
  12   2.0000      -1.010661       -27.5015
  13   2.0000      -0.820065       -22.3151
  14   2.0000      -0.726771       -19.7764
  15   2.0000      -0.671799       -18.2806
  16   2.0000      -0.576967       -15.7001
  17   2.0000      -0.566046       -15.4029
  18   2.0000      -0.549917       -14.9640
  19   2.0000      -0.491891       -13.3850
  20   2.0000      -0.479417       -13.0456
  21   2.0000      -0.453497       -12.3403
  22   2.0000      -0.431962       -11.7543
  23   2.0000      -0.404013       -10.9938
  24   2.0000      -0.399993       -10.8844
  25   2.0000      -0.383090       -10.4244
  26   2.0000      -0.337917        -9.1952
  27   2.0000      -0.325656        -8.8615
  28   2.0000      -0.312061        -8.4916
  29   0.0000       0.015749         0.4285
  30   0.0000       0.025988         0.7072
  31   0.0000       0.051728         1.4076
  32   0.0000       0.071200         1.9375
  33   0.0000       0.075997         2.0680

MULLIKEN ATOMIC CHARGES
-----------------------
   0 C :   -0.249402
   1 S :    0.884073
   2 O :   -0.404629
   3 F :   -0.131299
   4 O :   -0.453990
   5 C :   -0.294521
   6 H :    0.124860
   7 H :    0.151580
   8 H :    0.120902
   9 H :    0.137231
  10 H :    0.115197
Sum of atomic charges:    0.0000000

LOEWDIN ATOMIC CHARGES
----------------------
   0 C :   -0.388044
   1 S :    0.553813
   2 O :   -0.254780
   3 F :    0.052465
   4 O :   -0.307584
   5 C :   -0.300700
   6 H :    0.132142
   7 H :    0.145275
   8 H :    0.122219
   9 H :    0.125140
  10 H :    0.120055

  Mayer bond orders larger than 0.100000
B(  0-C ,  1-S ) :   0.9000 B(  0-C ,  5-C ) :   0.9599 B(  0-C ,  6-H ) :   0.9455
B(  0-C ,  7-H ) :   0.9433 B(  1-S ,  2-O ) :   1.9451 B(  1-S ,  3-F ) :   1.0975
B(  1-S ,  4-O ) :   1.8814 B(  5-C ,  8-H ) :   0.9570 B(  5-C ,  9-H ) :   0.9693
B(  5-C , 10-H ) :   0.9718

Dispersion correction           -0.015687011
FINAL SINGLE POINT ENERGY      -727.647661412392

DIPOLE MOMENT
-------------
                                X             Y             Z
Electronic contribution:     -6.73749       6.69277      -2.48619
Nuclear contribution   :      8.15840      -7.14411       1.72305
                        -----------------------------------------
Total Dipole Moment    :      1.42090      -0.45133      -0.76314
                        -----------------------------------------
Magnitude (a.u.)       :      1.67483
Magnitude (Debye)      :      4.25707

Rotational constants in cm-1:     0.153926     0.078297     0.077402
Rotational constants in MHz :  4614.585804  2347.272644  2320.438903

                             ****ORCA TERMINATED NORMALLY****
TOTAL RUN TIME: 0 days 0 hours 0 minutes 26 seconds 342 msec
