                         Program Version 5.0.0 -  RELEASE  -
|  1> !B3LYP D3BJ RIJCOSX def2-TZVP def2/J TightSCF
|  2> *xyz 0 1
|  3> C         -5.57236       -5.80780       -0.81644
|  4> S         -6.90318       -4.61903       -0.52846
|  5> O         -8.11485       -5.25093       -0.95701
|  6> O         -6.53271       -3.42684       -1.31485
|  7> F         -6.86563       -4.29496        0.91412
|  8> C         -4.45780       -5.94187        0.22919
|  9> H         -5.17735       -5.54257       -1.79771
| 10> H         -6.07420       -6.76889       -0.92127
| 11> H         -3.75515       -6.68239       -0.09144
| 12> H         -4.88182       -6.23486        1.16689
| 13> H         -3.95908       -5.00189        0.34143
| 14> *
| 15> %MaxCore 64000
| 16>
| 17> %pal nprocs 4
| 18> end
| 19>
| 20> %scf
| 21>   MaxIter 150
| 22> end
| 23>
| 24>                          ****END OF INPUT****

CARTESIAN COORDINATES (ANGSTROEM)
---------------------------------
  C     -5.572360   -5.807800   -0.816440
  S     -6.903180   -4.619030   -0.528460
  O     -8.114850   -5.250930   -0.957010
  O     -6.532710   -3.426840   -1.314850
  F     -6.865630   -4.294960    0.914120
  C     -4.457800   -5.941870    0.229190
  H     -5.177350   -5.542570   -1.797710
  H     -6.074200   -6.768890   -0.921270
  H     -3.755150   -6.682390   -0.091440
  H     -4.881820   -6.234860    1.166890
  H     -3.959080   -5.001890    0.341430

 Total Charge           Charge          ....    0
 Multiplicity           Mult            ....    1
 Number of Electrons    NEL             ....   58
 Basis Dimension        Dim             ....  222

ORBITAL ENERGIES
----------------

  NO   OCC          E(Eh)            E(eV)
   0   2.0000     -89.096150     -2424.4295
   1   2.0000     -24.783422      -674.3912
   2   2.0000     -19.140286      -520.8337
   3   2.0000     -19.125122      -520.4210
   4   2.0000     -10.230655      -278.3903
   5   2.0000     -10.195097      -277.4227
   6   2.0000      -8.139790      -221.4949
   7   2.0000      -6.106721      -166.1723
   8   2.0000      -6.100148      -165.9935
   9   2.0000      -6.099915      -165.9871
  10   2.0000      -1.353572       -36.8326
  11   2.0000      -1.109448       -30.1896
  12   2.0000      -1.011198       -27.5161
  13   2.0000      -0.822935       -22.3932
  14   2.0000      -0.724089       -19.7035
  15   2.0000      -0.676029       -18.3957
  16   2.0000      -0.582078       -15.8392
  17   2.0000      -0.565098       -15.3771
  18   2.0000      -0.542547       -14.7634
  19   2.0000      -0.496577       -13.5126
  20   2.0000      -0.473371       -12.8811
  21   2.0000      -0.450338       -12.2543
  22   2.0000      -0.444492       -12.0953
  23   2.0000      -0.413146       -11.2423
  24   2.0000      -0.399146       -10.8613
  25   2.0000      -0.385391       -10.4870
  26   2.0000      -0.338484        -9.2106
  27   2.0000      -0.323966        -8.8156
  28   2.0000      -0.311561        -8.4780
  29   0.0000       0.003566         0.0970
  30   0.0000       0.043965         1.1963
  31   0.0000       0.059764         1.6263
  32   0.0000       0.064649         1.7592
  33   0.0000       0.073320         1.9951

MULLIKEN ATOMIC CHARGES
-----------------------
   0 C :   -0.237288
   1 S :    0.884413
   2 O :   -0.404556
   3 O :   -0.452199
   4 F :   -0.134917
   5 C :   -0.326888
   6 H :    0.152857
   7 H :    0.142319
   8 H :    0.126665
   9 H :    0.120557
  10 H :    0.129039
Sum of atomic charges:   -0.0000000

LOEWDIN ATOMIC CHARGES
----------------------
   0 C :   -0.382228
   1 S :    0.554300
   2 O :   -0.254837
   3 O :   -0.310570
   4 F :    0.052175
   5 C :   -0.308065
   6 H :    0.145926
   7 H :    0.139093
   8 H :    0.124633
   9 H :    0.118251
  10 H :    0.121320

  Mayer bond orders larger than 0.100000
B(  0-C ,  1-S ) :   0.9034 B(  0-C ,  5-C ) :   0.9572 B(  0-C ,  6-H ) :   0.9421
B(  0-C ,  7-H ) :   0.9428 B(  1-S ,  2-O ) :   1.9441 B(  1-S ,  3-O ) :   1.8915
B(  1-S ,  4-F ) :   1.0913 B(  5-C ,  8-H ) :   0.9615 B(  5-C ,  9-H ) :   0.9696
B(  5-C , 10-H ) :   0.9700

Dispersion correction           -0.015613804
FINAL SINGLE POINT ENERGY      -727.647803014021

DIPOLE MOMENT
-------------
                                X             Y             Z
Electronic contribution:     -7.27990       5.18554       1.30098
Nuclear contribution   :      8.50531      -6.23950      -0.59960
                        -----------------------------------------
Total Dipole Moment    :      1.22541      -1.05396       0.70138
                        -----------------------------------------
Magnitude (a.u.)       :      1.76193
Magnitude (Debye)      :      4.47847

Rotational constants in cm-1:     0.152799     0.080212     0.076962
Rotational constants in MHz :  4580.804531  2404.707790  2307.252710

                             ****ORCA TERMINATED NORMALLY****
TOTAL RUN TIME: 0 days 0 hours 0 minutes 27 seconds 278 msec
