                         Program Version 5.0.0 -  RELEASE  -
|  1> !B3LYP D3BJ RIJCOSX def2-TZVP def2/J TightSCF xyzfile
|  2>
|  3> *xyzfile 0 1 D3.xyz
|  4>
|  5> %MaxCore 64000
|  6>
|  7> %pal nprocs 18
|  8> end
|  9>
| 10> %scf
| 11>   MaxIter 150
| 12> end
| 13>
| 14>
| 15>                          ****END OF INPUT****

CARTESIAN COORDINATES (ANGSTROEM)
---------------------------------
  C     -4.382623   -1.670889    1.216201
  C     -5.763539   -1.915170    0.705012
  C     -3.281728   -2.191272    0.294361
  C     -5.572364   -5.807798   -0.816445
  S     -6.903179   -4.619033   -0.528458
  H     -5.840812   -2.115205   -0.300646
  H     -6.408823   -1.148656    0.936124
  H     -6.174781   -2.790606    1.051433
  O     -8.114853   -5.250932   -0.957007
  O     -6.532715   -3.426838   -1.314848
  H     -4.328618   -2.139223    2.198103
  H     -4.261583   -0.597399    1.357248
  F     -6.865632   -4.294957    0.914118
  C     -3.474641   -3.605898   -0.259608
  H     -2.354548   -2.127602    0.871433
  H     -3.166611   -1.499693   -0.545037
  C     -3.827078   -4.661097    0.786174
  H     -2.560559   -3.889391   -0.788050
  H     -4.255932   -3.570040   -1.019300
  C     -4.457800   -5.941875    0.229195
  H     -5.177347   -5.542575   -1.797714
  H     -6.074202   -6.768894   -0.921272
  H     -4.530506   -4.253640    1.511979
  H     -2.933400   -4.932302    1.356825
  H     -3.681064   -6.562236   -0.229885
  H     -4.843942   -6.512728    1.075805

 Total Charge           Charge          ....    0
 Multiplicity           Mult            ....    1
 Number of Electrons    NEL             ....   98
 Basis Dimension        Dim             ....  437

ORBITAL ENERGIES
----------------

  NO   OCC          E(Eh)            E(eV)
   0   2.0000     -89.100914     -2424.5591
   1   2.0000     -24.789088      -674.5454
   2   2.0000     -19.144543      -520.9495
   3   2.0000     -19.129434      -520.5384
   4   2.0000     -10.230698      -278.3914
   5   2.0000     -10.200620      -277.5730
   6   2.0000     -10.177264      -276.9374
   7   2.0000     -10.162300      -276.5303
   8   2.0000     -10.155593      -276.3477
   9   2.0000     -10.145656      -276.0773
  10   2.0000     -10.096906      -274.7508
  11   2.0000      -8.144973      -221.6360
  12   2.0000      -6.111908      -166.3135
  13   2.0000      -6.105272      -166.1329
  14   2.0000      -6.105000      -166.1255
  15   2.0000      -1.364586       -37.1323
  16   2.0000      -1.115725       -30.3604
  17   2.0000      -1.020275       -27.7631
  18   2.0000      -0.839584       -22.8462
  19   2.0000      -0.801688       -21.8150
  20   2.0000      -0.755360       -20.5544
  21   2.0000      -0.729716       -19.8566
  22   2.0000      -0.694712       -18.9041
  23   2.0000      -0.655569       -17.8389
  24   2.0000      -0.620027       -16.8718
  25   2.0000      -0.585385       -15.9291
  26   2.0000      -0.579445       -15.7675
  27   2.0000      -0.552169       -15.0253
  28   2.0000      -0.544487       -14.8163
  29   2.0000      -0.496135       -13.5005
  30   2.0000      -0.489577       -13.3221
  31   2.0000      -0.473891       -12.8952
  32   2.0000      -0.459124       -12.4934
  33   2.0000      -0.451036       -12.2733
  34   2.0000      -0.445480       -12.1221
  35   2.0000      -0.426628       -11.6091
  36   2.0000      -0.404509       -11.0072
  37   2.0000      -0.395417       -10.7599
  38   2.0000      -0.390116       -10.6156
  39   2.0000      -0.388947       -10.5838
  40   2.0000      -0.361036        -9.8243
  41   2.0000      -0.354689        -9.6516
  42   2.0000      -0.347332        -9.4514
  43   2.0000      -0.334468        -9.1013
  44   2.0000      -0.331917        -9.0319
  45   2.0000      -0.323230        -8.7955
  46   2.0000      -0.307070        -8.3558
  47   2.0000      -0.304838        -8.2951
  48   2.0000      -0.287987        -7.8365
  49   0.0000       0.002078         0.0566
  50   0.0000       0.031684         0.8622
  51   0.0000       0.043380         1.1804
  52   0.0000       0.048073         1.3081
  53   0.0000       0.053329         1.4511

MULLIKEN ATOMIC CHARGES
-----------------------
   0 C :   -0.145349
   1 C :   -0.415251
   2 C :   -0.169462
   3 C :   -0.283363
   4 S :    0.920226
   5 H :    0.170870
   6 H :    0.103013
   7 H :    0.091092
   8 O :   -0.411395
   9 O :   -0.453290
  10 H :    0.079670
  11 H :    0.084720
  12 F :   -0.130855
  13 C :   -0.169482
  14 H :    0.077583
  15 H :    0.090495
  16 C :   -0.241019
  17 H :    0.083968
  18 H :    0.129107
  19 C :   -0.170403
  20 H :    0.162002
  21 H :    0.158846
  22 H :    0.116619
  23 H :    0.098517
  24 H :    0.106775
  25 H :    0.116363
Sum of atomic charges:    0.0000000

LOEWDIN ATOMIC CHARGES
----------------------
   0 C :   -0.299077
   1 C :   -0.332068
   2 C :   -0.262545
   3 C :   -0.357521
   4 S :    0.572888
   5 H :    0.109580
   6 H :    0.103756
   7 H :    0.088449
   8 O :   -0.250062
   9 O :   -0.279769
  10 H :    0.126804
  11 H :    0.132752
  12 F :    0.070911
  13 C :   -0.266673
  14 H :    0.131035
  15 H :    0.135904
  16 C :   -0.266005
  17 H :    0.132405
  18 H :    0.138006
  19 C :   -0.279447
  20 H :    0.148790
  21 H :    0.143540
  22 H :    0.136056
  23 H :    0.137825
  24 H :    0.144974
  25 H :    0.139489

  Mayer bond orders larger than 0.100000
B(  0-C ,  1-C ) :   0.9112 B(  0-C ,  2-C ) :   0.9768 B(  0-C , 10-H ) :   0.9787
B(  0-C , 11-H ) :   0.9705 B(  1-C ,  5-H ) :   0.9797 B(  1-C ,  6-H ) :   0.9756
B(  1-C ,  7-H ) :   0.9913 B(  2-C , 13-C ) :   0.9755 B(  2-C , 14-H ) :   0.9763
B(  2-C , 15-H ) :   0.9671 B(  3-C ,  4-S ) :   0.9102 B(  3-C , 19-C ) :   0.9523
B(  3-C , 20-H ) :   0.9430 B(  3-C , 21-H ) :   0.9469 B(  4-S ,  8-O ) :   1.9739
B(  4-S ,  9-O ) :   1.8132 B(  4-S , 12-F ) :   1.0706 B( 13-C , 16-C ) :   0.9274
B( 13-C , 17-H ) :   0.9657 B( 13-C , 18-H ) :   0.9674 B( 16-C , 19-C ) :   0.9515
B( 16-C , 22-H ) :   0.9889 B( 16-C , 23-H ) :   0.9634 B( 19-C , 24-H ) :   0.9504
B( 19-C , 25-H ) :   0.9793

Dispersion correction           -0.050329783
FINAL SINGLE POINT ENERGY      -924.110426912414

DIPOLE MOMENT
-------------
                                X             Y             Z
Electronic contribution:    -16.56441      -6.85044      -3.45639
Nuclear contribution   :     17.63907       5.79106       3.97609
                        -----------------------------------------
Total Dipole Moment    :      1.07466      -1.05938       0.51970
                        -----------------------------------------
Magnitude (a.u.)       :      1.59602
Magnitude (Debye)      :      4.05675

Rotational constants in cm-1:     0.048663     0.025472     0.020259
Rotational constants in MHz :  1458.892793   763.621130   607.350055

                             ****ORCA TERMINATED NORMALLY****
TOTAL RUN TIME: 0 days 0 hours 0 minutes 50 seconds 820 msec
