                         Program Version 5.0.0 -  RELEASE  -
|  1> !CAM-B3LYP RIJCOSX def2-SVPD def2/J TightSCF
|  2> *xyz -1 1
|  3> C         -5.57236       -5.80780       -0.81644
|  4> S         -6.90318       -4.61903       -0.52846
|  5> O         -8.11485       -5.25093       -0.95701
|  6> O         -6.53271       -3.42684       -1.31485
|  7> O         -6.86563       -4.29496        0.91412
|  8> C         -4.45780       -5.94187        0.22919
|  9> H         -5.17735       -5.54257       -1.79771
| 10> H         -6.07420       -6.76889       -0.92127
| 11> H         -3.75515       -6.68239       -0.09144
| 12> H         -4.88182       -6.23486        1.16689
| 13> H         -3.95908       -5.00189        0.34143
| 14> *
| 15> %MaxCore 64000
| 16>
| 17> %pal nprocs 4
| 18> end
| 19>
| 20> %scf
| 21>   MaxIter 150
| 22> end
| 23>
| 24>                          ****END OF INPUT****

CARTESIAN COORDINATES (ANGSTROEM)
---------------------------------
  C     -5.572360   -5.807800   -0.816440
  S     -6.903180   -4.619030   -0.528460
  O     -8.114850   -5.250930   -0.957010
  O     -6.532710   -3.426840   -1.314850
  O     -6.865630   -4.294960    0.914120
  C     -4.457800   -5.941870    0.229190
  H     -5.177350   -5.542570   -1.797710
  H     -6.074200   -6.768890   -0.921270
  H     -3.755150   -6.682390   -0.091440
  H     -4.881820   -6.234860    1.166890
  H     -3.959080   -5.001890    0.341430

 Total Charge           Charge          ....   -1
 Multiplicity           Mult            ....    1
 Number of Electrons    NEL             ....   58
 Basis Dimension        Dim             ....  176

ORBITAL ENERGIES
----------------

  NO   OCC          E(Eh)            E(eV)
   0   2.0000     -88.963278     -2420.8139
   1   2.0000     -19.000583      -517.0321
   2   2.0000     -18.986435      -516.6472
   3   2.0000     -18.985690      -516.6269
   4   2.0000     -10.126093      -275.5450
   5   2.0000     -10.122756      -275.4542
   6   2.0000      -8.016354      -218.1361
   7   2.0000      -5.986285      -162.8951
   8   2.0000      -5.986167      -162.8919
   9   2.0000      -5.985749      -162.8805
  10   2.0000      -1.015444       -27.6316
  11   2.0000      -0.871517       -23.7152
  12   2.0000      -0.847084       -23.0503
  13   2.0000      -0.714246       -19.4356
  14   2.0000      -0.589859       -16.0509
  15   2.0000      -0.457941       -12.4612
  16   2.0000      -0.394551       -10.7363
  17   2.0000      -0.390065       -10.6142
  18   2.0000      -0.351765        -9.5720
  19   2.0000      -0.335030        -9.1166
  20   2.0000      -0.332726        -9.0539
  21   2.0000      -0.298287        -8.1168
  22   2.0000      -0.290854        -7.9145
  23   2.0000      -0.220775        -6.0076
  24   2.0000      -0.219476        -5.9722
  25   2.0000      -0.184229        -5.0131
  26   2.0000      -0.172062        -4.6821
  27   2.0000      -0.168551        -4.5865
  28   2.0000      -0.130828        -3.5600
  29   0.0000       0.166319         4.5258
  30   0.0000       0.193936         5.2773
  31   0.0000       0.201209         5.4752
  32   0.0000       0.207776         5.6539
  33   0.0000       0.227403         6.1879

MULLIKEN ATOMIC CHARGES
-----------------------
   0 C :   -0.216772
   1 S :    1.300459
   2 O :   -0.767334
   3 O :   -0.826556
   4 O :   -0.838616
   5 C :    0.961804
   6 H :   -0.096887
   7 H :   -0.079650
   8 H :   -0.186829
   9 H :   -0.113137
  10 H :   -0.136481
Sum of atomic charges:   -1.0000000

LOEWDIN ATOMIC CHARGES
----------------------
   0 C :   -0.120673
   1 S :    0.869007
   2 O :   -0.575736
   3 O :   -0.603168
   4 O :   -0.595755
   5 C :    0.105555
   6 H :   -0.001084
   7 H :   -0.006854
   8 H :   -0.033958
   9 H :   -0.021673
  10 H :   -0.015661

  Mayer bond orders larger than 0.100000
B(  0-C ,  1-S ) :   0.8903 B(  0-C ,  5-C ) :   1.2676 B(  0-C ,  6-H ) :   0.9505
B(  0-C ,  7-H ) :   0.9561 B(  0-C ,  8-H ) :   0.2356 B(  0-C ,  9-H ) :   0.2231
B(  0-C , 10-H ) :   0.2083 B(  1-S ,  2-O ) :   1.3523 B(  1-S ,  3-O ) :   1.2831
B(  1-S ,  4-O ) :   1.2739 B(  5-C ,  8-H ) :   0.7060 B(  5-C ,  9-H ) :   0.7691
B(  5-C , 10-H ) :   0.7776

FINAL SINGLE POINT ENERGY      -702.667474327422

DIPOLE MOMENT
-------------
                                X             Y             Z
Electronic contribution:     -6.58729       4.22816      -0.92937
Nuclear contribution   :      8.13140      -5.68016       0.80206
                        -----------------------------------------
Total Dipole Moment    :      1.54412      -1.45200      -0.12731
                        -----------------------------------------
Magnitude (a.u.)       :      2.12340
Magnitude (Debye)      :      5.39725

Rotational constants in cm-1:     0.162101     0.080498     0.079099
Rotational constants in MHz :  4859.669771  2413.267251  2371.338602

                             ****ORCA TERMINATED NORMALLY****
TOTAL RUN TIME: 0 days 0 hours 0 minutes 33 seconds 539 msec
