                         Program Version 5.0.0 -  RELEASE  -
|  1> !CAM-B3LYP RIJCOSX def2-SVPD def2/J TightSCF
|  2> *xyz 1 1
|  3> C         -4.38262       -1.67089        1.21620
|  4> N         -5.76354       -1.91517        0.70501
|  5> C         -3.28173       -2.19127        0.29436
|  6> H         -5.84081       -2.11520       -0.30065
|  7> H         -6.40882       -1.14866        0.93612
|  8> H         -6.17478       -2.79061        1.05143
|  9> H         -4.32862       -2.13922        2.19810
| 10> H         -4.26158       -0.59740        1.35725
| 11> H         -3.36057       -1.71407       -0.66008
| 12> H         -3.38775       -3.24919        0.17403
| 13> H         -2.32559       -1.97514        0.72329
| 14> *
| 15> %MaxCore 64000
| 16>
| 17> %pal nprocs 4
| 18> end
| 19>
| 20> %scf
| 21>   MaxIter 150
| 22> end
| 23>
| 24>                          ****END OF INPUT****

CARTESIAN COORDINATES (ANGSTROEM)
---------------------------------
  C     -4.382620   -1.670890    1.216200
  N     -5.763540   -1.915170    0.705010
  C     -3.281730   -2.191270    0.294360
  H     -5.840810   -2.115200   -0.300650
  H     -6.408820   -1.148660    0.936120
  H     -6.174780   -2.790610    1.051430
  H     -4.328620   -2.139220    2.198100
  H     -4.261580   -0.597400    1.357250
  H     -3.360570   -1.714070   -0.660080
  H     -3.387750   -3.249190    0.174030
  H     -2.325590   -1.975140    0.723290

 Total Charge           Charge          ....    1
 Multiplicity           Mult            ....    1
 Number of Electrons    NEL             ....   26
 Basis Dimension        Dim             ....  124

ORBITAL ENERGIES
----------------

  NO   OCC          E(Eh)            E(eV)
   0   2.0000     -14.741897      -401.1474
   1   2.0000     -10.514209      -286.1062
   2   2.0000     -10.434171      -283.9282
   3   2.0000      -1.291090       -35.1324
   4   2.0000      -1.043584       -28.3974
   5   2.0000      -0.924328       -25.1522
   6   2.0000      -0.870462       -23.6865
   7   2.0000      -0.849302       -23.1107
   8   2.0000      -0.773626       -21.0514
   9   2.0000      -0.711074       -19.3493
  10   2.0000      -0.651509       -17.7285
  11   2.0000      -0.634027       -17.2528
  12   2.0000      -0.615145       -16.7389
  13   0.0000      -0.159092        -4.3291
  14   0.0000      -0.101507        -2.7622
  15   0.0000      -0.098844        -2.6897
  16   0.0000      -0.088056        -2.3961
  17   0.0000      -0.058989        -1.6052

MULLIKEN ATOMIC CHARGES
-----------------------
   0 C :    0.354833
   1 N :   -0.720074
   2 C :    0.768545
   3 H :    0.361943
   4 H :    0.367686
   5 H :    0.347779
   6 H :   -0.126563
   7 H :   -0.094569
   8 H :   -0.105499
   9 H :   -0.069192
  10 H :   -0.084890
Sum of atomic charges:    1.0000000

LOEWDIN ATOMIC CHARGES
----------------------
   0 C :    0.062175
   1 N :    0.328621
   2 C :    0.171558
   3 H :    0.104165
   4 H :    0.110649
   5 H :    0.107013
   6 H :    0.051066
   7 H :    0.050445
   8 H :   -0.000039
   9 H :   -0.000078
  10 H :    0.014425

  Mayer bond orders larger than 0.100000
B(  0-C ,  1-N ) :   0.7140 B(  0-C ,  2-C ) :   1.3281 B(  0-C ,  6-H ) :   0.8894
B(  0-C ,  7-H ) :   0.8894 B(  0-C ,  8-H ) :   0.1928 B(  0-C ,  9-H ) :   0.1702
B(  0-C , 10-H ) :   0.1925 B(  1-N ,  3-H ) :   0.7667 B(  1-N ,  4-H ) :   0.7699
B(  1-N ,  5-H ) :   0.8165 B(  1-N ,  6-H ) :   0.1061 B(  2-C ,  8-H ) :   0.8028
B(  2-C ,  9-H ) :   0.7936 B(  2-C , 10-H ) :   0.8164

FINAL SINGLE POINT ENERGY      -135.358367239394

DIPOLE MOMENT
-------------
                                X             Y             Z
Electronic contribution:     -1.81296       0.23991       0.30801
Nuclear contribution   :      0.19437      -0.25358      -0.32106
                        -----------------------------------------
Total Dipole Moment    :     -1.61859      -0.01367      -0.01305
                        -----------------------------------------
Magnitude (a.u.)       :      1.61870
Magnitude (Debye)      :      4.11441

Rotational constants in cm-1:     1.030014     0.272489     0.242697
Rotational constants in MHz : 30879.030706  8169.007780  7275.865152

                             ****ORCA TERMINATED NORMALLY****
TOTAL RUN TIME: 0 days 0 hours 0 minutes 17 seconds 25 msec
