                         Program Version 5.0.0 -  RELEASE  -
|  1> !CAM-B3LYP RIJCOSX def2-SVPD def2/J TightSCF xyzfile
|  2>
|  3> *xyzfile 0 1 B.xyz
|  4>
|  5> %MaxCore 64000
|  6>
|  7> %pal nprocs 4
|  8> end
|  9>
| 10> %scf
| 11>   MaxIter 150
| 12> end
| 13>
| 14>
| 15>                          ****END OF INPUT****

CARTESIAN COORDINATES (ANGSTROEM)
---------------------------------
  C     -4.382623   -1.670889    1.216201
  N     -5.763539   -1.915170    0.705012
  C     -3.281728   -2.191272    0.294361
  C     -5.572364   -5.807798   -0.816445
  S     -6.903179   -4.619033   -0.528458
  H     -5.840812   -2.115205   -0.300646
  H     -6.408823   -1.148656    0.936124
  H     -6.174781   -2.790606    1.051433
  O     -8.114853   -5.250932   -0.957007
  O     -6.532715   -3.426838   -1.314848
  H     -4.328618   -2.139223    2.198103
  H     -4.261583   -0.597399    1.357248
  O     -6.865632   -4.294957    0.914118
  C     -3.474641   -3.605898   -0.259608
  H     -2.354548   -2.127602    0.871433
  H     -3.166611   -1.499693   -0.545037
  C     -3.827078   -4.661097    0.786174
  H     -2.560559   -3.889391   -0.788050
  H     -4.255932   -3.570040   -1.019300
  C     -4.457800   -5.941875    0.229195
  H     -5.177347   -5.542575   -1.797714
  H     -6.074202   -6.768894   -0.921272
  H     -4.530506   -4.253640    1.511979
  H     -2.933400   -4.932302    1.356825
  H     -3.681064   -6.562236   -0.229885
  H     -4.843942   -6.512728    1.075805

 Total Charge           Charge          ....    0
 Multiplicity           Mult            ....    1
 Number of Electrons    NEL             ....   98
 Basis Dimension        Dim             ....  356

ORBITAL ENERGIES
----------------

  NO   OCC          E(Eh)            E(eV)
   0   2.0000     -89.134031     -2425.4603
   1   2.0000     -19.171606      -521.6859
   2   2.0000     -19.167785      -521.5819
   3   2.0000     -19.155623      -521.2510
   4   2.0000     -14.511977      -394.8910
   5   2.0000     -10.348095      -281.5860
   6   2.0000     -10.294343      -280.1233
   7   2.0000     -10.268677      -279.4249
   8   2.0000     -10.268027      -279.4072
   9   2.0000     -10.265319      -279.3335
  10   2.0000     -10.263031      -279.2713
  11   2.0000      -8.186368      -222.7624
  12   2.0000      -6.157137      -167.5442
  13   2.0000      -6.156208      -167.5189
  14   2.0000      -6.154931      -167.4842
  15   2.0000      -1.190056       -32.3831
  16   2.0000      -1.083731       -29.4898
  17   2.0000      -1.039455       -28.2850
  18   2.0000      -1.035053       -28.1652
  19   2.0000      -0.911555       -24.8047
  20   2.0000      -0.871531       -23.7156
  21   2.0000      -0.821013       -22.3409
  22   2.0000      -0.768878       -20.9222
  23   2.0000      -0.714658       -19.4468
  24   2.0000      -0.676448       -18.4071
  25   2.0000      -0.662705       -18.0331
  26   2.0000      -0.650801       -17.7092
  27   2.0000      -0.613159       -16.6849
  28   2.0000      -0.584499       -15.9050
  29   2.0000      -0.565294       -15.3824
  30   2.0000      -0.558918       -15.2089
  31   2.0000      -0.545219       -14.8362
  32   2.0000      -0.522872       -14.2281
  33   2.0000      -0.515399       -14.0247
  34   2.0000      -0.505635       -13.7590
  35   2.0000      -0.491954       -13.3867
  36   2.0000      -0.490957       -13.3596
  37   2.0000      -0.457374       -12.4458
  38   2.0000      -0.446194       -12.1416
  39   2.0000      -0.442156       -12.0317
  40   2.0000      -0.414412       -11.2767
  41   2.0000      -0.407108       -11.0780
  42   2.0000      -0.400778       -10.9057
  43   2.0000      -0.391312       -10.6482
  44   2.0000      -0.387430       -10.5425
  45   2.0000      -0.350476        -9.5369
  46   2.0000      -0.343896        -9.3579
  47   2.0000      -0.334194        -9.0939
  48   2.0000      -0.312743        -8.5102
  49   0.0000       0.011208         0.3050
  50   0.0000       0.044669         1.2155
  51   0.0000       0.051077         1.3899
  52   0.0000       0.054583         1.4853
  53   0.0000       0.072853         1.9824

MULLIKEN ATOMIC CHARGES
-----------------------
   0 C :    0.900981
   1 N :   -0.350757
   2 C :    0.411538
   3 C :    0.337480
   4 S :    1.369351
   5 H :    0.249327
   6 H :    0.270910
   7 H :    0.059499
   8 O :   -0.766342
   9 O :   -0.785648
  10 H :    0.094453
  11 H :   -0.477431
  12 O :   -0.842984
  13 C :    0.397676
  14 H :   -0.107994
  15 H :   -0.090410
  16 C :    0.159851
  17 H :   -0.362107
  18 H :   -0.181364
  19 C :    0.631044
  20 H :    0.053276
  21 H :   -0.377983
  22 H :   -0.061040
  23 H :   -0.337751
  24 H :   -0.106204
  25 H :   -0.087372
Sum of atomic charges:    0.0000000

LOEWDIN ATOMIC CHARGES
----------------------
   0 C :    0.093448
   1 N :    0.342717
   2 C :   -0.005942
   3 C :   -0.047404
   4 S :    0.972667
   5 H :   -0.011950
   6 H :    0.101411
   7 H :   -0.064217
   8 O :   -0.500448
   9 O :   -0.544106
  10 H :    0.034872
  11 H :    0.029535
  12 O :   -0.523319
  13 C :   -0.006642
  14 H :    0.030727
  15 H :    0.029336
  16 C :   -0.018875
  17 H :    0.031388
  18 H :   -0.016834
  19 C :   -0.021899
  20 H :    0.014362
  21 H :    0.012286
  22 H :   -0.015159
  23 H :    0.027530
  24 H :    0.026381
  25 H :    0.030135

  Mayer bond orders larger than 0.100000
B(  0-C ,  1-N ) :   0.7112 B(  0-C ,  2-C ) :   1.1714 B(  0-C , 10-H ) :   0.7001
B(  0-C , 11-H ) :   0.8878 B(  0-C , 14-H ) :   0.1484 B(  0-C , 15-H ) :   0.1498
B(  1-N ,  5-H ) :   0.7626 B(  1-N ,  6-H ) :   0.8649 B(  1-N ,  7-H ) :   1.1927
B(  1-N , 18-H ) :   0.1096 B(  2-C , 10-H ) :   0.1161 B(  2-C , 11-H ) :   0.1665
B(  2-C , 13-C ) :   1.2323 B(  2-C , 14-H ) :   0.7852 B(  2-C , 15-H ) :   0.6667
B(  2-C , 18-H ) :   0.1092 B(  3-C ,  4-S ) :   0.9073 B(  3-C ,  8-O ) :   0.1221
B(  3-C , 19-C ) :   1.1704 B(  3-C , 20-H ) :   0.8431 B(  3-C , 21-H ) :   0.8541
B(  3-C , 24-H ) :   0.1563 B(  3-C , 25-H ) :   0.1417 B(  4-S ,  8-O ) :   1.5014
B(  4-S ,  9-O ) :   1.1221 B(  4-S , 12-O ) :   1.0890 B(  5-H ,  9-O ) :   0.1977
B(  7-H , 12-O ) :   0.1920 B(  9-O , 12-O ) :   0.1535 B( 10-H , 11-H ) :  -0.1635
B( 10-H , 22-H ) :   0.1017 B( 13-C , 14-H ) :   0.1358 B( 13-C , 15-H ) :   0.2452
B( 13-C , 16-C ) :   1.1451 B( 13-C , 17-H ) :   0.7235 B( 13-C , 18-H ) :   0.8083
B( 13-C , 23-H ) :   0.1668 B( 16-C , 17-H ) :   0.1778 B( 16-C , 18-H ) :   0.1830
B( 16-C , 19-C ) :   1.2633 B( 16-C , 22-H ) :   0.8532 B( 16-C , 23-H ) :   0.7846
B( 16-C , 24-H ) :   0.1440 B( 16-C , 25-H ) :   0.2908 B( 19-C , 21-H ) :   0.1994
B( 19-C , 24-H ) :   0.7136 B( 19-C , 25-H ) :   0.6097 B( 24-H , 25-H ) :  -0.1018

FINAL SINGLE POINT ENERGY      -915.542886582886

DIPOLE MOMENT
-------------
                                X             Y             Z
Electronic contribution:    -13.43798      -2.94415      -3.66364
Nuclear contribution   :     16.18863       5.15617       4.97370
                        -----------------------------------------
Total Dipole Moment    :      2.75065       2.21202       1.31006
                        -----------------------------------------
Magnitude (a.u.)       :      3.76502
Magnitude (Debye)      :      9.56992

Rotational constants in cm-1:     0.048546     0.025588     0.020102
Rotational constants in MHz :  1455.374030   767.095631   602.645620

                             ****ORCA TERMINATED NORMALLY****
TOTAL RUN TIME: 0 days 0 hours 2 minutes 38 seconds 341 msec
