                         Program Version 5.0.0 -  RELEASE  -
|  1> !CAM-B3LYP RIJCOSX def2-SVPD def2/J TightSCF
|  2> *xyz 0 1
|  3> C         -5.57236       -5.80780       -0.81644
|  4> S         -6.90318       -4.61903       -0.52846
|  5> F         -8.11485       -5.25093       -0.95701
|  6> O         -6.53271       -3.42684       -1.31485
|  7> O         -6.86563       -4.29496        0.91412
|  8> C         -4.45780       -5.94187        0.22919
|  9> H         -5.17735       -5.54257       -1.79771
| 10> H         -6.07420       -6.76889       -0.92127
| 11> H         -3.75515       -6.68239       -0.09144
| 12> H         -4.88182       -6.23486        1.16689
| 13> H         -3.95908       -5.00189        0.34143
| 14> *
| 15> %MaxCore 64000
| 16>
| 17> %pal nprocs 4
| 18> end
| 19>
| 20> %scf
| 21>   MaxIter 150
| 22> end
| 23>
| 24>                          ****END OF INPUT****

CARTESIAN COORDINATES (ANGSTROEM)
---------------------------------
  C     -5.572360   -5.807800   -0.816440
  S     -6.903180   -4.619030   -0.528460
  F     -8.114850   -5.250930   -0.957010
  O     -6.532710   -3.426840   -1.314850
  O     -6.865630   -4.294960    0.914120
  C     -4.457800   -5.941870    0.229190
  H     -5.177350   -5.542570   -1.797710
  H     -6.074200   -6.768890   -0.921270
  H     -3.755150   -6.682390   -0.091440
  H     -4.881820   -6.234860    1.166890
  H     -3.959080   -5.001890    0.341430

 Total Charge           Charge          ....    0
 Multiplicity           Mult            ....    1
 Number of Electrons    NEL             ....   58
 Basis Dimension        Dim             ....  176

ORBITAL ENERGIES
----------------

  NO   OCC          E(Eh)            E(eV)
   0   2.0000     -89.223682     -2427.8998
   1   2.0000     -24.902132      -677.6215
   2   2.0000     -19.220822      -523.0251
   3   2.0000     -19.220643      -523.0203
   4   2.0000     -10.328984      -281.0659
   5   2.0000     -10.284173      -279.8466
   6   2.0000      -8.277688      -225.2473
   7   2.0000      -6.251861      -170.1218
   8   2.0000      -6.245118      -169.9383
   9   2.0000      -6.243930      -169.9060
  10   2.0000      -1.474018       -40.1101
  11   2.0000      -1.183491       -32.2044
  12   2.0000      -1.078210       -29.3396
  13   2.0000      -0.906146       -24.6575
  14   2.0000      -0.823784       -22.4163
  15   2.0000      -0.762177       -20.7399
  16   2.0000      -0.676536       -18.4095
  17   2.0000      -0.673695       -18.3322
  18   2.0000      -0.633507       -17.2386
  19   2.0000      -0.570148       -15.5145
  20   2.0000      -0.556836       -15.1523
  21   2.0000      -0.518719       -14.1151
  22   2.0000      -0.502964       -13.6863
  23   2.0000      -0.478430       -13.0188
  24   2.0000      -0.462142       -12.5755
  25   2.0000      -0.452881       -12.3235
  26   2.0000      -0.395119       -10.7517
  27   2.0000      -0.392853       -10.6901
  28   2.0000      -0.370766       -10.0891
  29   0.0000       0.023624         0.6428
  30   0.0000       0.045133         1.2281
  31   0.0000       0.062099         1.6898
  32   0.0000       0.064009         1.7418
  33   0.0000       0.081001         2.2042

MULLIKEN ATOMIC CHARGES
-----------------------
   0 C :   -0.241114
   1 S :    1.455135
   2 F :   -0.382595
   3 O :   -0.675589
   4 O :   -0.689133
   5 C :    0.956886
   6 H :   -0.052900
   7 H :   -0.032937
   8 H :   -0.145843
   9 H :   -0.084895
  10 H :   -0.107015
Sum of atomic charges:   -0.0000000

LOEWDIN ATOMIC CHARGES
----------------------
   0 C :   -0.085074
   1 S :    1.134747
   2 F :   -0.253687
   3 O :   -0.485734
   4 O :   -0.483016
   5 C :    0.148315
   6 H :    0.021333
   7 H :    0.011003
   8 H :   -0.004008
   9 H :   -0.005380
  10 H :    0.001500

  Mayer bond orders larger than 0.100000
B(  0-C ,  1-S ) :   0.9387 B(  0-C ,  5-C ) :   1.3247 B(  0-C ,  6-H ) :   0.9545
B(  0-C ,  7-H ) :   0.9217 B(  0-C ,  8-H ) :   0.2288 B(  0-C ,  9-H ) :   0.2180
B(  0-C , 10-H ) :   0.1990 B(  1-S ,  2-F ) :   0.7151 B(  1-S ,  3-O ) :   1.5019
B(  1-S ,  4-O ) :   1.4887 B(  5-C ,  7-H ) :   0.1029 B(  5-C ,  8-H ) :   0.7121
B(  5-C ,  9-H ) :   0.7699 B(  5-C , 10-H ) :   0.7838

FINAL SINGLE POINT ENERGY      -727.147120382691

DIPOLE MOMENT
-------------
                                X             Y             Z
Electronic contribution:     -9.34127       3.50132      -1.87592
Nuclear contribution   :      9.80704      -5.24335       1.35017
                        -----------------------------------------
Total Dipole Moment    :      0.46577      -1.74203      -0.52574
                        -----------------------------------------
Magnitude (a.u.)       :      1.87830
Magnitude (Debye)      :      4.77427

Rotational constants in cm-1:     0.156316     0.078308     0.076228
Rotational constants in MHz :  4686.224999  2347.601204  2285.245115

                             ****ORCA TERMINATED NORMALLY****
TOTAL RUN TIME: 0 days 0 hours 0 minutes 32 seconds 693 msec
