                         Program Version 5.0.0 -  RELEASE  -
|  1> !CAM-B3LYP RIJCOSX def2-SVPD def2/J TightSCF
|  2> *xyz 0 1
|  3> C         -4.38262       -1.67089        1.21620
|  4> C         -5.76354       -1.91517        0.70501
|  5> C         -3.28173       -2.19127        0.29436
|  6> H         -5.84081       -2.11520       -0.30065
|  7> H         -6.40882       -1.14866        0.93612
|  8> H         -6.17478       -2.79061        1.05143
|  9> H         -4.32862       -2.13922        2.19810
| 10> H         -4.26158       -0.59740        1.35725
| 11> H         -3.36057       -1.71407       -0.66008
| 12> H         -3.38775       -3.24919        0.17403
| 13> H         -2.32559       -1.97514        0.72329
| 14> *
| 15> %MaxCore 64000
| 16>
| 17> %pal nprocs 4
| 18> end
| 19>
| 20> %scf
| 21>   MaxIter 150
| 22> end
| 23>
| 24>                          ****END OF INPUT****

CARTESIAN COORDINATES (ANGSTROEM)
---------------------------------
  C     -4.382620   -1.670890    1.216200
  C     -5.763540   -1.915170    0.705010
  C     -3.281730   -2.191270    0.294360
  H     -5.840810   -2.115200   -0.300650
  H     -6.408820   -1.148660    0.936120
  H     -6.174780   -2.790610    1.051430
  H     -4.328620   -2.139220    2.198100
  H     -4.261580   -0.597400    1.357250
  H     -3.360570   -1.714070   -0.660080
  H     -3.387750   -3.249190    0.174030
  H     -2.325590   -1.975140    0.723290

 Total Charge           Charge          ....    0
 Multiplicity           Mult            ....    1
 Number of Electrons    NEL             ....   26
 Basis Dimension        Dim             ....  124

ORBITAL ENERGIES
----------------

  NO   OCC          E(Eh)            E(eV)
   0   2.0000     -10.246283      -278.8155
   1   2.0000     -10.238055      -278.5916
   2   2.0000     -10.220394      -278.1111
   3   2.0000      -0.865590       -23.5539
   4   2.0000      -0.766741       -20.8641
   5   2.0000      -0.662379       -18.0243
   6   2.0000      -0.534366       -14.5408
   7   2.0000      -0.512503       -13.9459
   8   2.0000      -0.478918       -13.0320
   9   2.0000      -0.453254       -12.3337
  10   2.0000      -0.406777       -11.0690
  11   2.0000      -0.399683       -10.8759
  12   2.0000      -0.386338       -10.5128
  13   0.0000       0.056023         1.5245
  14   0.0000       0.083378         2.2688
  15   0.0000       0.090278         2.4566
  16   0.0000       0.119308         3.2465
  17   0.0000       0.141078         3.8389

MULLIKEN ATOMIC CHARGES
-----------------------
   0 C :   -0.368688
   1 C :    1.112775
   2 C :    0.828492
   3 H :   -0.374334
   4 H :   -0.236368
   5 H :   -0.256305
   6 H :   -0.198809
   7 H :   -0.136425
   8 H :   -0.089622
   9 H :   -0.131567
  10 H :   -0.149149
Sum of atomic charges:   -0.0000000

LOEWDIN ATOMIC CHARGES
----------------------
   0 C :   -0.104241
   1 C :    0.116576
   2 C :    0.116226
   3 H :   -0.038261
   4 H :   -0.032658
   5 H :   -0.035915
   6 H :    0.018036
   7 H :    0.017315
   8 H :   -0.017256
   9 H :   -0.017078
  10 H :   -0.022745

  Mayer bond orders larger than 0.100000
B(  0-C ,  1-C ) :   1.2790 B(  0-C ,  2-C ) :   1.2622 B(  0-C ,  3-H ) :   0.1876
B(  0-C ,  4-H ) :   0.2066 B(  0-C ,  5-H ) :   0.2463 B(  0-C ,  6-H ) :   0.8959
B(  0-C ,  7-H ) :   0.8943 B(  0-C ,  8-H ) :   0.1760 B(  0-C ,  9-H ) :   0.1915
B(  0-C , 10-H ) :   0.2289 B(  1-C ,  3-H ) :   0.5674 B(  1-C ,  4-H ) :   0.6754
B(  1-C ,  5-H ) :   0.5408 B(  1-C ,  6-H ) :   0.1267 B(  2-C ,  8-H ) :   0.7980
B(  2-C ,  9-H ) :   0.7935 B(  2-C , 10-H ) :   0.7573 B(  3-H ,  5-H ) :   0.3360

FINAL SINGLE POINT ENERGY      -118.960755933535

DIPOLE MOMENT
-------------
                                X             Y             Z
Electronic contribution:      0.18582       0.23766       0.33907
Nuclear contribution   :     -0.21528      -0.24783      -0.32864
                        -----------------------------------------
Total Dipole Moment    :     -0.02946      -0.01016       0.01042
                        -----------------------------------------
Magnitude (a.u.)       :      0.03286
Magnitude (Debye)      :      0.08352

Rotational constants in cm-1:     1.037566     0.286459     0.254172
Rotational constants in MHz : 31105.431429  8587.814531  7619.871198

                             ****ORCA TERMINATED NORMALLY****
TOTAL RUN TIME: 0 days 0 hours 0 minutes 15 seconds 632 msec
