                         Program Version 5.0.0 -  RELEASE  -
|  1> !CAM-B3LYP RIJCOSX def2-SVPD def2/J TightSCF
|  2> *xyz 0 1
|  3> C         -5.57236       -5.80780       -0.81644
|  4> S         -6.90318       -4.61903       -0.52846
|  5> O         -8.11485       -5.25093       -0.95701
|  6> F         -6.53271       -3.42684       -1.31485
|  7> O         -6.86563       -4.29496        0.91412
|  8> C         -4.45780       -5.94187        0.22919
|  9> H         -5.17735       -5.54257       -1.79771
| 10> H         -6.07420       -6.76889       -0.92127
| 11> H         -3.75515       -6.68239       -0.09144
| 12> H         -4.88182       -6.23486        1.16689
| 13> H         -3.95908       -5.00189        0.34143
| 14> *
| 15> %MaxCore 64000
| 16>
| 17> %pal nprocs 4
| 18> end
| 19>
| 20> %scf
| 21>   MaxIter 150
| 22> end
| 23>
| 24>                          ****END OF INPUT****

CARTESIAN COORDINATES (ANGSTROEM)
---------------------------------
  C     -5.572360   -5.807800   -0.816440
  S     -6.903180   -4.619030   -0.528460
  O     -8.114850   -5.250930   -0.957010
  F     -6.532710   -3.426840   -1.314850
  O     -6.865630   -4.294960    0.914120
  C     -4.457800   -5.941870    0.229190
  H     -5.177350   -5.542570   -1.797710
  H     -6.074200   -6.768890   -0.921270
  H     -3.755150   -6.682390   -0.091440
  H     -4.881820   -6.234860    1.166890
  H     -3.959080   -5.001890    0.341430

 Total Charge           Charge          ....    0
 Multiplicity           Mult            ....    1
 Number of Electrons    NEL             ....   58
 Basis Dimension        Dim             ....  176

ORBITAL ENERGIES
----------------

  NO   OCC          E(Eh)            E(eV)
   0   2.0000     -89.221758     -2427.8475
   1   2.0000     -24.880113      -677.0223
   2   2.0000     -19.235415      -523.4222
   3   2.0000     -19.220430      -523.0145
   4   2.0000     -10.328143      -281.0431
   5   2.0000     -10.283799      -279.8364
   6   2.0000      -8.275632      -225.1914
   7   2.0000      -6.249633      -170.0611
   8   2.0000      -6.243290      -169.8886
   9   2.0000      -6.242076      -169.8555
  10   2.0000      -1.436598       -39.0918
  11   2.0000      -1.200333       -32.6627
  12   2.0000      -1.094388       -29.7798
  13   2.0000      -0.905635       -24.6436
  14   2.0000      -0.809408       -22.0251
  15   2.0000      -0.754132       -20.5210
  16   2.0000      -0.660141       -17.9633
  17   2.0000      -0.648817       -17.6552
  18   2.0000      -0.629015       -17.1164
  19   2.0000      -0.568945       -15.4818
  20   2.0000      -0.557586       -15.1727
  21   2.0000      -0.530586       -14.4380
  22   2.0000      -0.506056       -13.7705
  23   2.0000      -0.475577       -12.9411
  24   2.0000      -0.472596       -12.8600
  25   2.0000      -0.455317       -12.3898
  26   2.0000      -0.408396       -11.1130
  27   2.0000      -0.396338       -10.7849
  28   2.0000      -0.383467       -10.4347
  29   0.0000       0.023974         0.6524
  30   0.0000       0.049339         1.3426
  31   0.0000       0.062239         1.6936
  32   0.0000       0.063659         1.7323
  33   0.0000       0.079409         2.1608

MULLIKEN ATOMIC CHARGES
-----------------------
   0 C :   -0.240640
   1 S :    1.450854
   2 O :   -0.630758
   3 F :   -0.416969
   4 O :   -0.698031
   5 C :    0.982044
   6 H :   -0.054547
   7 H :   -0.033490
   8 H :   -0.146706
   9 H :   -0.085705
  10 H :   -0.126052
Sum of atomic charges:   -0.0000000

LOEWDIN ATOMIC CHARGES
----------------------
   0 C :   -0.079815
   1 S :    1.131078
   2 O :   -0.461529
   3 F :   -0.274466
   4 O :   -0.482221
   5 C :    0.141235
   6 H :    0.016322
   7 H :    0.023407
   8 H :   -0.005401
   9 H :   -0.003969
  10 H :   -0.004643

  Mayer bond orders larger than 0.100000
B(  0-C ,  1-S ) :   0.9483 B(  0-C ,  5-C ) :   1.3142 B(  0-C ,  6-H ) :   0.9257
B(  0-C ,  7-H ) :   0.9578 B(  0-C ,  8-H ) :   0.2315 B(  0-C ,  9-H ) :   0.2180
B(  0-C , 10-H ) :   0.2038 B(  1-S ,  2-O ) :   1.5690 B(  1-S ,  3-F ) :   0.6512
B(  1-S ,  4-O ) :   1.4946 B(  5-C ,  8-H ) :   0.7095 B(  5-C ,  9-H ) :   0.7729
B(  5-C , 10-H ) :   0.7757

FINAL SINGLE POINT ENERGY      -727.166392521780

DIPOLE MOMENT
-------------
                                X             Y             Z
Electronic contribution:     -6.64602       6.62575      -2.50625
Nuclear contribution   :      8.15840      -7.14411       1.72305
                        -----------------------------------------
Total Dipole Moment    :      1.51238      -0.51835      -0.78319
                        -----------------------------------------
Magnitude (a.u.)       :      1.78027
Magnitude (Debye)      :      4.52509

Rotational constants in cm-1:     0.153926     0.078297     0.077402
Rotational constants in MHz :  4614.585804  2347.272644  2320.438903

                             ****ORCA TERMINATED NORMALLY****
TOTAL RUN TIME: 0 days 0 hours 0 minutes 32 seconds 452 msec
