                         Program Version 5.0.0 -  RELEASE  -
|  1> !CAM-B3LYP RIJCOSX def2-SVPD def2/J TightSCF
|  2> *xyz 0 1
|  3> C         -5.57236       -5.80780       -0.81644
|  4> S         -6.90318       -4.61903       -0.52846
|  5> O         -8.11485       -5.25093       -0.95701
|  6> O         -6.53271       -3.42684       -1.31485
|  7> F         -6.86563       -4.29496        0.91412
|  8> C         -4.45780       -5.94187        0.22919
|  9> H         -5.17735       -5.54257       -1.79771
| 10> H         -6.07420       -6.76889       -0.92127
| 11> H         -3.75515       -6.68239       -0.09144
| 12> H         -4.88182       -6.23486        1.16689
| 13> H         -3.95908       -5.00189        0.34143
| 14> *
| 15> %MaxCore 64000
| 16>
| 17> %pal nprocs 4
| 18> end
| 19>
| 20> %scf
| 21>   MaxIter 150
| 22> end
| 23>
| 24>                          ****END OF INPUT****

CARTESIAN COORDINATES (ANGSTROEM)
---------------------------------
  C     -5.572360   -5.807800   -0.816440
  S     -6.903180   -4.619030   -0.528460
  O     -8.114850   -5.250930   -0.957010
  O     -6.532710   -3.426840   -1.314850
  F     -6.865630   -4.294960    0.914120
  C     -4.457800   -5.941870    0.229190
  H     -5.177350   -5.542570   -1.797710
  H     -6.074200   -6.768890   -0.921270
  H     -3.755150   -6.682390   -0.091440
  H     -4.881820   -6.234860    1.166890
  H     -3.959080   -5.001890    0.341430

 Total Charge           Charge          ....    0
 Multiplicity           Mult            ....    1
 Number of Electrons    NEL             ....   58
 Basis Dimension        Dim             ....  176

ORBITAL ENERGIES
----------------

  NO   OCC          E(Eh)            E(eV)
   0   2.0000     -89.221275     -2427.8343
   1   2.0000     -24.879030      -676.9928
   2   2.0000     -19.235153      -523.4151
   3   2.0000     -19.219712      -522.9949
   4   2.0000     -10.327379      -281.0223
   5   2.0000     -10.291154      -280.0365
   6   2.0000      -8.275157      -225.1785
   7   2.0000      -6.249221      -170.0499
   8   2.0000      -6.242866      -169.8770
   9   2.0000      -6.241512      -169.8402
  10   2.0000      -1.433743       -39.0141
  11   2.0000      -1.200965       -32.6799
  12   2.0000      -1.095117       -29.7997
  13   2.0000      -0.908419       -24.7193
  14   2.0000      -0.806404       -21.9434
  15   2.0000      -0.758662       -20.6443
  16   2.0000      -0.666064       -18.1245
  17   2.0000      -0.647982       -17.6325
  18   2.0000      -0.620801       -16.8929
  19   2.0000      -0.573432       -15.6039
  20   2.0000      -0.551538       -15.0081
  21   2.0000      -0.526738       -14.3333
  22   2.0000      -0.519776       -14.1438
  23   2.0000      -0.485743       -13.2177
  24   2.0000      -0.469600       -12.7785
  25   2.0000      -0.459497       -12.5036
  26   2.0000      -0.408645       -11.1198
  27   2.0000      -0.395090       -10.7509
  28   2.0000      -0.382974       -10.4212
  29   0.0000       0.020150         0.5483
  30   0.0000       0.056227         1.5300
  31   0.0000       0.060472         1.6455
  32   0.0000       0.065093         1.7713
  33   0.0000       0.082629         2.2484

MULLIKEN ATOMIC CHARGES
-----------------------
   0 C :   -0.220432
   1 S :    1.436116
   2 O :   -0.626582
   3 O :   -0.684470
   4 F :   -0.429625
   5 C :    0.966202
   6 H :   -0.049708
   7 H :   -0.028676
   8 H :   -0.137597
   9 H :   -0.105521
  10 H :   -0.119707
Sum of atomic charges:   -0.0000000

LOEWDIN ATOMIC CHARGES
----------------------
   0 C :   -0.074115
   1 S :    1.129726
   2 O :   -0.461149
   3 O :   -0.487034
   4 F :   -0.272898
   5 C :    0.136085
   6 H :    0.029332
   7 H :    0.018249
   8 H :   -0.004479
   9 H :   -0.009771
  10 H :   -0.003948

  Mayer bond orders larger than 0.100000
B(  0-C ,  1-S ) :   0.9549 B(  0-C ,  5-C ) :   1.2869 B(  0-C ,  6-H ) :   0.9474
B(  0-C ,  7-H ) :   0.9564 B(  0-C ,  8-H ) :   0.2325 B(  0-C ,  9-H ) :   0.2075
B(  0-C , 10-H ) :   0.1924 B(  1-S ,  2-O ) :   1.5646 B(  1-S ,  3-O ) :   1.5005
B(  1-S ,  4-F ) :   0.6514 B(  5-C ,  8-H ) :   0.7127 B(  5-C ,  9-H ) :   0.7718
B(  5-C , 10-H ) :   0.7843

FINAL SINGLE POINT ENERGY      -727.166699683912

DIPOLE MOMENT
-------------
                                X             Y             Z
Electronic contribution:     -7.19542       5.10994       1.30714
Nuclear contribution   :      8.50531      -6.23950      -0.59960
                        -----------------------------------------
Total Dipole Moment    :      1.30989      -1.12956       0.70754
                        -----------------------------------------
Magnitude (a.u.)       :      1.86878
Magnitude (Debye)      :      4.75005

Rotational constants in cm-1:     0.152799     0.080212     0.076962
Rotational constants in MHz :  4580.804531  2404.707790  2307.252710

                             ****ORCA TERMINATED NORMALLY****
TOTAL RUN TIME: 0 days 0 hours 0 minutes 32 seconds 667 msec
