                         Program Version 5.0.0 -  RELEASE  -
|  1> !CAM-B3LYP RIJCOSX def2-SVPD def2/J TightSCF xyzfile
|  2>
|  3> *xyzfile 0 1 D2.xyz
|  4>
|  5> %MaxCore 64000
|  6>
|  7> %pal nprocs 4
|  8> end
|  9>
| 10> %scf
| 11>   MaxIter 150
| 12> end
| 13>
| 14>
| 15>                          ****END OF INPUT****

CARTESIAN COORDINATES (ANGSTROEM)
---------------------------------
  C     -4.382623   -1.670889    1.216201
  C     -5.763539   -1.915170    0.705012
  C     -3.281728   -2.191272    0.294361
  C     -5.572364   -5.807798   -0.816445
  S     -6.903179   -4.619033   -0.528458
  H     -5.840812   -2.115205   -0.300646
  H     -6.408823   -1.148656    0.936124
  H     -6.174781   -2.790606    1.051433
  O     -8.114853   -5.250932   -0.957007
  F     -6.532715   -3.426838   -1.314848
  H     -4.328618   -2.139223    2.198103
  H     -4.261583   -0.597399    1.357248
  O     -6.865632   -4.294957    0.914118
  C     -3.474641   -3.605898   -0.259608
  H     -2.354548   -2.127602    0.871433
  H     -3.166611   -1.499693   -0.545037
  C     -3.827078   -4.661097    0.786174
  H     -2.560559   -3.889391   -0.788050
  H     -4.255932   -3.570040   -1.019300
  C     -4.457800   -5.941875    0.229195
  H     -5.177347   -5.542575   -1.797714
  H     -6.074202   -6.768894   -0.921272
  H     -4.530506   -4.253640    1.511979
  H     -2.933400   -4.932302    1.356825
  H     -3.681064   -6.562236   -0.229885
  H     -4.843942   -6.512728    1.075805

 Total Charge           Charge          ....    0
 Multiplicity           Mult            ....    1
 Number of Electrons    NEL             ....   98
 Basis Dimension        Dim             ....  356

ORBITAL ENERGIES
----------------

  NO   OCC          E(Eh)            E(eV)
   0   2.0000     -89.227857     -2428.0134
   1   2.0000     -24.883956      -677.1269
   2   2.0000     -19.239243      -523.5264
   3   2.0000     -19.224061      -523.1133
   4   2.0000     -10.327057      -281.0135
   5   2.0000     -10.289154      -279.9821
   6   2.0000     -10.262455      -279.2556
   7   2.0000     -10.260846      -279.2118
   8   2.0000     -10.249419      -278.9009
   9   2.0000     -10.236251      -278.5426
  10   2.0000     -10.187407      -277.2134
  11   2.0000      -8.280477      -225.3232
  12   2.0000      -6.254516      -170.1940
  13   2.0000      -6.248304      -170.0250
  14   2.0000      -6.246905      -169.9869
  15   2.0000      -1.443796       -39.2877
  16   2.0000      -1.205558       -32.8049
  17   2.0000      -1.103588       -30.0302
  18   2.0000      -0.920793       -25.0561
  19   2.0000      -0.884446       -24.0670
  20   2.0000      -0.835770       -22.7425
  21   2.0000      -0.809857       -22.0373
  22   2.0000      -0.773591       -21.0505
  23   2.0000      -0.733740       -19.9661
  24   2.0000      -0.695768       -18.9328
  25   2.0000      -0.663693       -18.0600
  26   2.0000      -0.650375       -17.6976
  27   2.0000      -0.632297       -17.2057
  28   2.0000      -0.628333       -17.0978
  29   2.0000      -0.574626       -15.6364
  30   2.0000      -0.565160       -15.3788
  31   2.0000      -0.546317       -14.8660
  32   2.0000      -0.539037       -14.6679
  33   2.0000      -0.528608       -14.3841
  34   2.0000      -0.510650       -13.8955
  35   2.0000      -0.495982       -13.4964
  36   2.0000      -0.476695       -12.9715
  37   2.0000      -0.467079       -12.7099
  38   2.0000      -0.460740       -12.5374
  39   2.0000      -0.456674       -12.4267
  40   2.0000      -0.428338       -11.6557
  41   2.0000      -0.422656       -11.5011
  42   2.0000      -0.421044       -11.4572
  43   2.0000      -0.405541       -11.0353
  44   2.0000      -0.394757       -10.7419
  45   2.0000      -0.388150       -10.5621
  46   2.0000      -0.376860       -10.2549
  47   2.0000      -0.375794       -10.2259
  48   2.0000      -0.341736        -9.2991
  49   0.0000       0.028992         0.7889
  50   0.0000       0.044948         1.2231
  51   0.0000       0.052514         1.4290
  52   0.0000       0.058501         1.5919
  53   0.0000       0.073143         1.9903

MULLIKEN ATOMIC CHARGES
-----------------------
   0 C :    0.113374
   1 C :    2.179609
   2 C :    0.586186
   3 C :    0.348185
   4 S :    1.494694
   5 H :   -0.508472
   6 H :   -0.476953
   7 H :   -1.000439
   8 O :   -0.676108
   9 F :   -0.448087
  10 H :    0.079591
  11 H :   -0.488217
  12 O :   -0.741743
  13 C :    0.274039
  14 H :   -0.126006
  15 H :   -0.016764
  16 C :    0.197174
  17 H :   -0.405101
  18 H :   -0.168113
  19 C :    0.643293
  20 H :    0.079035
  21 H :   -0.372630
  22 H :   -0.086261
  23 H :   -0.301901
  24 H :   -0.096756
  25 H :   -0.081629
Sum of atomic charges:    0.0000000

LOEWDIN ATOMIC CHARGES
----------------------
   0 C :   -0.041061
   1 C :    0.137410
   2 C :   -0.023945
   3 C :   -0.028322
   4 S :    1.172232
   5 H :   -0.078660
   6 H :   -0.016734
   7 H :   -0.139215
   8 O :   -0.443813
   9 F :   -0.276511
  10 H :    0.018566
  11 H :    0.016729
  12 O :   -0.448853
  13 C :   -0.013397
  14 H :    0.018618
  15 H :    0.025028
  16 C :   -0.009730
  17 H :    0.026077
  18 H :   -0.017398
  19 C :   -0.015752
  20 H :    0.018907
  21 H :    0.023852
  22 H :   -0.003421
  23 H :    0.032707
  24 H :    0.033137
  25 H :    0.033551

  Mayer bond orders larger than 0.100000
B(  0-C ,  1-C ) :   1.0122 B(  0-C ,  2-C ) :   1.1292 B(  0-C ,  5-H ) :   0.3678
B(  0-C ,  7-H ) :   0.4357 B(  0-C , 10-H ) :   0.6614 B(  0-C , 11-H ) :   0.9641
B(  0-C , 14-H ) :   0.1805 B(  0-C , 15-H ) :   0.1781 B(  0-C , 16-C ) :   0.1002
B(  1-C ,  2-C ) :   0.1803 B(  1-C ,  5-H ) :  -0.2887 B(  1-C ,  6-H ) :   0.3870
B(  1-C ,  7-H ) :  -0.7540 B(  1-C , 10-H ) :   0.2190 B(  1-C , 17-H ) :   0.1276
B(  2-C , 10-H ) :   0.1430 B(  2-C , 13-C ) :   1.2360 B(  2-C , 14-H ) :   0.7185
B(  2-C , 15-H ) :   0.6080 B(  2-C , 17-H ) :   0.1004 B(  2-C , 18-H ) :   0.1342
B(  3-C ,  4-S ) :   0.9197 B(  3-C , 16-C ) :   0.1093 B(  3-C , 19-C ) :   1.1825
B(  3-C , 20-H ) :   0.8361 B(  3-C , 21-H ) :   0.8401 B(  3-C , 24-H ) :   0.1496
B(  3-C , 25-H ) :   0.1394 B(  4-S ,  8-O ) :   1.6251 B(  4-S ,  9-F ) :   0.5927
B(  4-S , 12-O ) :   1.4211 B(  5-H ,  6-H ) :  -0.1224 B(  5-H ,  7-H ) :   1.0447
B(  5-H ,  9-F ) :   0.1786 B(  5-H , 11-H ) :   0.1648 B(  5-H , 17-H ) :  -0.1129
B(  5-H , 18-H ) :   0.1567 B(  6-H ,  7-H ) :   0.1685 B(  6-H , 11-H ) :  -0.1552
B(  6-H , 17-H ) :   0.1223 B(  6-H , 18-H ) :  -0.1481 B(  7-H ,  9-F ) :   0.1014
B(  7-H , 10-H ) :  -0.1362 B(  7-H , 11-H ) :   0.1080 B(  7-H , 12-O ) :   0.1467
B(  7-H , 17-H ) :  -0.1427 B(  9-F , 12-O ) :   0.1145 B( 10-H , 11-H ) :  -0.2524
B( 10-H , 22-H ) :   0.1545 B( 11-H , 14-H ) :   0.1162 B( 13-C , 14-H ) :   0.1883
B( 13-C , 15-H ) :   0.2830 B( 13-C , 16-C ) :   1.1643 B( 13-C , 17-H ) :   0.8011
B( 13-C , 18-H ) :   0.7546 B( 13-C , 22-H ) :   0.1204 B( 13-C , 23-H ) :   0.1769
B( 14-H , 15-H ) :  -0.1251 B( 16-C , 17-H ) :   0.2022 B( 16-C , 18-H ) :   0.1846
B( 16-C , 19-C ) :   1.2452 B( 16-C , 22-H ) :   0.8644 B( 16-C , 23-H ) :   0.7622
B( 16-C , 24-H ) :   0.1410 B( 16-C , 25-H ) :   0.2818 B( 19-C , 21-H ) :   0.2019
B( 19-C , 24-H ) :   0.7140 B( 19-C , 25-H ) :   0.6175 B( 24-H , 25-H ) :  -0.1041

FINAL SINGLE POINT ENERGY      -923.422865173994

DIPOLE MOMENT
-------------
                                X             Y             Z
Electronic contribution:    -15.90429      -5.40335      -7.23017
Nuclear contribution   :     17.25367       4.78608       6.55647
                        -----------------------------------------
Total Dipole Moment    :      1.34937      -0.61727      -0.67370
                        -----------------------------------------
Magnitude (a.u.)       :      1.62963
Magnitude (Debye)      :      4.14220

Rotational constants in cm-1:     0.048508     0.025517     0.020225
Rotational constants in MHz :  1454.219007   764.979652   606.316599

                             ****ORCA TERMINATED NORMALLY****
TOTAL RUN TIME: 0 days 0 hours 2 minutes 53 seconds 398 msec
