                         Program Version 5.0.0 -  RELEASE  -
|  1> !PBE0 D3BJ RIJCOSX def2-TZVP def2/J TightSCF
|  2>
|  3> *xyz -1 1
|  4> C          2.95263        1.86308       -3.57485
|  5> C          4.12921        0.89839       -3.41895
|  6> H          3.73369       -0.10060       -3.23763
|  7> H          4.71910        0.86256       -4.33901
|  8> C          5.01734        1.31521       -2.22130
|  9> O          4.73706        0.85411       -1.12283
| 10> O          5.92815        2.16811       -2.49136
| 11> H          2.35067        1.56005       -4.40594
| 12> H          3.32277        2.85258       -3.74453
| 13> H          2.36134        1.85149       -2.68315
| 14> *
| 15> %MaxCore 64000
| 16>
| 17> %pal nprocs 4
| 18> end
| 19>
| 20> %scf
| 21>   MaxIter 150
| 22> end
| 23>
| 24>
| 25>                          ****END OF INPUT****

CARTESIAN COORDINATES (ANGSTROEM)
---------------------------------
  C      2.952630    1.863080   -3.574850
  C      4.129210    0.898390   -3.418950
  H      3.733690   -0.100600   -3.237630
  H      4.719100    0.862560   -4.339010
  C      5.017340    1.315210   -2.221300
  O      4.737060    0.854110   -1.122830
  O      5.928150    2.168110   -2.491360
  H      2.350670    1.560050   -4.405940
  H      3.322770    2.852580   -3.744530
  H      2.361340    1.851490   -2.683150

 Total Charge           Charge          ....   -1
 Multiplicity           Mult            ....    1
 Number of Electrons    NEL             ....   40
 Basis Dimension        Dim             ....  185

ORBITAL ENERGIES
----------------

  NO   OCC          E(Eh)            E(eV)
   0   2.0000     -18.933497      -515.2067
   1   2.0000     -18.922509      -514.9076
   2   2.0000     -10.090854      -274.5861
   3   2.0000     -10.053032      -273.5569
   4   2.0000     -10.038135      -273.1515
   5   2.0000      -0.844283       -22.9741
   6   2.0000      -0.746195       -20.3050
   7   2.0000      -0.623179       -16.9576
   8   2.0000      -0.484005       -13.1704
   9   2.0000      -0.330822        -9.0021
  10   2.0000      -0.299698        -8.1552
  11   2.0000      -0.269268        -7.3271
  12   2.0000      -0.237490        -6.4624
  13   2.0000      -0.218328        -5.9410
  14   2.0000      -0.217634        -5.9221
  15   2.0000      -0.183392        -4.9903
  16   2.0000      -0.172282        -4.6880
  17   2.0000      -0.051900        -1.4123
  18   2.0000      -0.042684        -1.1615
  19   2.0000      -0.031704        -0.8627
  20   0.0000       0.194585         5.2949
  21   0.0000       0.235787         6.4161
  22   0.0000       0.253551         6.8995
  23   0.0000       0.259889         7.0720
  24   0.0000       0.279092         7.5945

MULLIKEN ATOMIC CHARGES
-----------------------
   0 C :   -0.361971
   1 C :   -0.140041
   2 H :    0.033916
   3 H :    0.041111
   4 C :    0.229411
   5 O :   -0.497357
   6 O :   -0.571778
   7 H :    0.066167
   8 H :    0.100660
   9 H :    0.099882
Sum of atomic charges:   -1.0000000

LOEWDIN ATOMIC CHARGES
----------------------
   0 C :   -0.328922
   1 C :   -0.295773
   2 H :    0.115078
   3 H :    0.116133
   4 C :   -0.710988
   5 O :   -0.063122
   6 O :   -0.150683
   7 H :    0.095095
   8 H :    0.111799
   9 H :    0.111383

  Mayer bond orders larger than 0.100000
B(  0-C ,  1-C ) :   0.9944 B(  0-C ,  7-H ) :   0.9697 B(  0-C ,  8-H ) :   0.9759
B(  0-C ,  9-H ) :   0.9786 B(  1-C ,  2-H ) :   0.9439 B(  1-C ,  3-H ) :   0.9482
B(  1-C ,  4-C ) :   0.9280 B(  4-C ,  5-O ) :   1.8996 B(  4-C ,  6-O ) :   1.8245

Dispersion correction           -0.005476915
FINAL SINGLE POINT ENERGY      -267.641100407992

DIPOLE MOMENT
-------------
                                X             Y             Z
Electronic contribution:      4.47758      -0.17224       3.96035
Nuclear contribution   :     -5.85873      -0.10793      -5.24103
                        -----------------------------------------
Total Dipole Moment    :     -1.38115      -0.28017      -1.28068
                        -----------------------------------------
Magnitude (a.u.)       :      1.90426
Magnitude (Debye)      :      4.84025

Rotational constants in cm-1:     0.292505     0.135951     0.110253
Rotational constants in MHz :  8769.065873  4075.717001  3305.311891

                             ****ORCA TERMINATED NORMALLY****
TOTAL RUN TIME: 0 days 0 hours 0 minutes 19 seconds 787 msec
