                         Program Version 5.0.0 -  RELEASE  -
|  1> !PBE0 D3BJ RIJCOSX def2-TZVP def2/J TightSCF
|  2>
|  3> *xyz 1 1
|  4> C          3.34350        3.35457       -3.59200
|  5> C          2.95263        1.86308       -3.57485
|  6> C          4.25587        3.70385       -4.72605
|  7> N          3.73403        4.29378       -5.80077
|  8> N          5.51504        3.40725       -4.63718
|  9> H          6.14919        3.60120       -5.39905
| 10> H          5.81358        2.89950       -3.80879
| 11> H          2.74138        4.51311       -5.82470
| 12> H          4.28755        4.52126       -6.61434
| 13> H          3.86125        3.59725       -2.66298
| 14> H          2.44649        3.97346       -3.65656
| 15> H          2.44395        1.61721       -4.48352
| 16> H          2.30781        1.67290       -2.74242
| 17> H          3.83491        1.26414       -3.48670
| 18> *
| 19> %MaxCore 64000
| 20>
| 21> %pal nprocs 4
| 22> end
| 23>
| 24> %scf
| 25>   MaxIter 150
| 26> end
| 27>
| 28>
| 29>                          ****END OF INPUT****

CARTESIAN COORDINATES (ANGSTROEM)
---------------------------------
  C      3.343500    3.354570   -3.592000
  C      2.952630    1.863080   -3.574850
  C      4.255870    3.703850   -4.726050
  N      3.734030    4.293780   -5.800770
  N      5.515040    3.407250   -4.637180
  H      6.149190    3.601200   -5.399050
  H      5.813580    2.899500   -3.808790
  H      2.741380    4.513110   -5.824700
  H      4.287550    4.521260   -6.614340
  H      3.861250    3.597250   -2.662980
  H      2.446490    3.973460   -3.656560
  H      2.443950    1.617210   -4.483520
  H      2.307810    1.672900   -2.742420
  H      3.834910    1.264140   -3.486700

 Total Charge           Charge          ....    1
 Multiplicity           Mult            ....    1
 Number of Electrons    NEL             ....   40
 Basis Dimension        Dim             ....  209

ORBITAL ENERGIES
----------------

  NO   OCC          E(Eh)            E(eV)
   0   2.0000     -14.631238      -398.1362
   1   2.0000     -14.626854      -398.0169
   2   2.0000     -10.542801      -286.8842
   3   2.0000     -10.420373      -283.5528
   4   2.0000     -10.375269      -282.3254
   5   2.0000      -1.232265       -33.5316
   6   2.0000      -1.135928       -30.9102
   7   2.0000      -0.991798       -26.9882
   8   2.0000      -0.881340       -23.9825
   9   2.0000      -0.834070       -22.6962
  10   2.0000      -0.794330       -21.6148
  11   2.0000      -0.767678       -20.8896
  12   2.0000      -0.717190       -19.5157
  13   2.0000      -0.662765       -18.0347
  14   2.0000      -0.638063       -17.3626
  15   2.0000      -0.626780       -17.0555
  16   2.0000      -0.557582       -15.1726
  17   2.0000      -0.548690       -14.9306
  18   2.0000      -0.540717       -14.7137
  19   2.0000      -0.505329       -13.7507
  20   0.0000      -0.201487        -5.4828
  21   0.0000      -0.151320        -4.1176
  22   0.0000      -0.105095        -2.8598
  23   0.0000      -0.102439        -2.7875
  24   0.0000      -0.075244        -2.0475

MULLIKEN ATOMIC CHARGES
-----------------------
   0 C :   -0.265778
   1 C :   -0.344647
   2 C :    0.315777
   3 N :   -0.356663
   4 N :   -0.318883
   5 H :    0.286657
   6 H :    0.305342
   7 H :    0.303501
   8 H :    0.284993
   9 H :    0.174130
  10 H :    0.153207
  11 H :    0.146914
  12 H :    0.179245
  13 H :    0.136206
Sum of atomic charges:    1.0000000

LOEWDIN ATOMIC CHARGES
----------------------
   0 C :   -0.223315
   1 C :   -0.261824
   2 C :   -0.297729
   3 N :    0.102901
   4 N :    0.130037
   5 H :    0.202861
   6 H :    0.217214
   7 H :    0.209886
   8 H :    0.195543
   9 H :    0.167111
  10 H :    0.161639
  11 H :    0.130086
  12 H :    0.140187
  13 H :    0.125402

  Mayer bond orders larger than 0.100000
B(  0-C ,  1-C ) :   0.9874 B(  0-C ,  2-C ) :   0.9972 B(  0-C ,  9-H ) :   0.9419
B(  0-C , 10-H ) :   0.9523 B(  1-C , 11-H ) :   0.9585 B(  1-C , 12-H ) :   0.9580
B(  1-C , 13-H ) :   0.9647 B(  2-C ,  3-N ) :   1.4610 B(  2-C ,  4-N ) :   1.5001
B(  3-N ,  7-H ) :   0.8797 B(  3-N ,  8-H ) :   0.8852 B(  4-N ,  5-H ) :   0.8821
B(  4-N ,  6-H ) :   0.8767

Dispersion correction           -0.008500282
FINAL SINGLE POINT ENERGY      -228.853620967546

DIPOLE MOMENT
-------------
                                X             Y             Z
Electronic contribution:      2.37759       2.57572      -2.28743
Nuclear contribution   :     -1.74195      -2.09431       1.58516
                        -----------------------------------------
Total Dipole Moment    :      0.63564       0.48142      -0.70227
                        -----------------------------------------
Magnitude (a.u.)       :      1.06254
Magnitude (Debye)      :      2.70075

Rotational constants in cm-1:     0.258965     0.126500     0.098780
Rotational constants in MHz :  7763.584551  3792.383135  2961.336502

                             ****ORCA TERMINATED NORMALLY****
TOTAL RUN TIME: 0 days 0 hours 0 minutes 27 seconds 669 msec
