                         Program Version 5.0.0 -  RELEASE  -
|  1> !PBE0 D3BJ RIJCOSX def2-TZVP def2/J TightSCF
|  2>
|  3> *xyz 0 1
|  4> C          2.95263        1.86308       -3.57485
|  5> C          4.12921        0.89839       -3.41895
|  6> H          3.73369       -0.10060       -3.23763
|  7> H          4.71910        0.86256       -4.33901
|  8> C          5.01734        1.31521       -2.22130
|  9> F          4.73706        0.85411       -1.12283
| 10> O          5.92815        2.16811       -2.49136
| 11> H          2.35067        1.56005       -4.40594
| 12> H          3.32277        2.85258       -3.74453
| 13> H          2.36134        1.85149       -2.68315
| 14> *
| 15> %MaxCore 64000
| 16>
| 17> %pal nprocs 4
| 18> end
| 19>
| 20> %scf
| 21>   MaxIter 150
| 22> end
| 23>
| 24>
| 25>                          ****END OF INPUT****

CARTESIAN COORDINATES (ANGSTROEM)
---------------------------------
  C      2.952630    1.863080   -3.574850
  C      4.129210    0.898390   -3.418950
  H      3.733690   -0.100600   -3.237630
  H      4.719100    0.862560   -4.339010
  C      5.017340    1.315210   -2.221300
  F      4.737060    0.854110   -1.122830
  O      5.928150    2.168110   -2.491360
  H      2.350670    1.560050   -4.405940
  H      3.322770    2.852580   -3.744530
  H      2.361340    1.851490   -2.683150

 Total Charge           Charge          ....    0
 Multiplicity           Mult            ....    1
 Number of Electrons    NEL             ....   40
 Basis Dimension        Dim             ....  185

ORBITAL ENERGIES
----------------

  NO   OCC          E(Eh)            E(eV)
   0   2.0000     -24.853884      -676.3086
   1   2.0000     -19.205721      -522.6142
   2   2.0000     -10.399700      -282.9902
   3   2.0000     -10.251302      -278.9521
   4   2.0000     -10.226795      -278.2852
   5   2.0000      -1.376715       -37.4623
   6   2.0000      -1.047055       -28.4918
   7   2.0000      -0.824077       -22.4243
   8   2.0000      -0.714754       -19.4495
   9   2.0000      -0.667461       -18.1625
  10   2.0000      -0.579999       -15.7826
  11   2.0000      -0.566527       -15.4160
  12   2.0000      -0.523293       -14.2395
  13   2.0000      -0.478810       -13.0291
  14   2.0000      -0.449297       -12.2260
  15   2.0000      -0.412917       -11.2361
  16   2.0000      -0.390444       -10.6245
  17   2.0000      -0.384051       -10.4506
  18   2.0000      -0.355186        -9.6651
  19   2.0000      -0.297121        -8.0851
  20   0.0000      -0.022340        -0.6079
  21   0.0000       0.043778         1.1913
  22   0.0000       0.083214         2.2644
  23   0.0000       0.098611         2.6833
  24   0.0000       0.112382         3.0581

MULLIKEN ATOMIC CHARGES
-----------------------
   0 C :   -0.381126
   1 C :   -0.203195
   2 H :    0.109711
   3 H :    0.135082
   4 C :    0.369600
   5 F :   -0.070513
   6 O :   -0.358057
   7 H :    0.131892
   8 H :    0.142004
   9 H :    0.124602
Sum of atomic charges:   -0.0000000

LOEWDIN ATOMIC CHARGES
----------------------
   0 C :   -0.294295
   1 C :   -0.261697
   2 H :    0.138692
   3 H :    0.151077
   4 C :   -0.511994
   5 F :    0.376973
   6 O :    0.032612
   7 H :    0.122171
   8 H :    0.125705
   9 H :    0.120755

  Mayer bond orders larger than 0.100000
B(  0-C ,  1-C ) :   0.9906 B(  0-C ,  7-H ) :   0.9658 B(  0-C ,  8-H ) :   0.9690
B(  0-C ,  9-H ) :   0.9705 B(  1-C ,  2-H ) :   0.9459 B(  1-C ,  3-H ) :   0.9517
B(  1-C ,  4-C ) :   0.9942 B(  4-C ,  5-F ) :   1.1919 B(  4-C ,  6-O ) :   2.0363

Dispersion correction           -0.005174551
FINAL SINGLE POINT ENERGY      -292.189993270789

DIPOLE MOMENT
-------------
                                X             Y             Z
Electronic contribution:      5.06485      -1.17151       6.53344
Nuclear contribution   :     -6.06116       0.51860      -6.80802
                        -----------------------------------------
Total Dipole Moment    :     -0.99631      -0.65291      -0.27458
                        -----------------------------------------
Magnitude (a.u.)       :      1.22242
Magnitude (Debye)      :      3.10715

Rotational constants in cm-1:     0.276196     0.132056     0.105465
Rotational constants in MHz :  8280.156449  3958.940601  3161.775929

                             ****ORCA TERMINATED NORMALLY****
TOTAL RUN TIME: 0 days 0 hours 0 minutes 20 seconds 791 msec
