                         Program Version 5.0.0 -  RELEASE  -
|  1> !PBE0 D3BJ RIJCOSX def2-TZVP def2/J TightSCF
|  2>
|  3> *xyz 0 1
|  4> C          3.34350        3.35457       -3.59200
|  5> C          2.95263        1.86308       -3.57485
|  6> C          4.25587        3.70385       -4.72605
|  7> C          3.73403        4.29378       -5.80077
|  8> N          5.51504        3.40725       -4.63718
|  9> H          6.14919        3.60120       -5.39905
| 10> H          5.81358        2.89950       -3.80879
| 11> H          2.74138        4.51311       -5.82470
| 12> H          4.28755        4.52126       -6.61434
| 13> H          3.86125        3.59725       -2.66298
| 14> H          2.44649        3.97346       -3.65656
| 15> H          2.44395        1.61721       -4.48352
| 16> H          2.30781        1.67290       -2.74242
| 17> H          3.83491        1.26414       -3.48670
| 18> *
| 19> %MaxCore 64000
| 20>
| 21> %pal nprocs 4
| 22> end
| 23>
| 24> %scf
| 25>   MaxIter 150
| 26> end
| 27>
| 28>
| 29>                          ****END OF INPUT****

CARTESIAN COORDINATES (ANGSTROEM)
---------------------------------
  C      3.343500    3.354570   -3.592000
  C      2.952630    1.863080   -3.574850
  C      4.255870    3.703850   -4.726050
  C      3.734030    4.293780   -5.800770
  N      5.515040    3.407250   -4.637180
  H      6.149190    3.601200   -5.399050
  H      5.813580    2.899500   -3.808790
  H      2.741380    4.513110   -5.824700
  H      4.287550    4.521260   -6.614340
  H      3.861250    3.597250   -2.662980
  H      2.446490    3.973460   -3.656560
  H      2.443950    1.617210   -4.483520
  H      2.307810    1.672900   -2.742420
  H      3.834910    1.264140   -3.486700

 Total Charge           Charge          ....    0
 Multiplicity           Mult            ....    1
 Number of Electrons    NEL             ....   40
 Basis Dimension        Dim             ....  209

ORBITAL ENERGIES
----------------

  NO   OCC          E(Eh)            E(eV)
   0   2.0000     -14.384927      -391.4338
   1   2.0000     -10.239191      -278.6226
   2   2.0000     -10.219920      -278.0982
   3   2.0000     -10.204671      -277.6832
   4   2.0000     -10.148660      -276.1591
   5   2.0000      -0.963547       -26.2194
   6   2.0000      -0.800560       -21.7843
   7   2.0000      -0.734565       -19.9885
   8   2.0000      -0.654657       -17.8141
   9   2.0000      -0.586385       -15.9563
  10   2.0000      -0.547314       -14.8932
  11   2.0000      -0.492945       -13.4137
  12   2.0000      -0.450525       -12.2594
  13   2.0000      -0.433608       -11.7991
  14   2.0000      -0.405215       -11.0265
  15   2.0000      -0.394075       -10.7233
  16   2.0000      -0.364991        -9.9319
  17   2.0000      -0.344771        -9.3817
  18   2.0000      -0.342556        -9.3214
  19   2.0000      -0.196115        -5.3366
  20   0.0000       0.032271         0.8781
  21   0.0000       0.055573         1.5122
  22   0.0000       0.077597         2.1115
  23   0.0000       0.088019         2.3951
  24   0.0000       0.097354         2.6491

MULLIKEN ATOMIC CHARGES
-----------------------
   0 C :   -0.233836
   1 C :   -0.334732
   2 C :    0.202442
   3 C :   -0.434136
   4 N :   -0.436784
   5 H :    0.235415
   6 H :    0.234475
   7 H :    0.107253
   8 H :    0.092068
   9 H :    0.098355
  10 H :    0.118644
  11 H :    0.126489
  12 H :    0.121490
  13 H :    0.102856
Sum of atomic charges:   -0.0000000

LOEWDIN ATOMIC CHARGES
----------------------
   0 C :   -0.241256
   1 C :   -0.296040
   2 C :   -0.383022
   3 C :   -0.284297
   4 N :    0.016452
   5 H :    0.176714
   6 H :    0.176621
   7 H :    0.105756
   8 H :    0.094472
   9 H :    0.136298
  10 H :    0.148851
  11 H :    0.120688
  12 H :    0.115780
  13 H :    0.112981

  Mayer bond orders larger than 0.100000
B(  0-C ,  1-C ) :   0.9879 B(  0-C ,  2-C ) :   0.9788 B(  0-C ,  9-H ) :   0.9622
B(  0-C , 10-H ) :   0.9715 B(  1-C , 11-H ) :   0.9734 B(  1-C , 12-H ) :   0.9702
B(  1-C , 13-H ) :   0.9718 B(  2-C ,  3-C ) :   1.7662 B(  2-C ,  4-N ) :   1.2150
B(  3-C ,  7-H ) :   0.9827 B(  3-C ,  8-H ) :   0.9798 B(  4-N ,  5-H ) :   0.9094
B(  4-N ,  6-H ) :   0.9145

Dispersion correction           -0.008846317
FINAL SINGLE POINT ENERGY      -212.389935537249

DIPOLE MOMENT
-------------
                                X             Y             Z
Electronic contribution:      2.36602       1.46595      -0.84708
Nuclear contribution   :     -1.79713      -1.86925       1.28073
                        -----------------------------------------
Total Dipole Moment    :      0.56889      -0.40329       0.43365
                        -----------------------------------------
Magnitude (a.u.)       :      0.82118
Magnitude (Debye)      :      2.08728

Rotational constants in cm-1:     0.269040     0.129645     0.102087
Rotational constants in MHz :  8065.609820  3886.645139  3060.489045

                             ****ORCA TERMINATED NORMALLY****
TOTAL RUN TIME: 0 days 0 hours 0 minutes 25 seconds 736 msec
