                         Program Version 5.0.0 -  RELEASE  -
|  1> !PBE0 D3BJ RIJCOSX def2-TZVP def2/J TightSCF
|  2>
|  3> *xyz 0 1
|  4> C          2.95263        1.86308       -3.57485
|  5> C          4.12921        0.89839       -3.41895
|  6> H          3.73369       -0.10060       -3.23763
|  7> H          4.71910        0.86256       -4.33901
|  8> C          5.01734        1.31521       -2.22130
|  9> O          4.73706        0.85411       -1.12283
| 10> F          5.92815        2.16811       -2.49136
| 11> H          2.35067        1.56005       -4.40594
| 12> H          3.32277        2.85258       -3.74453
| 13> H          2.36134        1.85149       -2.68315
| 14> *
| 15> %MaxCore 64000
| 16>
| 17> %pal nprocs 4
| 18> end
| 19>
| 20> %scf
| 21>   MaxIter 150
| 22> end
| 23>
| 24>
| 25>                          ****END OF INPUT****

CARTESIAN COORDINATES (ANGSTROEM)
---------------------------------
  C      2.952630    1.863080   -3.574850
  C      4.129210    0.898390   -3.418950
  H      3.733690   -0.100600   -3.237630
  H      4.719100    0.862560   -4.339010
  C      5.017340    1.315210   -2.221300
  O      4.737060    0.854110   -1.122830
  F      5.928150    2.168110   -2.491360
  H      2.350670    1.560050   -4.405940
  H      3.322770    2.852580   -3.744530
  H      2.361340    1.851490   -2.683150

 Total Charge           Charge          ....    0
 Multiplicity           Mult            ....    1
 Number of Electrons    NEL             ....   40
 Basis Dimension        Dim             ....  185

ORBITAL ENERGIES
----------------

  NO   OCC          E(Eh)            E(eV)
   0   2.0000     -24.832813      -675.7352
   1   2.0000     -19.214999      -522.8667
   2   2.0000     -10.395200      -282.8678
   3   2.0000     -10.250954      -278.9426
   4   2.0000     -10.227103      -278.2936
   5   2.0000      -1.336028       -36.3552
   6   2.0000      -1.081392       -29.4262
   7   2.0000      -0.823827       -22.4175
   8   2.0000      -0.703068       -19.1315
   9   2.0000      -0.654699       -17.8153
  10   2.0000      -0.559275       -15.2187
  11   2.0000      -0.546013       -14.8578
  12   2.0000      -0.523364       -14.2415
  13   2.0000      -0.478150       -13.0111
  14   2.0000      -0.452743       -12.3198
  15   2.0000      -0.417061       -11.3488
  16   2.0000      -0.398446       -10.8423
  17   2.0000      -0.384084       -10.4515
  18   2.0000      -0.372037       -10.1236
  19   2.0000      -0.308232        -8.3874
  20   0.0000      -0.017047        -0.4639
  21   0.0000       0.044119         1.2005
  22   0.0000       0.083162         2.2629
  23   0.0000       0.099054         2.6954
  24   0.0000       0.113085         3.0772

MULLIKEN ATOMIC CHARGES
-----------------------
   0 C :   -0.383039
   1 C :   -0.206117
   2 H :    0.129754
   3 H :    0.116577
   4 C :    0.357948
   5 O :   -0.301053
   6 F :   -0.113349
   7 H :    0.132286
   8 H :    0.126983
   9 H :    0.140010
Sum of atomic charges:    0.0000000

LOEWDIN ATOMIC CHARGES
----------------------
   0 C :   -0.294648
   1 C :   -0.260380
   2 H :    0.150459
   3 H :    0.139995
   4 C :   -0.502213
   5 O :    0.107440
   6 F :    0.290619
   7 H :    0.122263
   8 H :    0.121171
   9 H :    0.125294

  Mayer bond orders larger than 0.100000
B(  0-C ,  1-C ) :   0.9909 B(  0-C ,  7-H ) :   0.9660 B(  0-C ,  8-H ) :   0.9710
B(  0-C ,  9-H ) :   0.9692 B(  1-C ,  2-H ) :   0.9539 B(  1-C ,  3-H ) :   0.9454
B(  1-C ,  4-C ) :   0.9958 B(  4-C ,  5-O ) :   2.1016 B(  4-C ,  6-F ) :   1.1386

Dispersion correction           -0.005174246
FINAL SINGLE POINT ENERGY      -292.206268981195

DIPOLE MOMENT
-------------
                                X             Y             Z
Electronic contribution:      7.04299       1.01249       4.24842
Nuclear contribution   :     -7.35982      -0.91407      -5.31589
                        -----------------------------------------
Total Dipole Moment    :     -0.31683       0.09842      -1.06748
                        -----------------------------------------
Magnitude (a.u.)       :      1.11784
Magnitude (Debye)      :      2.84133

Rotational constants in cm-1:     0.275433     0.132201     0.105422
Rotational constants in MHz :  8257.268192  3963.279062  3160.465566

                             ****ORCA TERMINATED NORMALLY****
TOTAL RUN TIME: 0 days 0 hours 0 minutes 19 seconds 468 msec
