                         Program Version 5.0.0 -  RELEASE  -
|  1> !PBE0 D3BJ RIJCOSX def2-TZVP def2/J TightSCF
|  2>
|  3> *xyz 0 1
|  4> C          3.34350        3.35457       -3.59200
|  5> C          2.95263        1.86308       -3.57485
|  6> C          4.25587        3.70385       -4.72605
|  7> N          3.73403        4.29378       -5.80077
|  8> C          5.51504        3.40725       -4.63718
|  9> H          6.14919        3.60120       -5.39905
| 10> H          5.81358        2.89950       -3.80879
| 11> H          2.74138        4.51311       -5.82470
| 12> H          4.28755        4.52126       -6.61434
| 13> H          3.86125        3.59725       -2.66298
| 14> H          2.44649        3.97346       -3.65656
| 15> H          2.44395        1.61721       -4.48352
| 16> H          2.30781        1.67290       -2.74242
| 17> H          3.83491        1.26414       -3.48670
| 18> *
| 19> %MaxCore 64000
| 20>
| 21> %pal nprocs 4
| 22> end
| 23>
| 24> %scf
| 25>   MaxIter 150
| 26> end
| 27>
| 28>
| 29>                          ****END OF INPUT****

CARTESIAN COORDINATES (ANGSTROEM)
---------------------------------
  C      3.343500    3.354570   -3.592000
  C      2.952630    1.863080   -3.574850
  C      4.255870    3.703850   -4.726050
  N      3.734030    4.293780   -5.800770
  C      5.515040    3.407250   -4.637180
  H      6.149190    3.601200   -5.399050
  H      5.813580    2.899500   -3.808790
  H      2.741380    4.513110   -5.824700
  H      4.287550    4.521260   -6.614340
  H      3.861250    3.597250   -2.662980
  H      2.446490    3.973460   -3.656560
  H      2.443950    1.617210   -4.483520
  H      2.307810    1.672900   -2.742420
  H      3.834910    1.264140   -3.486700

 Total Charge           Charge          ....    0
 Multiplicity           Mult            ....    1
 Number of Electrons    NEL             ....   40
 Basis Dimension        Dim             ....  209

ORBITAL ENERGIES
----------------

  NO   OCC          E(Eh)            E(eV)
   0   2.0000     -14.380865      -391.3232
   1   2.0000     -10.236604      -278.5521
   2   2.0000     -10.219447      -278.0853
   3   2.0000     -10.202466      -277.6232
   4   2.0000     -10.146724      -276.1064
   5   2.0000      -0.948397       -25.8072
   6   2.0000      -0.803108       -21.8537
   7   2.0000      -0.738571       -20.0975
   8   2.0000      -0.655674       -17.8418
   9   2.0000      -0.579793       -15.7770
  10   2.0000      -0.534809       -14.5529
  11   2.0000      -0.496642       -13.5143
  12   2.0000      -0.452124       -12.3029
  13   2.0000      -0.426473       -11.6049
  14   2.0000      -0.405283       -11.0283
  15   2.0000      -0.394918       -10.7463
  16   2.0000      -0.360484        -9.8093
  17   2.0000      -0.348318        -9.4782
  18   2.0000      -0.338902        -9.2220
  19   2.0000      -0.200520        -5.4564
  20   0.0000       0.035496         0.9659
  21   0.0000       0.055483         1.5098
  22   0.0000       0.078505         2.1362
  23   0.0000       0.085411         2.3242
  24   0.0000       0.101618         2.7652

MULLIKEN ATOMIC CHARGES
-----------------------
   0 C :   -0.221835
   1 C :   -0.339280
   2 C :    0.222797
   3 N :   -0.472613
   4 C :   -0.419468
   5 H :    0.090357
   6 H :    0.111525
   7 H :    0.231851
   8 H :    0.232180
   9 H :    0.123579
  10 H :    0.086598
  11 H :    0.112764
  12 H :    0.117676
  13 H :    0.123868
Sum of atomic charges:   -0.0000000

LOEWDIN ATOMIC CHARGES
----------------------
   0 C :   -0.239782
   1 C :   -0.293325
   2 C :   -0.372137
   3 N :   -0.009696
   4 C :   -0.270149
   5 H :    0.100255
   6 H :    0.113104
   7 H :    0.168654
   8 H :    0.168851
   9 H :    0.149686
  10 H :    0.133607
  11 H :    0.117108
  12 H :    0.114312
  13 H :    0.119512

  Mayer bond orders larger than 0.100000
B(  0-C ,  1-C ) :   0.9938 B(  0-C ,  2-C ) :   0.9553 B(  0-C ,  9-H ) :   0.9748
B(  0-C , 10-H ) :   0.9644 B(  1-C , 11-H ) :   0.9733 B(  1-C , 12-H ) :   0.9698
B(  1-C , 13-H ) :   0.9729 B(  2-C ,  3-N ) :   1.1682 B(  2-C ,  4-C ) :   1.8012
B(  3-N ,  7-H ) :   0.9170 B(  3-N ,  8-H ) :   0.9126 B(  4-C ,  5-H ) :   0.9784
B(  4-C ,  6-H ) :   0.9830

Dispersion correction           -0.008854061
FINAL SINGLE POINT ENERGY      -212.389972115584

DIPOLE MOMENT
-------------
                                X             Y             Z
Electronic contribution:      0.75569       2.28473      -1.88917
Nuclear contribution   :     -1.38463      -2.07457       1.55023
                        -----------------------------------------
Total Dipole Moment    :     -0.62894       0.21015      -0.33894
                        -----------------------------------------
Magnitude (a.u.)       :      0.74472
Magnitude (Debye)      :      1.89293

Rotational constants in cm-1:     0.272312     0.128195     0.101724
Rotational constants in MHz :  8163.717141  3843.180148  3049.598073

                             ****ORCA TERMINATED NORMALLY****
TOTAL RUN TIME: 0 days 0 hours 0 minutes 25 seconds 94 msec
