                         Program Version 5.0.0 -  RELEASE  -
|  1> !PBE0 D3BJ RIJCOSX def2-TZVP def2/J TightSCF xyzfile
|  2>
|  3> *xyzfile 0 1 D1.xyz
|  4>
|  5> %MaxCore 64000
|  6>
|  7> %pal nprocs 18
|  8> end
|  9>
| 10> %scf
| 11>   MaxIter 150
| 12> end
| 13>
| 14>
| 15>                          ****END OF INPUT****

CARTESIAN COORDINATES (ANGSTROEM)
---------------------------------
  C      3.343500    3.354571   -3.591998
  C      2.952633    1.863077   -3.574849
  C      4.129209    0.898394   -3.418950
  H      3.733687   -0.100605   -3.237633
  H      4.719095    0.862556   -4.339005
  C      5.017344    1.315212   -2.221305
  C      4.255868    3.703851   -4.726054
  C      3.734032    4.293783   -5.800770
  N      5.515039    3.407255   -4.637185
  H      6.149187    3.601203   -5.399053
  H      5.813584    2.899504   -3.808785
  H      2.741380    4.513109   -5.824701
  H      4.287548    4.521260   -6.614341
  H      2.278938    1.735250   -2.725496
  H      2.377466    1.625787   -4.475869
  F      4.737055    0.854112   -1.122825
  O      5.928146    2.168108   -2.491365
  H      3.861246    3.597252   -2.662979
  H      2.446493    3.973461   -3.656556

 Total Charge           Charge          ....    0
 Multiplicity           Mult            ....    1
 Number of Electrons    NEL             ....   70
 Basis Dimension        Dim             ....  339

ORBITAL ENERGIES
----------------

  NO   OCC          E(Eh)            E(eV)
   0   2.0000     -24.877208      -676.9432
   1   2.0000     -19.236544      -523.4530
   2   2.0000     -14.347606      -390.4182
   3   2.0000     -10.429241      -283.7941
   4   2.0000     -10.261184      -279.2210
   5   2.0000     -10.244584      -278.7693
   6   2.0000     -10.229545      -278.3601
   7   2.0000     -10.222688      -278.1735
   8   2.0000     -10.138826      -275.8915
   9   2.0000      -1.399146       -38.0727
  10   2.0000      -1.087530       -29.5932
  11   2.0000      -0.942161       -25.6375
  12   2.0000      -0.846955       -23.0468
  13   2.0000      -0.773548       -21.0493
  14   2.0000      -0.732817       -19.9410
  15   2.0000      -0.700408       -19.0591
  16   2.0000      -0.649924       -17.6853
  17   2.0000      -0.602703       -16.4004
  18   2.0000      -0.594449       -16.1758
  19   2.0000      -0.566056       -15.4032
  20   2.0000      -0.562397       -15.3036
  21   2.0000      -0.522367       -14.2143
  22   2.0000      -0.498568       -13.5667
  23   2.0000      -0.473701       -12.8901
  24   2.0000      -0.457707       -12.4548
  25   2.0000      -0.444836       -12.1046
  26   2.0000      -0.406771       -11.0688
  27   2.0000      -0.397222       -10.8090
  28   2.0000      -0.387777       -10.5519
  29   2.0000      -0.385005       -10.4765
  30   2.0000      -0.370099       -10.0709
  31   2.0000      -0.340107        -9.2548
  32   2.0000      -0.334622        -9.1055
  33   2.0000      -0.317867        -8.6496
  34   2.0000      -0.182287        -4.9603
  35   0.0000      -0.049859        -1.3567
  36   0.0000       0.036646         0.9972
  37   0.0000       0.058368         1.5883
  38   0.0000       0.073856         2.0097
  39   0.0000       0.077191         2.1005

MULLIKEN ATOMIC CHARGES
-----------------------
   0 C :   -0.256675
   1 C :   -0.199832
   2 C :   -0.257070
   3 H :    0.130147
   4 H :    0.159160
   5 C :    0.383553
   6 C :    0.180002
   7 C :   -0.451804
   8 N :   -0.454580
   9 H :    0.215058
  10 H :    0.271336
  11 H :    0.098370
  12 H :    0.090148
  13 H :    0.113770
  14 H :    0.123963
  15 F :   -0.055861
  16 O :   -0.350153
  17 H :    0.133525
  18 H :    0.126944
Sum of atomic charges:    0.0000000

LOEWDIN ATOMIC CHARGES
----------------------
   0 C :   -0.214596
   1 C :   -0.250589
   2 C :   -0.234472
   3 H :    0.145445
   4 H :    0.158552
   5 C :   -0.479689
   6 C :   -0.383819
   7 C :   -0.298294
   8 N :    0.019718
   9 H :    0.168044
  10 H :    0.132435
  11 H :    0.101987
  12 H :    0.093900
  13 H :    0.140642
  14 H :    0.148305
  15 F :    0.391539
  16 O :    0.063186
  17 H :    0.144551
  18 H :    0.153156

  Mayer bond orders larger than 0.100000
B(  0-C ,  1-C ) :   0.9793 B(  0-C ,  6-C ) :   0.9639 B(  0-C , 17-H ) :   0.9688
B(  0-C , 18-H ) :   0.9608 B(  1-C ,  2-C ) :   1.0041 B(  1-C , 13-H ) :   0.9567
B(  1-C , 14-H ) :   0.9449 B(  2-C ,  3-H ) :   0.9449 B(  2-C ,  4-H ) :   0.9380
B(  2-C ,  5-C ) :   1.0140 B(  5-C , 15-F ) :   1.2210 B(  5-C , 16-O ) :   1.8813
B(  6-C ,  7-C ) :   1.7480 B(  6-C ,  8-N ) :   1.2572 B(  7-C , 11-H ) :   0.9808
B(  7-C , 12-H ) :   0.9810 B(  8-N ,  9-H ) :   0.9162 B(  8-N , 10-H ) :   0.8248
B( 10-H , 16-O ) :   0.1393

Dispersion correction           -0.016203848
FINAL SINGLE POINT ENERGY      -464.104870546366

DIPOLE MOMENT
-------------
                                X             Y             Z
Electronic contribution:      5.56476      -5.95867      10.57199
Nuclear contribution   :     -5.86483       4.68058     -10.07545
                        -----------------------------------------
Total Dipole Moment    :     -0.30007      -1.27809       0.49654
                        -----------------------------------------
Magnitude (a.u.)       :      1.40360
Magnitude (Debye)      :      3.56768

Rotational constants in cm-1:     0.107256     0.035474     0.030113
Rotational constants in MHz :  3215.453922  1063.481574   902.777619

                             ****ORCA TERMINATED NORMALLY****
TOTAL RUN TIME: 0 days 0 hours 0 minutes 25 seconds 197 msec
