                         Program Version 5.0.0 -  RELEASE  -
|  1> !PBE0 D3BJ RIJCOSX def2-TZVP def2/J TightSCF xyzfile
|  2>
|  3> *xyzfile 0 1 D2.xyz
|  4>
|  5> %MaxCore 64000
|  6>
|  7> %pal nprocs 18
|  8> end
|  9>
| 10> %scf
| 11>   MaxIter 150
| 12> end
| 13>
| 14>
| 15>                          ****END OF INPUT****

CARTESIAN COORDINATES (ANGSTROEM)
---------------------------------
  C      3.343500    3.354571   -3.591998
  C      2.952633    1.863077   -3.574849
  C      4.129209    0.898394   -3.418950
  H      3.733687   -0.100605   -3.237633
  H      4.719095    0.862556   -4.339005
  C      5.017344    1.315212   -2.221305
  C      4.255868    3.703851   -4.726054
  N      3.734032    4.293783   -5.800770
  C      5.515039    3.407255   -4.637185
  H      6.149187    3.601203   -5.399053
  H      5.813584    2.899504   -3.808785
  H      2.741380    4.513109   -5.824701
  H      4.287548    4.521260   -6.614341
  H      2.278938    1.735250   -2.725496
  H      2.377466    1.625787   -4.475869
  F      4.737055    0.854112   -1.122825
  O      5.928146    2.168108   -2.491365
  H      3.861246    3.597252   -2.662979
  H      2.446493    3.973461   -3.656556

 Total Charge           Charge          ....    0
 Multiplicity           Mult            ....    1
 Number of Electrons    NEL             ....   70
 Basis Dimension        Dim             ....  339

ORBITAL ENERGIES
----------------

  NO   OCC          E(Eh)            E(eV)
   0   2.0000     -24.858074      -676.4226
   1   2.0000     -19.209691      -522.7223
   2   2.0000     -14.370908      -391.0523
   3   2.0000     -10.406388      -283.1722
   4   2.0000     -10.247896      -278.8594
   5   2.0000     -10.240334      -278.6537
   6   2.0000     -10.223952      -278.2079
   7   2.0000     -10.221806      -278.1495
   8   2.0000     -10.116185      -275.2754
   9   2.0000      -1.380710       -37.5710
  10   2.0000      -1.061593       -28.8874
  11   2.0000      -0.939367       -25.5615
  12   2.0000      -0.840052       -22.8590
  13   2.0000      -0.771198       -20.9854
  14   2.0000      -0.722061       -19.6483
  15   2.0000      -0.699084       -19.0230
  16   2.0000      -0.639043       -17.3892
  17   2.0000      -0.589993       -16.0545
  18   2.0000      -0.579248       -15.7621
  19   2.0000      -0.561469       -15.2783
  20   2.0000      -0.543907       -14.8005
  21   2.0000      -0.513579       -13.9752
  22   2.0000      -0.491875       -13.3846
  23   2.0000      -0.478053       -13.0085
  24   2.0000      -0.460750       -12.5377
  25   2.0000      -0.429501       -11.6873
  26   2.0000      -0.403065       -10.9680
  27   2.0000      -0.402096       -10.9416
  28   2.0000      -0.374149       -10.1811
  29   2.0000      -0.366091        -9.9619
  30   2.0000      -0.360956        -9.8221
  31   2.0000      -0.336529        -9.1574
  32   2.0000      -0.329638        -8.9699
  33   2.0000      -0.278951        -7.5906
  34   2.0000      -0.187268        -5.0958
  35   0.0000      -0.030292        -0.8243
  36   0.0000       0.034968         0.9515
  37   0.0000       0.056146         1.5278
  38   0.0000       0.064684         1.7601
  39   0.0000       0.079794         2.1713

MULLIKEN ATOMIC CHARGES
-----------------------
   0 C :   -0.253445
   1 C :   -0.197200
   2 C :   -0.250365
   3 H :    0.121566
   4 H :    0.163342
   5 C :    0.350018
   6 C :    0.186463
   7 N :   -0.477471
   8 C :   -0.481987
   9 H :    0.075566
  10 H :    0.209380
  11 H :    0.222615
  12 H :    0.230542
  13 H :    0.115188
  14 H :    0.113005
  15 F :   -0.064015
  16 O :   -0.313281
  17 H :    0.151507
  18 H :    0.098573
Sum of atomic charges:    0.0000000

LOEWDIN ATOMIC CHARGES
----------------------
   0 C :   -0.216778
   1 C :   -0.252051
   2 C :   -0.234441
   3 H :    0.142643
   4 H :    0.159910
   5 C :   -0.493192
   6 C :   -0.382775
   7 N :   -0.019355
   8 C :   -0.256578
   9 H :    0.095690
  10 H :    0.088840
  11 H :    0.163549
  12 H :    0.167270
  13 H :    0.140176
  14 H :    0.143754
  15 F :    0.381911
  16 O :    0.078056
  17 H :    0.155335
  18 H :    0.138036

  Mayer bond orders larger than 0.100000
B(  0-C ,  1-C ) :   0.9785 B(  0-C ,  6-C ) :   0.9673 B(  0-C , 17-H ) :   0.9806
B(  0-C , 18-H ) :   0.9570 B(  1-C ,  2-C ) :   1.0086 B(  1-C , 13-H ) :   0.9604
B(  1-C , 14-H ) :   0.9455 B(  2-C ,  3-H ) :   0.9452 B(  2-C ,  4-H ) :   0.9399
B(  2-C ,  5-C ) :   1.0136 B(  5-C , 15-F ) :   1.2031 B(  5-C , 16-O ) :   1.9505
B(  6-C ,  7-N ) :   1.1378 B(  6-C ,  8-C ) :   1.7719 B(  7-N , 11-H ) :   0.9190
B(  7-N , 12-H ) :   0.9141 B(  8-C ,  9-H ) :   0.9778 B(  8-C , 10-H ) :   0.9336
B( 10-H , 16-O ) :   0.1001

Dispersion correction           -0.016295065
FINAL SINGLE POINT ENERGY      -464.079609038201

DIPOLE MOMENT
-------------
                                X             Y             Z
Electronic contribution:      4.28603      -5.11917       9.55232
Nuclear contribution   :     -5.64491       4.57111      -9.93176
                        -----------------------------------------
Total Dipole Moment    :     -1.35887      -0.54806      -0.37945
                        -----------------------------------------
Magnitude (a.u.)       :      1.51357
Magnitude (Debye)      :      3.84718

Rotational constants in cm-1:     0.109825     0.034347     0.029470
Rotational constants in MHz :  3292.465653  1029.684117   883.494260

                             ****ORCA TERMINATED NORMALLY****
TOTAL RUN TIME: 0 days 0 hours 0 minutes 23 seconds 15 msec
