                         Program Version 5.0.0 -  RELEASE  -
|  1> !PBE0 D3BJ RIJCOSX def2-TZVP def2/J TightSCF xyzfile
|  2>
|  3> *xyzfile 0 1 D4.xyz
|  4>
|  5> %MaxCore 64000
|  6>
|  7> %pal nprocs 18
|  8> end
|  9>
| 10> %scf
| 11>   MaxIter 150
| 12> end
| 13>
| 14>
| 15>                          ****END OF INPUT****

CARTESIAN COORDINATES (ANGSTROEM)
---------------------------------
  C      3.343500    3.354571   -3.591998
  C      2.952633    1.863077   -3.574849
  C      4.129209    0.898394   -3.418950
  H      3.733687   -0.100605   -3.237633
  H      4.719095    0.862556   -4.339005
  C      5.017344    1.315212   -2.221305
  C      4.255868    3.703851   -4.726054
  N      3.734032    4.293783   -5.800770
  C      5.515039    3.407255   -4.637185
  H      6.149187    3.601203   -5.399053
  H      5.813584    2.899504   -3.808785
  H      2.741380    4.513109   -5.824701
  H      4.287548    4.521260   -6.614341
  H      2.278938    1.735250   -2.725496
  H      2.377466    1.625787   -4.475869
  O      4.737055    0.854112   -1.122825
  F      5.928146    2.168108   -2.491365
  H      3.861246    3.597252   -2.662979
  H      2.446493    3.973461   -3.656556

 Total Charge           Charge          ....    0
 Multiplicity           Mult            ....    1
 Number of Electrons    NEL             ....   70
 Basis Dimension        Dim             ....  339

ORBITAL ENERGIES
----------------

  NO   OCC          E(Eh)            E(eV)
   0   2.0000     -24.836333      -675.8310
   1   2.0000     -19.216941      -522.9196
   2   2.0000     -14.384312      -391.4170
   3   2.0000     -10.396934      -282.9150
   4   2.0000     -10.245235      -278.7870
   5   2.0000     -10.240680      -278.6631
   6   2.0000     -10.240378      -278.6549
   7   2.0000     -10.231364      -278.4096
   8   2.0000     -10.139267      -275.9035
   9   2.0000      -1.346981       -36.6532
  10   2.0000      -1.083362       -29.4798
  11   2.0000      -0.952890       -25.9295
  12   2.0000      -0.843435       -22.9510
  13   2.0000      -0.777056       -21.1448
  14   2.0000      -0.731471       -19.9043
  15   2.0000      -0.694903       -18.9093
  16   2.0000      -0.638161       -17.3652
  17   2.0000      -0.601660       -16.3720
  18   2.0000      -0.561230       -15.2719
  19   2.0000      -0.552085       -15.0230
  20   2.0000      -0.539785       -14.6883
  21   2.0000      -0.522766       -14.2252
  22   2.0000      -0.497182       -13.5290
  23   2.0000      -0.477198       -12.9852
  24   2.0000      -0.460545       -12.5321
  25   2.0000      -0.433896       -11.8069
  26   2.0000      -0.410536       -11.1713
  27   2.0000      -0.396911       -10.8005
  28   2.0000      -0.388215       -10.5639
  29   2.0000      -0.379358       -10.3229
  30   2.0000      -0.363837        -9.9005
  31   2.0000      -0.344860        -9.3841
  32   2.0000      -0.340561        -9.2671
  33   2.0000      -0.308420        -8.3925
  34   2.0000      -0.203728        -5.5437
  35   0.0000      -0.019594        -0.5332
  36   0.0000       0.030489         0.8296
  37   0.0000       0.046972         1.2782
  38   0.0000       0.065119         1.7720
  39   0.0000       0.074679         2.0321

MULLIKEN ATOMIC CHARGES
-----------------------
   0 C :   -0.264820
   1 C :   -0.179300
   2 C :   -0.249765
   3 H :    0.131630
   4 H :    0.154804
   5 C :    0.327827
   6 C :    0.201513
   7 N :   -0.471644
   8 C :   -0.468693
   9 H :    0.086560
  10 H :    0.156422
  11 H :    0.229073
  12 H :    0.233426
  13 H :    0.123974
  14 H :    0.107275
  15 O :   -0.289717
  16 F :   -0.083742
  17 H :    0.150418
  18 H :    0.104759
Sum of atomic charges:    0.0000000

LOEWDIN ATOMIC CHARGES
----------------------
   0 C :   -0.214600
   1 C :   -0.249092
   2 C :   -0.233141
   3 H :    0.152071
   4 H :    0.150246
   5 C :   -0.496078
   6 C :   -0.375607
   7 N :   -0.010692
   8 C :   -0.268289
   9 H :    0.098683
  10 H :    0.092829
  11 H :    0.167297
  12 H :    0.169213
  13 H :    0.145536
  14 H :    0.142195
  15 O :    0.113422
  16 F :    0.320616
  17 H :    0.154983
  18 H :    0.140406

  Mayer bond orders larger than 0.100000
B(  0-C ,  1-C ) :   0.9909 B(  0-C ,  6-C ) :   0.9618 B(  0-C , 17-H ) :   0.9809
B(  0-C , 18-H ) :   0.9572 B(  1-C ,  2-C ) :   1.0149 B(  1-C , 13-H ) :   0.9536
B(  1-C , 14-H ) :   0.9436 B(  2-C ,  3-H ) :   0.9475 B(  2-C ,  4-H ) :   0.9337
B(  2-C ,  5-C ) :   0.9987 B(  5-C , 15-O ) :   2.1180 B(  5-C , 16-F ) :   1.1048
B(  6-C ,  7-N ) :   1.1585 B(  6-C ,  8-C ) :   1.7598 B(  7-N , 11-H ) :   0.9165
B(  7-N , 12-H ) :   0.9132 B(  8-C ,  9-H ) :   0.9766 B(  8-C , 10-H ) :   0.9795

Dispersion correction           -0.016149521
FINAL SINGLE POINT ENERGY      -464.096902212981

DIPOLE MOMENT
-------------
                                X             Y             Z
Electronic contribution:      6.16448      -2.80040       7.09093
Nuclear contribution   :     -6.99695       3.07955      -8.37829
                        -----------------------------------------
Total Dipole Moment    :     -0.83247       0.27915      -1.28736
                        -----------------------------------------
Magnitude (a.u.)       :      1.55828
Magnitude (Debye)      :      3.96083

Rotational constants in cm-1:     0.106302     0.035771     0.030198
Rotational constants in MHz :  3186.860872  1072.397550   905.318354

                             ****ORCA TERMINATED NORMALLY****
TOTAL RUN TIME: 0 days 0 hours 0 minutes 22 seconds 155 msec
