                         Program Version 5.0.0 -  RELEASE  -
|  1> !wB97X-D3 RIJCOSX def2-SVPD def2/J TightSCF
|  2> *xyz -1 1
|  3> C         -0.05915        1.50352        3.41058
|  4> C          1.08303        0.74964        4.08571
|  5> O          2.22817        1.26348        4.01983
|  6> O          0.81003       -0.34541        4.63627
|  7> H          0.31461        2.41205        2.98658
|  8> H         -0.81316        1.73160        4.13470
|  9> H         -0.47977        0.89552        2.63708
| 10> *
| 11>
| 12> %MaxCore 64000
| 13>
| 14> %pal nprocs 18
| 15> end
| 16>
| 17> %scf
| 18>   MaxIter 150
| 19> end
| 20>
| 21>
| 22>                          ****END OF INPUT****

CARTESIAN COORDINATES (ANGSTROEM)
---------------------------------
  C     -0.059150    1.503520    3.410580
  C      1.083030    0.749640    4.085710
  O      2.228170    1.263480    4.019830
  O      0.810030   -0.345410    4.636270
  H      0.314610    2.412050    2.986580
  H     -0.813160    1.731600    4.134700
  H     -0.479770    0.895520    2.637080

 Total Charge           Charge          ....   -1
 Multiplicity           Mult            ....    1
 Number of Electrons    NEL             ....   32
 Basis Dimension        Dim             ....  110

ORBITAL ENERGIES
----------------

  NO   OCC          E(Eh)            E(eV)
   0   2.0000     -18.978254      -516.4245
   1   2.0000     -18.977714      -516.4099
   2   2.0000     -10.175614      -276.8925
   3   2.0000     -10.101849      -274.8853
   4   2.0000      -0.924280       -25.1509
   5   2.0000      -0.828210       -22.5367
   6   2.0000      -0.653440       -17.7810
   7   2.0000      -0.406090       -11.0503
   8   2.0000      -0.361750        -9.8437
   9   2.0000      -0.346228        -9.4213
  10   2.0000      -0.326659        -8.8889
  11   2.0000      -0.282896        -7.6980
  12   2.0000      -0.263993        -7.1836
  13   2.0000      -0.140267        -3.8169
  14   2.0000      -0.135970        -3.6999
  15   2.0000      -0.121352        -3.3021
  16   0.0000       0.239468         6.5163
  17   0.0000       0.273845         7.4517
  18   0.0000       0.297242         8.0884
  19   0.0000       0.309566         8.4237
  20   0.0000       0.334980         9.1153

MULLIKEN ATOMIC CHARGES
-----------------------
   0 C :    0.424564
   1 C :    0.048332
   2 O :   -0.655712
   3 O :   -0.672761
   4 H :   -0.062992
   5 H :   -0.040722
   6 H :   -0.040708
Sum of atomic charges:   -1.0000000

LOEWDIN ATOMIC CHARGES
----------------------
   0 C :    0.136222
   1 C :   -0.334756
   2 O :   -0.346170
   3 O :   -0.347382
   4 H :   -0.040916
   5 H :   -0.033946
   6 H :   -0.033053

  Mayer bond orders larger than 0.100000
B(  0-C ,  1-C ) :   1.2055 B(  0-C ,  4-H ) :   0.8781 B(  0-C ,  5-H ) :   0.8258
B(  0-C ,  6-H ) :   0.8295 B(  1-C ,  2-O ) :   1.5244 B(  1-C ,  3-O ) :   1.5274
B(  1-C ,  4-H ) :   0.2323 B(  1-C ,  5-H ) :   0.1557 B(  1-C ,  6-H ) :   0.1523

Dispersion correction           -0.000903992
FINAL SINGLE POINT ENERGY      -228.305686380091

DIPOLE MOMENT
-------------
                                X             Y             Z
Electronic contribution:      2.65718      -1.74786       1.55964
Nuclear contribution   :     -3.75920       2.48542      -2.19871
                        -----------------------------------------
Total Dipole Moment    :     -1.10202       0.73756      -0.63907
                        -----------------------------------------
Magnitude (a.u.)       :      1.47203
Magnitude (Debye)      :      3.74159

Rotational constants in cm-1:     0.392838     0.334689     0.186890
Rotational constants in MHz : 11776.984954 10033.729666  5602.815156

                             ****ORCA TERMINATED NORMALLY****
TOTAL RUN TIME: 0 days 0 hours 0 minutes 4 seconds 575 msec
