                         Program Version 5.0.0 -  RELEASE  -
|  1> !wB97X-D3 RIJCOSX def2-SVPD def2/J TightSCF
|  2> *xyz 1 1
|  3> C          4.60295       -2.44010        2.63478
|  4> C          3.86085       -1.59157        3.62289
|  5> N          2.75650       -2.04616        4.16633
|  6> N          4.25433       -0.36291        3.86046
|  7> H          3.56526        0.31099        4.16898
|  8> H          5.05429       -0.01606        3.33784
|  9> H          2.43970       -2.97389        3.89740
| 10> H          2.06687       -1.41253        4.54981
| 11> H          5.47239       -1.91604        2.29664
| 12> H          3.96816       -2.65362        1.80030
| 13> H          4.89801       -3.35632        3.10209
| 14> *
| 15>
| 16> %MaxCore 64000
| 17>
| 18> %pal nprocs 18
| 19> end
| 20>
| 21> %scf
| 22>   MaxIter 150
| 23> end
| 24>
| 25>
| 26>                          ****END OF INPUT****

CARTESIAN COORDINATES (ANGSTROEM)
---------------------------------
  C      4.602950   -2.440100    2.634780
  C      3.860850   -1.591570    3.622890
  N      2.756500   -2.046160    4.166330
  N      4.254330   -0.362910    3.860460
  H      3.565260    0.310990    4.168980
  H      5.054290   -0.016060    3.337840
  H      2.439700   -2.973890    3.897400
  H      2.066870   -1.412530    4.549810
  H      5.472390   -1.916040    2.296640
  H      3.968160   -2.653620    1.800300
  H      4.898010   -3.356320    3.102090

 Total Charge           Charge          ....    1
 Multiplicity           Mult            ....    1
 Number of Electrons    NEL             ....   32
 Basis Dimension        Dim             ....  136

ORBITAL ENERGIES
----------------

  NO   OCC          E(Eh)            E(eV)
   0   2.0000     -14.690733      -399.7552
   1   2.0000     -14.690069      -399.7371
   2   2.0000     -10.627633      -289.1926
   3   2.0000     -10.492122      -285.5052
   4   2.0000      -1.327214       -36.1153
   5   2.0000      -1.226009       -33.3614
   6   2.0000      -1.068049       -29.0631
   7   2.0000      -0.950973       -25.8773
   8   2.0000      -0.884921       -24.0799
   9   2.0000      -0.878805       -23.9135
  10   2.0000      -0.804861       -21.9014
  11   2.0000      -0.771506       -20.9937
  12   2.0000      -0.720598       -19.6085
  13   2.0000      -0.704626       -19.1739
  14   2.0000      -0.675034       -18.3686
  15   2.0000      -0.598054       -16.2739
  16   0.0000      -0.143384        -3.9017
  17   0.0000      -0.085491        -2.3263
  18   0.0000      -0.040335        -1.0976
  19   0.0000      -0.036530        -0.9940
  20   0.0000      -0.017185        -0.4676

MULLIKEN ATOMIC CHARGES
-----------------------
   0 C :    0.449755
   1 C :    0.253186
   2 N :    0.036464
   3 N :   -0.043325
   4 H :   -0.015553
   5 H :    0.106181
   6 H :    0.083453
   7 H :   -0.086561
   8 H :    0.063731
   9 H :    0.058551
  10 H :    0.094117
Sum of atomic charges:    1.0000000

LOEWDIN ATOMIC CHARGES
----------------------
   0 C :    0.232129
   1 C :   -0.059205
   2 N :    0.269346
   3 N :    0.272148
   4 H :    0.053647
   5 H :    0.056094
   6 H :    0.061886
   7 H :    0.053415
   8 H :    0.008472
   9 H :    0.027733
  10 H :    0.024337

  Mayer bond orders larger than 0.100000
B(  0-C ,  1-C ) :   1.3062 B(  0-C ,  8-H ) :   0.8168 B(  0-C ,  9-H ) :   0.8516
B(  0-C , 10-H ) :   0.7213 B(  1-C ,  2-N ) :   1.1502 B(  1-C ,  3-N ) :   1.0820
B(  1-C ,  4-H ) :  -0.1130 B(  1-C ,  7-H ) :  -0.1256 B(  1-C ,  8-H ) :   0.2086
B(  1-C ,  9-H ) :   0.1131 B(  1-C , 10-H ) :   0.2122 B(  2-N ,  3-N ) :   0.1591
B(  2-N ,  6-H ) :   1.0340 B(  2-N ,  7-H ) :   1.2312 B(  3-N ,  4-H ) :   1.2053
B(  3-N ,  5-H ) :   0.9964 B(  4-H ,  5-H ) :  -0.1276 B(  6-H ,  7-H ) :  -0.1395
B(  8-H , 10-H ) :   0.1085

Dispersion correction           -0.001674059
FINAL SINGLE POINT ENERGY      -189.535535578187

DIPOLE MOMENT
-------------
                                X             Y             Z
Electronic contribution:     -0.95206       1.14388       1.60788
Nuclear contribution   :      0.47466      -0.79212      -1.71537
                        -----------------------------------------
Total Dipole Moment    :     -0.47741       0.35176      -0.10749
                        -----------------------------------------
Magnitude (a.u.)       :      0.60267
Magnitude (Debye)      :      1.53186

Rotational constants in cm-1:     0.335502     0.299428     0.163704
Rotational constants in MHz : 10058.111638  8976.630214  4907.722182

                             ****ORCA TERMINATED NORMALLY****
TOTAL RUN TIME: 0 days 0 hours 0 minutes 6 seconds 47 msec
