                         Program Version 5.0.0 -  RELEASE  -
|  1> !wB97X-D3 RIJCOSX def2-SVPD def2/J TightSCF
|  2> *xyz 0 1
|  3> C         -0.05915        1.50352        3.41058
|  4> C          1.08303        0.74964        4.08571
|  5> F          2.22817        1.26348        4.01983
|  6> O          0.81003       -0.34541        4.63627
|  7> H          0.31461        2.41205        2.98658
|  8> H         -0.81316        1.73160        4.13470
|  9> H         -0.47977        0.89552        2.63708
| 10> *
| 11>
| 12> %MaxCore 64000
| 13>
| 14> %pal nprocs 18
| 15> end
| 16>
| 17> %scf
| 18>   MaxIter 150
| 19> end
| 20>
| 21>
| 22>                          ****END OF INPUT****

CARTESIAN COORDINATES (ANGSTROEM)
---------------------------------
  C     -0.059150    1.503520    3.410580
  C      1.083030    0.749640    4.085710
  F      2.228170    1.263480    4.019830
  O      0.810030   -0.345410    4.636270
  H      0.314610    2.412050    2.986580
  H     -0.813160    1.731600    4.134700
  H     -0.479770    0.895520    2.637080

 Total Charge           Charge          ....    0
 Multiplicity           Mult            ....    1
 Number of Electrons    NEL             ....   32
 Basis Dimension        Dim             ....  110

ORBITAL ENERGIES
----------------

  NO   OCC          E(Eh)            E(eV)
   0   2.0000     -24.877409      -676.9487
   1   2.0000     -19.257530      -524.0240
   2   2.0000     -10.481344      -285.2119
   3   2.0000     -10.318707      -280.7863
   4   2.0000      -1.427312       -38.8391
   5   2.0000      -1.144447       -31.1420
   6   2.0000      -0.885851       -24.1052
   7   2.0000      -0.769981       -20.9523
   8   2.0000      -0.660271       -17.9669
   9   2.0000      -0.655666       -17.8416
  10   2.0000      -0.610256       -16.6059
  11   2.0000      -0.548327       -14.9207
  12   2.0000      -0.534845       -14.5539
  13   2.0000      -0.506462       -13.7815
  14   2.0000      -0.454562       -12.3693
  15   2.0000      -0.397158       -10.8072
  16   0.0000       0.050243         1.3672
  17   0.0000       0.082229         2.2376
  18   0.0000       0.123578         3.3627
  19   0.0000       0.159359         4.3364
  20   0.0000       0.161471         4.3938

MULLIKEN ATOMIC CHARGES
-----------------------
   0 C :    0.275013
   1 C :    0.432484
   2 F :   -0.351965
   3 O :   -0.484550
   4 H :    0.008557
   5 H :    0.059110
   6 H :    0.061351
Sum of atomic charges:    0.0000000

LOEWDIN ATOMIC CHARGES
----------------------
   0 C :    0.208434
   1 C :   -0.022891
   2 F :   -0.043002
   3 O :   -0.146229
   4 H :   -0.010657
   5 H :    0.006919
   6 H :    0.007425

  Mayer bond orders larger than 0.100000
B(  0-C ,  1-C ) :   1.2503 B(  0-C ,  4-H ) :   0.8982 B(  0-C ,  5-H ) :   0.8257
B(  0-C ,  6-H ) :   0.8284 B(  1-C ,  2-F ) :   0.8050 B(  1-C ,  3-O ) :   1.8288
B(  1-C ,  4-H ) :   0.1364 B(  1-C ,  5-H ) :   0.1295 B(  1-C ,  6-H ) :   0.1255

Dispersion correction           -0.000908877
FINAL SINGLE POINT ENERGY      -252.838670552252

DIPOLE MOMENT
-------------
                                X             Y             Z
Electronic contribution:      4.67524      -1.01123       1.55859
Nuclear contribution   :     -5.01294       1.99942      -2.18092
                        -----------------------------------------
Total Dipole Moment    :     -0.33770       0.98819      -0.62234
                        -----------------------------------------
Magnitude (a.u.)       :      1.21568
Magnitude (Debye)      :      3.09001

Rotational constants in cm-1:     0.368501     0.321908     0.177384
Rotational constants in MHz : 11047.396090  9650.552559  5317.833075

                             ****ORCA TERMINATED NORMALLY****
TOTAL RUN TIME: 0 days 0 hours 0 minutes 4 seconds 961 msec
