                         Program Version 5.0.0 -  RELEASE  -
|  1> !wB97X-D3 RIJCOSX def2-SVPD def2/J TightSCF
|  2> *xyz 0 1
|  3> C          4.60295       -2.44010        2.63478
|  4> C          3.86085       -1.59157        3.62289
|  5> C          2.75650       -2.04616        4.16633
|  6> N          4.25433       -0.36291        3.86046
|  7> H          3.56526        0.31099        4.16898
|  8> H          5.05429       -0.01606        3.33784
|  9> H          2.43970       -2.97389        3.89740
| 10> H          2.06687       -1.41253        4.54981
| 11> H          5.47239       -1.91604        2.29664
| 12> H          3.96816       -2.65362        1.80030
| 13> H          4.89801       -3.35632        3.10209
| 14> *
| 15>
| 16> %MaxCore 64000
| 17>
| 18> %pal nprocs 18
| 19> end
| 20>
| 21> %scf
| 22>   MaxIter 150
| 23> end
| 24>
| 25>
| 26>                          ****END OF INPUT****

CARTESIAN COORDINATES (ANGSTROEM)
---------------------------------
  C      4.602950   -2.440100    2.634780
  C      3.860850   -1.591570    3.622890
  C      2.756500   -2.046160    4.166330
  N      4.254330   -0.362910    3.860460
  H      3.565260    0.310990    4.168980
  H      5.054290   -0.016060    3.337840
  H      2.439700   -2.973890    3.897400
  H      2.066870   -1.412530    4.549810
  H      5.472390   -1.916040    2.296640
  H      3.968160   -2.653620    1.800300
  H      4.898010   -3.356320    3.102090

 Total Charge           Charge          ....    0
 Multiplicity           Mult            ....    1
 Number of Electrons    NEL             ....   32
 Basis Dimension        Dim             ....  136

ORBITAL ENERGIES
----------------

  NO   OCC          E(Eh)            E(eV)
   0   2.0000     -14.438892      -392.9022
   1   2.0000     -10.311882      -280.6006
   2   2.0000     -10.282407      -279.7985
   3   2.0000     -10.217479      -278.0317
   4   2.0000      -1.043576       -28.3972
   5   2.0000      -0.868006       -23.6196
   6   2.0000      -0.799248       -21.7487
   7   2.0000      -0.674814       -18.3626
   8   2.0000      -0.629470       -17.1287
   9   2.0000      -0.575403       -15.6575
  10   2.0000      -0.534746       -14.5512
  11   2.0000      -0.497517       -13.5381
  12   2.0000      -0.486003       -13.2248
  13   2.0000      -0.458687       -12.4815
  14   2.0000      -0.428454       -11.6588
  15   2.0000      -0.279312        -7.6005
  16   0.0000       0.089873         2.4456
  17   0.0000       0.117768         3.2046
  18   0.0000       0.128294         3.4910
  19   0.0000       0.132012         3.5922
  20   0.0000       0.164578         4.4784

MULLIKEN ATOMIC CHARGES
-----------------------
   0 C :    0.688931
   1 C :   -0.434996
   2 C :    0.300741
   3 N :    0.088756
   4 H :   -0.057654
   5 H :   -0.050751
   6 H :   -0.119469
   7 H :   -0.371642
   8 H :   -0.079308
   9 H :   -0.017407
  10 H :    0.052798
Sum of atomic charges:    0.0000000

LOEWDIN ATOMIC CHARGES
----------------------
   0 C :    0.165055
   1 C :   -0.290118
   2 C :    0.150770
   3 N :    0.154343
   4 H :    0.011102
   5 H :    0.000027
   6 H :   -0.075104
   7 H :   -0.083236
   8 H :   -0.025688
   9 H :   -0.002975
  10 H :   -0.004176

  Mayer bond orders larger than 0.100000
B(  0-C ,  1-C ) :   1.1761 B(  0-C ,  8-H ) :   0.7435 B(  0-C ,  9-H ) :   0.8332
B(  0-C , 10-H ) :   0.7099 B(  1-C ,  2-C ) :   1.9258 B(  1-C ,  3-N ) :   1.0437
B(  1-C ,  6-H ) :   0.1520 B(  1-C ,  7-H ) :   0.1304 B(  1-C ,  8-H ) :   0.2676
B(  1-C ,  9-H ) :   0.1294 B(  1-C , 10-H ) :   0.2298 B(  2-C ,  3-N ) :   0.2401
B(  2-C ,  6-H ) :   0.7941 B(  2-C ,  7-H ) :   0.8886 B(  3-N ,  4-H ) :   1.1274
B(  3-N ,  5-H ) :   1.0353 B(  4-H ,  5-H ) :  -0.1139

Dispersion correction           -0.001671841
FINAL SINGLE POINT ENERGY      -173.078633706982

DIPOLE MOMENT
-------------
                                X             Y             Z
Electronic contribution:      0.12738       1.44884       1.06151
Nuclear contribution   :      0.22927      -0.89318      -1.58153
                        -----------------------------------------
Total Dipole Moment    :      0.35665       0.55566      -0.52002
                        -----------------------------------------
Magnitude (a.u.)       :      0.84046
Magnitude (Debye)      :      2.13628

Rotational constants in cm-1:     0.356805     0.302813     0.169682
Rotational constants in MHz : 10696.748191  9078.116910  5086.926242

                             ****ORCA TERMINATED NORMALLY****
TOTAL RUN TIME: 0 days 0 hours 0 minutes 6 seconds 391 msec
