                         Program Version 5.0.0 -  RELEASE  -
|  1> !wB97X-D3 RIJCOSX def2-SVPD def2/J TightSCF
|  2> *xyz 0 1
|  3> C         -0.05915        1.50352        3.41058
|  4> C          1.08303        0.74964        4.08571
|  5> O          2.22817        1.26348        4.01983
|  6> F          0.81003       -0.34541        4.63627
|  7> H          0.31461        2.41205        2.98658
|  8> H         -0.81316        1.73160        4.13470
|  9> H         -0.47977        0.89552        2.63708
| 10> *
| 11>
| 12> %MaxCore 64000
| 13>
| 14> %pal nprocs 18
| 15> end
| 16>
| 17> %scf
| 18>   MaxIter 150
| 19> end
| 20>
| 21>
| 22>                          ****END OF INPUT****

CARTESIAN COORDINATES (ANGSTROEM)
---------------------------------
  C     -0.059150    1.503520    3.410580
  C      1.083030    0.749640    4.085710
  O      2.228170    1.263480    4.019830
  F      0.810030   -0.345410    4.636270
  H      0.314610    2.412050    2.986580
  H     -0.813160    1.731600    4.134700
  H     -0.479770    0.895520    2.637080

 Total Charge           Charge          ....    0
 Multiplicity           Mult            ....    1
 Number of Electrons    NEL             ....   32
 Basis Dimension        Dim             ....  110

ORBITAL ENERGIES
----------------

  NO   OCC          E(Eh)            E(eV)
   0   2.0000     -24.878211      -676.9705
   1   2.0000     -19.257373      -524.0198
   2   2.0000     -10.481182      -285.2075
   3   2.0000     -10.318451      -280.7793
   4   2.0000      -1.428219       -38.8638
   5   2.0000      -1.143917       -31.1276
   6   2.0000      -0.885714       -24.1015
   7   2.0000      -0.770385       -20.9632
   8   2.0000      -0.661473       -17.9996
   9   2.0000      -0.655680       -17.8420
  10   2.0000      -0.609708       -16.5910
  11   2.0000      -0.547455       -14.8970
  12   2.0000      -0.535402       -14.5690
  13   2.0000      -0.506076       -13.7710
  14   2.0000      -0.456817       -12.4306
  15   2.0000      -0.395264       -10.7557
  16   0.0000       0.053306         1.4505
  17   0.0000       0.082213         2.2371
  18   0.0000       0.123349         3.3565
  19   0.0000       0.156560         4.2602
  20   0.0000       0.164251         4.4695

MULLIKEN ATOMIC CHARGES
-----------------------
   0 C :    0.289299
   1 C :    0.444261
   2 O :   -0.468210
   3 F :   -0.370978
   4 H :   -0.012450
   5 H :    0.058121
   6 H :    0.059956
Sum of atomic charges:   -0.0000000

LOEWDIN ATOMIC CHARGES
----------------------
   0 C :    0.207728
   1 C :   -0.024424
   2 O :   -0.146695
   3 F :   -0.040453
   4 H :    0.001604
   5 H :    0.000606
   6 H :    0.001634

  Mayer bond orders larger than 0.100000
B(  0-C ,  1-C ) :   1.2323 B(  0-C ,  4-H ) :   0.9123 B(  0-C ,  5-H ) :   0.8231
B(  0-C ,  6-H ) :   0.8248 B(  1-C ,  2-O ) :   1.8538 B(  1-C ,  3-F ) :   0.7715
B(  1-C ,  4-H ) :   0.1907 B(  1-C ,  5-H ) :   0.1119 B(  1-C ,  6-H ) :   0.1101

Dispersion correction           -0.000897369
FINAL SINGLE POINT ENERGY      -252.838630965619

DIPOLE MOMENT
-------------
                                X             Y             Z
Electronic contribution:      2.34925      -3.64998       2.56930
Nuclear contribution   :     -3.54758       3.66189      -2.81789
                        -----------------------------------------
Total Dipole Moment    :     -1.19832       0.01191      -0.24859
                        -----------------------------------------
Magnitude (a.u.)       :      1.22389
Magnitude (Debye)      :      3.11089

Rotational constants in cm-1:     0.369278     0.321254     0.177365
Rotational constants in MHz : 11070.686557  9630.951649  5317.254673

                             ****ORCA TERMINATED NORMALLY****
TOTAL RUN TIME: 0 days 0 hours 0 minutes 4 seconds 753 msec
