                         Program Version 5.0.0 -  RELEASE  -
|  1> !wB97X-D3 RIJCOSX def2-SVPD def2/J TightSCF
|  2> *xyz 0 1
|  3> C          4.60295       -2.44010        2.63478
|  4> C          3.86085       -1.59157        3.62289
|  5> N          2.75650       -2.04616        4.16633
|  6> C          4.25433       -0.36291        3.86046
|  7> H          3.56526        0.31099        4.16898
|  8> H          5.05429       -0.01606        3.33784
|  9> H          2.43970       -2.97389        3.89740
| 10> H          2.06687       -1.41253        4.54981
| 11> H          5.47239       -1.91604        2.29664
| 12> H          3.96816       -2.65362        1.80030
| 13> H          4.89801       -3.35632        3.10209
| 14> *
| 15>
| 16> %MaxCore 64000
| 17>
| 18> %pal nprocs 18
| 19> end
| 20>
| 21> %scf
| 22>   MaxIter 150
| 23> end
| 24>
| 25>
| 26>                          ****END OF INPUT****

CARTESIAN COORDINATES (ANGSTROEM)
---------------------------------
  C      4.602950   -2.440100    2.634780
  C      3.860850   -1.591570    3.622890
  N      2.756500   -2.046160    4.166330
  C      4.254330   -0.362910    3.860460
  H      3.565260    0.310990    4.168980
  H      5.054290   -0.016060    3.337840
  H      2.439700   -2.973890    3.897400
  H      2.066870   -1.412530    4.549810
  H      5.472390   -1.916040    2.296640
  H      3.968160   -2.653620    1.800300
  H      4.898010   -3.356320    3.102090

 Total Charge           Charge          ....    0
 Multiplicity           Mult            ....    1
 Number of Electrons    NEL             ....   32
 Basis Dimension        Dim             ....  136

ORBITAL ENERGIES
----------------

  NO   OCC          E(Eh)            E(eV)
   0   2.0000     -14.439028      -392.9059
   1   2.0000     -10.313320      -280.6397
   2   2.0000     -10.282219      -279.7934
   3   2.0000     -10.219492      -278.0865
   4   2.0000      -1.042861       -28.3777
   5   2.0000      -0.868707       -23.6387
   6   2.0000      -0.800339       -21.7783
   7   2.0000      -0.678017       -18.4498
   8   2.0000      -0.628095       -17.0913
   9   2.0000      -0.574538       -15.6340
  10   2.0000      -0.536563       -14.6006
  11   2.0000      -0.496670       -13.5151
  12   2.0000      -0.487814       -13.2741
  13   2.0000      -0.457154       -12.4398
  14   2.0000      -0.426527       -11.6064
  15   2.0000      -0.282079        -7.6758
  16   0.0000       0.090082         2.4513
  17   0.0000       0.120112         3.2684
  18   0.0000       0.128156         3.4873
  19   0.0000       0.133420         3.6305
  20   0.0000       0.167192         4.5495

MULLIKEN ATOMIC CHARGES
-----------------------
   0 C :    0.667433
   1 C :   -0.500069
   2 N :    0.176881
   3 C :    0.330093
   4 H :   -0.374880
   5 H :   -0.084518
   6 H :   -0.097516
   7 H :   -0.136689
   8 H :    0.037474
   9 H :   -0.017798
  10 H :   -0.000411
Sum of atomic charges:   -0.0000000

LOEWDIN ATOMIC CHARGES
----------------------
   0 C :    0.163593
   1 C :   -0.294721
   2 N :    0.153753
   3 C :    0.156166
   4 H :   -0.081886
   5 H :   -0.081920
   6 H :    0.005872
   7 H :    0.010751
   8 H :   -0.012714
   9 H :   -0.006018
  10 H :   -0.012876

  Mayer bond orders larger than 0.100000
B(  0-C ,  1-C ) :   1.3138 B(  0-C ,  8-H ) :   0.8147 B(  0-C ,  9-H ) :   0.7535
B(  0-C , 10-H ) :   0.6779 B(  1-C ,  2-N ) :   1.1218 B(  1-C ,  3-C ) :   1.9300
B(  1-C ,  4-H ) :   0.1677 B(  1-C ,  8-H ) :   0.2203 B(  1-C ,  9-H ) :   0.2312
B(  1-C , 10-H ) :   0.2613 B(  2-N ,  3-C ) :   0.2377 B(  2-N ,  6-H ) :   1.0896
B(  2-N ,  7-H ) :   1.1669 B(  3-C ,  4-H ) :   0.8333 B(  3-C ,  5-H ) :   0.8853
B(  6-H ,  7-H ) :  -0.1202

Dispersion correction           -0.001684059
FINAL SINGLE POINT ENERGY      -173.079479620354

DIPOLE MOMENT
-------------
                                X             Y             Z
Electronic contribution:     -1.18638      -0.01407       1.35975
Nuclear contribution   :      0.56519      -0.51568      -1.65012
                        -----------------------------------------
Total Dipole Moment    :     -0.62120      -0.52976      -0.29037
                        -----------------------------------------
Magnitude (a.u.)       :      0.86651
Magnitude (Debye)      :      2.20250

Rotational constants in cm-1:     0.356673     0.303029     0.169717
Rotational constants in MHz : 10692.789749  9084.577259  5087.998414

                             ****ORCA TERMINATED NORMALLY****
TOTAL RUN TIME: 0 days 0 hours 0 minutes 6 seconds 348 msec
