                         Program Version 5.0.0 -  RELEASE  -
|  1> !wB97X-D3 RIJCOSX def2-SVPD def2/J TightSCF xyzfile
|  2>
|  3> *xyzfile 0 1 D1.xyz
|  4>
|  5> %MaxCore 64000
|  6>
|  7> %pal nprocs 18
|  8> end
|  9>
| 10> %scf
| 11>   MaxIter 150
| 12> end
| 13>
| 14>
| 15>                          ****END OF INPUT****

CARTESIAN COORDINATES (ANGSTROEM)
---------------------------------
  C      4.602954   -2.440100    2.634780
  C     -0.914947    0.615112    2.505538
  C     -0.059146    1.503524    3.410578
  H      0.365364    2.344315    2.861161
  H     -0.692261    1.920207    4.198985
  C      1.083027    0.749640    4.085705
  C      3.860851   -1.591565    3.622893
  C      2.756502   -2.046159    4.166333
  N      4.254325   -0.362905    3.860455
  H      3.565256    0.310994    4.168983
  H      5.054292   -0.016059    3.337838
  H      2.439696   -2.973894    3.897395
  H      2.066869   -1.412532    4.549813
  F      2.228167    1.263475    4.019826
  O      0.810034   -0.345411    4.636269
  C      3.744685   -2.580557    1.361882
  C      0.772139    0.636882    0.562129
  C     -0.130740   -0.193985    1.470763
  H     -0.840563   -0.760165    0.856377
  H      0.466691   -0.938942    2.006959
  H     -1.647961    1.245963    1.991076
  H     -1.478180   -0.081046    3.130424
  C      3.203721   -1.256004    0.826211
  H      2.898939   -3.239289    1.583074
  H      4.334962   -3.095523    0.600188
  C      2.107815   -1.442385   -0.216865
  H      2.786775   -0.672760    1.650711
  H      4.021008   -0.652993    0.414046
  C      1.390662   -0.145912   -0.602422
  H      1.372179   -2.152184    0.176151
  H      2.523302   -1.906787   -1.117115
  H      1.561361    1.100094    1.161831
  H      0.195516    1.468325    0.142758
  H      0.602893   -0.398214   -1.319716
  H      2.087247    0.508272   -1.137335
  H      5.561557   -1.971347    2.407084
  H      4.810498   -3.422552    3.063099

 Total Charge           Charge          ....    0
 Multiplicity           Mult            ....    1
 Number of Electrons    NEL             ....  118
 Basis Dimension        Dim             ....  482

ORBITAL ENERGIES
----------------

  NO   OCC          E(Eh)            E(eV)
   0   2.0000     -24.901266      -677.5979
   1   2.0000     -19.268184      -524.3139
   2   2.0000     -14.414787      -392.2463
   3   2.0000     -10.490837      -285.4702
   4   2.0000     -10.329120      -281.0696
   5   2.0000     -10.307135      -280.4714
   6   2.0000     -10.291639      -280.0497
   7   2.0000     -10.291425      -280.0439
   8   2.0000     -10.288307      -279.9591
   9   2.0000     -10.286350      -279.9058
  10   2.0000     -10.279995      -279.7329
  11   2.0000     -10.278324      -279.6874
  12   2.0000     -10.277552      -279.6664
  13   2.0000     -10.276080      -279.6263
  14   2.0000     -10.185647      -277.1656
  15   2.0000      -1.452874       -39.5347
  16   2.0000      -1.161874       -31.6162
  17   2.0000      -1.025979       -27.9183
  18   2.0000      -0.944806       -25.7095
  19   2.0000      -0.918853       -25.0033
  20   2.0000      -0.893258       -24.3068
  21   2.0000      -0.855149       -23.2698
  22   2.0000      -0.830726       -22.6052
  23   2.0000      -0.800146       -21.7731
  24   2.0000      -0.787079       -21.4175
  25   2.0000      -0.756248       -20.5786
  26   2.0000      -0.721574       -19.6350
  27   2.0000      -0.697705       -18.9855
  28   2.0000      -0.685552       -18.6548
  29   2.0000      -0.675424       -18.3792
  30   2.0000      -0.659421       -17.9438
  31   2.0000      -0.643775       -17.5180
  32   2.0000      -0.630657       -17.1610
  33   2.0000      -0.602145       -16.3852
  34   2.0000      -0.587254       -15.9800
  35   2.0000      -0.583912       -15.8891
  36   2.0000      -0.573376       -15.6024
  37   2.0000      -0.554074       -15.0771
  38   2.0000      -0.547096       -14.8872
  39   2.0000      -0.529294       -14.4028
  40   2.0000      -0.525666       -14.3041
  41   2.0000      -0.510166       -13.8823
  42   2.0000      -0.503610       -13.7039
  43   2.0000      -0.490352       -13.3432
  44   2.0000      -0.485582       -13.2133
  45   2.0000      -0.470548       -12.8043
  46   2.0000      -0.467094       -12.7103
  47   2.0000      -0.458453       -12.4751
  48   2.0000      -0.449888       -12.2421
  49   2.0000      -0.440056       -11.9745
  50   2.0000      -0.437947       -11.9171
  51   2.0000      -0.429752       -11.6941
  52   2.0000      -0.418840       -11.3972
  53   2.0000      -0.414588       -11.2815
  54   2.0000      -0.405427       -11.0322
  55   2.0000      -0.402737       -10.9590
  56   2.0000      -0.396975       -10.8022
  57   2.0000      -0.371521       -10.1096
  58   2.0000      -0.257995        -7.0204
  59   0.0000       0.033406         0.9090
  60   0.0000       0.079925         2.1749
  61   0.0000       0.097435         2.6513
  62   0.0000       0.099575         2.7096
  63   0.0000       0.102637         2.7929

MULLIKEN ATOMIC CHARGES
-----------------------
   0 C :    0.781470
   1 C :    0.478816
   2 C :    0.094584
   3 H :    0.216535
   4 H :   -0.114809
   5 C :    0.626622
   6 C :   -0.491036
   7 C :    0.984399
   8 N :    0.380301
   9 H :   -0.375251
  10 H :    0.090369
  11 H :   -0.215592
  12 H :   -0.878483
  13 F :   -0.463106
  14 O :   -0.529647
  15 C :    0.045105
  16 C :   -0.213423
  17 C :   -0.187805
  18 H :   -0.156690
  19 H :   -0.034997
  20 H :   -0.049133
  21 H :    0.084319
  22 C :    0.088750
  23 H :    0.067382
  24 H :   -0.241416
  25 C :   -0.030955
  26 H :   -0.306918
  27 H :    0.013594
  28 C :    0.769517
  29 H :    0.168663
  30 H :   -0.316785
  31 H :    0.161731
  32 H :   -0.493859
  33 H :    0.087262
  34 H :   -0.005892
  35 H :   -0.052859
  36 H :    0.019238
Sum of atomic charges:    0.0000000

LOEWDIN ATOMIC CHARGES
----------------------
   0 C :    0.016944
   1 C :   -0.014183
   2 C :    0.053945
   3 H :    0.024598
   4 H :    0.045241
   5 C :    0.059637
   6 C :   -0.257561
   7 C :    0.197286
   8 N :    0.188547
   9 H :   -0.068009
  10 H :    0.005338
  11 H :   -0.067592
  12 H :   -0.169049
  13 F :   -0.033684
  14 O :   -0.116081
  15 C :   -0.020344
  16 C :   -0.039242
  17 C :   -0.028111
  18 H :    0.033517
  19 H :    0.013894
  20 H :    0.029758
  21 H :    0.031134
  22 C :   -0.033891
  23 H :    0.018872
  24 H :    0.021050
  25 C :   -0.038605
  26 H :   -0.016572
  27 H :    0.033150
  28 C :   -0.030507
  29 H :    0.017992
  30 H :    0.025256
  31 H :    0.006451
  32 H :    0.023949
  33 H :    0.022633
  34 H :    0.023303
  35 H :    0.012940
  36 H :    0.027997

  Mayer bond orders larger than 0.100000
B(  0-C ,  6-C ) :   1.1984 B(  0-C , 15-C ) :   1.0783 B(  0-C , 35-H ) :   0.5355
B(  0-C , 36-H ) :   0.6592 B(  1-C ,  2-C ) :   1.1963 B(  1-C ,  4-H ) :   0.1709
B(  1-C , 17-C ) :   1.2371 B(  1-C , 20-H ) :   0.7747 B(  1-C , 21-H ) :   0.6541
B(  2-C ,  3-H ) :   0.8182 B(  2-C ,  4-H ) :   0.7209 B(  2-C ,  5-C ) :   1.2001
B(  2-C , 20-H ) :   0.1419 B(  2-C , 21-H ) :   0.1099 B(  3-H ,  5-C ) :   0.1262
B(  4-H ,  5-C ) :   0.2437 B(  5-C , 13-F ) :   0.6194 B(  5-C , 14-O ) :   1.7587
B(  6-C ,  7-C ) :   2.0352 B(  6-C ,  8-N ) :   0.8741 B(  6-C , 10-H ) :   0.1428
B(  6-C , 12-H ) :   0.3488 B(  6-C , 15-C ) :   0.1180 B(  6-C , 35-H ) :   0.3331
B(  6-C , 36-H ) :   0.2338 B(  7-C ,  8-N ) :   0.3844 B(  7-C , 11-H ) :   0.6600
B(  8-N ,  9-H ) :   1.0190 B(  8-N , 10-H ) :   0.9148 B(  8-N , 11-H ) :   0.2386
B(  8-N , 12-H ) :  -0.2058 B(  9-H , 10-H ) :  -0.2181 B(  9-H , 13-F ) :   0.1076
B( 11-H , 12-H ) :  -0.1071 B( 12-H , 14-O ) :   0.2190 B( 13-F , 14-O ) :   0.1016
B( 15-C , 22-C ) :   1.1350 B( 15-C , 23-H ) :   0.8680 B( 15-C , 24-H ) :   0.9526
B( 15-C , 26-H ) :   0.1428 B( 15-C , 27-H ) :   0.1056 B( 15-C , 35-H ) :   0.2088
B( 15-C , 36-H ) :   0.1544 B( 16-C , 17-C ) :   1.2465 B( 16-C , 18-H ) :   0.1854
B( 16-C , 19-H ) :   0.1169 B( 16-C , 25-C ) :   0.1152 B( 16-C , 28-C ) :   1.0718
B( 16-C , 31-H ) :   0.8111 B( 16-C , 32-H ) :   1.1588 B( 16-C , 33-H ) :   0.1463
B( 16-C , 34-H ) :   0.2660 B( 17-C , 18-H ) :   0.8779 B( 17-C , 19-H ) :   0.9514
B( 17-C , 20-H ) :   0.1988 B( 17-C , 21-H ) :   0.2404 B( 17-C , 32-H ) :   0.1308
B( 20-H , 21-H ) :  -0.1091 B( 22-C , 23-H ) :   0.1353 B( 22-C , 24-H ) :   0.2344
B( 22-C , 25-C ) :   1.1894 B( 22-C , 26-H ) :   1.0228 B( 22-C , 27-H ) :   0.7378
B( 22-C , 29-H ) :   0.1203 B( 22-C , 30-H ) :   0.2366 B( 25-C , 27-H ) :   0.1021
B( 25-C , 28-C ) :   1.1384 B( 25-C , 29-H ) :   0.8178 B( 25-C , 30-H ) :   0.9763
B( 25-C , 33-H ) :   0.2134 B( 25-C , 34-H ) :   0.1610 B( 26-H , 27-H ) :   0.1791
B( 26-H , 31-H ) :   0.1749 B( 26-H , 32-H ) :  -0.1034 B( 28-C , 33-H ) :   0.6596
B( 28-C , 34-H ) :   0.6413 B( 33-H , 34-H ) :  -0.1042

Dispersion correction           -0.019722795
FINAL SINGLE POINT ENERGY      -699.650293667206

DIPOLE MOMENT
-------------
                                X             Y             Z
Electronic contribution:      1.17374       7.39583      14.93089
Nuclear contribution   :     -1.66567      -5.90236     -15.95042
                        -----------------------------------------
Total Dipole Moment    :     -0.49193       1.49347      -1.01954
                        -----------------------------------------
Magnitude (a.u.)       :      1.87400
Magnitude (Debye)      :      4.76334

Rotational constants in cm-1:     0.021600     0.017292     0.011381
Rotational constants in MHz :   647.565282   518.410024   341.193038

                             ****ORCA TERMINATED NORMALLY****
TOTAL RUN TIME: 0 days 0 hours 1 minutes 57 seconds 748 msec
