                         Program Version 5.0.0 -  RELEASE  -
|  1> !wB97X-D3 RIJCOSX def2-SVPD def2/J TightSCF xyzfile
|  2>
|  3> *xyzfile 0 1 D2.xyz
|  4>
|  5> %MaxCore 64000
|  6>
|  7> %pal nprocs 18
|  8> end
|  9>
| 10> %scf
| 11>   MaxIter 150
| 12> end
| 13>
| 14>
| 15>                          ****END OF INPUT****

CARTESIAN COORDINATES (ANGSTROEM)
---------------------------------
  C      4.602954   -2.440100    2.634780
  C     -0.914947    0.615112    2.505538
  C     -0.059146    1.503524    3.410578
  H      0.365364    2.344315    2.861161
  H     -0.692261    1.920207    4.198985
  C      1.083027    0.749640    4.085705
  C      3.860851   -1.591565    3.622893
  N      2.756502   -2.046159    4.166333
  C      4.254325   -0.362905    3.860455
  H      3.565256    0.310994    4.168983
  H      5.054292   -0.016059    3.337838
  H      2.439696   -2.973894    3.897395
  H      2.066869   -1.412532    4.549813
  F      2.228167    1.263475    4.019826
  O      0.810034   -0.345411    4.636269
  C      3.744685   -2.580557    1.361882
  C      0.772139    0.636882    0.562129
  C     -0.130740   -0.193985    1.470763
  H     -0.840563   -0.760165    0.856377
  H      0.466691   -0.938942    2.006959
  H     -1.647961    1.245963    1.991076
  H     -1.478180   -0.081046    3.130424
  C      3.203721   -1.256004    0.826211
  H      2.898939   -3.239289    1.583074
  H      4.334962   -3.095523    0.600188
  C      2.107815   -1.442385   -0.216865
  H      2.786775   -0.672760    1.650711
  H      4.021008   -0.652993    0.414046
  C      1.390662   -0.145912   -0.602422
  H      1.372179   -2.152184    0.176151
  H      2.523302   -1.906787   -1.117115
  H      1.561361    1.100094    1.161831
  H      0.195516    1.468325    0.142758
  H      0.602893   -0.398214   -1.319716
  H      2.087247    0.508272   -1.137335
  H      5.561557   -1.971347    2.407084
  H      4.810498   -3.422552    3.063099

 Total Charge           Charge          ....    0
 Multiplicity           Mult            ....    1
 Number of Electrons    NEL             ....  118
 Basis Dimension        Dim             ....  482

ORBITAL ENERGIES
----------------

  NO   OCC          E(Eh)            E(eV)
   0   2.0000     -24.891567      -677.3340
   1   2.0000     -19.279422      -524.6197
   2   2.0000     -14.403260      -391.9326
   3   2.0000     -10.498456      -285.6775
   4   2.0000     -10.332037      -281.1490
   5   2.0000     -10.310731      -280.5693
   6   2.0000     -10.295296      -280.1493
   7   2.0000     -10.292492      -280.0729
   8   2.0000     -10.290959      -280.0312
   9   2.0000     -10.286861      -279.9197
  10   2.0000     -10.281890      -279.7845
  11   2.0000     -10.280558      -279.7482
  12   2.0000     -10.276846      -279.6472
  13   2.0000     -10.274463      -279.5823
  14   2.0000     -10.194202      -277.3983
  15   2.0000      -1.445004       -39.3206
  16   2.0000      -1.172197       -31.8971
  17   2.0000      -1.018687       -27.7199
  18   2.0000      -0.947598       -25.7855
  19   2.0000      -0.919569       -25.0227
  20   2.0000      -0.892405       -24.2836
  21   2.0000      -0.856932       -23.3183
  22   2.0000      -0.825504       -22.4631
  23   2.0000      -0.812606       -22.1121
  24   2.0000      -0.779839       -21.2205
  25   2.0000      -0.757630       -20.6162
  26   2.0000      -0.720802       -19.6140
  27   2.0000      -0.693015       -18.8579
  28   2.0000      -0.679479       -18.4896
  29   2.0000      -0.670242       -18.2382
  30   2.0000      -0.663426       -18.0527
  31   2.0000      -0.654111       -17.7993
  32   2.0000      -0.630965       -17.1694
  33   2.0000      -0.603197       -16.4138
  34   2.0000      -0.590759       -16.0754
  35   2.0000      -0.583338       -15.8734
  36   2.0000      -0.565877       -15.3983
  37   2.0000      -0.556534       -15.1441
  38   2.0000      -0.546254       -14.8643
  39   2.0000      -0.536225       -14.5914
  40   2.0000      -0.526373       -14.3233
  41   2.0000      -0.510721       -13.8974
  42   2.0000      -0.507509       -13.8100
  43   2.0000      -0.495285       -13.4774
  44   2.0000      -0.479901       -13.0588
  45   2.0000      -0.472548       -12.8587
  46   2.0000      -0.468175       -12.7397
  47   2.0000      -0.464503       -12.6398
  48   2.0000      -0.449418       -12.2293
  49   2.0000      -0.444643       -12.0993
  50   2.0000      -0.438687       -11.9373
  51   2.0000      -0.425760       -11.5855
  52   2.0000      -0.418708       -11.3936
  53   2.0000      -0.414848       -11.2886
  54   2.0000      -0.409391       -11.1401
  55   2.0000      -0.405824       -11.0430
  56   2.0000      -0.397533       -10.8174
  57   2.0000      -0.387958       -10.5569
  58   2.0000      -0.259389        -7.0583
  59   0.0000       0.028077         0.7640
  60   0.0000       0.080953         2.2029
  61   0.0000       0.093259         2.5377
  62   0.0000       0.099883         2.7180
  63   0.0000       0.103226         2.8089

MULLIKEN ATOMIC CHARGES
-----------------------
   0 C :    0.574682
   1 C :    0.474491
   2 C :    0.060189
   3 H :    0.211939
   4 H :   -0.093613
   5 C :    0.742235
   6 C :   -0.448647
   7 N :    0.421759
   8 C :    0.948262
   9 H :   -0.746922
  10 H :   -0.106275
  11 H :    0.040815
  12 H :   -0.548317
  13 F :   -0.464321
  14 O :   -0.563317
  15 C :    0.143397
  16 C :   -0.208786
  17 C :   -0.188162
  18 H :   -0.167512
  19 H :   -0.043190
  20 H :   -0.050875
  21 H :    0.074632
  22 C :    0.181201
  23 H :    0.055587
  24 H :   -0.292676
  25 C :   -0.011025
  26 H :   -0.411594
  27 H :   -0.011096
  28 C :    0.763143
  29 H :    0.141587
  30 H :   -0.328173
  31 H :    0.146303
  32 H :   -0.466210
  33 H :    0.093691
  34 H :   -0.002117
  35 H :    0.146738
  36 H :   -0.067821
Sum of atomic charges:   -0.0000000

LOEWDIN ATOMIC CHARGES
----------------------
   0 C :    0.015995
   1 C :   -0.014823
   2 C :    0.056211
   3 H :    0.027374
   4 H :    0.046497
   5 C :    0.067044
   6 C :   -0.257901
   7 N :    0.205814
   8 C :    0.180580
   9 H :   -0.140402
  10 H :   -0.074129
  11 H :    0.008023
  12 H :   -0.106639
  13 F :   -0.037198
  14 O :   -0.114982
  15 C :   -0.021403
  16 C :   -0.037717
  17 C :   -0.030230
  18 H :    0.033280
  19 H :    0.010988
  20 H :    0.030498
  21 H :    0.030194
  22 C :   -0.029250
  23 H :    0.012235
  24 H :    0.022516
  25 C :   -0.041149
  26 H :   -0.016420
  27 H :    0.038771
  28 C :   -0.029799
  29 H :    0.015494
  30 H :    0.024645
  31 H :    0.008831
  32 H :    0.024496
  33 H :    0.022410
  34 H :    0.024387
  35 H :    0.024150
  36 H :    0.021608

  Mayer bond orders larger than 0.100000
B(  0-C ,  6-C ) :   1.3115 B(  0-C ,  8-C ) :   0.1147 B(  0-C , 15-C ) :   1.0976
B(  0-C , 23-H ) :   0.1036 B(  0-C , 24-H ) :   0.1221 B(  0-C , 35-H ) :   0.7436
B(  0-C , 36-H ) :   0.5684 B(  1-C ,  2-C ) :   1.1965 B(  1-C ,  4-H ) :   0.1672
B(  1-C , 17-C ) :   1.2345 B(  1-C , 20-H ) :   0.7787 B(  1-C , 21-H ) :   0.6623
B(  2-C ,  3-H ) :   0.8372 B(  2-C ,  4-H ) :   0.7102 B(  2-C ,  5-C ) :   1.2075
B(  2-C , 20-H ) :   0.1402 B(  2-C , 21-H ) :   0.1145 B(  3-H ,  5-C ) :   0.1324
B(  4-H ,  5-C ) :   0.2394 B(  5-C , 13-F ) :   0.6452 B(  5-C , 14-O ) :   1.6089
B(  6-C ,  7-N ) :   0.9090 B(  6-C ,  8-C ) :   2.0714 B(  6-C ,  9-H ) :   0.3681
B(  6-C , 10-H ) :   0.2718 B(  6-C , 35-H ) :   0.1607 B(  6-C , 36-H ) :   0.3011
B(  7-N ,  8-C ) :   0.3579 B(  7-N , 11-H ) :   0.9742 B(  7-N , 12-H ) :   1.0646
B(  8-C , 10-H ) :   0.7094 B(  9-H , 13-F ) :   0.2094 B( 11-H , 12-H ) :  -0.2389
B( 12-H , 14-O ) :   0.1839 B( 15-C , 22-C ) :   1.1145 B( 15-C , 23-H ) :   0.8350
B( 15-C , 24-H ) :   0.9375 B( 15-C , 26-H ) :   0.1238 B( 15-C , 35-H ) :   0.1459
B( 15-C , 36-H ) :   0.1792 B( 16-C , 17-C ) :   1.2437 B( 16-C , 18-H ) :   0.1810
B( 16-C , 19-H ) :   0.1174 B( 16-C , 25-C ) :   0.1173 B( 16-C , 28-C ) :   1.0782
B( 16-C , 31-H ) :   0.8197 B( 16-C , 32-H ) :   1.1393 B( 16-C , 33-H ) :   0.1444
B( 16-C , 34-H ) :   0.2684 B( 17-C , 18-H ) :   0.8890 B( 17-C , 19-H ) :   0.9503
B( 17-C , 20-H ) :   0.1979 B( 17-C , 21-H ) :   0.2361 B( 17-C , 32-H ) :   0.1322
B( 20-H , 21-H ) :  -0.1061 B( 22-C , 23-H ) :   0.1271 B( 22-C , 24-H ) :   0.2022
B( 22-C , 25-C ) :   1.1655 B( 22-C , 26-H ) :   0.9814 B( 22-C , 27-H ) :   0.7329
B( 22-C , 29-H ) :   0.1202 B( 22-C , 30-H ) :   0.2410 B( 25-C , 27-H ) :   0.1118
B( 25-C , 28-C ) :   1.1433 B( 25-C , 29-H ) :   0.8241 B( 25-C , 30-H ) :   0.9723
B( 25-C , 33-H ) :   0.2099 B( 25-C , 34-H ) :   0.1552 B( 26-H , 27-H ) :   0.2224
B( 26-H , 31-H ) :   0.1693 B( 28-C , 33-H ) :   0.6634 B( 28-C , 34-H ) :   0.6398
B( 33-H , 34-H ) :  -0.1008

Dispersion correction           -0.019723586
FINAL SINGLE POINT ENERGY      -699.660244969468

DIPOLE MOMENT
-------------
                                X             Y             Z
Electronic contribution:      0.05867       6.26437      15.10222
Nuclear contribution   :     -1.39991      -5.60370     -16.00470
                        -----------------------------------------
Total Dipole Moment    :     -1.34124       0.66066      -0.90248
                        -----------------------------------------
Magnitude (a.u.)       :      1.74639
Magnitude (Debye)      :      4.43896

Rotational constants in cm-1:     0.021622     0.017313     0.011402
Rotational constants in MHz :   648.226014   519.043632   341.814105

                             ****ORCA TERMINATED NORMALLY****
TOTAL RUN TIME: 0 days 0 hours 1 minutes 57 seconds 472 msec
