                         Program Version 5.0.0 -  RELEASE  -
|  1> !wB97X-D3 RIJCOSX def2-SVPD def2/J TightSCF xyzfile
|  2>
|  3> *xyzfile 0 1 D3.xyz
|  4>
|  5> %MaxCore 64000
|  6>
|  7> %pal nprocs 18
|  8> end
|  9>
| 10> %scf
| 11>   MaxIter 150
| 12> end
| 13>
| 14>
| 15>                          ****END OF INPUT****

CARTESIAN COORDINATES (ANGSTROEM)
---------------------------------
  C      4.602954   -2.440100    2.634780
  C     -0.914947    0.615112    2.505538
  C     -0.059146    1.503524    3.410578
  H      0.365364    2.344315    2.861161
  H     -0.692261    1.920207    4.198985
  C      1.083027    0.749640    4.085705
  C      3.860851   -1.591565    3.622893
  C      2.756502   -2.046159    4.166333
  N      4.254325   -0.362905    3.860455
  H      3.565256    0.310994    4.168983
  H      5.054292   -0.016059    3.337838
  H      2.439696   -2.973894    3.897395
  H      2.066869   -1.412532    4.549813
  O      2.228167    1.263475    4.019826
  F      0.810034   -0.345411    4.636269
  C      3.744685   -2.580557    1.361882
  C      0.772139    0.636882    0.562129
  C     -0.130740   -0.193985    1.470763
  H     -0.840563   -0.760165    0.856377
  H      0.466691   -0.938942    2.006959
  H     -1.647961    1.245963    1.991076
  H     -1.478180   -0.081046    3.130424
  C      3.203721   -1.256004    0.826211
  H      2.898939   -3.239289    1.583074
  H      4.334962   -3.095523    0.600188
  C      2.107815   -1.442385   -0.216865
  H      2.786775   -0.672760    1.650711
  H      4.021008   -0.652993    0.414046
  C      1.390662   -0.145912   -0.602422
  H      1.372179   -2.152184    0.176151
  H      2.523302   -1.906787   -1.117115
  H      1.561361    1.100094    1.161831
  H      0.195516    1.468325    0.142758
  H      0.602893   -0.398214   -1.319716
  H      2.087247    0.508272   -1.137335
  H      5.561557   -1.971347    2.407084
  H      4.810498   -3.422552    3.063099

 Total Charge           Charge          ....    0
 Multiplicity           Mult            ....    1
 Number of Electrons    NEL             ....  118
 Basis Dimension        Dim             ....  482

ORBITAL ENERGIES
----------------

  NO   OCC          E(Eh)            E(eV)
   0   2.0000     -24.891091      -677.3210
   1   2.0000     -19.277881      -524.5778
   2   2.0000     -14.400743      -391.8641
   3   2.0000     -10.497014      -285.6383
   4   2.0000     -10.330353      -281.1032
   5   2.0000     -10.312411      -280.6150
   6   2.0000     -10.296289      -280.1763
   7   2.0000     -10.291012      -280.0327
   8   2.0000     -10.289637      -279.9953
   9   2.0000     -10.285189      -279.8742
  10   2.0000     -10.279200      -279.7113
  11   2.0000     -10.278050      -279.6800
  12   2.0000     -10.277021      -279.6520
  13   2.0000     -10.273569      -279.5580
  14   2.0000     -10.193713      -277.3850
  15   2.0000      -1.444845       -39.3162
  16   2.0000      -1.169328       -31.8190
  17   2.0000      -1.017283       -27.6817
  18   2.0000      -0.948774       -25.8174
  19   2.0000      -0.919062       -25.0089
  20   2.0000      -0.891849       -24.2684
  21   2.0000      -0.855831       -23.2883
  22   2.0000      -0.822476       -22.3807
  23   2.0000      -0.805052       -21.9066
  24   2.0000      -0.780034       -21.2258
  25   2.0000      -0.757689       -20.6178
  26   2.0000      -0.722849       -19.6697
  27   2.0000      -0.696819       -18.9614
  28   2.0000      -0.680251       -18.5106
  29   2.0000      -0.675370       -18.3778
  30   2.0000      -0.661441       -17.9987
  31   2.0000      -0.647497       -17.6193
  32   2.0000      -0.624857       -17.0032
  33   2.0000      -0.597160       -16.2496
  34   2.0000      -0.589149       -16.0316
  35   2.0000      -0.582972       -15.8635
  36   2.0000      -0.570372       -15.5206
  37   2.0000      -0.551028       -14.9942
  38   2.0000      -0.547066       -14.8864
  39   2.0000      -0.533265       -14.5109
  40   2.0000      -0.525283       -14.2937
  41   2.0000      -0.510670       -13.8960
  42   2.0000      -0.508233       -13.8297
  43   2.0000      -0.491135       -13.3645
  44   2.0000      -0.485031       -13.1984
  45   2.0000      -0.474373       -12.9084
  46   2.0000      -0.469597       -12.7784
  47   2.0000      -0.462520       -12.5858
  48   2.0000      -0.449232       -12.2242
  49   2.0000      -0.439018       -11.9463
  50   2.0000      -0.436232       -11.8705
  51   2.0000      -0.430107       -11.7038
  52   2.0000      -0.418114       -11.3774
  53   2.0000      -0.413150       -11.2424
  54   2.0000      -0.405184       -11.0256
  55   2.0000      -0.403380       -10.9765
  56   2.0000      -0.395813       -10.7706
  57   2.0000      -0.387834       -10.5535
  58   2.0000      -0.257961        -7.0195
  59   0.0000       0.032445         0.8829
  60   0.0000       0.080189         2.1821
  61   0.0000       0.098090         2.6692
  62   0.0000       0.099818         2.7162
  63   0.0000       0.103115         2.8059

MULLIKEN ATOMIC CHARGES
-----------------------
   0 C :    0.781176
   1 C :    0.484784
   2 C :    0.087156
   3 H :    0.192239
   4 H :   -0.106366
   5 C :    0.728862
   6 C :   -0.469647
   7 C :    1.008462
   8 N :    0.362928
   9 H :   -0.431929
  10 H :    0.099481
  11 H :   -0.206010
  12 H :   -0.902428
  13 O :   -0.536648
  14 F :   -0.482201
  15 C :    0.045919
  16 C :   -0.222149
  17 C :   -0.162053
  18 H :   -0.157213
  19 H :   -0.055445
  20 H :   -0.051183
  21 H :    0.035240
  22 C :    0.142121
  23 H :    0.065172
  24 H :   -0.250526
  25 C :   -0.031309
  26 H :   -0.336237
  27 H :    0.013620
  28 C :    0.778574
  29 H :    0.161474
  30 H :   -0.320236
  31 H :    0.180135
  32 H :   -0.493191
  33 H :    0.078709
  34 H :   -0.001871
  35 H :   -0.050098
  36 H :    0.020693
Sum of atomic charges:   -0.0000000

LOEWDIN ATOMIC CHARGES
----------------------
   0 C :    0.017824
   1 C :   -0.022302
   2 C :    0.060261
   3 H :    0.035833
   4 H :    0.043901
   5 C :    0.062493
   6 C :   -0.252480
   7 C :    0.186996
   8 N :    0.197199
   9 H :   -0.105189
  10 H :    0.006679
  11 H :   -0.073181
  12 H :   -0.142822
  13 O :   -0.117726
  14 F :   -0.035837
  15 C :   -0.020780
  16 C :   -0.034824
  17 C :   -0.030440
  18 H :    0.033004
  19 H :    0.012058
  20 H :    0.030001
  21 H :    0.026656
  22 C :   -0.031712
  23 H :    0.017471
  24 H :    0.021021
  25 C :   -0.039520
  26 H :   -0.014500
  27 H :    0.034555
  28 C :   -0.030159
  29 H :    0.016576
  30 H :    0.024965
  31 H :    0.011174
  32 H :    0.024542
  33 H :    0.021759
  34 H :    0.024167
  35 H :    0.014552
  36 H :    0.027784

  Mayer bond orders larger than 0.100000
B(  0-C ,  6-C ) :   1.2090 B(  0-C , 15-C ) :   1.0792 B(  0-C , 35-H ) :   0.5313
B(  0-C , 36-H ) :   0.6627 B(  1-C ,  2-C ) :   1.1725 B(  1-C ,  4-H ) :   0.1657
B(  1-C , 17-C ) :   1.2208 B(  1-C , 20-H ) :   0.7897 B(  1-C , 21-H ) :   0.6640
B(  2-C ,  3-H ) :   0.8464 B(  2-C ,  4-H ) :   0.7337 B(  2-C ,  5-C ) :   1.1852
B(  2-C , 20-H ) :   0.1361 B(  2-C , 21-H ) :   0.1011 B(  3-H ,  5-C ) :   0.1387
B(  4-H ,  5-C ) :   0.2325 B(  5-C , 13-O ) :   1.6446 B(  5-C , 14-F ) :   0.6084
B(  6-C ,  7-C ) :   2.0118 B(  6-C ,  8-N ) :   0.8737 B(  6-C , 10-H ) :   0.1481
B(  6-C , 12-H ) :   0.3498 B(  6-C , 15-C ) :   0.1157 B(  6-C , 35-H ) :   0.3460
B(  6-C , 36-H ) :   0.2369 B(  7-C ,  8-N ) :   0.3918 B(  7-C , 11-H ) :   0.6528
B(  7-C , 12-H ) :  -0.1370 B(  8-N ,  9-H ) :   1.0283 B(  8-N , 10-H ) :   0.8988
B(  8-N , 11-H ) :   0.2315 B(  8-N , 12-H ) :  -0.1907 B(  9-H , 10-H ) :  -0.2360
B(  9-H , 13-O ) :   0.1366 B( 12-H , 14-F ) :   0.2607 B( 15-C , 22-C ) :   1.1299
B( 15-C , 23-H ) :   0.8671 B( 15-C , 24-H ) :   0.9573 B( 15-C , 26-H ) :   0.1434
B( 15-C , 27-H ) :   0.1055 B( 15-C , 35-H ) :   0.2113 B( 15-C , 36-H ) :   0.1535
B( 16-C , 17-C ) :   1.2629 B( 16-C , 18-H ) :   0.1784 B( 16-C , 19-H ) :   0.1242
B( 16-C , 25-C ) :   0.1184 B( 16-C , 28-C ) :   1.0721 B( 16-C , 31-H ) :   0.8107
B( 16-C , 32-H ) :   1.1641 B( 16-C , 33-H ) :   0.1482 B( 16-C , 34-H ) :   0.2643
B( 17-C , 18-H ) :   0.8962 B( 17-C , 19-H ) :   0.9277 B( 17-C , 20-H ) :   0.1931
B( 17-C , 21-H ) :   0.2423 B( 17-C , 32-H ) :   0.1237 B( 20-H , 21-H ) :  -0.1133
B( 22-C , 23-H ) :   0.1339 B( 22-C , 24-H ) :   0.2307 B( 22-C , 25-C ) :   1.1875
B( 22-C , 26-H ) :   0.9899 B( 22-C , 27-H ) :   0.7305 B( 22-C , 29-H ) :   0.1223
B( 22-C , 30-H ) :   0.2296 B( 25-C , 27-H ) :   0.1016 B( 25-C , 28-C ) :   1.1376
B( 25-C , 29-H ) :   0.8174 B( 25-C , 30-H ) :   0.9795 B( 25-C , 33-H ) :   0.2146
B( 25-C , 34-H ) :   0.1604 B( 26-H , 27-H ) :   0.1848 B( 26-H , 31-H ) :   0.1814
B( 26-H , 32-H ) :  -0.1054 B( 28-C , 33-H ) :   0.6556 B( 28-C , 34-H ) :   0.6419
B( 33-H , 34-H ) :  -0.1058

Dispersion correction           -0.019741224
FINAL SINGLE POINT ENERGY      -699.661521868603

DIPOLE MOMENT
-------------
                                X             Y             Z
Electronic contribution:     -1.25043       4.75385      15.93856
Nuclear contribution   :      0.05905      -3.94566     -16.70013
                        -----------------------------------------
Total Dipole Moment    :     -1.19139       0.80819      -0.76157
                        -----------------------------------------
Magnitude (a.u.)       :      1.62867
Magnitude (Debye)      :      4.13975

Rotational constants in cm-1:     0.021602     0.017295     0.011353
Rotational constants in MHz :   647.614981   518.478934   340.359556

                             ****ORCA TERMINATED NORMALLY****
TOTAL RUN TIME: 0 days 0 hours 1 minutes 55 seconds 262 msec
