                         Program Version 5.0.0 -  RELEASE  -
|  1> !LC-PBE RIJCOSX def2-SVPD def2/J TightSCF
|  2> *xyz -1 1
|  3> C         -1.78916       -0.63923        4.55750
|  4> C         -2.79070       -0.78527        5.70281
|  5> H         -2.86731       -1.83565        6.00167
|  6> H         -3.77455       -0.48658        5.33481
|  7> C         -2.45380        0.05510        6.94145
|  8> C         -2.07842        1.48042        6.56410
|  9> H         -1.62558       -0.38216        7.49891
| 10> H         -3.32527        0.08775        7.59917
| 11> O         -0.90125        1.85816        6.82810
| 12> O         -2.93658        2.17731        5.96415
| 13> H         -2.09421       -1.25377        3.73641
| 14> H         -0.81933       -0.94475        4.89064
| 15> H         -1.75281        0.38306        4.24366
| 16> *
| 17> %MaxCore 64000
| 18>
| 19> %pal nprocs 4
| 20> end
| 21>
| 22> %scf
| 23>   MaxIter 150
| 24> end
| 25>
| 26>
| 27>                          ****END OF INPUT****

CARTESIAN COORDINATES (ANGSTROEM)
---------------------------------
  C     -1.789160   -0.639230    4.557500
  C     -2.790700   -0.785270    5.702810
  H     -2.867310   -1.835650    6.001670
  H     -3.774550   -0.486580    5.334810
  C     -2.453800    0.055100    6.941450
  C     -2.078420    1.480420    6.564100
  H     -1.625580   -0.382160    7.498910
  H     -3.325270    0.087750    7.599170
  O     -0.901250    1.858160    6.828100
  O     -2.936580    2.177310    5.964150
  H     -2.094210   -1.253770    3.736410
  H     -0.819330   -0.944750    4.890640
  H     -1.752810    0.383060    4.243660

 Total Charge           Charge          ....   -1
 Multiplicity           Mult            ....    1
 Number of Electrons    NEL             ....   48
 Basis Dimension        Dim             ....  182

ORBITAL ENERGIES
----------------

  NO   OCC          E(Eh)            E(eV)
   0   2.0000     -18.730965      -509.6955
   1   2.0000     -18.729514      -509.6560
   2   2.0000     -10.021793      -272.7068
   3   2.0000      -9.982736      -271.6441
   4   2.0000      -9.969048      -271.2716
   5   2.0000      -9.956317      -270.9252
   6   2.0000      -0.982322       -26.7304
   7   2.0000      -0.877525       -23.8787
   8   2.0000      -0.812513       -22.1096
   9   2.0000      -0.708261       -19.2728
  10   2.0000      -0.603318       -16.4171
  11   2.0000      -0.478658       -13.0249
  12   2.0000      -0.453047       -12.3280
  13   2.0000      -0.435276       -11.8445
  14   2.0000      -0.395823       -10.7709
  15   2.0000      -0.379523       -10.3274
  16   2.0000      -0.352218        -9.5843
  17   2.0000      -0.346184        -9.4201
  18   2.0000      -0.331300        -9.0151
  19   2.0000      -0.305947        -8.3252
  20   2.0000      -0.301174        -8.1954
  21   2.0000      -0.181568        -4.9407
  22   2.0000      -0.177933        -4.8418
  23   2.0000      -0.165692        -4.5087
  24   0.0000       0.213727         5.8158
  25   0.0000       0.236047         6.4232
  26   0.0000       0.252405         6.8683
  27   0.0000       0.264413         7.1950
  28   0.0000       0.290461         7.9038

MULLIKEN ATOMIC CHARGES
-----------------------
   0 C :    0.413594
   1 C :   -0.524785
   2 H :   -0.092605
   3 H :    0.066808
   4 C :    0.045988
   5 C :    0.241899
   6 H :    0.051307
   7 H :    0.048777
   8 O :   -0.635127
   9 O :   -0.663083
  10 H :   -0.021301
  11 H :    0.023070
  12 H :    0.045458
Sum of atomic charges:   -1.0000000

LOEWDIN ATOMIC CHARGES
----------------------
   0 C :    0.084266
   1 C :   -0.108817
   2 H :    0.011162
   3 H :    0.023765
   4 C :   -0.029049
   5 C :   -0.336009
   6 H :    0.017071
   7 H :    0.023407
   8 O :   -0.327287
   9 O :   -0.318643
  10 H :   -0.024664
  11 H :   -0.008162
  12 H :   -0.007041

  Mayer bond orders larger than 0.100000
B(  0-C ,  1-C ) :   1.3321 B(  0-C , 10-H ) :   0.8078 B(  0-C , 11-H ) :   0.8313
B(  0-C , 12-H ) :   0.8626 B(  1-C ,  2-H ) :   1.0120 B(  1-C ,  3-H ) :   0.9329
B(  1-C ,  4-C ) :   1.1907 B(  1-C ,  6-H ) :   0.1194 B(  1-C ,  7-H ) :   0.1040
B(  1-C , 10-H ) :   0.1772 B(  1-C , 11-H ) :   0.1615 B(  1-C , 12-H ) :   0.1762
B(  4-C ,  5-C ) :   1.0160 B(  4-C ,  6-H ) :   0.8978 B(  4-C ,  7-H ) :   0.8559
B(  5-C ,  6-H ) :   0.1883 B(  5-C ,  7-H ) :   0.1042 B(  5-C ,  8-O ) :   1.5565
B(  5-C ,  9-O ) :   1.6013

FINAL SINGLE POINT ENERGY      -306.024013583853

DIPOLE MOMENT
-------------
                                X             Y             Z
Electronic contribution:      0.59897       6.29010       2.69066
Nuclear contribution   :     -1.12936      -8.75108      -3.05770
                        -----------------------------------------
Total Dipole Moment    :     -0.53039      -2.46098      -0.36704
                        -----------------------------------------
Magnitude (a.u.)       :      2.54410
Magnitude (Debye)      :      6.46659

Rotational constants in cm-1:     0.189092     0.083831     0.082013
Rotational constants in MHz :  5668.846461  2513.177001  2458.689996

                             ****ORCA TERMINATED NORMALLY****
TOTAL RUN TIME: 0 days 0 hours 0 minutes 20 seconds 37 msec
