                         Program Version 5.0.0 -  RELEASE  -
|  1> !LC-PBE RIJCOSX def2-SVPD def2/J TightSCF
|  2> *xyz 1 1
|  3> C         -0.69912        3.48945        3.75516
|  4> H         -0.96672        4.34901        3.14049
|  5> N         -1.08067        3.79296        5.15686
|  6> C          0.77696        3.13839        3.61741
|  7> H         -1.33146        2.65651        3.44632
|  8> H          1.37140        3.88834        4.14974
|  9> H          1.04693        3.23206        2.56133
| 10> C          1.11892        1.73117        4.11516
| 11> H         -0.87449        4.76274        5.42734
| 12> H         -0.68079        3.13476        5.83900
| 13> H         -2.05755        3.53169        5.34620
| 14> H          0.52974        1.01235        3.58499
| 15> H          0.90870        1.66226        5.16204
| 16> H          2.15725        1.53562        3.94624
| 17> *
| 18> %MaxCore 64000
| 19>
| 20> %pal nprocs 4
| 21> end
| 22>
| 23> %scf
| 24>   MaxIter 150
| 25> end
| 26>
| 27>
| 28>                          ****END OF INPUT****

CARTESIAN COORDINATES (ANGSTROEM)
---------------------------------
  C     -0.699120    3.489450    3.755160
  H     -0.966720    4.349010    3.140490
  N     -1.080670    3.792960    5.156860
  C      0.776960    3.138390    3.617410
  H     -1.331460    2.656510    3.446320
  H      1.371400    3.888340    4.149740
  H      1.046930    3.232060    2.561330
  C      1.118920    1.731170    4.115160
  H     -0.874490    4.762740    5.427340
  H     -0.680790    3.134760    5.839000
  H     -2.057550    3.531690    5.346200
  H      0.529740    1.012350    3.584990
  H      0.908700    1.662260    5.162040
  H      2.157250    1.535620    3.946240

 Total Charge           Charge          ....    1
 Multiplicity           Mult            ....    1
 Number of Electrons    NEL             ....   34
 Basis Dimension        Dim             ....  160

ORBITAL ENERGIES
----------------

  NO   OCC          E(Eh)            E(eV)
   0   2.0000     -14.561254      -396.2319
   1   2.0000     -10.375063      -282.3198
   2   2.0000     -10.305373      -280.4234
   3   2.0000     -10.269452      -279.4460
   4   2.0000      -1.379895       -37.5488
   5   2.0000      -1.145187       -31.1621
   6   2.0000      -1.047704       -28.5095
   7   2.0000      -0.963518       -26.2186
   8   2.0000      -0.940214       -25.5845
   9   2.0000      -0.909515       -24.7492
  10   2.0000      -0.837183       -22.7809
  11   2.0000      -0.771548       -20.9949
  12   2.0000      -0.747483       -20.3400
  13   2.0000      -0.721041       -19.6205
  14   2.0000      -0.654898       -17.8207
  15   2.0000      -0.648967       -17.6593
  16   2.0000      -0.641194       -17.4478
  17   0.0000      -0.107057        -2.9132
  18   0.0000      -0.051202        -1.3933
  19   0.0000      -0.049435        -1.3452
  20   0.0000      -0.036036        -0.9806
  21   0.0000      -0.010177        -0.2769

MULLIKEN ATOMIC CHARGES
-----------------------
   0 C :    0.399566
   1 H :    0.017012
   2 N :   -0.914133
   3 C :   -0.430017
   4 H :    0.077889
   5 H :    0.030910
   6 H :    0.086710
   7 C :    0.481041
   8 H :    0.454056
   9 H :    0.371745
  10 H :    0.409533
  11 H :    0.075128
  12 H :   -0.117344
  13 H :    0.057905
Sum of atomic charges:    1.0000000

LOEWDIN ATOMIC CHARGES
----------------------
   0 C :    0.063607
   1 H :    0.063698
   2 N :    0.313623
   3 C :   -0.070657
   4 H :    0.062709
   5 H :    0.045072
   6 H :    0.055785
   7 C :    0.116553
   8 H :    0.123193
   9 H :    0.100261
  10 H :    0.116180
  11 H :    0.008467
  12 H :   -0.014137
  13 H :    0.015645

  Mayer bond orders larger than 0.100000
B(  0-C ,  1-H ) :   0.9362 B(  0-C ,  2-N ) :   0.7354 B(  0-C ,  3-C ) :   1.1786
B(  0-C ,  4-H ) :   0.9118 B(  2-N ,  8-H ) :   0.6871 B(  2-N ,  9-H ) :   0.7691
B(  2-N , 10-H ) :   0.7137 B(  3-C ,  5-H ) :   0.9679 B(  3-C ,  6-H ) :   0.9444
B(  3-C ,  7-C ) :   1.2703 B(  3-C , 11-H ) :   0.1328 B(  3-C , 12-H ) :   0.1439
B(  3-C , 13-H ) :   0.1611 B(  7-C , 11-H ) :   0.8316 B(  7-C , 12-H ) :   0.8724
B(  7-C , 13-H ) :   0.8465

FINAL SINGLE POINT ENERGY      -174.138594112199

DIPOLE MOMENT
-------------
                                X             Y             Z
Electronic contribution:     -1.69754       1.68822       0.75235
Nuclear contribution   :      0.19356      -0.71099       0.46987
                        -----------------------------------------
Total Dipole Moment    :     -1.50398       0.97722       1.22222
                        -----------------------------------------
Magnitude (a.u.)       :      2.17043
Magnitude (Debye)      :      5.51678

Rotational constants in cm-1:     0.465349     0.150671     0.132807
Rotational constants in MHz : 13950.800968  4516.999758  3981.442177

                             ****ORCA TERMINATED NORMALLY****
TOTAL RUN TIME: 0 days 0 hours 0 minutes 13 seconds 793 msec
