                         Program Version 5.0.0 -  RELEASE  -
|  1> !LC-PBE RIJCOSX def2-SVPD def2/J TightSCF xyzfile
|  2>
|  3> *xyzfile 0 1 B.xyz
|  4>
|  5> %MaxCore 64000
|  6>
|  7> %pal nprocs 4
|  8> end
|  9>
| 10> %scf
| 11>   MaxIter 150
| 12> end
| 13>
| 14>
| 15>                          ****END OF INPUT****

CARTESIAN COORDINATES (ANGSTROEM)
---------------------------------
  C     -0.699123    3.489451    3.755163
  H     -0.966716    4.349013    3.140491
  N     -1.080669    3.792957    5.156857
  C      0.776956    3.138391    3.617408
  H     -1.331455    2.656510    3.446323
  H      1.371398    3.888342    4.149744
  H      1.046926    3.232057    2.561331
  C      1.118917    1.731170    4.115155
  H      2.200573    1.654226    4.254882
  C      0.659466    0.635182    3.153306
  H      0.677024    1.576674    5.103150
  H      1.312288    0.638870    2.274207
  H     -0.339563    0.868049    2.772876
  C      0.639957   -0.771175    3.755619
  C     -0.341821   -0.965537    4.915046
  H      1.648266   -1.028665    4.097015
  H      0.398568   -1.482386    2.958453
  H     -0.279892   -2.005646    5.252547
  C     -1.789164   -0.639231    4.557496
  H     -0.032380   -0.352918    5.765118
  H     -2.107151   -1.270102    3.719619
  H     -1.856352    0.391636    4.197604
  C     -2.790700   -0.785275    5.702812
  H     -2.867308   -1.835651    6.001675
  H     -3.774554   -0.486577    5.334807
  C     -2.453797    0.055101    6.941445
  C     -2.078419    1.480421    6.564098
  H     -1.625584   -0.382163    7.498914
  H     -3.325274    0.087746    7.599175
  H     -0.874488    4.762737    5.427344
  H     -0.680793    3.134762    5.839000
  H     -2.057550    3.531691    5.346197
  O     -0.901252    1.858156    6.828104
  O     -2.936582    2.177309    5.964151

 Total Charge           Charge          ....    0
 Multiplicity           Mult            ....    1
 Number of Electrons    NEL             ....  104
 Basis Dimension        Dim             ....  434

ORBITAL ENERGIES
----------------

  NO   OCC          E(Eh)            E(eV)
   0   2.0000     -18.931269      -515.1460
   1   2.0000     -18.929609      -515.1008
   2   2.0000     -14.311420      -389.4335
   3   2.0000     -10.212583      -277.8985
   4   2.0000     -10.198856      -277.5250
   5   2.0000     -10.151378      -276.2330
   6   2.0000     -10.126485      -275.5557
   7   2.0000     -10.123619      -275.4777
   8   2.0000     -10.116826      -275.2928
   9   2.0000     -10.108810      -275.0747
  10   2.0000     -10.108278      -275.0602
  11   2.0000     -10.106414      -275.0095
  12   2.0000     -10.100812      -274.8571
  13   2.0000      -1.193768       -32.4841
  14   2.0000      -1.148429       -31.2504
  15   2.0000      -1.081273       -29.4229
  16   2.0000      -0.999235       -27.1906
  17   2.0000      -0.969092       -26.3703
  18   2.0000      -0.938642       -25.5418
  19   2.0000      -0.886223       -24.1154
  20   2.0000      -0.852789       -23.2056
  21   2.0000      -0.810693       -22.0601
  22   2.0000      -0.769006       -20.9257
  23   2.0000      -0.750651       -20.4263
  24   2.0000      -0.730684       -19.8829
  25   2.0000      -0.705007       -19.1842
  26   2.0000      -0.695967       -18.9382
  27   2.0000      -0.647733       -17.6257
  28   2.0000      -0.630701       -17.1622
  29   2.0000      -0.623418       -16.9641
  30   2.0000      -0.620929       -16.8964
  31   2.0000      -0.593663       -16.1544
  32   2.0000      -0.589384       -16.0380
  33   2.0000      -0.577496       -15.7145
  34   2.0000      -0.566144       -15.4056
  35   2.0000      -0.547856       -14.9079
  36   2.0000      -0.542552       -14.7636
  37   2.0000      -0.540319       -14.7028
  38   2.0000      -0.524083       -14.2610
  39   2.0000      -0.519716       -14.1422
  40   2.0000      -0.496033       -13.4977
  41   2.0000      -0.490243       -13.3402
  42   2.0000      -0.483874       -13.1669
  43   2.0000      -0.466077       -12.6826
  44   2.0000      -0.453070       -12.3287
  45   2.0000      -0.450387       -12.2557
  46   2.0000      -0.434616       -11.8265
  47   2.0000      -0.426902       -11.6166
  48   2.0000      -0.421366       -11.4659
  49   2.0000      -0.381912       -10.3924
  50   2.0000      -0.370673       -10.0865
  51   2.0000      -0.367923       -10.0117
  52   0.0000       0.068392         1.8610
  53   0.0000       0.094808         2.5799
  54   0.0000       0.098931         2.6920
  55   0.0000       0.104337         2.8392
  56   0.0000       0.117511         3.1976

MULLIKEN ATOMIC CHARGES
-----------------------
   0 C :    0.838197
   1 H :   -0.102743
   2 N :   -0.702297
   3 C :    0.138151
   4 H :   -0.208669
   5 H :    0.018554
   6 H :    0.030733
   7 C :    0.578514
   8 H :    0.077645
   9 C :   -0.119160
  10 H :   -0.672655
  11 H :   -0.148380
  12 H :   -0.081461
  13 C :    0.519758
  14 C :   -0.119455
  15 H :   -0.042750
  16 H :    0.111220
  17 H :   -0.183155
  18 C :    0.161566
  19 H :    0.039704
  20 H :   -0.006164
  21 H :   -0.494519
  22 C :    0.269047
  23 H :   -0.089492
  24 H :    0.143319
  25 C :    0.158647
  26 C :    0.153761
  27 H :    0.192452
  28 H :   -0.045926
  29 H :    0.366158
  30 H :    0.230771
  31 H :    0.273101
  32 O :   -0.649541
  33 O :   -0.634929
Sum of atomic charges:    0.0000000

LOEWDIN ATOMIC CHARGES
----------------------
   0 C :    0.077575
   1 H :    0.044423
   2 N :    0.312350
   3 C :   -0.034250
   4 H :    0.036339
   5 H :    0.036594
   6 H :    0.040119
   7 C :   -0.029331
   8 H :    0.041932
   9 C :   -0.054785
  10 H :   -0.004507
  11 H :    0.035034
  12 H :    0.009787
  13 C :   -0.050265
  14 C :   -0.044525
  15 H :    0.035161
  16 H :    0.033694
  17 H :    0.038329
  18 C :   -0.049321
  19 H :    0.009715
  20 H :    0.039437
  21 H :    0.005024
  22 C :   -0.039310
  23 H :    0.032310
  24 H :    0.036150
  25 C :    0.013305
  26 C :   -0.206837
  27 H :    0.031656
  28 H :    0.042966
  29 H :    0.104858
  30 H :   -0.051850
  31 H :   -0.014785
  32 O :   -0.242785
  33 O :   -0.234207

  Mayer bond orders larger than 0.100000
B(  0-C ,  1-H ) :   0.8322 B(  0-C ,  2-N ) :   0.7124 B(  0-C ,  3-C ) :   1.1680
B(  0-C ,  4-H ) :   0.7306 B(  0-C ,  7-C ) :   0.1807 B(  0-C , 10-H ) :  -0.1701
B(  1-H ,  3-C ) :   0.1093 B(  2-N ,  4-H ) :   0.2365 B(  2-N , 26-C ) :   0.1116
B(  2-N , 29-H ) :   0.8542 B(  2-N , 30-H ) :   0.7774 B(  2-N , 31-H ) :   0.7523
B(  3-C ,  4-H ) :   0.1394 B(  3-C ,  5-H ) :   0.7860 B(  3-C ,  6-H ) :   0.8502
B(  3-C ,  7-C ) :   1.1650 B(  3-C , 10-H ) :   0.1624 B(  4-H , 12-H ) :   0.1063
B(  4-H , 21-H ) :   0.1634 B(  5-H ,  7-C ) :   0.1078 B(  7-C ,  8-H ) :   0.7553
B(  7-C ,  9-C ) :   1.1349 B(  7-C , 10-H ) :   0.4820 B(  7-C , 11-H ) :   0.1893
B(  8-H ,  9-C ) :   0.1664 B(  9-C , 10-H ) :   0.2491 B(  9-C , 11-H ) :   0.9438
B(  9-C , 12-H ) :   0.9157 B(  9-C , 13-C ) :   1.1984 B(  9-C , 15-H ) :   0.1179
B(  9-C , 16-H ) :   0.1983 B( 10-H , 13-C ) :  -0.1130 B( 10-H , 19-H ) :   0.1198
B( 13-C , 14-C ) :   1.1457 B( 13-C , 15-H ) :   0.7556 B( 13-C , 16-H ) :   0.7328
B( 14-C , 15-H ) :   0.2375 B( 14-C , 17-H ) :   0.9678 B( 14-C , 18-C ) :   1.1761
B( 14-C , 19-H ) :   0.9127 B( 14-C , 20-H ) :   0.1514 B( 14-C , 21-H ) :   0.2089
B( 17-H , 18-C ) :   0.1544 B( 18-C , 20-H ) :   0.7532 B( 18-C , 21-H ) :   0.8032
B( 18-C , 22-C ) :   1.2558 B( 18-C , 23-H ) :   0.1529 B( 18-C , 24-H ) :   0.2107
B( 20-H , 21-H ) :   0.1214 B( 21-H , 22-C ) :   0.1168 B( 22-C , 23-H ) :   0.8674
B( 22-C , 24-H ) :   0.7178 B( 22-C , 25-C ) :   1.1729 B( 22-C , 28-H ) :   0.1327
B( 23-H , 24-H ) :  -0.1080 B( 23-H , 25-C ) :   0.1117 B( 25-C , 26-C ) :   1.1971
B( 25-C , 27-H ) :   0.8154 B( 25-C , 28-H ) :   0.7388 B( 26-C , 27-H ) :   0.1677
B( 26-C , 28-H ) :   0.2286 B( 26-C , 32-O ) :   1.4132 B( 26-C , 33-O ) :   1.4194
B( 30-H , 32-O ) :   0.2516 B( 31-H , 33-O ) :   0.1989 B( 32-O , 33-O ) :   0.1024

FINAL SINGLE POINT ENERGY      -596.646193857703

DIPOLE MOMENT
-------------
                                X             Y             Z
Electronic contribution:     -4.65743       4.82742       6.67520
Nuclear contribution   :      5.60885      -3.40606      -8.06960
                        -----------------------------------------
Total Dipole Moment    :      0.95142       1.42136      -1.39439
                        -----------------------------------------
Magnitude (a.u.)       :      2.20676
Magnitude (Debye)      :      5.60914

Rotational constants in cm-1:     0.028465     0.023505     0.015110
Rotational constants in MHz :   853.363165   704.655786   452.976312

                             ****ORCA TERMINATED NORMALLY****
TOTAL RUN TIME: 0 days 0 hours 3 minutes 27 seconds 386 msec
