                         Program Version 5.0.0 -  RELEASE  -
|  1> !LC-PBE RIJCOSX def2-SVPD def2/J TightSCF
|  2> *xyz 0 1
|  3> C         -1.78916       -0.63923        4.55750
|  4> C         -2.79070       -0.78527        5.70281
|  5> H         -2.86731       -1.83565        6.00167
|  6> H         -3.77455       -0.48658        5.33481
|  7> C         -2.45380        0.05510        6.94145
|  8> C         -2.07842        1.48042        6.56410
|  9> H         -1.62558       -0.38216        7.49891
| 10> H         -3.32527        0.08775        7.59917
| 11> F         -0.90125        1.85816        6.82810
| 12> O         -2.93658        2.17731        5.96415
| 13> H         -2.09421       -1.25377        3.73641
| 14> H         -0.81933       -0.94475        4.89064
| 15> H         -1.75281        0.38306        4.24366
| 16> *
| 17> %MaxCore 64000
| 18>
| 19> %pal nprocs 4
| 20> end
| 21>
| 22> %scf
| 23>   MaxIter 150
| 24> end
| 25>
| 26>
| 27>                          ****END OF INPUT****

CARTESIAN COORDINATES (ANGSTROEM)
---------------------------------
  C     -1.789160   -0.639230    4.557500
  C     -2.790700   -0.785270    5.702810
  H     -2.867310   -1.835650    6.001670
  H     -3.774550   -0.486580    5.334810
  C     -2.453800    0.055100    6.941450
  C     -2.078420    1.480420    6.564100
  H     -1.625580   -0.382160    7.498910
  H     -3.325270    0.087750    7.599170
  F     -0.901250    1.858160    6.828100
  O     -2.936580    2.177310    5.964150
  H     -2.094210   -1.253770    3.736410
  H     -0.819330   -0.944750    4.890640
  H     -1.752810    0.383060    4.243660

 Total Charge           Charge          ....    0
 Multiplicity           Mult            ....    1
 Number of Electrons    NEL             ....   48
 Basis Dimension        Dim             ....  182

ORBITAL ENERGIES
----------------

  NO   OCC          E(Eh)            E(eV)
   0   2.0000     -24.579490      -668.8419
   1   2.0000     -19.004702      -517.1442
   2   2.0000     -10.320066      -280.8233
   3   2.0000     -10.161344      -276.5042
   4   2.0000     -10.146273      -276.0941
   5   2.0000     -10.120961      -275.4054
   6   2.0000      -1.462044       -39.7842
   7   2.0000      -1.193051       -32.4646
   8   2.0000      -0.992752       -27.0142
   9   2.0000      -0.898437       -24.4477
  10   2.0000      -0.820595       -22.3295
  11   2.0000      -0.770481       -20.9658
  12   2.0000      -0.707707       -19.2577
  13   2.0000      -0.685750       -18.6602
  14   2.0000      -0.662901       -18.0385
  15   2.0000      -0.614261       -16.7149
  16   2.0000      -0.603096       -16.4111
  17   2.0000      -0.559958       -15.2372
  18   2.0000      -0.548221       -14.9178
  19   2.0000      -0.511347       -13.9145
  20   2.0000      -0.492408       -13.3991
  21   2.0000      -0.481736       -13.1087
  22   2.0000      -0.476945       -12.9783
  23   2.0000      -0.434294       -11.8177
  24   0.0000       0.059559         1.6207
  25   0.0000       0.084644         2.3033
  26   0.0000       0.109991         2.9930
  27   0.0000       0.114289         3.1100
  28   0.0000       0.129177         3.5151

MULLIKEN ATOMIC CHARGES
-----------------------
   0 C :    0.406912
   1 C :   -0.477459
   2 H :   -0.044013
   3 H :    0.081895
   4 C :   -0.065606
   5 C :    0.615336
   6 H :    0.095946
   7 H :    0.115126
   8 F :   -0.328974
   9 O :   -0.462699
  10 H :    0.017711
  11 H :    0.027953
  12 H :    0.017873
Sum of atomic charges:    0.0000000

LOEWDIN ATOMIC CHARGES
----------------------
   0 C :    0.099759
   1 C :   -0.081477
   2 H :    0.036051
   3 H :    0.039603
   4 C :    0.015362
   5 C :   -0.033678
   6 H :    0.038091
   7 H :    0.052737
   8 F :   -0.026101
   9 O :   -0.129280
  10 H :   -0.002052
  11 H :   -0.000845
  12 H :   -0.008171

  Mayer bond orders larger than 0.100000
B(  0-C ,  1-C ) :   1.3444 B(  0-C , 10-H ) :   0.8195 B(  0-C , 11-H ) :   0.8397
B(  0-C , 12-H ) :   0.8722 B(  1-C ,  2-H ) :   1.0055 B(  1-C ,  3-H ) :   0.9347
B(  1-C ,  4-C ) :   1.2119 B(  1-C ,  6-H ) :   0.1141 B(  1-C ,  7-H ) :   0.1005
B(  1-C , 10-H ) :   0.1641 B(  1-C , 11-H ) :   0.1491 B(  1-C , 12-H ) :   0.1601
B(  4-C ,  5-C ) :   1.0895 B(  4-C ,  6-H ) :   0.9063 B(  4-C ,  7-H ) :   0.8569
B(  5-C ,  8-F ) :   0.7865 B(  5-C ,  9-O ) :   1.9014

FINAL SINGLE POINT ENERGY      -330.529956812791

DIPOLE MOMENT
-------------
                                X             Y             Z
Electronic contribution:      2.81034       8.91234       4.30242
Nuclear contribution   :     -2.53960     -10.05333      -3.90042
                        -----------------------------------------
Total Dipole Moment    :      0.27075      -1.14099       0.40200
                        -----------------------------------------
Magnitude (a.u.)       :      1.23966
Magnitude (Debye)      :      3.15098

Rotational constants in cm-1:     0.183043     0.080991     0.078218
Rotational constants in MHz :  5487.486217  2428.040459  2344.904824

                             ****ORCA TERMINATED NORMALLY****
TOTAL RUN TIME: 0 days 0 hours 0 minutes 21 seconds 433 msec
