                         Program Version 5.0.0 -  RELEASE  -
|  1> !LC-PBE RIJCOSX def2-SVPD def2/J TightSCF
|  2> *xyz 0 1
|  3> C         -0.69912        3.48945        3.75516
|  4> H         -0.96672        4.34901        3.14049
|  5> C         -1.08067        3.79296        5.15686
|  6> C          0.77696        3.13839        3.61741
|  7> H         -1.33146        2.65651        3.44632
|  8> H          1.37140        3.88834        4.14974
|  9> H          1.04693        3.23206        2.56133
| 10> C          1.11892        1.73117        4.11516
| 11> H         -0.87449        4.76274        5.42734
| 12> H         -0.68079        3.13476        5.83900
| 13> H         -2.05755        3.53169        5.34620
| 14> H          0.52974        1.01235        3.58499
| 15> H          0.90870        1.66226        5.16204
| 16> H          2.15725        1.53562        3.94624
| 17> *
| 18> %MaxCore 64000
| 19>
| 20> %pal nprocs 4
| 21> end
| 22>
| 23> %scf
| 24>   MaxIter 150
| 25> end
| 26>
| 27>
| 28>                          ****END OF INPUT****

CARTESIAN COORDINATES (ANGSTROEM)
---------------------------------
  C     -0.699120    3.489450    3.755160
  H     -0.966720    4.349010    3.140490
  C     -1.080670    3.792960    5.156860
  C      0.776960    3.138390    3.617410
  H     -1.331460    2.656510    3.446320
  H      1.371400    3.888340    4.149740
  H      1.046930    3.232060    2.561330
  C      1.118920    1.731170    4.115160
  H     -0.874490    4.762740    5.427340
  H     -0.680790    3.134760    5.839000
  H     -2.057550    3.531690    5.346200
  H      0.529740    1.012350    3.584990
  H      0.908700    1.662260    5.162040
  H      2.157250    1.535620    3.946240

 Total Charge           Charge          ....    0
 Multiplicity           Mult            ....    1
 Number of Electrons    NEL             ....   34
 Basis Dimension        Dim             ....  160

ORBITAL ENERGIES
----------------

  NO   OCC          E(Eh)            E(eV)
   0   2.0000     -10.116683      -275.2889
   1   2.0000     -10.112439      -275.1734
   2   2.0000     -10.105555      -274.9861
   3   2.0000     -10.086672      -274.4723
   4   2.0000      -0.977035       -26.5865
   5   2.0000      -0.897336       -24.4178
   6   2.0000      -0.804486       -21.8912
   7   2.0000      -0.723333       -19.6829
   8   2.0000      -0.615355       -16.7447
   9   2.0000      -0.606399       -16.5010
  10   2.0000      -0.569930       -15.5086
  11   2.0000      -0.524295       -14.2668
  12   2.0000      -0.513896       -13.9838
  13   2.0000      -0.496960       -13.5230
  14   2.0000      -0.450489       -12.2584
  15   2.0000      -0.447941       -12.1891
  16   2.0000      -0.443765       -12.0755
  17   0.0000       0.096133         2.6159
  18   0.0000       0.119113         3.2412
  19   0.0000       0.121524         3.3068
  20   0.0000       0.128318         3.4917
  21   0.0000       0.175145         4.7659

MULLIKEN ATOMIC CHARGES
-----------------------
   0 C :   -0.329030
   1 H :   -0.054442
   2 C :    0.801484
   3 C :   -0.384763
   4 H :    0.061825
   5 H :   -0.016886
   6 H :   -0.005114
   7 C :    0.481998
   8 H :   -0.069943
   9 H :   -0.372833
  10 H :   -0.085772
  11 H :    0.073995
  12 H :   -0.124747
  13 H :    0.024229
Sum of atomic charges:    0.0000000

LOEWDIN ATOMIC CHARGES
----------------------
   0 C :   -0.100740
   1 H :    0.032872
   2 C :    0.087819
   3 C :   -0.104602
   4 H :    0.033518
   5 H :    0.034327
   6 H :    0.026153
   7 C :    0.092052
   8 H :   -0.013428
   9 H :   -0.033211
  10 H :   -0.022538
  11 H :   -0.006080
  12 H :   -0.017387
  13 H :   -0.008754

  Mayer bond orders larger than 0.100000
B(  0-C ,  1-H ) :   0.9859 B(  0-C ,  2-C ) :   1.2461 B(  0-C ,  3-C ) :   1.1803
B(  0-C ,  4-H ) :   0.9036 B(  0-C ,  5-H ) :   0.1099 B(  0-C ,  8-H ) :   0.1602
B(  0-C ,  9-H ) :   0.2066 B(  0-C , 10-H ) :   0.1653 B(  2-C ,  8-H ) :   0.8011
B(  2-C ,  9-H ) :   0.6712 B(  2-C , 10-H ) :   0.6698 B(  3-C ,  5-H ) :   0.9651
B(  3-C ,  6-H ) :   0.9744 B(  3-C ,  7-C ) :   1.2608 B(  3-C , 11-H ) :   0.1601
B(  3-C , 12-H ) :   0.1631 B(  3-C , 13-H ) :   0.1641 B(  7-C , 11-H ) :   0.8108
B(  7-C , 12-H ) :   0.8908 B(  7-C , 13-H ) :   0.8261 B(  9-H , 10-H ) :   0.2795

FINAL SINGLE POINT ENERGY      -157.757767024497

DIPOLE MOMENT
-------------
                                X             Y             Z
Electronic contribution:      0.11972       0.46865      -0.75736
Nuclear contribution   :     -0.14518      -0.47660       0.76944
                        -----------------------------------------
Total Dipole Moment    :     -0.02546      -0.00794       0.01208
                        -----------------------------------------
Magnitude (a.u.)       :      0.02928
Magnitude (Debye)      :      0.07443

Rotational constants in cm-1:     0.472466     0.157481     0.138592
Rotational constants in MHz : 14164.171374  4721.163669  4154.874787

                             ****ORCA TERMINATED NORMALLY****
TOTAL RUN TIME: 0 days 0 hours 0 minutes 13 seconds 44 msec
