                         Program Version 5.0.0 -  RELEASE  -
|  1> !LC-PBE RIJCOSX def2-SVPD def2/J TightSCF
|  2> *xyz 0 1
|  3> C         -1.78916       -0.63923        4.55750
|  4> C         -2.79070       -0.78527        5.70281
|  5> H         -2.86731       -1.83565        6.00167
|  6> H         -3.77455       -0.48658        5.33481
|  7> C         -2.45380        0.05510        6.94145
|  8> C         -2.07842        1.48042        6.56410
|  9> H         -1.62558       -0.38216        7.49891
| 10> H         -3.32527        0.08775        7.59917
| 11> O         -0.90125        1.85816        6.82810
| 12> F         -2.93658        2.17731        5.96415
| 13> H         -2.09421       -1.25377        3.73641
| 14> H         -0.81933       -0.94475        4.89064
| 15> H         -1.75281        0.38306        4.24366
| 16> *
| 17> %MaxCore 64000
| 18>
| 19> %pal nprocs 4
| 20> end
| 21>
| 22> %scf
| 23>   MaxIter 150
| 24> end
| 25>
| 26>
| 27>                          ****END OF INPUT****

CARTESIAN COORDINATES (ANGSTROEM)
---------------------------------
  C     -1.789160   -0.639230    4.557500
  C     -2.790700   -0.785270    5.702810
  H     -2.867310   -1.835650    6.001670
  H     -3.774550   -0.486580    5.334810
  C     -2.453800    0.055100    6.941450
  C     -2.078420    1.480420    6.564100
  H     -1.625580   -0.382160    7.498910
  H     -3.325270    0.087750    7.599170
  O     -0.901250    1.858160    6.828100
  F     -2.936580    2.177310    5.964150
  H     -2.094210   -1.253770    3.736410
  H     -0.819330   -0.944750    4.890640
  H     -1.752810    0.383060    4.243660

 Total Charge           Charge          ....    0
 Multiplicity           Mult            ....    1
 Number of Electrons    NEL             ....   48
 Basis Dimension        Dim             ....  182

ORBITAL ENERGIES
----------------

  NO   OCC          E(Eh)            E(eV)
   0   2.0000     -24.582834      -668.9329
   1   2.0000     -19.002716      -517.0902
   2   2.0000     -10.319511      -280.8082
   3   2.0000     -10.160694      -276.4865
   4   2.0000     -10.149963      -276.1945
   5   2.0000     -10.123288      -275.4687
   6   2.0000      -1.467375       -39.9293
   7   2.0000      -1.187932       -32.3253
   8   2.0000      -0.996232       -27.1089
   9   2.0000      -0.898247       -24.4425
  10   2.0000      -0.820752       -22.3338
  11   2.0000      -0.775693       -21.1077
  12   2.0000      -0.712693       -19.3934
  13   2.0000      -0.697127       -18.9698
  14   2.0000      -0.645044       -17.5525
  15   2.0000      -0.623158       -16.9570
  16   2.0000      -0.603984       -16.4352
  17   2.0000      -0.561274       -15.2730
  18   2.0000      -0.542831       -14.7712
  19   2.0000      -0.512395       -13.9430
  20   2.0000      -0.502117       -13.6633
  21   2.0000      -0.482352       -13.1255
  22   2.0000      -0.480234       -13.0678
  23   2.0000      -0.427023       -11.6199
  24   0.0000       0.062600         1.7034
  25   0.0000       0.082742         2.2515
  26   0.0000       0.110739         3.0134
  27   0.0000       0.115702         3.1484
  28   0.0000       0.124370         3.3843

MULLIKEN ATOMIC CHARGES
-----------------------
   0 C :    0.421254
   1 C :   -0.501953
   2 H :   -0.048818
   3 H :    0.058858
   4 C :   -0.040225
   5 C :    0.637295
   6 H :    0.085002
   7 H :    0.103725
   8 O :   -0.437398
   9 F :   -0.356047
  10 H :    0.010233
  11 H :    0.046440
  12 H :    0.021635
Sum of atomic charges:    0.0000000

LOEWDIN ATOMIC CHARGES
----------------------
   0 C :    0.101021
   1 C :   -0.088243
   2 H :    0.036551
   3 H :    0.034075
   4 C :    0.018297
   5 C :   -0.038435
   6 H :    0.048589
   7 H :    0.047383
   8 O :   -0.135153
   9 F :   -0.018274
  10 H :   -0.002710
  11 H :    0.004825
  12 H :   -0.007927

  Mayer bond orders larger than 0.100000
B(  0-C ,  1-C ) :   1.3473 B(  0-C , 10-H ) :   0.8141 B(  0-C , 11-H ) :   0.8371
B(  0-C , 12-H ) :   0.8675 B(  1-C ,  2-H ) :   1.0073 B(  1-C ,  3-H ) :   0.9398
B(  1-C ,  4-C ) :   1.1839 B(  1-C ,  6-H ) :   0.1086 B(  1-C , 10-H ) :   0.1707
B(  1-C , 11-H ) :   0.1561 B(  1-C , 12-H ) :   0.1580 B(  4-C ,  5-C ) :   1.0540
B(  4-C ,  6-H ) :   0.9333 B(  4-C ,  7-H ) :   0.8611 B(  5-C ,  6-H ) :   0.1187
B(  5-C ,  8-O ) :   1.8882 B(  5-C ,  9-F ) :   0.7718 B(  8-O ,  9-F ) :   0.1012

FINAL SINGLE POINT ENERGY      -330.527386314771

DIPOLE MOMENT
-------------
                                X             Y             Z
Electronic contribution:     -0.66688       9.43092       2.81832
Nuclear contribution   :     -0.24054     -10.41383      -2.92452
                        -----------------------------------------
Total Dipole Moment    :     -0.90742      -0.98292      -0.10620
                        -----------------------------------------
Magnitude (a.u.)       :      1.34195
Magnitude (Debye)      :      3.41096

Rotational constants in cm-1:     0.180403     0.081943     0.079197
Rotational constants in MHz :  5408.335479  2456.587956  2374.272438

                             ****ORCA TERMINATED NORMALLY****
TOTAL RUN TIME: 0 days 0 hours 0 minutes 19 seconds 893 msec
