                         Program Version 5.0.0 -  RELEASE  -
|  1> !B3LYP D3BJ RIJCOSX def2-SVPD def2/J TightSCF
|  2> *xyz -1 1
|  3> C          2.49670       -1.84416       -5.73570
|  4> O          2.45973       -0.50920       -5.50576
|  5> H          2.07863       -2.36209       -4.89793
|  6> H          3.51118       -2.15388       -5.87645
|  7> H          1.92949       -2.07059       -6.61428
|  8> *
|  9>
| 10> %MaxCore 64000
| 11>
| 12> %pal nprocs 4
| 13> end
| 14>
| 15> %scf
| 16>   MaxIter 150
| 17> end
| 18>
| 19>
| 20>                          ****END OF INPUT****

CARTESIAN COORDINATES (ANGSTROEM)
---------------------------------
  C      2.496700   -1.844160   -5.735700
  O      2.459730   -0.509200   -5.505760
  H      2.078630   -2.362090   -4.897930
  H      3.511180   -2.153880   -5.876450
  H      1.929490   -2.070590   -6.614280

 Total Charge           Charge          ....   -1
 Multiplicity           Mult            ....    1
 Number of Electrons    NEL             ....   18
 Basis Dimension        Dim             ....   67

ORBITAL ENERGIES
----------------

  NO   OCC          E(Eh)            E(eV)
   0   2.0000     -18.784897      -511.1630
   1   2.0000      -9.968707      -271.2623
   2   2.0000      -0.653761       -17.7898
   3   2.0000      -0.387741       -10.5510
   4   2.0000      -0.196293        -5.3414
   5   2.0000      -0.196285        -5.3412
   6   2.0000      -0.100057        -2.7227
   7   2.0000       0.051180         1.3927
   8   2.0000       0.051195         1.3931
   9   0.0000       0.197311         5.3691
  10   0.0000       0.267744         7.2857
  11   0.0000       0.267747         7.2858
  12   0.0000       0.276632         7.5275
  13   0.0000       0.313224         8.5233

MULLIKEN ATOMIC CHARGES
-----------------------
   0 C :    1.031730
   1 O :   -1.011979
   2 H :   -0.340042
   3 H :   -0.339875
   4 H :   -0.339834
Sum of atomic charges:   -1.0000000

LOEWDIN ATOMIC CHARGES
----------------------
   0 C :   -0.116860
   1 O :   -0.634691
   2 H :   -0.082845
   3 H :   -0.082816
   4 H :   -0.082788

  Mayer bond orders larger than 0.100000
B(  0-C ,  1-O ) :   1.1663 B(  0-C ,  2-H ) :   0.8647 B(  0-C ,  3-H ) :   0.8651
B(  0-C ,  4-H ) :   0.8651

Dispersion correction           -0.002432004
FINAL SINGLE POINT ENERGY      -114.957395643445

DIPOLE MOMENT
-------------
                                X             Y             Z
Electronic contribution:     -0.05113       1.84523       0.31762
Nuclear contribution   :      0.07809      -2.81948      -0.48564
                        -----------------------------------------
Total Dipole Moment    :      0.02696      -0.97425      -0.16802
                        -----------------------------------------
Magnitude (a.u.)       :      0.98900
Magnitude (Debye)      :      2.51383

Rotational constants in cm-1:     5.477724     0.956378     0.956377
Rotational constants in MHz : 164218.041992 28671.483536 28671.460928

                             ****ORCA TERMINATED NORMALLY****
TOTAL RUN TIME: 0 days 0 hours 0 minutes 3 seconds 462 msec
