                         Program Version 5.0.0 -  RELEASE  -
|  1> !B3LYP D3BJ RIJCOSX def2-SVPD def2/J TightSCF
|  2> *xyz 1 1
|  3> C          4.99986       -1.59613       -5.92488
|  4> N          5.28156       -1.97413       -4.53576
|  5> C          4.79250       -1.36132       -3.45730
|  6> N          3.93990       -0.37492       -3.55736
|  7> N          5.25986       -1.75422       -2.23913
|  8> H          5.92282       -2.52145       -2.18672
|  9> H          4.65468       -1.64040       -1.44202
| 10> H          5.70914       -2.87560       -4.38702
| 11> H          3.33010       -0.31764       -4.36125
| 12> H          3.69849        0.11447       -2.70833
| 13> H          5.52133       -2.25562       -6.58673
| 14> H          5.32493       -0.59081       -6.09388
| 15> H          3.94785       -1.66624       -6.10727
| 16> *
| 17>
| 18> %MaxCore 64000
| 19>
| 20> %pal nprocs 4
| 21> end
| 22>
| 23> %scf
| 24>   MaxIter 150
| 25> end
| 26>
| 27>
| 28>                          ****END OF INPUT****

CARTESIAN COORDINATES (ANGSTROEM)
---------------------------------
  C      4.999860   -1.596130   -5.924880
  N      5.281560   -1.974130   -4.535760
  C      4.792500   -1.361320   -3.457300
  N      3.939900   -0.374920   -3.557360
  N      5.259860   -1.754220   -2.239130
  H      5.922820   -2.521450   -2.186720
  H      4.654680   -1.640400   -1.442020
  H      5.709140   -2.875600   -4.387020
  H      3.330100   -0.317640   -4.361250
  H      3.698490    0.114470   -2.708330
  H      5.521330   -2.255620   -6.586730
  H      5.324930   -0.590810   -6.093880
  H      3.947850   -1.666240   -6.107270

 Total Charge           Charge          ....    1
 Multiplicity           Mult            ....    1
 Number of Electrons    NEL             ....   40
 Basis Dimension        Dim             ....  164

ORBITAL ENERGIES
----------------

  NO   OCC          E(Eh)            E(eV)
   0   2.0000     -14.563807      -396.3013
   1   2.0000     -14.560794      -396.2193
   2   2.0000     -14.553181      -396.0122
   3   2.0000     -10.523379      -286.3557
   4   2.0000     -10.390805      -282.7482
   5   2.0000      -1.211494       -32.9664
   6   2.0000      -1.102877       -30.0108
   7   2.0000      -1.086612       -29.5682
   8   2.0000      -0.901853       -24.5407
   9   2.0000      -0.830096       -22.5880
  10   2.0000      -0.792985       -21.5782
  11   2.0000      -0.751605       -20.4522
  12   2.0000      -0.705331       -19.1930
  13   2.0000      -0.698433       -19.0053
  14   2.0000      -0.655552       -17.8385
  15   2.0000      -0.635898       -17.3037
  16   2.0000      -0.593099       -16.1390
  17   2.0000      -0.582245       -15.8437
  18   2.0000      -0.486943       -13.2504
  19   2.0000      -0.461698       -12.5634
  20   0.0000      -0.183931        -5.0050
  21   0.0000      -0.159071        -4.3285
  22   0.0000      -0.124439        -3.3861
  23   0.0000      -0.116104        -3.1593
  24   0.0000      -0.095657        -2.6030

MULLIKEN ATOMIC CHARGES
-----------------------
   0 C :    1.299292
   1 N :   -0.448290
   2 C :    1.044426
   3 N :    0.128860
   4 N :    0.060139
   5 H :   -0.063221
   6 H :   -0.068141
   7 H :   -0.241474
   8 H :   -0.045475
   9 H :   -0.107110
  10 H :   -0.390855
  11 H :   -0.075117
  12 H :   -0.093034
Sum of atomic charges:    1.0000000

LOEWDIN ATOMIC CHARGES
----------------------
   0 C :    0.262160
   1 N :    0.027766
   2 C :   -0.045073
   3 N :    0.290762
   4 N :    0.268246
   5 H :    0.031751
   6 H :    0.025839
   7 H :    0.049526
   8 H :    0.034585
   9 H :    0.043527
  10 H :    0.009621
  11 H :    0.006642
  12 H :   -0.005353

  Mayer bond orders larger than 0.100000
B(  0-C ,  1-N ) :   0.9509 B(  0-C ,  7-H ) :  -0.1184 B(  0-C , 10-H ) :   0.7689
B(  0-C , 11-H ) :   0.7828 B(  0-C , 12-H ) :   0.7975 B(  1-N ,  2-C ) :   1.0876
B(  1-N ,  3-N ) :   0.2299 B(  1-N ,  4-N ) :   0.1942 B(  1-N ,  7-H ) :   1.2380
B(  1-N , 10-H ) :   0.1875 B(  1-N , 11-H ) :   0.1684 B(  1-N , 12-H ) :   0.1435
B(  2-C ,  3-N ) :   1.1094 B(  2-C ,  4-N ) :   0.9170 B(  2-C ,  5-H ) :  -0.1040
B(  2-C ,  7-H ) :  -0.1830 B(  2-C ,  8-H ) :  -0.1150 B(  2-C ,  9-H ) :  -0.1009
B(  3-N ,  4-N ) :   0.1438 B(  3-N ,  8-H ) :   1.1314 B(  3-N ,  9-H ) :   1.1697
B(  4-N ,  5-H ) :   1.0908 B(  4-N ,  6-H ) :   1.1547 B(  5-H ,  6-H ) :  -0.1305
B(  8-H ,  9-H ) :  -0.1799

Dispersion correction           -0.014951796
FINAL SINGLE POINT ENERGY      -244.788298995141

DIPOLE MOMENT
-------------
                                X             Y             Z
Electronic contribution:      0.17279       0.11928       2.67045
Nuclear contribution   :     -0.59263      -0.40751      -2.24260
                        -----------------------------------------
Total Dipole Moment    :     -0.41984      -0.28823       0.42785
                        -----------------------------------------
Magnitude (a.u.)       :      0.66513
Magnitude (Debye)      :      1.69062

Rotational constants in cm-1:     0.316984     0.131419     0.095004
Rotational constants in MHz :  9502.926758  3939.829875  2848.138998

                             ****ORCA TERMINATED NORMALLY****
TOTAL RUN TIME: 0 days 0 hours 0 minutes 14 seconds 882 msec
