                         Program Version 5.0.0 -  RELEASE  -
|  1> !B3LYP D3BJ RIJCOSX def2-SVPD def2/J TightSCF xyzfile
|  2>
|  3> *xyzfile 0 1 B.xyz
|  4>
|  5> %MaxCore 64000
|  6>
|  7> %pal nprocs 4
|  8> end
|  9>
| 10> %scf
| 11>   MaxIter 150
| 12> end
| 13>
| 14>
| 15>                          ****END OF INPUT****

CARTESIAN COORDINATES (ANGSTROEM)
---------------------------------
  C      4.999862   -1.596133   -5.924876
  N      5.281560   -1.974132   -4.535764
  C      3.766779   -2.266110   -6.511752
  C      2.496702   -1.844161   -5.735704
  H      1.626416   -2.217434   -6.308950
  H      2.481824   -2.456069   -4.793414
  O      2.459729   -0.509204   -5.505757
  C      4.792500   -1.361316   -3.457295
  N      3.939898   -0.374925   -3.557359
  N      5.259860   -1.754224   -2.239133
  H      5.922824   -2.521451   -2.186720
  H      4.654678   -1.640404   -1.442016
  H      5.709139   -2.875599   -4.387021
  H      3.330101   -0.317639   -4.361247
  H      3.698494    0.114468   -2.708333
  H      4.843333   -0.517930   -5.943019
  H      5.901695   -1.822503   -6.496467
  H      3.886191   -3.357076   -6.533604
  H      3.685602   -1.922168   -7.547128

 Total Charge           Charge          ....    0
 Multiplicity           Mult            ....    1
 Number of Electrons    NEL             ....   64
 Basis Dimension        Dim             ....  251

ORBITAL ENERGIES
----------------

  NO   OCC          E(Eh)            E(eV)
   0   2.0000     -18.995500      -516.8938
   1   2.0000     -14.395295      -391.7159
   2   2.0000     -14.386535      -391.4775
   3   2.0000     -14.344534      -390.3346
   4   2.0000     -10.342208      -281.4258
   5   2.0000     -10.216759      -278.0122
   6   2.0000     -10.167837      -276.6809
   7   2.0000     -10.152776      -276.2711
   8   2.0000      -1.033578       -28.1251
   9   2.0000      -0.928076       -25.2542
  10   2.0000      -0.911540       -24.8043
  11   2.0000      -0.872023       -23.7290
  12   2.0000      -0.751446       -20.4479
  13   2.0000      -0.673122       -18.3166
  14   2.0000      -0.630353       -17.1528
  15   2.0000      -0.613442       -16.6926
  16   2.0000      -0.585568       -15.9341
  17   2.0000      -0.540245       -14.7008
  18   2.0000      -0.524649       -14.2764
  19   2.0000      -0.504289       -13.7224
  20   2.0000      -0.470813       -12.8115
  21   2.0000      -0.459491       -12.5034
  22   2.0000      -0.435661       -11.8549
  23   2.0000      -0.406300       -11.0560
  24   2.0000      -0.363461        -9.8903
  25   2.0000      -0.343449        -9.3457
  26   2.0000      -0.332016        -9.0346
  27   2.0000      -0.310354        -8.4452
  28   2.0000      -0.300123        -8.1667
  29   2.0000      -0.279871        -7.6157
  30   2.0000      -0.168278        -4.5791
  31   2.0000      -0.162728        -4.4281
  32   0.0000      -0.023257        -0.6329
  33   0.0000      -0.005232        -0.1424
  34   0.0000       0.015365         0.4181
  35   0.0000       0.032050         0.8721
  36   0.0000       0.054206         1.4750

MULLIKEN ATOMIC CHARGES
-----------------------
   0 C :    0.895876
   1 N :   -0.389551
   2 C :    0.215688
   3 C :    0.726149
   4 H :   -0.523464
   5 H :    0.057505
   6 O :   -0.678845
   7 C :    1.022337
   8 N :    0.443879
   9 N :    0.040163
  10 H :   -0.117983
  11 H :   -0.084075
  12 H :   -0.291255
  13 H :   -0.441425
  14 H :   -0.185926
  15 H :    0.114701
  16 H :   -0.511741
  17 H :   -0.221308
  18 H :   -0.070726
Sum of atomic charges:   -0.0000000

LOEWDIN ATOMIC CHARGES
----------------------
   0 C :    0.067276
   1 N :    0.044506
   2 C :   -0.016406
   3 C :   -0.096380
   4 H :   -0.000003
   5 H :   -0.006879
   6 O :   -0.413022
   7 C :   -0.057433
   8 N :    0.305142
   9 N :    0.230730
  10 H :    0.003681
  11 H :    0.004455
  12 H :    0.033571
  13 H :   -0.188629
  14 H :    0.024472
  15 H :    0.022977
  16 H :    0.015130
  17 H :    0.006298
  18 H :    0.020513

  Mayer bond orders larger than 0.100000
B(  0-C ,  1-N ) :   0.9639 B(  0-C ,  2-C ) :   1.1383 B(  0-C , 12-H ) :  -0.1968
B(  0-C , 15-H ) :   0.6778 B(  0-C , 16-H ) :   0.8015 B(  0-C , 17-H ) :   0.1736
B(  0-C , 18-H ) :   0.1243 B(  1-N ,  7-C ) :   1.0443 B(  1-N ,  8-N ) :   0.1693
B(  1-N ,  9-N ) :   0.1856 B(  1-N , 12-H ) :   1.2892 B(  1-N , 15-H ) :   0.2007
B(  1-N , 16-H ) :   0.1559 B(  2-C ,  3-C ) :   1.0658 B(  2-C ,  4-H ) :   0.1710
B(  2-C ,  5-H ) :   0.1390 B(  2-C , 15-H ) :   0.1291 B(  2-C , 17-H ) :   0.8423
B(  2-C , 18-H ) :   0.8217 B(  3-C ,  4-H ) :   0.9310 B(  3-C ,  5-H ) :   0.8092
B(  3-C ,  6-O ) :   1.1011 B(  3-C , 17-H ) :   0.1182 B(  3-C , 18-H ) :   0.1270
B(  6-O , 13-H ) :   0.3832 B(  7-C ,  8-N ) :   1.1824 B(  7-C ,  9-N ) :   0.8331
B(  7-C , 10-H ) :  -0.1164 B(  7-C , 12-H ) :  -0.2151 B(  7-C , 13-H ) :  -0.1655
B(  7-C , 14-H ) :  -0.1102 B(  8-N ,  9-N ) :   0.1652 B(  8-N , 13-H ) :   1.1440
B(  8-N , 14-H ) :   1.1608 B(  9-N , 10-H ) :   1.1298 B(  9-N , 11-H ) :   1.1468
B( 10-H , 11-H ) :  -0.1436 B( 13-H , 14-H ) :  -0.2241 B( 15-H , 16-H ) :  -0.1790

Dispersion correction           -0.028925691
FINAL SINGLE POINT ENERGY      -398.029684952885

DIPOLE MOMENT
-------------
                                X             Y             Z
Electronic contribution:      1.89956       1.95572       3.66985
Nuclear contribution   :      0.51577      -3.31768      -1.36804
                        -----------------------------------------
Total Dipole Moment    :      2.41533      -1.36196       2.30182
                        -----------------------------------------
Magnitude (a.u.)       :      3.60376
Magnitude (Debye)      :      9.16004

Rotational constants in cm-1:     0.111492     0.050787     0.040163
Rotational constants in MHz :  3342.457536  1522.560798  1204.057148

                             ****ORCA TERMINATED NORMALLY****
TOTAL RUN TIME: 0 days 0 hours 0 minutes 47 seconds 787 msec
