                         Program Version 5.0.0 -  RELEASE  -
|  1> !B3LYP D3BJ RIJCOSX def2-SVPD def2/J TightSCF
|  2> *xyz 0 1
|  3> C          2.49670       -1.84416       -5.73570
|  4> F          2.45973       -0.50920       -5.50576
|  5> H          2.07863       -2.36209       -4.89793
|  6> H          3.51118       -2.15388       -5.87645
|  7> H          1.92949       -2.07059       -6.61428
|  8> *
|  9>
| 10> %MaxCore 64000
| 11>
| 12> %pal nprocs 4
| 13> end
| 14>
| 15> %scf
| 16>   MaxIter 150
| 17> end
| 18>
| 19>
| 20>                          ****END OF INPUT****

CARTESIAN COORDINATES (ANGSTROEM)
---------------------------------
  C      2.496700   -1.844160   -5.735700
  F      2.459730   -0.509200   -5.505760
  H      2.078630   -2.362090   -4.897930
  H      3.511180   -2.153880   -5.876450
  H      1.929490   -2.070590   -6.614280

 Total Charge           Charge          ....    0
 Multiplicity           Mult            ....    1
 Number of Electrons    NEL             ....   18
 Basis Dimension        Dim             ....   67

ORBITAL ENERGIES
----------------

  NO   OCC          E(Eh)            E(eV)
   0   2.0000     -24.683094      -671.6611
   1   2.0000     -10.254877      -279.0494
   2   2.0000      -1.188799       -32.3489
   3   2.0000      -0.701097       -19.0778
   4   2.0000      -0.503602       -13.7037
   5   2.0000      -0.495391       -13.4803
   6   2.0000      -0.495380       -13.4800
   7   2.0000      -0.352452        -9.5907
   8   2.0000      -0.352432        -9.5902
   9   0.0000       0.023941         0.6515
  10   0.0000       0.061347         1.6693
  11   0.0000       0.098797         2.6884
  12   0.0000       0.098803         2.6886
  13   0.0000       0.144248         3.9252

MULLIKEN ATOMIC CHARGES
-----------------------
   0 C :    1.090357
   1 F :   -0.474930
   2 H :   -0.205158
   3 H :   -0.205235
   4 H :   -0.205034
Sum of atomic charges:   -0.0000000

LOEWDIN ATOMIC CHARGES
----------------------
   0 C :    0.267499
   1 F :   -0.244886
   2 H :   -0.007551
   3 H :   -0.007545
   4 H :   -0.007517

  Mayer bond orders larger than 0.100000
B(  0-C ,  1-F ) :   0.8506 B(  0-C ,  2-H ) :   0.9022 B(  0-C ,  3-H ) :   0.9027
B(  0-C ,  4-H ) :   0.9027

Dispersion correction           -0.002121004
FINAL SINGLE POINT ENERGY      -139.581223722078

DIPOLE MOMENT
-------------
                                X             Y             Z
Electronic contribution:     -0.07976       2.88087       0.49609
Nuclear contribution   :      0.09898      -3.57380      -0.61557
                        -----------------------------------------
Total Dipole Moment    :      0.01922      -0.69293      -0.11948
                        -----------------------------------------
Magnitude (a.u.)       :      0.70342
Magnitude (Debye)      :      1.78796

Rotational constants in cm-1:     5.477724     0.890368     0.890367
Rotational constants in MHz : 164218.041992 26692.553985 26692.534390

                             ****ORCA TERMINATED NORMALLY****
TOTAL RUN TIME: 0 days 0 hours 0 minutes 3 seconds 199 msec
