                         Program Version 5.0.0 -  RELEASE  -
|  1> !B3LYP D3BJ RIJCOSX def2-SVPD def2/J TightSCF
|  2> *xyz 0 1
|  3> C          4.99986       -1.59613       -5.92488
|  4> C          5.28156       -1.97413       -4.53576
|  5> C          4.79250       -1.36132       -3.45730
|  6> N          3.93990       -0.37492       -3.55736
|  7> N          5.25986       -1.75422       -2.23913
|  8> H          5.92282       -2.52145       -2.18672
|  9> H          4.65468       -1.64040       -1.44202
| 10> H          5.70914       -2.87560       -4.38702
| 11> H          3.33010       -0.31764       -4.36125
| 12> H          3.69849        0.11447       -2.70833
| 13> H          5.52133       -2.25562       -6.58673
| 14> H          5.32493       -0.59081       -6.09388
| 15> H          3.94785       -1.66624       -6.10727
| 16> *
| 17>
| 18> %MaxCore 64000
| 19>
| 20> %pal nprocs 4
| 21> end
| 22>
| 23> %scf
| 24>   MaxIter 150
| 25> end
| 26>
| 27>
| 28>                          ****END OF INPUT****

CARTESIAN COORDINATES (ANGSTROEM)
---------------------------------
  C      4.999860   -1.596130   -5.924880
  C      5.281560   -1.974130   -4.535760
  C      4.792500   -1.361320   -3.457300
  N      3.939900   -0.374920   -3.557360
  N      5.259860   -1.754220   -2.239130
  H      5.922820   -2.521450   -2.186720
  H      4.654680   -1.640400   -1.442020
  H      5.709140   -2.875600   -4.387020
  H      3.330100   -0.317640   -4.361250
  H      3.698490    0.114470   -2.708330
  H      5.521330   -2.255620   -6.586730
  H      5.324930   -0.590810   -6.093880
  H      3.947850   -1.666240   -6.107270

 Total Charge           Charge          ....    0
 Multiplicity           Mult            ....    1
 Number of Electrons    NEL             ....   40
 Basis Dimension        Dim             ....  164

ORBITAL ENERGIES
----------------

  NO   OCC          E(Eh)            E(eV)
   0   2.0000     -14.335162      -390.0796
   1   2.0000     -14.324930      -389.8012
   2   2.0000     -10.222417      -278.1661
   3   2.0000     -10.148313      -276.1496
   4   2.0000     -10.108315      -275.0612
   5   2.0000      -0.952582       -25.9211
   6   2.0000      -0.861147       -23.4330
   7   2.0000      -0.742872       -20.2146
   8   2.0000      -0.649463       -17.6728
   9   2.0000      -0.582217       -15.8429
  10   2.0000      -0.544085       -14.8053
  11   2.0000      -0.501843       -13.6558
  12   2.0000      -0.478473       -13.0199
  13   2.0000      -0.429712       -11.6931
  14   2.0000      -0.405601       -11.0370
  15   2.0000      -0.373135       -10.1535
  16   2.0000      -0.359098        -9.7716
  17   2.0000      -0.338627        -9.2145
  18   2.0000      -0.265797        -7.2327
  19   2.0000      -0.161165        -4.3855
  20   0.0000       0.013480         0.3668
  21   0.0000       0.040788         1.1099
  22   0.0000       0.053782         1.4635
  23   0.0000       0.069052         1.8790
  24   0.0000       0.081833         2.2268

MULLIKEN ATOMIC CHARGES
-----------------------
   0 C :    1.000683
   1 C :   -0.638816
   2 C :    0.781452
   3 N :    0.208707
   4 N :    0.094410
   5 H :   -0.077771
   6 H :   -0.157262
   7 H :   -0.509950
   8 H :   -0.096091
   9 H :   -0.259859
  10 H :   -0.174774
  11 H :   -0.053778
  12 H :   -0.116953
Sum of atomic charges:   -0.0000000

LOEWDIN ATOMIC CHARGES
----------------------
   0 C :    0.093228
   1 C :   -0.053594
   2 C :   -0.237847
   3 N :    0.205047
   4 N :    0.183772
   5 H :   -0.003875
   6 H :   -0.028488
   7 H :   -0.066150
   8 H :   -0.000192
   9 H :   -0.007259
  10 H :   -0.023697
  11 H :   -0.024582
  12 H :   -0.036361

  Mayer bond orders larger than 0.100000
B(  0-C ,  1-C ) :   1.2336 B(  0-C ,  7-H ) :   0.1783 B(  0-C , 10-H ) :   0.6853
B(  0-C , 11-H ) :   0.6181 B(  0-C , 12-H ) :   0.7160 B(  1-C ,  2-C ) :   1.4070
B(  1-C ,  3-N ) :   0.3176 B(  1-C ,  4-N ) :   0.3359 B(  1-C ,  7-H ) :   0.9347
B(  1-C , 10-H ) :   0.3319 B(  1-C , 11-H ) :   0.3518 B(  1-C , 12-H ) :   0.2198
B(  2-C ,  3-N ) :   1.0894 B(  2-C ,  4-N ) :   0.8627 B(  3-N ,  8-H ) :   1.1153
B(  3-N ,  9-H ) :   1.2276 B(  4-N ,  5-H ) :   1.0836 B(  4-N ,  6-H ) :   1.1277
B(  5-H ,  6-H ) :  -0.1140 B(  7-H , 10-H ) :  -0.1254 B(  8-H ,  9-H ) :  -0.1672
B( 10-H , 11-H ) :   0.1090

Dispersion correction           -0.015739843
FINAL SINGLE POINT ENERGY      -228.324961563986

DIPOLE MOMENT
-------------
                                X             Y             Z
Electronic contribution:     -0.13066       0.59815       3.07334
Nuclear contribution   :     -0.50372      -0.52081      -2.36443
                        -----------------------------------------
Total Dipole Moment    :     -0.63438       0.07734       0.70891
                        -----------------------------------------
Magnitude (a.u.)       :      0.95445
Magnitude (Debye)      :      2.42602

Rotational constants in cm-1:     0.322219     0.132365     0.095965
Rotational constants in MHz :  9659.878542  3968.206057  2876.950547

                             ****ORCA TERMINATED NORMALLY****
TOTAL RUN TIME: 0 days 0 hours 0 minutes 15 seconds 619 msec
