                         Program Version 5.0.0 -  RELEASE  -
|  1> !B3LYP D3BJ RIJCOSX def2-SVPD def2/J TightSCF
|  2> *xyz 0 1
|  3> C          4.99986       -1.59613       -5.92488
|  4> N          5.28156       -1.97413       -4.53576
|  5> C          4.79250       -1.36132       -3.45730
|  6> C          3.93990       -0.37492       -3.55736
|  7> N          5.25986       -1.75422       -2.23913
|  8> H          5.92282       -2.52145       -2.18672
|  9> H          4.65468       -1.64040       -1.44202
| 10> H          5.70914       -2.87560       -4.38702
| 11> H          3.33010       -0.31764       -4.36125
| 12> H          3.69849        0.11447       -2.70833
| 13> H          5.52133       -2.25562       -6.58673
| 14> H          5.32493       -0.59081       -6.09388
| 15> H          3.94785       -1.66624       -6.10727
| 16> *
| 17>
| 18> %MaxCore 64000
| 19>
| 20> %pal nprocs 4
| 21> end
| 22>
| 23> %scf
| 24>   MaxIter 150
| 25> end
| 26>
| 27>
| 28>                          ****END OF INPUT****

CARTESIAN COORDINATES (ANGSTROEM)
---------------------------------
  C      4.999860   -1.596130   -5.924880
  N      5.281560   -1.974130   -4.535760
  C      4.792500   -1.361320   -3.457300
  C      3.939900   -0.374920   -3.557360
  N      5.259860   -1.754220   -2.239130
  H      5.922820   -2.521450   -2.186720
  H      4.654680   -1.640400   -1.442020
  H      5.709140   -2.875600   -4.387020
  H      3.330100   -0.317640   -4.361250
  H      3.698490    0.114470   -2.708330
  H      5.521330   -2.255620   -6.586730
  H      5.324930   -0.590810   -6.093880
  H      3.947850   -1.666240   -6.107270

 Total Charge           Charge          ....    0
 Multiplicity           Mult            ....    1
 Number of Electrons    NEL             ....   40
 Basis Dimension        Dim             ....  164

ORBITAL ENERGIES
----------------

  NO   OCC          E(Eh)            E(eV)
   0   2.0000     -14.332868      -390.0172
   1   2.0000     -14.327393      -389.8682
   2   2.0000     -10.226341      -278.2729
   3   2.0000     -10.209022      -277.8016
   4   2.0000     -10.098819      -274.8028
   5   2.0000      -0.952580       -25.9210
   6   2.0000      -0.868263       -23.6267
   7   2.0000      -0.719330       -19.5740
   8   2.0000      -0.691106       -18.8059
   9   2.0000      -0.564957       -15.3733
  10   2.0000      -0.542742       -14.7688
  11   2.0000      -0.511831       -13.9276
  12   2.0000      -0.457034       -12.4365
  13   2.0000      -0.437099       -11.8941
  14   2.0000      -0.418480       -11.3874
  15   2.0000      -0.386145       -10.5076
  16   2.0000      -0.383775       -10.4431
  17   2.0000      -0.354433        -9.6446
  18   2.0000      -0.250924        -6.8280
  19   2.0000      -0.174796        -4.7564
  20   0.0000       0.013572         0.3693
  21   0.0000       0.035920         0.9774
  22   0.0000       0.051728         1.4076
  23   0.0000       0.069316         1.8862
  24   0.0000       0.082540         2.2460

MULLIKEN ATOMIC CHARGES
-----------------------
   0 C :    1.286971
   1 N :   -0.428447
   2 C :    0.564972
   3 C :    0.450153
   4 N :    0.127625
   5 H :   -0.199894
   6 H :   -0.086157
   7 H :   -0.373349
   8 H :   -0.270265
   9 H :   -0.461985
  10 H :   -0.479322
  11 H :   -0.088063
  12 H :   -0.042238
Sum of atomic charges:    0.0000000

LOEWDIN ATOMIC CHARGES
----------------------
   0 C :    0.214225
   1 N :   -0.043299
   2 C :   -0.243600
   3 C :    0.162066
   4 N :    0.190028
   5 H :   -0.019478
   6 H :   -0.008943
   7 H :    0.006098
   8 H :   -0.103747
   9 H :   -0.098542
  10 H :   -0.019123
  11 H :   -0.012857
  12 H :   -0.022826

  Mayer bond orders larger than 0.100000
B(  0-C ,  1-N ) :   0.9442 B(  0-C ,  7-H ) :  -0.1255 B(  0-C , 10-H ) :   0.7717
B(  0-C , 11-H ) :   0.7860 B(  0-C , 12-H ) :   0.8032 B(  1-N ,  2-C ) :   1.0389
B(  1-N ,  3-C ) :   0.3637 B(  1-N ,  4-N ) :   0.1399 B(  1-N ,  7-H ) :   1.2980
B(  1-N , 10-H ) :   0.1785 B(  1-N , 11-H ) :   0.1689 B(  1-N , 12-H ) :   0.1279
B(  2-C ,  3-C ) :   1.6413 B(  2-C ,  4-N ) :   0.9310 B(  2-C ,  7-H ) :  -0.1889
B(  2-C ,  8-H ) :   0.2229 B(  2-C ,  9-H ) :   0.2843 B(  3-C ,  4-N ) :   0.2570
B(  3-C ,  8-H ) :   0.7057 B(  3-C ,  9-H ) :   0.6760 B(  4-N ,  5-H ) :   1.0996
B(  4-N ,  6-H ) :   1.1184 B(  5-H ,  6-H ) :  -0.1198 B(  8-H ,  9-H ) :   0.1228

Dispersion correction           -0.015689410
FINAL SINGLE POINT ENERGY      -228.316164625272

DIPOLE MOMENT
-------------
                                X             Y             Z
Electronic contribution:      1.10710      -0.85687       2.11530
Nuclear contribution   :     -0.77547      -0.19690      -2.16626
                        -----------------------------------------
Total Dipole Moment    :      0.33163      -1.05377      -0.05096
                        -----------------------------------------
Magnitude (a.u.)       :      1.10590
Magnitude (Debye)      :      2.81097

Rotational constants in cm-1:     0.340409     0.131955     0.097296
Rotational constants in MHz : 10205.195281  3955.909122  2916.861706

                             ****ORCA TERMINATED NORMALLY****
TOTAL RUN TIME: 0 days 0 hours 0 minutes 14 seconds 524 msec
