                         Program Version 5.0.0 -  RELEASE  -
|  1> !B3LYP D3BJ RIJCOSX def2-SVPD def2/J TightSCF
|  2> *xyz 0 1
|  3> C          4.99986       -1.59613       -5.92488
|  4> N          5.28156       -1.97413       -4.53576
|  5> C          4.79250       -1.36132       -3.45730
|  6> N          3.93990       -0.37492       -3.55736
|  7> C          5.25986       -1.75422       -2.23913
|  8> H          5.92282       -2.52145       -2.18672
|  9> H          4.65468       -1.64040       -1.44202
| 10> H          5.70914       -2.87560       -4.38702
| 11> H          3.33010       -0.31764       -4.36125
| 12> H          3.69849        0.11447       -2.70833
| 13> H          5.52133       -2.25562       -6.58673
| 14> H          5.32493       -0.59081       -6.09388
| 15> H          3.94785       -1.66624       -6.10727
| 16> *
| 17>
| 18> %MaxCore 64000
| 19>
| 20> %pal nprocs 4
| 21> end
| 22>
| 23> %scf
| 24>   MaxIter 150
| 25> end
| 26>
| 27>
| 28>                          ****END OF INPUT****

CARTESIAN COORDINATES (ANGSTROEM)
---------------------------------
  C      4.999860   -1.596130   -5.924880
  N      5.281560   -1.974130   -4.535760
  C      4.792500   -1.361320   -3.457300
  N      3.939900   -0.374920   -3.557360
  C      5.259860   -1.754220   -2.239130
  H      5.922820   -2.521450   -2.186720
  H      4.654680   -1.640400   -1.442020
  H      5.709140   -2.875600   -4.387020
  H      3.330100   -0.317640   -4.361250
  H      3.698490    0.114470   -2.708330
  H      5.521330   -2.255620   -6.586730
  H      5.324930   -0.590810   -6.093880
  H      3.947850   -1.666240   -6.107270

 Total Charge           Charge          ....    0
 Multiplicity           Mult            ....    1
 Number of Electrons    NEL             ....   40
 Basis Dimension        Dim             ....  164

ORBITAL ENERGIES
----------------

  NO   OCC          E(Eh)            E(eV)
   0   2.0000     -14.335551      -390.0902
   1   2.0000     -14.331936      -389.9918
   2   2.0000     -10.230367      -278.3824
   3   2.0000     -10.217443      -278.0308
   4   2.0000     -10.092840      -274.6401
   5   2.0000      -0.962797       -26.1990
   6   2.0000      -0.879675       -23.9372
   7   2.0000      -0.732901       -19.9433
   8   2.0000      -0.657853       -17.9011
   9   2.0000      -0.602135       -16.3849
  10   2.0000      -0.544288       -14.8108
  11   2.0000      -0.496769       -13.5178
  12   2.0000      -0.480643       -13.0790
  13   2.0000      -0.452429       -12.3112
  14   2.0000      -0.407793       -11.0966
  15   2.0000      -0.390620       -10.6293
  16   2.0000      -0.381585       -10.3835
  17   2.0000      -0.351819        -9.5735
  18   2.0000      -0.258534        -7.0351
  19   2.0000      -0.159403        -4.3376
  20   0.0000       0.009152         0.2490
  21   0.0000       0.043873         1.1939
  22   0.0000       0.045588         1.2405
  23   0.0000       0.062168         1.6917
  24   0.0000       0.082644         2.2489

MULLIKEN ATOMIC CHARGES
-----------------------
   0 C :    1.334848
   1 N :   -0.384412
   2 C :    0.415814
   3 N :    0.184906
   4 C :    0.605002
   5 H :   -0.346512
   6 H :   -0.532712
   7 H :   -0.292186
   8 H :   -0.125992
   9 H :   -0.116635
  10 H :   -0.454182
  11 H :   -0.129893
  12 H :   -0.158046
Sum of atomic charges:    0.0000000

LOEWDIN ATOMIC CHARGES
----------------------
   0 C :    0.208671
   1 N :   -0.030420
   2 C :   -0.242755
   3 N :    0.203265
   4 C :    0.146654
   5 H :   -0.115938
   6 H :   -0.122888
   7 H :    0.022225
   8 H :   -0.011378
   9 H :    0.010285
  10 H :   -0.017248
  11 H :   -0.019118
  12 H :   -0.031355

  Mayer bond orders larger than 0.100000
B(  0-C ,  1-N ) :   0.9448 B(  0-C ,  7-H ) :  -0.1361 B(  0-C , 10-H ) :   0.7437
B(  0-C , 11-H ) :   0.7903 B(  0-C , 12-H ) :   0.7926 B(  1-N ,  2-C ) :   1.1053
B(  1-N ,  3-N ) :   0.1811 B(  1-N ,  4-C ) :   0.2243 B(  1-N ,  7-H ) :   1.2059
B(  1-N , 10-H ) :   0.1887 B(  1-N , 11-H ) :   0.1588 B(  1-N , 12-H ) :   0.1764
B(  2-C ,  3-N ) :   1.1130 B(  2-C ,  4-C ) :   1.6051 B(  2-C ,  5-H ) :   0.2132
B(  2-C ,  6-H ) :   0.2180 B(  2-C ,  7-H ) :  -0.1395 B(  3-N ,  4-C ) :   0.2194
B(  3-N ,  8-H ) :   1.1161 B(  3-N ,  9-H ) :   1.1591 B(  4-C ,  5-H ) :   0.7158
B(  4-C ,  6-H ) :   0.6759 B(  5-H ,  6-H ) :   0.1581 B(  8-H ,  9-H ) :  -0.1732

Dispersion correction           -0.015600043
FINAL SINGLE POINT ENERGY      -228.309629422483

DIPOLE MOMENT
-------------
                                X             Y             Z
Electronic contribution:     -0.14844       0.48447       0.78613
Nuclear contribution   :     -0.50812      -0.47627      -1.89926
                        -----------------------------------------
Total Dipole Moment    :     -0.65655       0.00820      -1.11313
                        -----------------------------------------
Magnitude (a.u.)       :      1.29236
Magnitude (Debye)      :      3.28491

Rotational constants in cm-1:     0.323645     0.137193     0.098606
Rotational constants in MHz :  9702.637007  4112.943433  2956.125886

                             ****ORCA TERMINATED NORMALLY****
TOTAL RUN TIME: 0 days 0 hours 0 minutes 16 seconds 427 msec
