                         Program Version 5.0.0 -  RELEASE  -
|  1> !M062X D3Zero RIJCOSX def2-SVP def2/J TightSCF
|  2> *xyz -1 1
|  3> C         -0.72184       -0.99951       -3.43931
|  4> C          0.28725       -1.71177       -2.52740
|  5> H          1.13178       -2.06738       -3.15940
|  6> H         -0.20414       -2.63733       -2.17048
|  7> O          0.71050       -0.92751       -1.48177
|  8> H         -1.01315       -1.65739       -4.23129
|  9> H         -0.27123       -0.12142       -3.85259
| 10> H         -1.58442       -0.72333       -2.86958
| 11> *
| 12> %MaxCore 64000
| 13>
| 14> %pal nprocs 4
| 15> end
| 16>
| 17> %scf
| 18>   MaxIter 150
| 19> end
| 20>
| 21>
| 22>                          ****END OF INPUT****

CARTESIAN COORDINATES (ANGSTROEM)
---------------------------------
  C     -0.721840   -0.999510   -3.439310
  C      0.287250   -1.711770   -2.527400
  H      1.131780   -2.067380   -3.159400
  H     -0.204140   -2.637330   -2.170480
  O      0.710500   -0.927510   -1.481770
  H     -1.013150   -1.657390   -4.231290
  H     -0.271230   -0.121420   -3.852590
  H     -1.584420   -0.723330   -2.869580

 Total Charge           Charge          ....   -1
 Multiplicity           Mult            ....    1
 Number of Electrons    NEL             ....   26
 Basis Dimension        Dim             ....   67

ORBITAL ENERGIES
----------------

  NO   OCC          E(Eh)            E(eV)
   0   2.0000     -19.238423      -523.5041
   1   2.0000     -10.339289      -281.3463
   2   2.0000     -10.327811      -281.0340
   3   2.0000      -0.734525       -19.9875
   4   2.0000      -0.593104       -16.1392
   5   2.0000      -0.427359       -11.6290
   6   2.0000      -0.302468        -8.2306
   7   2.0000      -0.278853        -7.5880
   8   2.0000      -0.218054        -5.9335
   9   2.0000      -0.200805        -5.4642
  10   2.0000      -0.134781        -3.6676
  11   2.0000       0.010684         0.2907
  12   2.0000       0.012587         0.3425
  13   0.0000       0.291486         7.9317
  14   0.0000       0.336622         9.1600
  15   0.0000       0.350181         9.5289
  16   0.0000       0.357034         9.7154
  17   0.0000       0.399535        10.8719

MULLIKEN ATOMIC CHARGES
-----------------------
   0 C :   -0.020563
   1 C :    0.236468
   2 H :   -0.151967
   3 H :   -0.151261
   4 O :   -0.750443
   5 H :   -0.089530
   6 H :   -0.037025
   7 H :   -0.035679
Sum of atomic charges:   -1.0000000

LOEWDIN ATOMIC CHARGES
----------------------
   0 C :   -0.116288
   1 C :    0.012210
   2 H :   -0.077970
   3 H :   -0.076956
   4 O :   -0.694018
   5 H :   -0.028930
   6 H :   -0.009488
   7 H :   -0.008560

  Mayer bond orders larger than 0.100000
B(  0-C ,  1-C ) :   0.9984 B(  0-C ,  5-H ) :   0.9345 B(  0-C ,  6-H ) :   0.9638
B(  0-C ,  7-H ) :   0.9647 B(  1-C ,  2-H ) :   0.8834 B(  1-C ,  3-H ) :   0.8845
B(  1-C ,  4-O ) :   1.4681

Dispersion correction           -0.000014978
FINAL SINGLE POINT ENERGY      -154.192914090871

DIPOLE MOMENT
-------------
                                X             Y             Z
Electronic contribution:      1.51581       0.87696       2.53892
Nuclear contribution   :     -2.24828      -1.06600      -3.62481
                        -----------------------------------------
Total Dipole Moment    :     -0.73247      -0.18904      -1.08588
                        -----------------------------------------
Magnitude (a.u.)       :      1.32340
Magnitude (Debye)      :      3.36382

Rotational constants in cm-1:     1.278116     0.325414     0.286672
Rotational constants in MHz : 38316.964654  9755.653004  8594.216906

                             ****ORCA TERMINATED NORMALLY****
TOTAL RUN TIME: 0 days 0 hours 0 minutes 8 seconds 450 msec
