                         Program Version 5.0.0 -  RELEASE  -
|  1> !M062X D3Zero RIJCOSX def2-SVP def2/J TightSCF
|  2> *xyz 1 1
|  3> C          3.48828        1.60092       -1.52204
|  4> C          4.34297        1.31342       -2.75683
|  5> N          2.81029        0.42878       -1.01420
|  6> H          2.71455        2.33145       -1.76030
|  7> H          4.09099        2.06315       -0.73338
|  8> C          3.29098       -0.41802       -0.12908
|  9> N          2.51754       -1.43202        0.23936
| 10> N          4.53549       -0.28441        0.39580
| 11> H          5.04363        0.57189        0.22290
| 12> H          4.72335       -0.73327        1.28180
| 13> H          1.93479        0.10230       -1.40379
| 14> H          1.67464       -1.50562       -0.31610
| 15> H          2.92850       -2.21850        0.72549
| 16> H          3.73575        0.86277       -3.51385
| 17> H          5.13754        0.64699       -2.49333
| 18> H          4.75374        2.22930       -3.12740
| 19> *
| 20> %MaxCore 64000
| 21>
| 22> %pal nprocs 4
| 23> end
| 24>
| 25> %scf
| 26>   MaxIter 150
| 27> end
| 28>
| 29>
| 30>                          ****END OF INPUT****

CARTESIAN COORDINATES (ANGSTROEM)
---------------------------------
  C      3.488280    1.600920   -1.522040
  C      4.342970    1.313420   -2.756830
  N      2.810290    0.428780   -1.014200
  H      2.714550    2.331450   -1.760300
  H      4.090990    2.063150   -0.733380
  C      3.290980   -0.418020   -0.129080
  N      2.517540   -1.432020    0.239360
  N      4.535490   -0.284410    0.395800
  H      5.043630    0.571890    0.222900
  H      4.723350   -0.733270    1.281800
  H      1.934790    0.102300   -1.403790
  H      1.674640   -1.505620   -0.316100
  H      2.928500   -2.218500    0.725490
  H      3.735750    0.862770   -3.513850
  H      5.137540    0.646990   -2.493330
  H      4.753740    2.229300   -3.127400

 Total Charge           Charge          ....    1
 Multiplicity           Mult            ....    1
 Number of Electrons    NEL             ....   48
 Basis Dimension        Dim             ....  134

ORBITAL ENERGIES
----------------

  NO   OCC          E(Eh)            E(eV)
   0   2.0000     -14.989392      -407.8821
   1   2.0000     -14.984681      -407.7539
   2   2.0000     -14.982036      -407.6819
   3   2.0000     -10.889395      -296.3155
   4   2.0000     -10.761131      -292.8253
   5   2.0000     -10.686876      -290.8047
   6   2.0000      -1.322976       -36.0000
   7   2.0000      -1.201682       -32.6994
   8   2.0000      -1.185976       -32.2720
   9   2.0000      -1.021147       -27.7868
  10   2.0000      -0.918246       -24.9868
  11   2.0000      -0.886932       -24.1346
  12   2.0000      -0.857660       -23.3381
  13   2.0000      -0.821856       -22.3639
  14   2.0000      -0.761940       -20.7334
  15   2.0000      -0.752970       -20.4893
  16   2.0000      -0.724251       -19.7079
  17   2.0000      -0.714284       -19.4367
  18   2.0000      -0.670107       -18.2345
  19   2.0000      -0.627096       -17.0642
  20   2.0000      -0.595645       -16.2083
  21   2.0000      -0.574849       -15.6424
  22   2.0000      -0.541471       -14.7342
  23   2.0000      -0.511270       -13.9124
  24   0.0000      -0.119752        -3.2586
  25   0.0000      -0.105576        -2.8729
  26   0.0000      -0.073282        -1.9941
  27   0.0000      -0.056595        -1.5400
  28   0.0000      -0.030831        -0.8390

MULLIKEN ATOMIC CHARGES
-----------------------
   0 C :   -0.040349
   1 C :   -0.028963
   2 N :   -0.156656
   3 H :    0.098664
   4 H :    0.079576
   5 C :    0.091819
   6 N :   -0.070069
   7 N :   -0.103112
   8 H :    0.179516
   9 H :    0.188994
  10 H :    0.177276
  11 H :    0.180797
  12 H :    0.195894
  13 H :    0.066626
  14 H :    0.050416
  15 H :    0.089570
Sum of atomic charges:    1.0000000

LOEWDIN ATOMIC CHARGES
----------------------
   0 C :    0.034412
   1 C :   -0.049778
   2 N :    0.027159
   3 H :    0.053942
   4 H :    0.037475
   5 C :    0.161987
   6 N :    0.036812
   7 N :    0.019082
   8 H :    0.107336
   9 H :    0.114697
  10 H :    0.108375
  11 H :    0.111208
  12 H :    0.118696
  13 H :    0.037935
  14 H :    0.029673
  15 H :    0.050990

  Mayer bond orders larger than 0.100000
B(  0-C ,  1-C ) :   1.0794 B(  0-C ,  2-N ) :   0.9113 B(  0-C ,  3-H ) :   0.9462
B(  0-C ,  4-H ) :   0.9529 B(  1-C , 13-H ) :   0.9688 B(  1-C , 14-H ) :   0.9685
B(  1-C , 15-H ) :   0.9657 B(  2-N ,  5-C ) :   1.3952 B(  2-N , 10-H ) :   0.9004
B(  5-C ,  6-N ) :   1.3983 B(  5-C ,  7-N ) :   1.3712 B(  6-N , 11-H ) :   0.9151
B(  6-N , 12-H ) :   0.9176 B(  7-N ,  8-H ) :   0.9188 B(  7-N ,  9-H ) :   0.9205

Dispersion correction           -0.000318319
FINAL SINGLE POINT ENERGY      -284.042180787654

DIPOLE MOMENT
-------------
                                X             Y             Z
Electronic contribution:     -1.94588      -3.05200       3.78653
Nuclear contribution   :      1.59382       2.33278      -3.02574
                        -----------------------------------------
Total Dipole Moment    :     -0.35206      -0.71922       0.76079
                        -----------------------------------------
Magnitude (a.u.)       :      1.10455
Magnitude (Debye)      :      2.80755

Rotational constants in cm-1:     0.232230     0.073139     0.063030
Rotational constants in MHz :  6962.079716  2192.649203  1889.578947

                             ****ORCA TERMINATED NORMALLY****
TOTAL RUN TIME: 0 days 0 hours 0 minutes 17 seconds 521 msec
