                         Program Version 5.0.0 -  RELEASE  -
|  1> !M062X D3Zero RIJCOSX def2-SVP def2/J TightSCF
|  2> *xyz 0 1
|  3> C         -0.72184       -0.99951       -3.43931
|  4> C          0.28725       -1.71177       -2.52740
|  5> H          1.13178       -2.06738       -3.15940
|  6> H         -0.20414       -2.63733       -2.17048
|  7> F          0.71050       -0.92751       -1.48177
|  8> H         -1.01315       -1.65739       -4.23129
|  9> H         -0.27123       -0.12142       -3.85259
| 10> H         -1.58442       -0.72333       -2.86958
| 11> *
| 12> %MaxCore 64000
| 13>
| 14> %pal nprocs 4
| 15> end
| 16>
| 17> %scf
| 18>   MaxIter 150
| 19> end
| 20>
| 21>
| 22>                          ****END OF INPUT****

CARTESIAN COORDINATES (ANGSTROEM)
---------------------------------
  C     -0.721840   -0.999510   -3.439310
  C      0.287250   -1.711770   -2.527400
  H      1.131780   -2.067380   -3.159400
  H     -0.204140   -2.637330   -2.170480
  F      0.710500   -0.927510   -1.481770
  H     -1.013150   -1.657390   -4.231290
  H     -0.271230   -0.121420   -3.852590
  H     -1.584420   -0.723330   -2.869580

 Total Charge           Charge          ....    0
 Multiplicity           Mult            ....    1
 Number of Electrons    NEL             ....   26
 Basis Dimension        Dim             ....   67

ORBITAL ENERGIES
----------------

  NO   OCC          E(Eh)            E(eV)
   0   2.0000     -25.223053      -686.3542
   1   2.0000     -10.625550      -289.1359
   2   2.0000     -10.544851      -286.9400
   3   2.0000      -1.303954       -35.4824
   4   2.0000      -0.851559       -23.1721
   5   2.0000      -0.709713       -19.3123
   6   2.0000      -0.579920       -15.7804
   7   2.0000      -0.572532       -15.5794
   8   2.0000      -0.534203       -14.5364
   9   2.0000      -0.475594       -12.9416
  10   2.0000      -0.465007       -12.6535
  11   2.0000      -0.400902       -10.9091
  12   2.0000      -0.394393       -10.7320
  13   0.0000       0.103668         2.8209
  14   0.0000       0.150381         4.0921
  15   0.0000       0.157981         4.2989
  16   0.0000       0.175717         4.7815
  17   0.0000       0.194776         5.3001

MULLIKEN ATOMIC CHARGES
-----------------------
   0 C :   -0.112908
   1 C :    0.198478
   2 H :    0.031969
   3 H :    0.030139
   4 F :   -0.289430
   5 H :    0.040129
   6 H :    0.050853
   7 H :    0.050768
Sum of atomic charges:   -0.0000000

LOEWDIN ATOMIC CHARGES
----------------------
   0 C :   -0.079079
   1 C :    0.113228
   2 H :    0.013610
   3 H :    0.012469
   4 F :   -0.149511
   5 H :    0.032481
   6 H :    0.028216
   7 H :    0.028587

  Mayer bond orders larger than 0.100000
B(  0-C ,  1-C ) :   1.0903 B(  0-C ,  5-H ) :   0.9637 B(  0-C ,  6-H ) :   0.9721
B(  0-C ,  7-H ) :   0.9719 B(  1-C ,  2-H ) :   0.9620 B(  1-C ,  3-H ) :   0.9626
B(  1-C ,  4-F ) :   0.9649

Dispersion correction           -0.000019027
FINAL SINGLE POINT ENERGY      -178.834054150325

DIPOLE MOMENT
-------------
                                X             Y             Z
Electronic contribution:      2.70973       1.04333       4.23105
Nuclear contribution   :     -2.97459      -1.40206      -4.79987
                        -----------------------------------------
Total Dipole Moment    :     -0.26486      -0.35873      -0.56882
                        -----------------------------------------
Magnitude (a.u.)       :      0.72277
Magnitude (Debye)      :      1.83712

Rotational constants in cm-1:     1.257024     0.302702     0.267953
Rotational constants in MHz : 37684.643733  9074.792567  8033.038070

                             ****ORCA TERMINATED NORMALLY****
TOTAL RUN TIME: 0 days 0 hours 0 minutes 8 seconds 0 msec
