                         Program Version 5.0.0 -  RELEASE  -
|  1> !M062X D3Zero RIJCOSX def2-SVP def2/J TightSCF
|  2> *xyz 0 1
|  3> C          3.48828        1.60092       -1.52204
|  4> C          4.34297        1.31342       -2.75683
|  5> C          2.81029        0.42878       -1.01420
|  6> H          2.71455        2.33145       -1.76030
|  7> H          4.09099        2.06315       -0.73338
|  8> C          3.29098       -0.41802       -0.12908
|  9> N          2.51754       -1.43202        0.23936
| 10> N          4.53549       -0.28441        0.39580
| 11> H          5.04363        0.57189        0.22290
| 12> H          4.72335       -0.73327        1.28180
| 13> H          1.93479        0.10230       -1.40379
| 14> H          1.67464       -1.50562       -0.31610
| 15> H          2.92850       -2.21850        0.72549
| 16> H          3.73575        0.86277       -3.51385
| 17> H          5.13754        0.64699       -2.49333
| 18> H          4.75374        2.22930       -3.12740
| 19> *
| 20> %MaxCore 64000
| 21>
| 22> %pal nprocs 4
| 23> end
| 24>
| 25> %scf
| 26>   MaxIter 150
| 27> end
| 28>
| 29>
| 30>                          ****END OF INPUT****

CARTESIAN COORDINATES (ANGSTROEM)
---------------------------------
  C      3.488280    1.600920   -1.522040
  C      4.342970    1.313420   -2.756830
  C      2.810290    0.428780   -1.014200
  H      2.714550    2.331450   -1.760300
  H      4.090990    2.063150   -0.733380
  C      3.290980   -0.418020   -0.129080
  N      2.517540   -1.432020    0.239360
  N      4.535490   -0.284410    0.395800
  H      5.043630    0.571890    0.222900
  H      4.723350   -0.733270    1.281800
  H      1.934790    0.102300   -1.403790
  H      1.674640   -1.505620   -0.316100
  H      2.928500   -2.218500    0.725490
  H      3.735750    0.862770   -3.513850
  H      5.137540    0.646990   -2.493330
  H      4.753740    2.229300   -3.127400

 Total Charge           Charge          ....    0
 Multiplicity           Mult            ....    1
 Number of Electrons    NEL             ....   48
 Basis Dimension        Dim             ....  134

ORBITAL ENERGIES
----------------

  NO   OCC          E(Eh)            E(eV)
   0   2.0000     -14.753021      -401.4501
   1   2.0000     -14.748404      -401.3245
   2   2.0000     -10.585391      -288.0431
   3   2.0000     -10.522344      -286.3275
   4   2.0000     -10.513353      -286.0829
   5   2.0000     -10.466481      -284.8074
   6   2.0000      -1.050761       -28.5927
   7   2.0000      -0.954673       -25.9780
   8   2.0000      -0.859331       -23.3836
   9   2.0000      -0.773921       -21.0595
  10   2.0000      -0.687524       -18.7085
  11   2.0000      -0.649375       -17.6704
  12   2.0000      -0.604656       -16.4535
  13   2.0000      -0.575916       -15.6715
  14   2.0000      -0.526873       -14.3370
  15   2.0000      -0.502220       -13.6661
  16   2.0000      -0.480700       -13.0805
  17   2.0000      -0.462394       -12.5824
  18   2.0000      -0.441236       -12.0066
  19   2.0000      -0.411130       -11.1874
  20   2.0000      -0.388695       -10.5769
  21   2.0000      -0.376349       -10.2410
  22   2.0000      -0.322937        -8.7876
  23   2.0000      -0.205367        -5.5883
  24   0.0000       0.083672         2.2768
  25   0.0000       0.114418         3.1135
  26   0.0000       0.124014         3.3746
  27   0.0000       0.140760         3.8303
  28   0.0000       0.153096         4.1660

MULLIKEN ATOMIC CHARGES
-----------------------
   0 C :   -0.027732
   1 C :    0.006185
   2 C :   -0.159105
   3 H :    0.016353
   4 H :    0.001092
   5 C :   -0.051057
   6 N :   -0.111377
   7 N :   -0.144404
   8 H :    0.129921
   9 H :    0.119701
  10 H :   -0.088553
  11 H :    0.134907
  12 H :    0.120565
  13 H :    0.019816
  14 H :    0.015572
  15 H :    0.018117
Sum of atomic charges:    0.0000000

LOEWDIN ATOMIC CHARGES
----------------------
   0 C :   -0.047737
   1 C :   -0.058721
   2 C :   -0.218130
   3 H :    0.026298
   4 H :    0.011404
   5 C :    0.033080
   6 N :   -0.039473
   7 N :   -0.050422
   8 H :    0.078309
   9 H :    0.067626
  10 H :   -0.008686
  11 H :    0.086556
  12 H :    0.069601
  13 H :    0.020417
  14 H :    0.016007
  15 H :    0.013872

  Mayer bond orders larger than 0.100000
B(  0-C ,  1-C ) :   1.0766 B(  0-C ,  2-C ) :   1.0623 B(  0-C ,  3-H ) :   0.9233
B(  0-C ,  4-H ) :   0.9459 B(  1-C , 13-H ) :   0.9707 B(  1-C , 14-H ) :   0.9735
B(  1-C , 15-H ) :   0.9686 B(  2-C ,  5-C ) :   1.7118 B(  2-C , 10-H ) :   0.9317
B(  5-C ,  6-N ) :   1.2444 B(  5-C ,  7-N ) :   1.2298 B(  6-N , 11-H ) :   0.9283
B(  6-N , 12-H ) :   0.9406 B(  7-N ,  8-H ) :   0.9356 B(  7-N ,  9-H ) :   0.9428

Dispersion correction           -0.000316540
FINAL SINGLE POINT ENERGY      -267.576036497514

DIPOLE MOMENT
-------------
                                X             Y             Z
Electronic contribution:     -1.23826      -3.02571       3.75778
Nuclear contribution   :      1.44676       2.38443      -3.07370
                        -----------------------------------------
Total Dipole Moment    :      0.20850      -0.64128       0.68408
                        -----------------------------------------
Magnitude (a.u.)       :      0.96056
Magnitude (Debye)      :      2.44156

Rotational constants in cm-1:     0.235977     0.073199     0.063283
Rotational constants in MHz :  7074.404583  2194.453291  1897.179599

                             ****ORCA TERMINATED NORMALLY****
TOTAL RUN TIME: 0 days 0 hours 0 minutes 18 seconds 626 msec
