                         Program Version 5.0.0 -  RELEASE  -
|  1> !M062X D3Zero RIJCOSX def2-SVP def2/J TightSCF
|  2> *xyz 0 1
|  3> C          3.48828        1.60092       -1.52204
|  4> C          4.34297        1.31342       -2.75683
|  5> N          2.81029        0.42878       -1.01420
|  6> H          2.71455        2.33145       -1.76030
|  7> H          4.09099        2.06315       -0.73338
|  8> C          3.29098       -0.41802       -0.12908
|  9> C          2.51754       -1.43202        0.23936
| 10> N          4.53549       -0.28441        0.39580
| 11> H          5.04363        0.57189        0.22290
| 12> H          4.72335       -0.73327        1.28180
| 13> H          1.93479        0.10230       -1.40379
| 14> H          1.67464       -1.50562       -0.31610
| 15> H          2.92850       -2.21850        0.72549
| 16> H          3.73575        0.86277       -3.51385
| 17> H          5.13754        0.64699       -2.49333
| 18> H          4.75374        2.22930       -3.12740
| 19> *
| 20> %MaxCore 64000
| 21>
| 22> %pal nprocs 4
| 23> end
| 24>
| 25> %scf
| 26>   MaxIter 150
| 27> end
| 28>
| 29>
| 30>                          ****END OF INPUT****

CARTESIAN COORDINATES (ANGSTROEM)
---------------------------------
  C      3.488280    1.600920   -1.522040
  C      4.342970    1.313420   -2.756830
  N      2.810290    0.428780   -1.014200
  H      2.714550    2.331450   -1.760300
  H      4.090990    2.063150   -0.733380
  C      3.290980   -0.418020   -0.129080
  C      2.517540   -1.432020    0.239360
  N      4.535490   -0.284410    0.395800
  H      5.043630    0.571890    0.222900
  H      4.723350   -0.733270    1.281800
  H      1.934790    0.102300   -1.403790
  H      1.674640   -1.505620   -0.316100
  H      2.928500   -2.218500    0.725490
  H      3.735750    0.862770   -3.513850
  H      5.137540    0.646990   -2.493330
  H      4.753740    2.229300   -3.127400

 Total Charge           Charge          ....    0
 Multiplicity           Mult            ....    1
 Number of Electrons    NEL             ....   48
 Basis Dimension        Dim             ....  134

ORBITAL ENERGIES
----------------

  NO   OCC          E(Eh)            E(eV)
   0   2.0000     -14.754699      -401.4958
   1   2.0000     -14.753083      -401.4518
   2   2.0000     -10.592021      -288.2236
   3   2.0000     -10.589552      -288.1564
   4   2.0000     -10.540849      -286.8311
   5   2.0000     -10.455168      -284.4996
   6   2.0000      -1.063893       -28.9500
   7   2.0000      -0.970017       -26.3955
   8   2.0000      -0.861252       -23.4359
   9   2.0000      -0.781796       -21.2738
  10   2.0000      -0.705382       -19.1944
  11   2.0000      -0.669647       -18.2220
  12   2.0000      -0.603760       -16.4292
  13   2.0000      -0.567248       -15.4356
  14   2.0000      -0.542633       -14.7658
  15   2.0000      -0.504800       -13.7363
  16   2.0000      -0.496948       -13.5226
  17   2.0000      -0.467135       -12.7114
  18   2.0000      -0.437850       -11.9145
  19   2.0000      -0.431587       -11.7441
  20   2.0000      -0.424658       -11.5555
  21   2.0000      -0.416969       -11.3463
  22   2.0000      -0.314566        -8.5598
  23   2.0000      -0.205629        -5.5954
  24   0.0000       0.080299         2.1850
  25   0.0000       0.108738         2.9589
  26   0.0000       0.119938         3.2637
  27   0.0000       0.143969         3.9176
  28   0.0000       0.146795         3.9945

MULLIKEN ATOMIC CHARGES
-----------------------
   0 C :   -0.001412
   1 C :   -0.016959
   2 N :   -0.186857
   3 H :    0.039568
   4 H :    0.035427
   5 C :   -0.027327
   6 C :   -0.094192
   7 N :   -0.155448
   8 H :    0.113894
   9 H :    0.141588
  10 H :    0.139952
  11 H :   -0.054876
  12 H :   -0.036154
  13 H :    0.035682
  14 H :    0.034685
  15 H :    0.032430
Sum of atomic charges:   -0.0000000

LOEWDIN ATOMIC CHARGES
----------------------
   0 C :    0.025456
   1 C :   -0.068396
   2 N :   -0.036236
   3 H :    0.026663
   4 H :    0.019385
   5 C :    0.046439
   6 C :   -0.261646
   7 N :   -0.046798
   8 H :    0.063219
   9 H :    0.086462
  10 H :    0.088980
  11 H :   -0.009973
  12 H :   -0.006266
  13 H :    0.024930
  14 H :    0.023581
  15 H :    0.024200

  Mayer bond orders larger than 0.100000
B(  0-C ,  1-C ) :   1.0720 B(  0-C ,  2-N ) :   1.0030 B(  0-C ,  3-H ) :   0.9558
B(  0-C ,  4-H ) :   0.9547 B(  1-C , 13-H ) :   0.9698 B(  1-C , 14-H ) :   0.9679
B(  1-C , 15-H ) :   0.9661 B(  2-N ,  5-C ) :   1.2042 B(  2-N , 10-H ) :   0.9165
B(  5-C ,  6-C ) :   1.7599 B(  5-C ,  7-N ) :   1.2023 B(  6-C , 11-H ) :   0.9255
B(  6-C , 12-H ) :   0.9516 B(  7-N ,  8-H ) :   0.9480 B(  7-N ,  9-H ) :   0.9431

Dispersion correction           -0.000312887
FINAL SINGLE POINT ENERGY      -267.565044299695

DIPOLE MOMENT
-------------
                                X             Y             Z
Electronic contribution:     -0.84769      -1.04003       2.47187
Nuclear contribution   :      1.38466       1.98967      -2.80776
                        -----------------------------------------
Total Dipole Moment    :      0.53697       0.94964      -0.33590
                        -----------------------------------------
Magnitude (a.u.)       :      1.14148
Magnitude (Debye)      :      2.90141

Rotational constants in cm-1:     0.235618     0.075969     0.065309
Rotational constants in MHz :  7063.646698  2277.495424  1957.925383

                             ****ORCA TERMINATED NORMALLY****
TOTAL RUN TIME: 0 days 0 hours 0 minutes 18 seconds 500 msec
