                         Program Version 5.0.0 -  RELEASE  -
|  1> !M062X D3Zero RIJCOSX def2-SVP def2/J TightSCF
|  2> *xyz 0 1
|  3> C          3.48828        1.60092       -1.52204
|  4> C          4.34297        1.31342       -2.75683
|  5> N          2.81029        0.42878       -1.01420
|  6> H          2.71455        2.33145       -1.76030
|  7> H          4.09099        2.06315       -0.73338
|  8> C          3.29098       -0.41802       -0.12908
|  9> N          2.51754       -1.43202        0.23936
| 10> C          4.53549       -0.28441        0.39580
| 11> H          5.04363        0.57189        0.22290
| 12> H          4.72335       -0.73327        1.28180
| 13> H          1.93479        0.10230       -1.40379
| 14> H          1.67464       -1.50562       -0.31610
| 15> H          2.92850       -2.21850        0.72549
| 16> H          3.73575        0.86277       -3.51385
| 17> H          5.13754        0.64699       -2.49333
| 18> H          4.75374        2.22930       -3.12740
| 19> *
| 20> %MaxCore 64000
| 21>
| 22> %pal nprocs 4
| 23> end
| 24>
| 25> %scf
| 26>   MaxIter 150
| 27> end
| 28>
| 29>
| 30>                          ****END OF INPUT****

CARTESIAN COORDINATES (ANGSTROEM)
---------------------------------
  C      3.488280    1.600920   -1.522040
  C      4.342970    1.313420   -2.756830
  N      2.810290    0.428780   -1.014200
  H      2.714550    2.331450   -1.760300
  H      4.090990    2.063150   -0.733380
  C      3.290980   -0.418020   -0.129080
  N      2.517540   -1.432020    0.239360
  C      4.535490   -0.284410    0.395800
  H      5.043630    0.571890    0.222900
  H      4.723350   -0.733270    1.281800
  H      1.934790    0.102300   -1.403790
  H      1.674640   -1.505620   -0.316100
  H      2.928500   -2.218500    0.725490
  H      3.735750    0.862770   -3.513850
  H      5.137540    0.646990   -2.493330
  H      4.753740    2.229300   -3.127400

 Total Charge           Charge          ....    0
 Multiplicity           Mult            ....    1
 Number of Electrons    NEL             ....   48
 Basis Dimension        Dim             ....  134

ORBITAL ENERGIES
----------------

  NO   OCC          E(Eh)            E(eV)
   0   2.0000     -14.760396      -401.6508
   1   2.0000     -14.755355      -401.5136
   2   2.0000     -10.592603      -288.2394
   3   2.0000     -10.583213      -287.9839
   4   2.0000     -10.532234      -286.5966
   5   2.0000     -10.454824      -284.4902
   6   2.0000      -1.072958       -29.1967
   7   2.0000      -0.975984       -26.5579
   8   2.0000      -0.839776       -22.8515
   9   2.0000      -0.784209       -21.3394
  10   2.0000      -0.720476       -19.6051
  11   2.0000      -0.632826       -17.2201
  12   2.0000      -0.611262       -16.6333
  13   2.0000      -0.596125       -16.2214
  14   2.0000      -0.532188       -14.4816
  15   2.0000      -0.504796       -13.7362
  16   2.0000      -0.493531       -13.4297
  17   2.0000      -0.454350       -12.3635
  18   2.0000      -0.438829       -11.9411
  19   2.0000      -0.428104       -11.6493
  20   2.0000      -0.419860       -11.4250
  21   2.0000      -0.405940       -11.0462
  22   2.0000      -0.308770        -8.4021
  23   2.0000      -0.206555        -5.6206
  24   0.0000       0.076385         2.0785
  25   0.0000       0.112888         3.0718
  26   0.0000       0.123792         3.3686
  27   0.0000       0.141037         3.8378
  28   0.0000       0.157875         4.2960

MULLIKEN ATOMIC CHARGES
-----------------------
   0 C :    0.026138
   1 C :   -0.025497
   2 N :   -0.209648
   3 H :    0.031905
   4 H :    0.058645
   5 C :   -0.018343
   6 N :   -0.131491
   7 C :   -0.128477
   8 H :   -0.044115
   9 H :   -0.037721
  10 H :    0.112757
  11 H :    0.112691
  12 H :    0.147522
  13 H :    0.023383
  14 H :    0.049552
  15 H :    0.032697
Sum of atomic charges:    0.0000000

LOEWDIN ATOMIC CHARGES
----------------------
   0 C :    0.038528
   1 C :   -0.065260
   2 N :   -0.035185
   3 H :    0.022697
   4 H :    0.032429
   5 C :    0.043299
   6 N :   -0.031408
   7 C :   -0.284947
   8 H :   -0.010852
   9 H :   -0.007541
  10 H :    0.066919
  11 H :    0.065703
  12 H :    0.090598
  13 H :    0.019517
  14 H :    0.030427
  15 H :    0.025073

  Mayer bond orders larger than 0.100000
B(  0-C ,  1-C ) :   1.0899 B(  0-C ,  2-N ) :   0.9810 B(  0-C ,  3-H ) :   0.9596
B(  0-C ,  4-H ) :   0.9458 B(  1-C , 13-H ) :   0.9696 B(  1-C , 14-H ) :   0.9680
B(  1-C , 15-H ) :   0.9683 B(  2-N ,  5-C ) :   1.1856 B(  2-N , 10-H ) :   0.9287
B(  5-C ,  6-N ) :   1.2353 B(  5-C ,  7-C ) :   1.7325 B(  6-N , 11-H ) :   0.9459
B(  6-N , 12-H ) :   0.9387 B(  7-C ,  8-H ) :   0.9390 B(  7-C ,  9-H ) :   0.9463

Dispersion correction           -0.000313964
FINAL SINGLE POINT ENERGY      -267.564581959610

DIPOLE MOMENT
-------------
                                X             Y             Z
Electronic contribution:     -2.89147      -2.36157       2.18788
Nuclear contribution   :      1.81275       2.23313      -2.77458
                        -----------------------------------------
Total Dipole Moment    :     -1.07872      -0.12845      -0.58670
                        -----------------------------------------
Magnitude (a.u.)       :      1.23464
Magnitude (Debye)      :      3.13821

Rotational constants in cm-1:     0.245202     0.073668     0.064348
Rotational constants in MHz :  7350.977980  2208.513334  1929.108541

                             ****ORCA TERMINATED NORMALLY****
TOTAL RUN TIME: 0 days 0 hours 0 minutes 17 seconds 504 msec
