                         Program Version 5.0.0 -  RELEASE  -
|  1> !M062X D3Zero RIJCOSX def2-TZVP def2/J TightSCF xyzfile
|  2>
|  3> *xyzfile 0 1 D3.xyz
|  4>
|  5> %MaxCore 64000
|  6>
|  7> %pal nprocs 18
|  8> end
|  9>
| 10> %scf
| 11>   MaxIter 150
| 12> end
| 13>
| 14>
| 15>                          ****END OF INPUT****

CARTESIAN COORDINATES (ANGSTROEM)
---------------------------------
  C      3.488276    1.600919   -1.522040
  C      4.342970    1.313419   -2.756826
  N      2.810285    0.428783   -1.014196
  H      5.132033    0.604994   -2.484466
  C      3.535896    0.749253   -3.924604
  H      4.841247    2.242136   -3.054083
  H      2.991617   -0.132199   -3.574137
  H      4.225505    0.392784   -4.695962
  C      2.564776    1.750890   -4.544523
  H      1.918749    2.171679   -3.769419
  C      1.686235    1.161657   -5.650111
  H      3.132494    2.594775   -4.951604
  C      0.839616   -0.037582   -5.220473
  H      2.323886    0.866395   -6.490796
  H      1.029518    1.951850   -6.029329
  C     -0.151019    0.254955   -4.094256
  H      1.499442   -0.857141   -4.922958
  H      0.290097   -0.410143   -6.091131
  H      0.328265    0.833022   -3.299125
  C     -0.721843   -0.999513   -3.439309
  H     -0.957367    0.884951   -4.485450
  H     -1.083403   -1.697555   -4.205656
  H     -1.581056   -0.723848   -2.820490
  C      0.287250   -1.711771   -2.527405
  H      1.131780   -2.067380   -3.159396
  H     -0.204137   -2.637326   -2.170480
  F      0.710505   -0.927506   -1.481767
  H      2.714548    2.331455   -1.760302
  H      4.090991    2.063151   -0.733382
  C      3.290978   -0.418021   -0.129083
  N      2.517536   -1.432017    0.239360
  C      4.535490   -0.284410    0.395800
  H      5.043627    0.571888    0.222899
  H      4.723346   -0.733273    1.281800
  H      1.934787    0.102305   -1.403788
  H      1.674638   -1.505616   -0.316095
  H      2.928503   -2.218502    0.725494

 Total Charge           Charge          ....    0
 Multiplicity           Mult            ....    1
 Number of Electrons    NEL             ....  112
 Basis Dimension        Dim             ....  572

ORBITAL ENERGIES
----------------

  NO   OCC          E(Eh)            E(eV)
   0   2.0000     -25.289221      -688.1547
   1   2.0000     -14.725598      -400.7039
   2   2.0000     -14.719091      -400.5268
   3   2.0000     -10.643445      -289.6229
   4   2.0000     -10.565784      -287.5096
   5   2.0000     -10.560245      -287.3589
   6   2.0000     -10.555080      -287.2183
   7   2.0000     -10.545944      -286.9697
   8   2.0000     -10.539606      -286.7973
   9   2.0000     -10.534584      -286.6606
  10   2.0000     -10.528903      -286.5060
  11   2.0000     -10.525148      -286.4038
  12   2.0000     -10.519566      -286.2519
  13   2.0000     -10.427779      -283.7543
  14   2.0000      -1.407418       -38.2978
  15   2.0000      -1.069163       -29.0934
  16   2.0000      -0.973946       -26.5024
  17   2.0000      -0.934164       -25.4199
  18   2.0000      -0.902917       -24.5696
  19   2.0000      -0.867210       -23.5980
  20   2.0000      -0.823152       -22.3991
  21   2.0000      -0.787244       -21.4220
  22   2.0000      -0.782004       -21.2794
  23   2.0000      -0.743390       -20.2287
  24   2.0000      -0.707368       -19.2485
  25   2.0000      -0.678371       -18.4594
  26   2.0000      -0.658751       -17.9255
  27   2.0000      -0.648619       -17.6498
  28   2.0000      -0.640552       -17.4303
  29   2.0000      -0.608200       -16.5500
  30   2.0000      -0.601835       -16.3768
  31   2.0000      -0.586958       -15.9719
  32   2.0000      -0.568311       -15.4645
  33   2.0000      -0.551030       -14.9943
  34   2.0000      -0.537534       -14.6270
  35   2.0000      -0.525489       -14.2993
  36   2.0000      -0.508810       -13.8454
  37   2.0000      -0.506906       -13.7936
  38   2.0000      -0.499093       -13.5810
  39   2.0000      -0.477381       -12.9902
  40   2.0000      -0.470586       -12.8053
  41   2.0000      -0.451987       -12.2992
  42   2.0000      -0.446169       -12.1409
  43   2.0000      -0.437355       -11.9010
  44   2.0000      -0.435577       -11.8526
  45   2.0000      -0.423959       -11.5365
  46   2.0000      -0.415771       -11.3137
  47   2.0000      -0.412738       -11.2312
  48   2.0000      -0.401891       -10.9360
  49   2.0000      -0.398431       -10.8419
  50   2.0000      -0.390272       -10.6198
  51   2.0000      -0.375093       -10.2068
  52   2.0000      -0.374274       -10.1845
  53   2.0000      -0.366243        -9.9660
  54   2.0000      -0.293719        -7.9925
  55   2.0000      -0.199356        -5.4248
  56   0.0000       0.048480         1.3192
  57   0.0000       0.062465         1.6997
  58   0.0000       0.072184         1.9642
  59   0.0000       0.075402         2.0518
  60   0.0000       0.089092         2.4243

MULLIKEN ATOMIC CHARGES
-----------------------
   0 C :   -0.333488
   1 C :   -0.188506
   2 N :   -0.373725
   3 H :    0.171966
   4 C :   -0.324794
   5 H :    0.137087
   6 H :    0.134277
   7 H :    0.151412
   8 C :   -0.312727
   9 H :    0.150484
  10 C :   -0.268284
  11 H :    0.148388
  12 C :   -0.322953
  13 H :    0.150935
  14 H :    0.149197
  15 C :   -0.314721
  16 H :    0.153007
  17 H :    0.153217
  18 H :    0.165154
  19 C :   -0.260722
  20 H :    0.155666
  21 H :    0.157536
  22 H :    0.157715
  23 C :   -0.095338
  24 H :    0.159779
  25 H :    0.157691
  26 F :   -0.263172
  27 H :    0.173861
  28 H :    0.172937
  29 C :    0.459658
  30 N :   -0.581705
  31 C :   -0.584161
  32 H :    0.086830
  33 H :    0.097229
  34 H :    0.263836
  35 H :    0.263208
  36 H :    0.253224
Sum of atomic charges:    0.0000000

LOEWDIN ATOMIC CHARGES
----------------------
   0 C :   -0.283729
   1 C :   -0.269652
   2 N :    0.117121
   3 H :    0.146179
   4 C :   -0.274858
   5 H :    0.138078
   6 H :    0.131530
   7 H :    0.139780
   8 C :   -0.275592
   9 H :    0.132420
  10 C :   -0.271493
  11 H :    0.140124
  12 C :   -0.275395
  13 H :    0.139999
  14 H :    0.138972
  15 C :   -0.272422
  16 H :    0.133479
  17 H :    0.139067
  18 H :    0.139613
  19 C :   -0.274720
  20 H :    0.142300
  21 H :    0.148890
  22 H :    0.143697
  23 C :   -0.339866
  24 H :    0.129861
  25 H :    0.131666
  26 F :    0.127661
  27 H :    0.130665
  28 H :    0.140568
  29 C :   -0.465219
  30 N :   -0.027192
  31 C :   -0.380064
  32 H :    0.091654
  33 H :    0.092948
  34 H :    0.166383
  35 H :    0.152035
  36 H :    0.175512

  Mayer bond orders larger than 0.100000
B(  0-C ,  1-C ) :   0.8763 B(  0-C ,  2-N ) :   0.8850 B(  0-C , 27-H ) :   1.0011
B(  0-C , 28-H ) :   0.9862 B(  1-C ,  3-H ) :   0.9703 B(  1-C ,  4-C ) :   0.9201
B(  1-C ,  5-H ) :   0.9913 B(  2-N , 29-C ) :   1.1737 B(  2-N , 34-H ) :   0.8879
B(  4-C ,  6-H ) :   0.9829 B(  4-C ,  7-H ) :   0.9792 B(  4-C ,  8-C ) :   0.8790
B(  8-C ,  9-H ) :   0.9918 B(  8-C , 10-C ) :   0.9210 B(  8-C , 11-H ) :   0.9791
B( 10-C , 12-C ) :   0.9208 B( 10-C , 13-H ) :   0.9876 B( 10-C , 14-H ) :   0.9915
B( 12-C , 15-C ) :   0.8699 B( 12-C , 16-H ) :   0.9945 B( 12-C , 17-H ) :   0.9762
B( 15-C , 18-H ) :   0.9963 B( 15-C , 19-C ) :   0.9124 B( 15-C , 20-H ) :   0.9703
B( 19-C , 21-H ) :   0.9695 B( 19-C , 22-H ) :   0.9778 B( 19-C , 23-C ) :   0.9530
B( 23-C , 24-H ) :   0.9804 B( 23-C , 25-H ) :   0.9745 B( 23-C , 26-F ) :   0.8428
B( 29-C , 30-N ) :   1.0834 B( 29-C , 31-C ) :   1.6015 B( 30-N , 35-H ) :   0.9025
B( 30-N , 36-H ) :   0.9270 B( 31-C , 32-H ) :   1.0125 B( 31-C , 33-H ) :   1.0012

Dispersion correction           -0.002349069
FINAL SINGLE POINT ENERGY      -642.264549274836

DIPOLE MOMENT
-------------
                                X             Y             Z
Electronic contribution:     -3.23483      -4.31571       9.07541
Nuclear contribution   :      1.49917       3.80845     -10.61369
                        -----------------------------------------
Total Dipole Moment    :     -1.73566      -0.50725      -1.53828
                        -----------------------------------------
Magnitude (a.u.)       :      2.37405
Magnitude (Debye)      :      6.03436

Rotational constants in cm-1:     0.026547     0.016542     0.011018
Rotational constants in MHz :   795.873737   495.912559   330.323979

                             ****ORCA TERMINATED NORMALLY****
TOTAL RUN TIME: 0 days 0 hours 0 minutes 56 seconds 598 msec
