                         Program Version 5.0.0 -  RELEASE  -
|  1> !wB97X-D3 RIJCOSX def2-TZVPD def2/J TightSCF
|  2> *xyz -1 1
|  3> C          0.13297        2.38587       -4.02462
|  4> C         -1.36646        2.47911       -4.31393
|  5> C         -2.35773        2.30686       -3.13675
|  6> H         -1.63680        1.72709       -5.06399
|  7> H         -1.58235        3.44561       -4.76869
|  8> O         -3.44376        2.84652       -3.25274
|  9> O         -1.97092        1.58304       -2.15123
| 10> H          0.68084        2.52514       -4.93310
| 11> H          0.35823        1.42282       -3.61633
| 12> H          0.40851        3.14443       -3.32208
| 13> *
| 14> %MaxCore 64000
| 15>
| 16> %pal nprocs 4
| 17> end
| 18>
| 19> %scf
| 20>   MaxIter 150
| 21> end
| 22>
| 23>
| 24>                          ****END OF INPUT****

CARTESIAN COORDINATES (ANGSTROEM)
---------------------------------
  C      0.132970    2.385870   -4.024620
  C     -1.366460    2.479110   -4.313930
  C     -2.357730    2.306860   -3.136750
  H     -1.636800    1.727090   -5.063990
  H     -1.582350    3.445610   -4.768690
  O     -3.443760    2.846520   -3.252740
  O     -1.970920    1.583040   -2.151230
  H      0.680840    2.525140   -4.933100
  H      0.358230    1.422820   -3.616330
  H      0.408510    3.144430   -3.322080

 Total Charge           Charge          ....   -1
 Multiplicity           Mult            ....    1
 Number of Electrons    NEL             ....   40
 Basis Dimension        Dim             ....  236

ORBITAL ENERGIES
----------------

  NO   OCC          E(Eh)            E(eV)
   0   2.0000     -18.969124      -516.1761
   1   2.0000     -18.959178      -515.9055
   2   2.0000     -10.158699      -276.4323
   3   2.0000     -10.107711      -275.0448
   4   2.0000     -10.100408      -274.8461
   5   2.0000      -0.942918       -25.6581
   6   2.0000      -0.840425       -22.8691
   7   2.0000      -0.719121       -19.5683
   8   2.0000      -0.584751       -15.9119
   9   2.0000      -0.419640       -11.4190
  10   2.0000      -0.395120       -10.7517
  11   2.0000      -0.362644        -9.8681
  12   2.0000      -0.328463        -8.9379
  13   2.0000      -0.313638        -8.5345
  14   2.0000      -0.306854        -8.3499
  15   2.0000      -0.274781        -7.4772
  16   2.0000      -0.257275        -7.0008
  17   2.0000      -0.141282        -3.8445
  18   2.0000      -0.134652        -3.6641
  19   2.0000      -0.123731        -3.3669
  20   0.0000       0.192111         5.2276
  21   0.0000       0.209928         5.7124
  22   0.0000       0.219770         5.9803
  23   0.0000       0.240220         6.5367
  24   0.0000       0.252344         6.8666

MULLIKEN ATOMIC CHARGES
-----------------------
   0 C :   -0.990773
   1 C :   -0.127156
   2 C :    0.374626
   3 H :    0.193982
   4 H :    0.235016
   5 O :   -0.737871
   6 O :   -0.772333
   7 H :    0.313305
   8 H :    0.249298
   9 H :    0.261906
Sum of atomic charges:   -1.0000000

LOEWDIN ATOMIC CHARGES
----------------------
   0 C :   -0.140651
   1 C :   -0.209014
   2 C :   -0.772156
   3 H :    0.095844
   4 H :    0.085767
   5 O :   -0.075816
   6 O :   -0.137715
   7 H :    0.042267
   8 H :    0.053478
   9 H :    0.057994

  Mayer bond orders larger than 0.100000
B(  0-C ,  1-C ) :   0.6257 B(  0-C ,  7-H ) :   0.9338 B(  0-C ,  8-H ) :   1.0094
B(  0-C ,  9-H ) :   0.9936 B(  1-C ,  2-C ) :   0.9785 B(  1-C ,  3-H ) :   0.9514
B(  1-C ,  4-H ) :   0.9804 B(  2-C ,  5-O ) :   1.4971 B(  2-C ,  6-O ) :   1.4561

Dispersion correction           -0.001941517
FINAL SINGLE POINT ENERGY      -267.870067469921

DIPOLE MOMENT
-------------
                                X             Y             Z
Electronic contribution:     -5.24097      -0.36470       3.17895
Nuclear contribution   :      6.75610       0.63068      -4.53972
                        -----------------------------------------
Total Dipole Moment    :      1.51513       0.26598      -1.36077
                        -----------------------------------------
Magnitude (a.u.)       :      2.05379
Magnitude (Debye)      :      5.22033

Rotational constants in cm-1:     0.335096     0.130241     0.099025
Rotational constants in MHz : 10045.924902  3904.536250  2968.708333

                             ****ORCA TERMINATED NORMALLY****
TOTAL RUN TIME: 0 days 0 hours 0 minutes 40 seconds 941 msec
