                         Program Version 5.0.0 -  RELEASE  -
|  1> !wB97X-D3 RIJCOSX def2-TZVPD def2/J TightSCF
|  2> *xyz 1 1
|  3> C          0.64866        1.00359       -3.64560
|  4> N          0.28128        0.67645       -2.24018
|  5> C          0.13297        2.38587       -4.02462
|  6> H          0.39079       -0.31925       -2.02649
|  7> H         -0.69269        0.99010       -2.13812
|  8> H          0.85421        1.21221       -1.57528
|  9> H          0.19099        0.23965       -4.27575
| 10> H          1.73157        0.93173       -3.75075
| 11> H          0.40589        2.60338       -5.03610
| 12> H          0.56342        3.11797       -3.37374
| 13> H         -0.93265        2.40724       -3.93025
| 14> *
| 15> %MaxCore 64000
| 16>
| 17> %pal nprocs 4
| 18> end
| 19>
| 20> %scf
| 21>   MaxIter 150
| 22> end
| 23>
| 24>
| 25>                          ****END OF INPUT****

CARTESIAN COORDINATES (ANGSTROEM)
---------------------------------
  C      0.648660    1.003590   -3.645600
  N      0.281280    0.676450   -2.240180
  C      0.132970    2.385870   -4.024620
  H      0.390790   -0.319250   -2.026490
  H     -0.692690    0.990100   -2.138120
  H      0.854210    1.212210   -1.575280
  H      0.190990    0.239650   -4.275750
  H      1.731570    0.931730   -3.750750
  H      0.405890    2.603380   -5.036100
  H      0.563420    3.117970   -3.373740
  H     -0.932650    2.407240   -3.930250

 Total Charge           Charge          ....    1
 Multiplicity           Mult            ....    1
 Number of Electrons    NEL             ....   26
 Basis Dimension        Dim             ....  183

ORBITAL ENERGIES
----------------

  NO   OCC          E(Eh)            E(eV)
   0   2.0000     -14.757478      -401.5714
   1   2.0000     -10.529254      -286.5156
   2   2.0000     -10.450323      -284.3677
   3   2.0000      -1.333935       -36.2982
   4   2.0000      -1.081611       -29.4321
   5   2.0000      -0.955687       -26.0056
   6   2.0000      -0.903028       -24.5726
   7   2.0000      -0.895886       -24.3783
   8   2.0000      -0.794081       -21.6080
   9   2.0000      -0.742337       -20.2000
  10   2.0000      -0.681082       -18.5332
  11   2.0000      -0.666678       -18.1412
  12   2.0000      -0.648656       -17.6508
  13   0.0000      -0.120905        -3.2900
  14   0.0000      -0.065135        -1.7724
  15   0.0000      -0.061199        -1.6653
  16   0.0000      -0.060611        -1.6493
  17   0.0000      -0.026822        -0.7299

MULLIKEN ATOMIC CHARGES
-----------------------
   0 C :   -0.354618
   1 N :   -0.314723
   2 C :   -1.188782
   3 H :    0.361813
   4 H :    0.357884
   5 H :    0.368583
   6 H :    0.329121
   7 H :    0.330147
   8 H :    0.323846
   9 H :    0.376416
  10 H :    0.410312
Sum of atomic charges:    1.0000000

LOEWDIN ATOMIC CHARGES
----------------------
   0 C :   -0.200335
   1 N :    0.181647
   2 C :   -0.058734
   3 H :    0.181932
   4 H :    0.177048
   5 H :    0.183984
   6 H :    0.135884
   7 H :    0.136346
   8 H :    0.094063
   9 H :    0.084646
  10 H :    0.083520

  Mayer bond orders larger than 0.100000
B(  0-C ,  1-N ) :   0.9435 B(  0-C ,  2-C ) :   0.6651 B(  0-C ,  6-H ) :   0.9108
B(  0-C ,  7-H ) :   0.9196 B(  1-N ,  3-H ) :   0.8563 B(  1-N ,  4-H ) :   0.8494
B(  1-N ,  5-H ) :   0.8532 B(  2-C ,  8-H ) :   0.9766 B(  2-C ,  9-H ) :   0.9158
B(  2-C , 10-H ) :   0.8690

Dispersion correction           -0.001486574
FINAL SINGLE POINT ENERGY      -135.550890893272

DIPOLE MOMENT
-------------
                                X             Y             Z
Electronic contribution:      0.16998      -1.30321       1.32363
Nuclear contribution   :     -0.22655       0.48066      -0.09136
                        -----------------------------------------
Total Dipole Moment    :     -0.05657      -0.82255       1.23228
                        -----------------------------------------
Magnitude (a.u.)       :      1.48267
Magnitude (Debye)      :      3.76863

Rotational constants in cm-1:     0.998155     0.284845     0.251232
Rotational constants in MHz : 29923.943568  8539.431565  7531.732866

                             ****ORCA TERMINATED NORMALLY****
TOTAL RUN TIME: 0 days 0 hours 0 minutes 26 seconds 302 msec
