                         Program Version 5.0.0 -  RELEASE  -
|  1> !wB97X-D3 RIJCOSX def2-TZVPD def2/J TightSCF xyzfile
|  2>
|  3> *xyzfile 0 1 B.xyz
|  4>
|  5> %MaxCore 64000
|  6>
|  7> %pal nprocs 18
|  8> end
|  9>
| 10> %scf
| 11>   MaxIter 150
| 12> end
| 13>
| 14>
| 15>                          ****END OF INPUT****

CARTESIAN COORDINATES (ANGSTROEM)
---------------------------------
  C      0.648656    1.003595   -3.645601
  N      0.281280    0.676454   -2.240179
  C      0.132968    2.385869   -4.024618
  C     -1.366462    2.479106   -4.313932
  C     -2.357732    2.306858   -3.136753
  H     -1.636802    1.727095   -5.063993
  H     -1.582347    3.445605   -4.768687
  H      0.390790   -0.319253   -2.026495
  H     -0.692686    0.990104   -2.138123
  H      0.854206    1.212214   -1.575279
  O     -3.443763    2.846518   -3.252744
  O     -1.970922    1.583042   -2.151229
  H      0.190993    0.239655   -4.275752
  H      1.731572    0.931729   -3.750751
  H      0.414839    3.102847   -3.245165
  H      0.683167    2.687560   -4.919721

 Total Charge           Charge          ....    0
 Multiplicity           Mult            ....    1
 Number of Electrons    NEL             ....   56
 Basis Dimension        Dim             ....  346

ORBITAL ENERGIES
----------------

  NO   OCC          E(Eh)            E(eV)
   0   2.0000     -19.155058      -521.2356
   1   2.0000     -19.134584      -520.6785
   2   2.0000     -14.534267      -395.4975
   3   2.0000     -10.364841      -282.0417
   4   2.0000     -10.336617      -281.2736
   5   2.0000     -10.304445      -280.3982
   6   2.0000     -10.266050      -279.3534
   7   2.0000      -1.139727       -31.0136
   8   2.0000      -1.116330       -30.3769
   9   2.0000      -1.032367       -28.0921
  10   2.0000      -0.929615       -25.2961
  11   2.0000      -0.831413       -22.6239
  12   2.0000      -0.748498       -20.3677
  13   2.0000      -0.709698       -19.3119
  14   2.0000      -0.698470       -19.0063
  15   2.0000      -0.625739       -17.0272
  16   2.0000      -0.586094       -15.9484
  17   2.0000      -0.580939       -15.8082
  18   2.0000      -0.536345       -14.5947
  19   2.0000      -0.523628       -14.2487
  20   2.0000      -0.487128       -13.2554
  21   2.0000      -0.484346       -13.1797
  22   2.0000      -0.475140       -12.9292
  23   2.0000      -0.454361       -12.3638
  24   2.0000      -0.431399       -11.7390
  25   2.0000      -0.327065        -8.8999
  26   2.0000      -0.326301        -8.8791
  27   2.0000      -0.297158        -8.0861
  28   0.0000       0.028601         0.7783
  29   0.0000       0.061962         1.6861
  30   0.0000       0.065035         1.7697
  31   0.0000       0.084544         2.3006
  32   0.0000       0.105410         2.8684

MULLIKEN ATOMIC CHARGES
-----------------------
   0 C :   -0.631330
   1 N :   -0.161339
   2 C :   -0.249673
   3 C :   -0.543346
   4 C :    0.535813
   5 H :    0.242746
   6 H :    0.264731
   7 H :    0.343087
   8 H :    0.232205
   9 H :    0.377272
  10 O :   -0.711317
  11 O :   -0.830795
  12 H :    0.343218
  13 H :    0.292339
  14 H :    0.226809
  15 H :    0.269581
Sum of atomic charges:    0.0000000

LOEWDIN ATOMIC CHARGES
----------------------
   0 C :   -0.167194
   1 N :    0.146257
   2 C :   -0.191423
   3 C :   -0.118452
   4 C :   -0.661287
   5 H :    0.119251
   6 H :    0.112584
   7 H :    0.163874
   8 H :   -0.003758
   9 H :    0.168180
  10 O :    0.014723
  11 O :   -0.070310
  12 H :    0.131553
  13 H :    0.119054
  14 H :    0.123255
  15 H :    0.113695

  Mayer bond orders larger than 0.100000
B(  0-C ,  1-N ) :   0.9785 B(  0-C ,  2-C ) :   0.7854 B(  0-C ,  3-C ) :   0.1539
B(  0-C , 12-H ) :   0.8931 B(  0-C , 13-H ) :   0.9631 B(  1-N ,  7-H ) :   0.8564
B(  1-N ,  8-H ) :   0.8456 B(  1-N ,  9-H ) :   0.8252 B(  2-C ,  3-C ) :   0.8577
B(  2-C , 14-H ) :   0.9911 B(  2-C , 15-H ) :   0.9702 B(  3-C ,  4-C ) :   1.0499
B(  3-C ,  5-H ) :   0.9322 B(  3-C ,  6-H ) :   0.9809 B(  4-C , 10-O ) :   1.4825
B(  4-C , 11-O ) :   1.2089 B(  8-H , 11-O ) :   0.1687

Dispersion correction           -0.004907460
FINAL SINGLE POINT ENERGY      -363.086146919154

DIPOLE MOMENT
-------------
                                X             Y             Z
Electronic contribution:     -5.78027       0.92279       2.53180
Nuclear contribution   :      9.92875      -2.62114      -2.63866
                        -----------------------------------------
Total Dipole Moment    :      4.14848      -1.69835      -0.10685
                        -----------------------------------------
Magnitude (a.u.)       :      4.48394
Magnitude (Debye)      :     11.39726

Rotational constants in cm-1:     0.159108     0.062474     0.047603
Rotational constants in MHz :  4769.938632  1872.932224  1427.103830

                             ****ORCA TERMINATED NORMALLY****
TOTAL RUN TIME: 0 days 0 hours 0 minutes 27 seconds 892 msec
