                         Program Version 5.0.0 -  RELEASE  -
|  1> !wB97X-D3 RIJCOSX def2-TZVPD def2/J TightSCF
|  2> *xyz 0 1
|  3> C          0.13297        2.38587       -4.02462
|  4> C         -1.36646        2.47911       -4.31393
|  5> C         -2.35773        2.30686       -3.13675
|  6> H         -1.63680        1.72709       -5.06399
|  7> H         -1.58235        3.44561       -4.76869
|  8> F         -3.44376        2.84652       -3.25274
|  9> O         -1.97092        1.58304       -2.15123
| 10> H          0.68084        2.52514       -4.93310
| 11> H          0.35823        1.42282       -3.61633
| 12> H          0.40851        3.14443       -3.32208
| 13> *
| 14> %MaxCore 64000
| 15>
| 16> %pal nprocs 4
| 17> end
| 18>
| 19> %scf
| 20>   MaxIter 150
| 21> end
| 22>
| 23>
| 24>                          ****END OF INPUT****

CARTESIAN COORDINATES (ANGSTROEM)
---------------------------------
  C      0.132970    2.385870   -4.024620
  C     -1.366460    2.479110   -4.313930
  C     -2.357730    2.306860   -3.136750
  H     -1.636800    1.727090   -5.063990
  H     -1.582350    3.445610   -4.768690
  F     -3.443760    2.846520   -3.252740
  O     -1.970920    1.583040   -2.151230
  H      0.680840    2.525140   -4.933100
  H      0.358230    1.422820   -3.616330
  H      0.408510    3.144430   -3.322080

 Total Charge           Charge          ....    0
 Multiplicity           Mult            ....    1
 Number of Electrons    NEL             ....   40
 Basis Dimension        Dim             ....  236

ORBITAL ENERGIES
----------------

  NO   OCC          E(Eh)            E(eV)
   0   2.0000     -24.870842      -676.7700
   1   2.0000     -19.232201      -523.3348
   2   2.0000     -10.459887      -284.6280
   3   2.0000     -10.309161      -280.5265
   4   2.0000     -10.274425      -279.5813
   5   2.0000      -1.465614       -39.8814
   6   2.0000      -1.132009       -30.8035
   7   2.0000      -0.914067       -24.8730
   8   2.0000      -0.811542       -22.0832
   9   2.0000      -0.755624       -20.5616
  10   2.0000      -0.671061       -18.2605
  11   2.0000      -0.653678       -17.7875
  12   2.0000      -0.611778       -16.6473
  13   2.0000      -0.568568       -15.4715
  14   2.0000      -0.530451       -14.4343
  15   2.0000      -0.488939       -13.3047
  16   2.0000      -0.470256       -12.7963
  17   2.0000      -0.467646       -12.7253
  18   2.0000      -0.436918       -11.8892
  19   2.0000      -0.383313       -10.4305
  20   0.0000       0.052986         1.4418
  21   0.0000       0.065529         1.7831
  22   0.0000       0.084872         2.3095
  23   0.0000       0.092869         2.5271
  24   0.0000       0.108897         2.9632

MULLIKEN ATOMIC CHARGES
-----------------------
   0 C :   -1.077704
   1 C :   -0.244296
   2 C :    0.612615
   3 H :    0.279561
   4 H :    0.303813
   5 F :   -0.222563
   6 O :   -0.575347
   7 H :    0.328861
   8 H :    0.293707
   9 H :    0.301353
Sum of atomic charges:   -0.0000000

LOEWDIN ATOMIC CHARGES
----------------------
   0 C :   -0.094443
   1 C :   -0.158229
   2 C :   -0.483886
   3 H :    0.121512
   4 H :    0.107428
   5 F :    0.247110
   6 O :    0.046802
   7 H :    0.068610
   8 H :    0.071119
   9 H :    0.073976

  Mayer bond orders larger than 0.100000
B(  0-C ,  1-C ) :   0.7175 B(  0-C ,  7-H ) :   0.9348 B(  0-C ,  8-H ) :   0.9778
B(  0-C ,  9-H ) :   0.9609 B(  1-C ,  2-C ) :   0.9619 B(  1-C ,  3-H ) :   0.9069
B(  1-C ,  4-H ) :   0.9276 B(  2-C ,  5-F ) :   0.9828 B(  2-C ,  6-O ) :   1.6576

Dispersion correction           -0.001917193
FINAL SINGLE POINT ENERGY      -292.426687534616

DIPOLE MOMENT
-------------
                                X             Y             Z
Electronic contribution:     -8.38307       0.48611       3.56265
Nuclear contribution   :      8.54799       0.05434      -4.66633
                        -----------------------------------------
Total Dipole Moment    :      0.16492       0.54045      -1.10368
                        -----------------------------------------
Magnitude (a.u.)       :      1.23991
Magnitude (Debye)      :      3.15161

Rotational constants in cm-1:     0.325803     0.123345     0.094275
Rotational constants in MHz :  9767.324172  3697.779805  2826.305733

                             ****ORCA TERMINATED NORMALLY****
TOTAL RUN TIME: 0 days 0 hours 0 minutes 42 seconds 921 msec
