                         Program Version 5.0.0 -  RELEASE  -
|  1> !wB97X-D3 RIJCOSX def2-TZVPD def2/J TightSCF
|  2> *xyz 0 1
|  3> C          0.64866        1.00359       -3.64560
|  4> C          0.28128        0.67645       -2.24018
|  5> C          0.13297        2.38587       -4.02462
|  6> H          0.39079       -0.31925       -2.02649
|  7> H         -0.69269        0.99010       -2.13812
|  8> H          0.85421        1.21221       -1.57528
|  9> H          0.19099        0.23965       -4.27575
| 10> H          1.73157        0.93173       -3.75075
| 11> H          0.40589        2.60338       -5.03610
| 12> H          0.56342        3.11797       -3.37374
| 13> H         -0.93265        2.40724       -3.93025
| 14> *
| 15> %MaxCore 64000
| 16>
| 17> %pal nprocs 4
| 18> end
| 19>
| 20> %scf
| 21>   MaxIter 150
| 22> end
| 23>
| 24>
| 25>                          ****END OF INPUT****

CARTESIAN COORDINATES (ANGSTROEM)
---------------------------------
  C      0.648660    1.003590   -3.645600
  C      0.281280    0.676450   -2.240180
  C      0.132970    2.385870   -4.024620
  H      0.390790   -0.319250   -2.026490
  H     -0.692690    0.990100   -2.138120
  H      0.854210    1.212210   -1.575280
  H      0.190990    0.239650   -4.275750
  H      1.731570    0.931730   -3.750750
  H      0.405890    2.603380   -5.036100
  H      0.563420    3.117970   -3.373740
  H     -0.932650    2.407240   -3.930250

 Total Charge           Charge          ....    0
 Multiplicity           Mult            ....    1
 Number of Electrons    NEL             ....   26
 Basis Dimension        Dim             ....  183

ORBITAL ENERGIES
----------------

  NO   OCC          E(Eh)            E(eV)
   0   2.0000     -10.259814      -279.1837
   1   2.0000     -10.250831      -278.9393
   2   2.0000     -10.230982      -278.3992
   3   2.0000      -0.909973       -24.7616
   4   2.0000      -0.802406       -21.8346
   5   2.0000      -0.695191       -18.9171
   6   2.0000      -0.570576       -15.5262
   7   2.0000      -0.550769       -14.9872
   8   2.0000      -0.500028       -13.6064
   9   2.0000      -0.483489       -13.1564
  10   2.0000      -0.431234       -11.7345
  11   2.0000      -0.427720       -11.6389
  12   2.0000      -0.420272       -11.4362
  13   0.0000       0.077939         2.1208
  14   0.0000       0.096509         2.6261
  15   0.0000       0.098668         2.6849
  16   0.0000       0.128885         3.5071
  17   0.0000       0.149283         4.0622

MULLIKEN ATOMIC CHARGES
-----------------------
   0 C :    0.037656
   1 C :   -1.355731
   2 C :   -1.181366
   3 H :    0.351888
   4 H :    0.337399
   5 H :    0.369864
   6 H :    0.248749
   7 H :    0.249398
   8 H :    0.298640
   9 H :    0.315943
  10 H :    0.327559
Sum of atomic charges:   -0.0000000

LOEWDIN ATOMIC CHARGES
----------------------
   0 C :   -0.319352
   1 C :   -0.128060
   2 C :   -0.119440
   3 H :    0.052235
   4 H :    0.053522
   5 H :    0.057284
   6 H :    0.103190
   7 H :    0.103078
   8 H :    0.061853
   9 H :    0.068926
  10 H :    0.066764

  Mayer bond orders larger than 0.100000
B(  0-C ,  1-C ) :   0.5572 B(  0-C ,  2-C ) :   0.5992 B(  0-C ,  6-H ) :   0.9720
B(  0-C ,  7-H ) :   0.9544 B(  1-C ,  2-C ) :   0.2216 B(  1-C ,  3-H ) :   0.9261
B(  1-C ,  4-H ) :   0.9511 B(  1-C ,  5-H ) :   0.9386 B(  2-C ,  8-H ) :   0.9763
B(  2-C ,  9-H ) :   0.9640 B(  2-C , 10-H ) :   0.9625

Dispersion correction           -0.001434332
FINAL SINGLE POINT ENERGY      -119.138845852725

DIPOLE MOMENT
-------------
                                X             Y             Z
Electronic contribution:      0.25964      -0.28021      -0.24385
Nuclear contribution   :     -0.24754       0.26111       0.24628
                        -----------------------------------------
Total Dipole Moment    :      0.01211      -0.01910       0.00243
                        -----------------------------------------
Magnitude (a.u.)       :      0.02275
Magnitude (Debye)      :      0.05782

Rotational constants in cm-1:     1.006509     0.299509     0.263145
Rotational constants in MHz : 30174.379724  8979.049324  7888.875355

                             ****ORCA TERMINATED NORMALLY****
TOTAL RUN TIME: 0 days 0 hours 0 minutes 24 seconds 291 msec
