                         Program Version 5.0.0 -  RELEASE  -
|  1> !wB97X-D3 RIJCOSX def2-TZVPD def2/J TightSCF
|  2> *xyz 0 1
|  3> C          0.13297        2.38587       -4.02462
|  4> C         -1.36646        2.47911       -4.31393
|  5> C         -2.35773        2.30686       -3.13675
|  6> H         -1.63680        1.72709       -5.06399
|  7> H         -1.58235        3.44561       -4.76869
|  8> O         -3.44376        2.84652       -3.25274
|  9> F         -1.97092        1.58304       -2.15123
| 10> H          0.68084        2.52514       -4.93310
| 11> H          0.35823        1.42282       -3.61633
| 12> H          0.40851        3.14443       -3.32208
| 13> *
| 14> %MaxCore 64000
| 15>
| 16> %pal nprocs 4
| 17> end
| 18>
| 19> %scf
| 20>   MaxIter 150
| 21> end
| 22>
| 23>
| 24>                          ****END OF INPUT****

CARTESIAN COORDINATES (ANGSTROEM)
---------------------------------
  C      0.132970    2.385870   -4.024620
  C     -1.366460    2.479110   -4.313930
  C     -2.357730    2.306860   -3.136750
  H     -1.636800    1.727090   -5.063990
  H     -1.582350    3.445610   -4.768690
  O     -3.443760    2.846520   -3.252740
  F     -1.970920    1.583040   -2.151230
  H      0.680840    2.525140   -4.933100
  H      0.358230    1.422820   -3.616330
  H      0.408510    3.144430   -3.322080

 Total Charge           Charge          ....    0
 Multiplicity           Mult            ....    1
 Number of Electrons    NEL             ....   40
 Basis Dimension        Dim             ....  236

ORBITAL ENERGIES
----------------

  NO   OCC          E(Eh)            E(eV)
   0   2.0000     -24.846717      -676.1135
   1   2.0000     -19.241032      -523.5751
   2   2.0000     -10.454062      -284.4695
   3   2.0000     -10.307585      -280.4836
   4   2.0000     -10.279370      -279.7159
   5   2.0000      -1.417144       -38.5625
   6   2.0000      -1.172371       -31.9018
   7   2.0000      -0.916527       -24.9400
   8   2.0000      -0.793686       -21.5973
   9   2.0000      -0.746267       -20.3070
  10   2.0000      -0.645648       -17.5690
  11   2.0000      -0.640335       -17.4244
  12   2.0000      -0.601062       -16.3557
  13   2.0000      -0.568221       -15.4621
  14   2.0000      -0.533475       -14.5166
  15   2.0000      -0.504241       -13.7211
  16   2.0000      -0.488174       -13.2839
  17   2.0000      -0.471094       -12.8191
  18   2.0000      -0.449691       -12.2367
  19   2.0000      -0.393303       -10.7023
  20   0.0000       0.055907         1.5213
  21   0.0000       0.067220         1.8291
  22   0.0000       0.085433         2.3248
  23   0.0000       0.092240         2.5100
  24   0.0000       0.108567         2.9543

MULLIKEN ATOMIC CHARGES
-----------------------
   0 C :   -1.110072
   1 C :   -0.171491
   2 C :    0.545741
   3 H :    0.279457
   4 H :    0.284078
   5 O :   -0.544372
   6 F :   -0.234494
   7 H :    0.318786
   8 H :    0.311141
   9 H :    0.321226
Sum of atomic charges:    0.0000000

LOEWDIN ATOMIC CHARGES
----------------------
   0 C :   -0.101473
   1 C :   -0.150730
   2 C :   -0.474805
   3 H :    0.122243
   4 H :    0.115458
   5 O :    0.104877
   6 F :    0.176011
   7 H :    0.068728
   8 H :    0.067671
   9 H :    0.072019

  Mayer bond orders larger than 0.100000
B(  0-C ,  1-C ) :   0.6630 B(  0-C ,  7-H ) :   0.9581 B(  0-C ,  8-H ) :   0.9595
B(  0-C ,  9-H ) :   0.9561 B(  1-C ,  2-C ) :   0.9517 B(  1-C ,  3-H ) :   0.9031
B(  1-C ,  4-H ) :   0.9416 B(  2-C ,  5-O ) :   1.7067 B(  2-C ,  6-F ) :   0.9607

Dispersion correction           -0.001886654
FINAL SINGLE POINT ENERGY      -292.444281234152

DIPOLE MOMENT
-------------
                                X             Y             Z
Electronic contribution:     -5.88584      -1.63370       5.39635
Nuclear contribution   :      6.94213       1.43193      -5.86732
                        -----------------------------------------
Total Dipole Moment    :      1.05629      -0.20177      -0.47097
                        -----------------------------------------
Magnitude (a.u.)       :      1.17400
Magnitude (Debye)      :      2.98406

Rotational constants in cm-1:     0.306336     0.129048     0.095707
Rotational constants in MHz :  9183.725605  3868.769583  2869.236577

                             ****ORCA TERMINATED NORMALLY****
TOTAL RUN TIME: 0 days 0 hours 0 minutes 40 seconds 886 msec
