                         Program Version 5.0.0 -  RELEASE  -
|  1> !wB97X-D3 RIJCOSX def2-TZVPD def2/J TightSCF xyzfile
|  2>
|  3> *xyzfile 0 1 D1.xyz
|  4>
|  5> %MaxCore 64000
|  6>
|  7> %pal nprocs 18
|  8> end
|  9>
| 10> %scf
| 11>   MaxIter 150
| 12> end
| 13>
| 14>
| 15>                          ****END OF INPUT****

CARTESIAN COORDINATES (ANGSTROEM)
---------------------------------
  C      0.648656    1.003595   -3.645601
  C      0.281280    0.676454   -2.240179
  C      0.132968    2.385869   -4.024618
  C     -1.366462    2.479106   -4.313932
  C     -2.357732    2.306858   -3.136753
  H     -1.636802    1.727095   -5.063993
  H     -1.582347    3.445605   -4.768687
  H      0.390790   -0.319253   -2.026495
  H     -0.692686    0.990104   -2.138123
  H      0.854206    1.212214   -1.575279
  F     -3.443763    2.846518   -3.252744
  O     -1.970922    1.583042   -2.151229
  H      0.190993    0.239655   -4.275752
  H      1.731572    0.931729   -3.750751
  H      0.414839    3.102847   -3.245165
  H      0.683167    2.687560   -4.919721

 Total Charge           Charge          ....    0
 Multiplicity           Mult            ....    1
 Number of Electrons    NEL             ....   56
 Basis Dimension        Dim             ....  346

ORBITAL ENERGIES
----------------

  NO   OCC          E(Eh)            E(eV)
   0   2.0000     -24.881643      -677.0639
   1   2.0000     -19.240158      -523.5513
   2   2.0000     -10.475106      -285.0421
   3   2.0000     -10.314115      -280.6613
   4   2.0000     -10.283132      -279.8183
   5   2.0000     -10.254036      -279.0265
   6   2.0000     -10.180167      -277.0164
   7   2.0000      -1.476271       -40.1714
   8   2.0000      -1.155894       -31.4535
   9   2.0000      -0.933861       -25.4116
  10   2.0000      -0.873491       -23.7689
  11   2.0000      -0.801846       -21.8193
  12   2.0000      -0.769582       -20.9414
  13   2.0000      -0.691841       -18.8259
  14   2.0000      -0.679090       -18.4790
  15   2.0000      -0.664803       -18.0902
  16   2.0000      -0.630868       -17.1668
  17   2.0000      -0.584588       -15.9075
  18   2.0000      -0.552258       -15.0277
  19   2.0000      -0.535188       -14.5632
  20   2.0000      -0.508341       -13.8327
  21   2.0000      -0.479799       -13.0560
  22   2.0000      -0.473545       -12.8858
  23   2.0000      -0.450438       -12.2570
  24   2.0000      -0.436663       -11.8822
  25   2.0000      -0.413618       -11.2551
  26   2.0000      -0.403877       -10.9901
  27   2.0000      -0.339279        -9.2323
  28   0.0000       0.041180         1.1206
  29   0.0000       0.061423         1.6714
  30   0.0000       0.082889         2.2555
  31   0.0000       0.086990         2.3671
  32   0.0000       0.092794         2.5251

MULLIKEN ATOMIC CHARGES
-----------------------
   0 C :   -0.186742
   1 C :   -1.190789
   2 C :   -0.350737
   3 C :   -0.566562
   4 C :    0.683764
   5 H :    0.303155
   6 H :    0.304395
   7 H :    0.368065
   8 H :    0.166713
   9 H :    0.393732
  10 F :   -0.283331
  11 O :   -0.590992
  12 H :    0.276973
  13 H :    0.195641
  14 H :    0.248143
  15 H :    0.228570
Sum of atomic charges:   -0.0000000

LOEWDIN ATOMIC CHARGES
----------------------
   0 C :   -0.252500
   1 C :   -0.123079
   2 C :   -0.202034
   3 C :   -0.088641
   4 C :   -0.414982
   5 H :    0.131139
   6 H :    0.113768
   7 H :    0.057541
   8 H :   -0.053698
   9 H :    0.063470
  10 F :    0.262838
  11 O :    0.055968
  12 H :    0.111227
  13 H :    0.105149
  14 H :    0.124028
  15 H :    0.109808

  Mayer bond orders larger than 0.100000
B(  0-C ,  1-C ) :   0.6248 B(  0-C ,  2-C ) :   0.7992 B(  0-C ,  3-C ) :   0.1657
B(  0-C ,  8-H ) :  -0.1152 B(  0-C , 12-H ) :   0.9423 B(  0-C , 13-H ) :   1.0083
B(  1-C ,  2-C ) :   0.1764 B(  1-C ,  7-H ) :   0.9735 B(  1-C ,  8-H ) :   1.1556
B(  1-C ,  9-H ) :   1.0250 B(  2-C ,  3-C ) :   0.9010 B(  2-C , 14-H ) :   0.9762
B(  2-C , 15-H ) :   0.9914 B(  3-C ,  4-C ) :   0.9467 B(  3-C ,  5-H ) :   0.9168
B(  3-C ,  6-H ) :   0.9369 B(  4-C , 10-F ) :   0.9233 B(  4-C , 11-O ) :   1.6693
B(  8-H , 11-O ) :  -0.2446

Dispersion correction           -0.004674879
FINAL SINGLE POINT ENERGY      -371.004488827473

DIPOLE MOMENT
-------------
                                X             Y             Z
Electronic contribution:    -13.01694       4.59638       1.41029
Nuclear contribution   :     12.79331      -3.91961      -2.45895
                        -----------------------------------------
Total Dipole Moment    :     -0.22363       0.67676      -1.04866
                        -----------------------------------------
Magnitude (a.u.)       :      1.26795
Magnitude (Debye)      :      3.22288

Rotational constants in cm-1:     0.162888     0.059977     0.046450
Rotational constants in MHz :  4883.250030  1798.063289  1392.548669

                             ****ORCA TERMINATED NORMALLY****
TOTAL RUN TIME: 0 days 0 hours 0 minutes 31 seconds 821 msec
