                         Program Version 5.0.0 -  RELEASE  -
|  1> !wB97X-D3 RIJCOSX def2-TZVP def2/J TightSCF
|  2> *xyz -1 1
|  3> C         -7.33044       -2.67899       -3.20681
|  4> S         -6.01966       -2.92697       -4.41913
|  5> O         -5.64583       -1.58838       -4.91931
|  6> O         -4.88196       -3.50370       -3.66724
|  7> O         -6.54927       -3.80515       -5.42507
|  8> C         -6.28692       -0.73588       -1.89353
|  9> C         -7.46900       -1.24615       -2.71383
| 10> H         -7.60191       -0.60135       -3.58533
| 11> H         -8.38979       -1.17344       -2.12692
| 12> H         -7.11825       -3.37982       -2.39805
| 13> H         -8.24184       -3.00474       -3.70651
| 14> H         -5.39124       -0.81034       -2.47415
| 15> H         -6.18709       -1.32597       -1.00655
| 16> H         -6.45393        0.28631       -1.62495
| 17> *
| 18> %MaxCore 64000
| 19>
| 20> %pal nprocs 8
| 21> end
| 22>
| 23> %scf
| 24>   MaxIter 150
| 25> end
| 26>
| 27>
| 28>                          ****END OF INPUT****

CARTESIAN COORDINATES (ANGSTROEM)
---------------------------------
  C     -7.330440   -2.678990   -3.206810
  S     -6.019660   -2.926970   -4.419130
  O     -5.645830   -1.588380   -4.919310
  O     -4.881960   -3.503700   -3.667240
  O     -6.549270   -3.805150   -5.425070
  C     -6.286920   -0.735880   -1.893530
  C     -7.469000   -1.246150   -2.713830
  H     -7.601910   -0.601350   -3.585330
  H     -8.389790   -1.173440   -2.126920
  H     -7.118250   -3.379820   -2.398050
  H     -8.241840   -3.004740   -3.706510
  H     -5.391240   -0.810340   -2.474150
  H     -6.187090   -1.325970   -1.006550
  H     -6.453930    0.286310   -1.624950

 Total Charge           Charge          ....   -1
 Multiplicity           Mult            ....    1
 Number of Electrons    NEL             ....   66
 Basis Dimension        Dim             ....  265

ORBITAL ENERGIES
----------------

  NO   OCC          E(Eh)            E(eV)
   0   2.0000     -88.931884     -2419.9596
   1   2.0000     -19.007791      -517.2283
   2   2.0000     -18.997976      -516.9612
   3   2.0000     -18.992951      -516.8245
   4   2.0000     -10.141938      -275.9762
   5   2.0000     -10.136168      -275.8192
   6   2.0000     -10.123977      -275.4874
   7   2.0000      -7.994570      -217.5433
   8   2.0000      -5.948772      -161.8743
   9   2.0000      -5.947601      -161.8425
  10   2.0000      -5.947268      -161.8334
  11   2.0000      -1.032865       -28.1057
  12   2.0000      -0.899883       -24.4871
  13   2.0000      -0.877601       -23.8807
  14   2.0000      -0.773900       -21.0589
  15   2.0000      -0.679917       -18.5015
  16   2.0000      -0.580080       -15.7848
  17   2.0000      -0.486101       -13.2275
  18   2.0000      -0.431704       -11.7473
  19   2.0000      -0.420917       -11.4537
  20   2.0000      -0.387863       -10.5543
  21   2.0000      -0.375515       -10.2183
  22   2.0000      -0.355795        -9.6817
  23   2.0000      -0.346719        -9.4347
  24   2.0000      -0.317231        -8.6323
  25   2.0000      -0.307302        -8.3621
  26   2.0000      -0.297027        -8.0825
  27   2.0000      -0.242870        -6.6088
  28   2.0000      -0.240678        -6.5492
  29   2.0000      -0.204778        -5.5723
  30   2.0000      -0.197441        -5.3727
  31   2.0000      -0.189233        -5.1493
  32   2.0000      -0.152728        -4.1559
  33   0.0000       0.240722         6.5504
  34   0.0000       0.279171         7.5966
  35   0.0000       0.290163         7.8957
  36   0.0000       0.308680         8.3996
  37   0.0000       0.314596         8.5606

MULLIKEN ATOMIC CHARGES
-----------------------
   0 C :   -0.267687
   1 S :    0.868577
   2 O :   -0.593436
   3 O :   -0.601636
   4 O :   -0.564134
   5 C :   -0.341675
   6 C :   -0.132804
   7 H :    0.097077
   8 H :    0.045925
   9 H :    0.089218
  10 H :    0.099773
  11 H :    0.161840
  12 H :    0.071371
  13 H :    0.067591
Sum of atomic charges:   -1.0000000

LOEWDIN ATOMIC CHARGES
----------------------
   0 C :   -0.400750
   1 S :    0.437105
   2 O :   -0.413722
   3 O :   -0.431970
   4 O :   -0.373880
   5 C :   -0.315061
   6 C :   -0.327996
   7 H :    0.134939
   8 H :    0.115914
   9 H :    0.122869
  10 H :    0.121257
  11 H :    0.125610
  12 H :    0.104961
  13 H :    0.100723

  Mayer bond orders larger than 0.100000
B(  0-C ,  1-S ) :   0.8827 B(  0-C ,  6-C ) :   0.9805 B(  0-C ,  9-H ) :   0.9624
B(  0-C , 10-H ) :   0.9603 B(  1-S ,  2-O ) :   1.7140 B(  1-S ,  3-O ) :   1.7459
B(  1-S ,  4-O ) :   1.8228 B(  5-C ,  6-C ) :   0.9806 B(  5-C , 11-H ) :   0.9677
B(  5-C , 12-H ) :   0.9767 B(  5-C , 13-H ) :   0.9778 B(  6-C ,  7-H ) :   0.9712
B(  6-C ,  8-H ) :   0.9637

Dispersion correction           -0.004501560
FINAL SINGLE POINT ENERGY      -742.533182855068

DIPOLE MOMENT
-------------
                                X             Y             Z
Electronic contribution:      3.83610      -5.88365      -7.97835
Nuclear contribution   :     -5.28952       6.71955       9.52938
                        -----------------------------------------
Total Dipole Moment    :     -1.45342       0.83590       1.55103
                        -----------------------------------------
Magnitude (a.u.)       :      2.28404
Magnitude (Debye)      :      5.80557

Rotational constants in cm-1:     0.135789     0.055302     0.052251
Rotational constants in MHz :  4070.851802  1657.908940  1566.458563

                             ****ORCA TERMINATED NORMALLY****
TOTAL RUN TIME: 0 days 0 hours 0 minutes 30 seconds 835 msec
