                         Program Version 5.0.0 -  RELEASE  -
|  1> !wB97X-D3 RIJCOSX def2-TZVP def2/J TightSCF
|  2> *xyz 1 1
|  3> C         -2.16038       -1.36949       -3.46710
|  4> N         -3.03011       -1.91086       -4.54107
|  5> C         -2.04772        0.14658       -3.51177
|  6> H         -3.47744       -2.79151       -4.25710
|  7> H         -2.53801       -2.01786       -5.43808
|  8> H         -3.89159       -1.37604       -4.71437
|  9> H         -1.18444       -1.84400       -3.56639
| 10> H         -2.59819       -1.70838       -2.52848
| 11> C         -3.32876        0.87504       -3.10367
| 12> H         -1.74003        0.45234       -4.51713
| 13> H         -1.23261        0.43494       -2.84221
| 14> H         -4.12483        0.59148       -3.76000
| 15> H         -3.17368        1.93185       -3.16688
| 16> H         -3.58415        0.61151       -2.09857
| 17> *
| 18> %MaxCore 64000
| 19>
| 20> %pal nprocs 8
| 21> end
| 22>
| 23> %scf
| 24>   MaxIter 150
| 25> end
| 26>
| 27>
| 28>                          ****END OF INPUT****

CARTESIAN COORDINATES (ANGSTROEM)
---------------------------------
  C     -2.160380   -1.369490   -3.467100
  N     -3.030110   -1.910860   -4.541070
  C     -2.047720    0.146580   -3.511770
  H     -3.477440   -2.791510   -4.257100
  H     -2.538010   -2.017860   -5.438080
  H     -3.891590   -1.376040   -4.714370
  H     -1.184440   -1.844000   -3.566390
  H     -2.598190   -1.708380   -2.528480
  C     -3.328760    0.875040   -3.103670
  H     -1.740030    0.452340   -4.517130
  H     -1.232610    0.434940   -2.842210
  H     -4.124830    0.591480   -3.760000
  H     -3.173680    1.931850   -3.166880
  H     -3.584150    0.611510   -2.098570

 Total Charge           Charge          ....    1
 Multiplicity           Mult            ....    1
 Number of Electrons    NEL             ....   34
 Basis Dimension        Dim             ....  184

ORBITAL ENERGIES
----------------

  NO   OCC          E(Eh)            E(eV)
   0   2.0000     -14.753081      -401.4517
   1   2.0000     -10.521880      -286.3149
   2   2.0000     -10.451411      -284.3974
   3   2.0000     -10.416247      -283.4405
   4   2.0000      -1.329794       -36.1855
   5   2.0000      -1.090652       -29.6781
   6   2.0000      -0.998413       -27.1682
   7   2.0000      -0.911584       -24.8055
   8   2.0000      -0.892675       -24.2909
   9   2.0000      -0.866398       -23.5759
  10   2.0000      -0.793347       -21.5881
  11   2.0000      -0.730337       -19.8735
  12   2.0000      -0.705529       -19.1984
  13   2.0000      -0.681241       -18.5375
  14   2.0000      -0.619004       -16.8440
  15   2.0000      -0.612857       -16.6767
  16   2.0000      -0.606574       -16.5057
  17   0.0000      -0.105797        -2.8789
  18   0.0000      -0.047787        -1.3004
  19   0.0000      -0.045483        -1.2377
  20   0.0000      -0.021367        -0.5814
  21   0.0000       0.012626         0.3436

MULLIKEN ATOMIC CHARGES
-----------------------
   0 C :   -0.204520
   1 N :   -0.317746
   2 C :   -0.241306
   3 H :    0.337772
   4 H :    0.344912
   5 H :    0.319330
   6 H :    0.201931
   7 H :    0.193754
   8 C :   -0.336593
   9 H :    0.137842
  10 H :    0.167413
  11 H :    0.075150
  12 H :    0.174476
  13 H :    0.147583
Sum of atomic charges:    1.0000000

LOEWDIN ATOMIC CHARGES
----------------------
   0 C :   -0.257254
   1 N :    0.169085
   2 C :   -0.286560
   3 H :    0.224996
   4 H :    0.225134
   5 H :    0.217916
   6 H :    0.155131
   7 H :    0.153329
   8 C :   -0.283750
   9 H :    0.146275
  10 H :    0.162354
  11 H :    0.107588
  12 H :    0.137662
  13 H :    0.128095

  Mayer bond orders larger than 0.100000
B(  0-C ,  1-N ) :   0.8529 B(  0-C ,  2-C ) :   0.9734 B(  0-C ,  6-H ) :   0.9556
B(  0-C ,  7-H ) :   0.9639 B(  1-N ,  3-H ) :   0.8772 B(  1-N ,  4-H ) :   0.8673
B(  1-N ,  5-H ) :   0.8773 B(  2-C ,  8-C ) :   0.9853 B(  2-C ,  9-H ) :   0.9590
B(  2-C , 10-H ) :   0.9518 B(  8-C , 11-H ) :   0.9713 B(  8-C , 12-H ) :   0.9692
B(  8-C , 13-H ) :   0.9664

Dispersion correction           -0.002834713
FINAL SINGLE POINT ENERGY      -174.866780616306

DIPOLE MOMENT
-------------
                                X             Y             Z
Electronic contribution:      0.32433      -2.15317      -1.10225
Nuclear contribution   :     -0.76147       0.35838       0.01319
                        -----------------------------------------
Total Dipole Moment    :     -0.43714      -1.79479      -1.08906
                        -----------------------------------------
Magnitude (a.u.)       :      2.14439
Magnitude (Debye)      :      5.45061

Rotational constants in cm-1:     0.457188     0.153451     0.133348
Rotational constants in MHz : 13706.154863  4600.337483  3997.673747

                             ****ORCA TERMINATED NORMALLY****
TOTAL RUN TIME: 0 days 0 hours 0 minutes 14 seconds 719 msec
