                         Program Version 5.0.0 -  RELEASE  -
|  1> !wB97X-D3 RIJCOSX def2-TZVP def2/J TightSCF
|  2> *xyz 0 1
|  3> C         -7.33044       -2.67899       -3.20681
|  4> S         -6.01966       -2.92697       -4.41913
|  5> F         -5.64583       -1.58838       -4.91931
|  6> O         -4.88196       -3.50370       -3.66724
|  7> O         -6.54927       -3.80515       -5.42507
|  8> C         -6.28692       -0.73588       -1.89353
|  9> C         -7.46900       -1.24615       -2.71383
| 10> H         -7.60191       -0.60135       -3.58533
| 11> H         -8.38979       -1.17344       -2.12692
| 12> H         -7.11825       -3.37982       -2.39805
| 13> H         -8.24184       -3.00474       -3.70651
| 14> H         -5.39124       -0.81034       -2.47415
| 15> H         -6.18709       -1.32597       -1.00655
| 16> H         -6.45393        0.28631       -1.62495
| 17> *
| 18> %MaxCore 64000
| 19>
| 20> %pal nprocs 8
| 21> end
| 22>
| 23> %scf
| 24>   MaxIter 150
| 25> end
| 26>
| 27>
| 28>                          ****END OF INPUT****

CARTESIAN COORDINATES (ANGSTROEM)
---------------------------------
  C     -7.330440   -2.678990   -3.206810
  S     -6.019660   -2.926970   -4.419130
  F     -5.645830   -1.588380   -4.919310
  O     -4.881960   -3.503700   -3.667240
  O     -6.549270   -3.805150   -5.425070
  C     -6.286920   -0.735880   -1.893530
  C     -7.469000   -1.246150   -2.713830
  H     -7.601910   -0.601350   -3.585330
  H     -8.389790   -1.173440   -2.126920
  H     -7.118250   -3.379820   -2.398050
  H     -8.241840   -3.004740   -3.706510
  H     -5.391240   -0.810340   -2.474150
  H     -6.187090   -1.325970   -1.006550
  H     -6.453930    0.286310   -1.624950

 Total Charge           Charge          ....    0
 Multiplicity           Mult            ....    1
 Number of Electrons    NEL             ....   66
 Basis Dimension        Dim             ....  265

ORBITAL ENERGIES
----------------

  NO   OCC          E(Eh)            E(eV)
   0   2.0000     -89.192938     -2427.0632
   1   2.0000     -24.890576      -677.3070
   2   2.0000     -19.244585      -523.6718
   3   2.0000     -19.229350      -523.2572
   4   2.0000     -10.336610      -281.2735
   5   2.0000     -10.309989      -280.5491
   6   2.0000     -10.278103      -279.6814
   7   2.0000      -8.256321      -224.6659
   8   2.0000      -6.213856      -169.0876
   9   2.0000      -6.207220      -168.9070
  10   2.0000      -6.206870      -168.8975
  11   2.0000      -1.472705       -40.0744
  12   2.0000      -1.222200       -33.2578
  13   2.0000      -1.121544       -30.5188
  14   2.0000      -0.956853       -26.0373
  15   2.0000      -0.867172       -23.5970
  16   2.0000      -0.811462       -22.0810
  17   2.0000      -0.748383       -20.3645
  18   2.0000      -0.690275       -18.7833
  19   2.0000      -0.673016       -18.3137
  20   2.0000      -0.644863       -17.5476
  21   2.0000      -0.596096       -16.2206
  22   2.0000      -0.583344       -15.8736
  23   2.0000      -0.562575       -15.3085
  24   2.0000      -0.546083       -14.8597
  25   2.0000      -0.533216       -14.5095
  26   2.0000      -0.490990       -13.3605
  27   2.0000      -0.484363       -13.1802
  28   2.0000      -0.474052       -12.8996
  29   2.0000      -0.463916       -12.6238
  30   2.0000      -0.426830       -11.6146
  31   2.0000      -0.414189       -11.2707
  32   2.0000      -0.403386       -10.9767
  33   0.0000       0.085425         2.3245
  34   0.0000       0.122405         3.3308
  35   0.0000       0.140336         3.8187
  36   0.0000       0.147733         4.0200
  37   0.0000       0.151087         4.1113

MULLIKEN ATOMIC CHARGES
-----------------------
   0 C :   -0.266937
   1 S :    0.890048
   2 F :   -0.124067
   3 O :   -0.460054
   4 O :   -0.422183
   5 C :   -0.339895
   6 C :   -0.216337
   7 H :    0.118809
   8 H :    0.120462
   9 H :    0.165246
  10 H :    0.168767
  11 H :    0.123238
  12 H :    0.117436
  13 H :    0.125467
Sum of atomic charges:   -0.0000000

LOEWDIN ATOMIC CHARGES
----------------------
   0 C :   -0.360016
   1 S :    0.561978
   2 F :    0.061721
   3 O :   -0.317387
   4 O :   -0.261300
   5 C :   -0.298816
   6 C :   -0.317238
   7 H :    0.137405
   8 H :    0.142360
   9 H :    0.150579
  10 H :    0.144576
  11 H :    0.116218
  12 H :    0.120046
  13 H :    0.119874

  Mayer bond orders larger than 0.100000
B(  0-C ,  1-S ) :   0.9097 B(  0-C ,  6-C ) :   0.9757 B(  0-C ,  9-H ) :   0.9425
B(  0-C , 10-H ) :   0.9450 B(  1-S ,  2-F ) :   1.1009 B(  1-S ,  3-O ) :   1.8753
B(  1-S ,  4-O ) :   1.9454 B(  5-C ,  6-C ) :   0.9780 B(  5-C , 11-H ) :   0.9746
B(  5-C , 12-H ) :   0.9725 B(  5-C , 13-H ) :   0.9754 B(  6-C ,  7-H ) :   0.9737
B(  6-C ,  8-H ) :   0.9600

Dispersion correction           -0.004487415
FINAL SINGLE POINT ENERGY      -767.064124807294

DIPOLE MOMENT
-------------
                                X             Y             Z
Electronic contribution:      4.80922      -4.56758      -9.85502
Nuclear contribution   :     -5.93570       5.78812      10.65621
                        -----------------------------------------
Total Dipole Moment    :     -1.12648       1.22054       0.80119
                        -----------------------------------------
Magnitude (a.u.)       :      1.84407
Magnitude (Debye)      :      4.68724

Rotational constants in cm-1:     0.129417     0.054385     0.051980
Rotational constants in MHz :  3879.823072  1630.427453  1558.324762

                             ****ORCA TERMINATED NORMALLY****
TOTAL RUN TIME: 0 days 0 hours 0 minutes 30 seconds 614 msec
