                         Program Version 5.0.0 -  RELEASE  -
|  1> !wB97X-D3 RIJCOSX def2-TZVP def2/J TightSCF
|  2> *xyz 0 1
|  3> C         -2.16038       -1.36949       -3.46710
|  4> C         -3.03011       -1.91086       -4.54107
|  5> C         -2.04772        0.14658       -3.51177
|  6> H         -3.47744       -2.79151       -4.25710
|  7> H         -2.53801       -2.01786       -5.43808
|  8> H         -3.89159       -1.37604       -4.71437
|  9> H         -1.18444       -1.84400       -3.56639
| 10> H         -2.59819       -1.70838       -2.52848
| 11> C         -3.32876        0.87504       -3.10367
| 12> H         -1.74003        0.45234       -4.51713
| 13> H         -1.23261        0.43494       -2.84221
| 14> H         -4.12483        0.59148       -3.76000
| 15> H         -3.17368        1.93185       -3.16688
| 16> H         -3.58415        0.61151       -2.09857
| 17> *
| 18> %MaxCore 64000
| 19>
| 20> %pal nprocs 8
| 21> end
| 22>
| 23> %scf
| 24>   MaxIter 150
| 25> end
| 26>
| 27>
| 28>                          ****END OF INPUT****

CARTESIAN COORDINATES (ANGSTROEM)
---------------------------------
  C     -2.160380   -1.369490   -3.467100
  C     -3.030110   -1.910860   -4.541070
  C     -2.047720    0.146580   -3.511770
  H     -3.477440   -2.791510   -4.257100
  H     -2.538010   -2.017860   -5.438080
  H     -3.891590   -1.376040   -4.714370
  H     -1.184440   -1.844000   -3.566390
  H     -2.598190   -1.708380   -2.528480
  C     -3.328760    0.875040   -3.103670
  H     -1.740030    0.452340   -4.517130
  H     -1.232610    0.434940   -2.842210
  H     -4.124830    0.591480   -3.760000
  H     -3.173680    1.931850   -3.166880
  H     -3.584150    0.611510   -2.098570

 Total Charge           Charge          ....    0
 Multiplicity           Mult            ....    1
 Number of Electrons    NEL             ....   34
 Basis Dimension        Dim             ....  184

ORBITAL ENERGIES
----------------

  NO   OCC          E(Eh)            E(eV)
   0   2.0000     -10.262889      -279.2674
   1   2.0000     -10.258795      -279.1560
   2   2.0000     -10.251379      -278.9542
   3   2.0000     -10.230701      -278.3915
   4   2.0000      -0.919049       -25.0086
   5   2.0000      -0.844672       -22.9847
   6   2.0000      -0.757879       -20.6229
   7   2.0000      -0.678218       -18.4553
   8   2.0000      -0.568135       -15.4597
   9   2.0000      -0.561155       -15.2698
  10   2.0000      -0.527239       -14.3469
  11   2.0000      -0.484708       -13.1896
  12   2.0000      -0.474101       -12.9009
  13   2.0000      -0.459465       -12.5027
  14   2.0000      -0.415436       -11.3046
  15   2.0000      -0.413910       -11.2631
  16   2.0000      -0.410390       -11.1673
  17   0.0000       0.120853         3.2886
  18   0.0000       0.154386         4.2011
  19   0.0000       0.157142         4.2761
  20   0.0000       0.163679         4.4539
  21   0.0000       0.187692         5.1074

MULLIKEN ATOMIC CHARGES
-----------------------
   0 C :   -0.148424
   1 C :   -0.353516
   2 C :   -0.164496
   3 H :    0.111123
   4 H :    0.113724
   5 H :    0.097516
   6 H :    0.094406
   7 H :    0.085905
   8 C :   -0.339445
   9 H :    0.088774
  10 H :    0.092706
  11 H :    0.099737
  12 H :    0.115503
  13 H :    0.106487
Sum of atomic charges:   -0.0000000

LOEWDIN ATOMIC CHARGES
----------------------
   0 C :   -0.299248
   1 C :   -0.304974
   2 C :   -0.293569
   3 H :    0.110842
   4 H :    0.107876
   5 H :    0.107688
   6 H :    0.134438
   7 H :    0.134738
   8 C :   -0.302253
   9 H :    0.132562
  10 H :    0.130892
  11 H :    0.111736
  12 H :    0.114800
  13 H :    0.114471

  Mayer bond orders larger than 0.100000
B(  0-C ,  1-C ) :   0.9637 B(  0-C ,  2-C ) :   0.9743 B(  0-C ,  6-H ) :   0.9744
B(  0-C ,  7-H ) :   0.9860 B(  1-C ,  3-H ) :   0.9854 B(  1-C ,  4-H ) :   0.9804
B(  1-C ,  5-H ) :   0.9874 B(  2-C ,  8-C ) :   0.9821 B(  2-C ,  9-H ) :   0.9740
B(  2-C , 10-H ) :   0.9761 B(  8-C , 11-H ) :   0.9800 B(  8-C , 12-H ) :   0.9825
B(  8-C , 13-H ) :   0.9789

Dispersion correction           -0.002735097
FINAL SINGLE POINT ENERGY      -158.452663761960

DIPOLE MOMENT
-------------
                                X             Y             Z
Electronic contribution:      0.86865       0.03295       0.25549
Nuclear contribution   :     -0.87438      -0.05339      -0.25605
                        -----------------------------------------
Total Dipole Moment    :     -0.00574      -0.02044      -0.00056
                        -----------------------------------------
Magnitude (a.u.)       :      0.02123
Magnitude (Debye)      :      0.05397

Rotational constants in cm-1:     0.464420     0.160323     0.139078
Rotational constants in MHz : 13922.972952  4806.377145  4169.443621

                             ****ORCA TERMINATED NORMALLY****
TOTAL RUN TIME: 0 days 0 hours 0 minutes 14 seconds 936 msec
