                         Program Version 5.0.0 -  RELEASE  -
|  1> !wB97X-D3 RIJCOSX def2-TZVP def2/J TightSCF
|  2> *xyz 0 1
|  3> C         -7.33044       -2.67899       -3.20681
|  4> S         -6.01966       -2.92697       -4.41913
|  5> O         -5.64583       -1.58838       -4.91931
|  6> F         -4.88196       -3.50370       -3.66724
|  7> O         -6.54927       -3.80515       -5.42507
|  8> C         -6.28692       -0.73588       -1.89353
|  9> C         -7.46900       -1.24615       -2.71383
| 10> H         -7.60191       -0.60135       -3.58533
| 11> H         -8.38979       -1.17344       -2.12692
| 12> H         -7.11825       -3.37982       -2.39805
| 13> H         -8.24184       -3.00474       -3.70651
| 14> H         -5.39124       -0.81034       -2.47415
| 15> H         -6.18709       -1.32597       -1.00655
| 16> H         -6.45393        0.28631       -1.62495
| 17> *
| 18> %MaxCore 64000
| 19>
| 20> %pal nprocs 8
| 21> end
| 22>
| 23> %scf
| 24>   MaxIter 150
| 25> end
| 26>
| 27>
| 28>                          ****END OF INPUT****

CARTESIAN COORDINATES (ANGSTROEM)
---------------------------------
  C     -7.330440   -2.678990   -3.206810
  S     -6.019660   -2.926970   -4.419130
  O     -5.645830   -1.588380   -4.919310
  F     -4.881960   -3.503700   -3.667240
  O     -6.549270   -3.805150   -5.425070
  C     -6.286920   -0.735880   -1.893530
  C     -7.469000   -1.246150   -2.713830
  H     -7.601910   -0.601350   -3.585330
  H     -8.389790   -1.173440   -2.126920
  H     -7.118250   -3.379820   -2.398050
  H     -8.241840   -3.004740   -3.706510
  H     -5.391240   -0.810340   -2.474150
  H     -6.187090   -1.325970   -1.006550
  H     -6.453930    0.286310   -1.624950

 Total Charge           Charge          ....    0
 Multiplicity           Mult            ....    1
 Number of Electrons    NEL             ....   66
 Basis Dimension        Dim             ....  265

ORBITAL ENERGIES
----------------

  NO   OCC          E(Eh)            E(eV)
   0   2.0000     -89.193708     -2427.0842
   1   2.0000     -24.887373      -677.2198
   2   2.0000     -19.245131      -523.6866
   3   2.0000     -19.233702      -523.3756
   4   2.0000     -10.337279      -281.2917
   5   2.0000     -10.301536      -280.3191
   6   2.0000     -10.271798      -279.5098
   7   2.0000      -8.257060      -224.6860
   8   2.0000      -6.214519      -169.1057
   9   2.0000      -6.208170      -168.9329
  10   2.0000      -6.207502      -168.9147
  11   2.0000      -1.468675       -39.9647
  12   2.0000      -1.223948       -33.3053
  13   2.0000      -1.126060       -30.6416
  14   2.0000      -0.951476       -25.8910
  15   2.0000      -0.866253       -23.5719
  16   2.0000      -0.808904       -22.0114
  17   2.0000      -0.742373       -20.2010
  18   2.0000      -0.676279       -18.4025
  19   2.0000      -0.668746       -18.1975
  20   2.0000      -0.655854       -17.8467
  21   2.0000      -0.597583       -16.2611
  22   2.0000      -0.586880       -15.9698
  23   2.0000      -0.551868       -15.0171
  24   2.0000      -0.543924       -14.8009
  25   2.0000      -0.534616       -14.5476
  26   2.0000      -0.490228       -13.3398
  27   2.0000      -0.478476       -13.0200
  28   2.0000      -0.464397       -12.6369
  29   2.0000      -0.458688       -12.4815
  30   2.0000      -0.425685       -11.5835
  31   2.0000      -0.422043       -11.4844
  32   2.0000      -0.407348       -11.0845
  33   0.0000       0.099804         2.7158
  34   0.0000       0.112418         3.0590
  35   0.0000       0.133719         3.6387
  36   0.0000       0.149093         4.0570
  37   0.0000       0.158762         4.3201

MULLIKEN ATOMIC CHARGES
-----------------------
   0 C :   -0.295508
   1 S :    0.894676
   2 O :   -0.456784
   3 F :   -0.124951
   4 O :   -0.423288
   5 C :   -0.366799
   6 C :   -0.170066
   7 H :    0.136568
   8 H :    0.114313
   9 H :    0.145579
  10 H :    0.178180
  11 H :    0.135981
  12 H :    0.106993
  13 H :    0.125106
Sum of atomic charges:    0.0000000

LOEWDIN ATOMIC CHARGES
----------------------
   0 C :   -0.366928
   1 S :    0.564248
   2 O :   -0.302892
   3 F :    0.050829
   4 O :   -0.261807
   5 C :   -0.302568
   6 C :   -0.309201
   7 H :    0.146480
   8 H :    0.140677
   9 H :    0.137975
  10 H :    0.150075
  11 H :    0.117935
  12 H :    0.114134
  13 H :    0.121045

  Mayer bond orders larger than 0.100000
B(  0-C ,  1-S ) :   0.9032 B(  0-C ,  6-C ) :   0.9676 B(  0-C ,  9-H ) :   0.9489
B(  0-C , 10-H ) :   0.9415 B(  1-S ,  2-O ) :   1.8574 B(  1-S ,  3-F ) :   1.1063
B(  1-S ,  4-O ) :   1.9445 B(  5-C ,  6-C ) :   0.9737 B(  5-C , 11-H ) :   0.9731
B(  5-C , 12-H ) :   0.9739 B(  5-C , 13-H ) :   0.9768 B(  6-C ,  7-H ) :   0.9648
B(  6-C ,  8-H ) :   0.9547

Dispersion correction           -0.004440525
FINAL SINGLE POINT ENERGY      -767.067948317755

DIPOLE MOMENT
-------------
                                X             Y             Z
Electronic contribution:      6.17228      -7.89920      -7.74055
Nuclear contribution   :     -6.75719       7.84793       9.30968
                        -----------------------------------------
Total Dipole Moment    :     -0.58492      -0.05126       1.56912
                        -----------------------------------------
Magnitude (a.u.)       :      1.67538
Magnitude (Debye)      :      4.25848

Rotational constants in cm-1:     0.129104     0.054499     0.051192
Rotational constants in MHz :  3870.429564  1633.827608  1534.709243

                             ****ORCA TERMINATED NORMALLY****
TOTAL RUN TIME: 0 days 0 hours 0 minutes 30 seconds 259 msec
