                         Program Version 5.0.0 -  RELEASE  -
|  1> !wB97X-D3 RIJCOSX def2-TZVP def2/J TightSCF
|  2> *xyz 0 1
|  3> C         -7.33044       -2.67899       -3.20681
|  4> S         -6.01966       -2.92697       -4.41913
|  5> O         -5.64583       -1.58838       -4.91931
|  6> O         -4.88196       -3.50370       -3.66724
|  7> F         -6.54927       -3.80515       -5.42507
|  8> C         -6.28692       -0.73588       -1.89353
|  9> C         -7.46900       -1.24615       -2.71383
| 10> H         -7.60191       -0.60135       -3.58533
| 11> H         -8.38979       -1.17344       -2.12692
| 12> H         -7.11825       -3.37982       -2.39805
| 13> H         -8.24184       -3.00474       -3.70651
| 14> H         -5.39124       -0.81034       -2.47415
| 15> H         -6.18709       -1.32597       -1.00655
| 16> H         -6.45393        0.28631       -1.62495
| 17> *
| 18> %MaxCore 64000
| 19>
| 20> %pal nprocs 8
| 21> end
| 22>
| 23> %scf
| 24>   MaxIter 150
| 25> end
| 26>
| 27>
| 28>                          ****END OF INPUT****

CARTESIAN COORDINATES (ANGSTROEM)
---------------------------------
  C     -7.330440   -2.678990   -3.206810
  S     -6.019660   -2.926970   -4.419130
  O     -5.645830   -1.588380   -4.919310
  O     -4.881960   -3.503700   -3.667240
  F     -6.549270   -3.805150   -5.425070
  C     -6.286920   -0.735880   -1.893530
  C     -7.469000   -1.246150   -2.713830
  H     -7.601910   -0.601350   -3.585330
  H     -8.389790   -1.173440   -2.126920
  H     -7.118250   -3.379820   -2.398050
  H     -8.241840   -3.004740   -3.706510
  H     -5.391240   -0.810340   -2.474150
  H     -6.187090   -1.325970   -1.006550
  H     -6.453930    0.286310   -1.624950

 Total Charge           Charge          ....    0
 Multiplicity           Mult            ....    1
 Number of Electrons    NEL             ....   66
 Basis Dimension        Dim             ....  265

ORBITAL ENERGIES
----------------

  NO   OCC          E(Eh)            E(eV)
   0   2.0000     -89.196025     -2427.1472
   1   2.0000     -24.910265      -677.8428
   2   2.0000     -19.234445      -523.3959
   3   2.0000     -19.230851      -523.2981
   4   2.0000     -10.337759      -281.3047
   5   2.0000     -10.301064      -280.3062
   6   2.0000     -10.263730      -279.2903
   7   2.0000      -8.259393      -224.7495
   8   2.0000      -6.216691      -169.1648
   9   2.0000      -6.210356      -168.9924
  10   2.0000      -6.209997      -168.9826
  11   2.0000      -1.505863       -40.9766
  12   2.0000      -1.208308       -32.8797
  13   2.0000      -1.109107       -30.1803
  14   2.0000      -0.949812       -25.8457
  15   2.0000      -0.871060       -23.7027
  16   2.0000      -0.819230       -22.2924
  17   2.0000      -0.744812       -20.2674
  18   2.0000      -0.696611       -18.9557
  19   2.0000      -0.690749       -18.7962
  20   2.0000      -0.658103       -17.9079
  21   2.0000      -0.592279       -16.1167
  22   2.0000      -0.586252       -15.9527
  23   2.0000      -0.556408       -15.1406
  24   2.0000      -0.538971       -14.6661
  25   2.0000      -0.519699       -14.1417
  26   2.0000      -0.481537       -13.1033
  27   2.0000      -0.468584       -12.7508
  28   2.0000      -0.465075       -12.6553
  29   2.0000      -0.450101       -12.2479
  30   2.0000      -0.420909       -11.4535
  31   2.0000      -0.413025       -11.2390
  32   2.0000      -0.394151       -10.7254
  33   0.0000       0.100531         2.7356
  34   0.0000       0.107158         2.9159
  35   0.0000       0.134001         3.6464
  36   0.0000       0.151459         4.1214
  37   0.0000       0.154087         4.1929

MULLIKEN ATOMIC CHARGES
-----------------------
   0 C :   -0.279640
   1 S :    0.885449
   2 O :   -0.449507
   3 O :   -0.450860
   4 F :   -0.097515
   5 C :   -0.353935
   6 C :   -0.183555
   7 H :    0.126941
   8 H :    0.115332
   9 H :    0.162036
  10 H :    0.146524
  11 H :    0.152533
  12 H :    0.106529
  13 H :    0.119669
Sum of atomic charges:   -0.0000000

LOEWDIN ATOMIC CHARGES
----------------------
   0 C :   -0.370110
   1 S :    0.556959
   2 O :   -0.299991
   3 O :   -0.312886
   4 F :    0.104233
   5 C :   -0.297250
   6 C :   -0.307234
   7 H :    0.144163
   8 H :    0.141052
   9 H :    0.146638
  10 H :    0.135432
  11 H :    0.124075
  12 H :    0.115911
  13 H :    0.119009

  Mayer bond orders larger than 0.100000
B(  0-C ,  1-S ) :   0.9076 B(  0-C ,  6-C ) :   0.9742 B(  0-C ,  9-H ) :   0.9416
B(  0-C , 10-H ) :   0.9442 B(  1-S ,  2-O ) :   1.8642 B(  1-S ,  3-O ) :   1.8848
B(  1-S ,  4-F ) :   1.1527 B(  5-C ,  6-C ) :   0.9859 B(  5-C , 11-H ) :   0.9703
B(  5-C , 12-H ) :   0.9729 B(  5-C , 13-H ) :   0.9761 B(  6-C ,  7-H ) :   0.9665
B(  6-C ,  8-H ) :   0.9565

Dispersion correction           -0.004488984
FINAL SINGLE POINT ENERGY      -767.049427505999

DIPOLE MOMENT
-------------
                                X             Y             Z
Electronic contribution:      3.28977      -8.43234     -10.81820
Nuclear contribution   :     -4.96410       8.17213      11.20012
                        -----------------------------------------
Total Dipole Moment    :     -1.67433      -0.26022       0.38192
                        -----------------------------------------
Magnitude (a.u.)       :      1.73694
Magnitude (Debye)      :      4.41495

Rotational constants in cm-1:     0.133784     0.053405     0.050278
Rotational constants in MHz :  4010.731548  1601.045142  1507.298018

                             ****ORCA TERMINATED NORMALLY****
TOTAL RUN TIME: 0 days 0 hours 0 minutes 30 seconds 559 msec
