                         Program Version 5.0.0 -  RELEASE  -
|  1> !wB97X-D3 RIJCOSX def2-TZVP def2/J TightSCF xyzfile
|  2>
|  3> *xyzfile 0 1 D3.xyz
|  4>
|  5> %MaxCore 64000
|  6>
|  7> %pal nprocs 18
|  8> end
|  9>
| 10> %scf
| 11>   MaxIter 150
| 12> end
| 13>
| 14>
| 15>                          ****END OF INPUT****

CARTESIAN COORDINATES (ANGSTROEM)
---------------------------------
  C     -2.160376   -1.369486   -3.467104
  C     -3.030108   -1.910857   -4.541074
  C     -2.047717    0.146583   -3.511774
  C     -7.330440   -2.678991   -3.206811
  S     -6.019659   -2.926965   -4.419128
  H     -3.477443   -2.791513   -4.257096
  H     -2.538013   -2.017860   -5.438075
  H     -3.891589   -1.376039   -4.714365
  O     -5.645830   -1.588384   -4.919307
  O     -4.881961   -3.503697   -3.667235
  H     -1.184438   -1.843997   -3.566393
  H     -2.598195   -1.708376   -2.528477
  F     -6.549267   -3.805150   -5.425071
  C     -3.328755    0.875037   -3.103669
  H     -1.740034    0.452343   -4.517126
  H     -1.232611    0.434938   -2.842208
  C     -3.628487    0.771601   -1.609363
  H     -4.175106    0.490791   -3.682203
  H     -3.237812    1.928663   -3.381480
  C     -4.975718    1.361432   -1.190644
  H     -2.830700    1.276234   -1.054766
  H     -3.594312   -0.275838   -1.294603
  C     -6.184720    0.784347   -1.926464
  H     -4.956292    2.445725   -1.342200
  H     -5.097256    1.205252   -0.114136
  C     -6.286921   -0.735882   -1.893531
  H     -6.163994    1.100199   -2.974250
  H     -7.094530    1.223459   -1.504509
  C     -7.468999   -1.246153   -2.713833
  H     -6.360641   -1.090347   -0.859176
  H     -5.369848   -1.171853   -2.295982
  H     -7.601914   -0.601349   -3.585329
  H     -8.389791   -1.173436   -2.126922
  H     -7.118254   -3.379818   -2.398055
  H     -8.241838   -3.004745   -3.706513

 Total Charge           Charge          ....    0
 Multiplicity           Mult            ....    1
 Number of Electrons    NEL             ....  122
 Basis Dimension        Dim             ....  566

ORBITAL ENERGIES
----------------

  NO   OCC          E(Eh)            E(eV)
   0   2.0000     -89.206147     -2427.4227
   1   2.0000     -24.918563      -678.0686
   2   2.0000     -19.243887      -523.6528
   3   2.0000     -19.240602      -523.5634
   4   2.0000     -10.342757      -281.4407
   5   2.0000     -10.302341      -280.3410
   6   2.0000     -10.276185      -279.6292
   7   2.0000     -10.268458      -279.4189
   8   2.0000     -10.262771      -279.2642
   9   2.0000     -10.254611      -279.0421
  10   2.0000     -10.248649      -278.8799
  11   2.0000     -10.242803      -278.7208
  12   2.0000     -10.231179      -278.4045
  13   2.0000     -10.173642      -276.8389
  14   2.0000      -8.269657      -225.0288
  15   2.0000      -6.227033      -169.4462
  16   2.0000      -6.220518      -169.2689
  17   2.0000      -6.220289      -169.2627
  18   2.0000      -1.514065       -41.1998
  19   2.0000      -1.223146       -33.2835
  20   2.0000      -1.124016       -30.5860
  21   2.0000      -0.959575       -26.1114
  22   2.0000      -0.924884       -25.1674
  23   2.0000      -0.894992       -24.3540
  24   2.0000      -0.873110       -23.7585
  25   2.0000      -0.837572       -22.7915
  26   2.0000      -0.812916       -22.1206
  27   2.0000      -0.775559       -21.1040
  28   2.0000      -0.740069       -20.1383
  29   2.0000      -0.720052       -19.5936
  30   2.0000      -0.706046       -19.2125
  31   2.0000      -0.698075       -18.9956
  32   2.0000      -0.673539       -18.3279
  33   2.0000      -0.666993       -18.1498
  34   2.0000      -0.640676       -17.4337
  35   2.0000      -0.602850       -16.4044
  36   2.0000      -0.590780       -16.0759
  37   2.0000      -0.574565       -15.6347
  38   2.0000      -0.569293       -15.4913
  39   2.0000      -0.560978       -15.2650
  40   2.0000      -0.546390       -14.8680
  41   2.0000      -0.529950       -14.4207
  42   2.0000      -0.519390       -14.1333
  43   2.0000      -0.515547       -14.0287
  44   2.0000      -0.502646       -13.6777
  45   2.0000      -0.484411       -13.1815
  46   2.0000      -0.479554       -13.0493
  47   2.0000      -0.473343       -12.8803
  48   2.0000      -0.460272       -12.5246
  49   2.0000      -0.448808       -12.2127
  50   2.0000      -0.442185       -12.0325
  51   2.0000      -0.431666       -11.7462
  52   2.0000      -0.427828       -11.6418
  53   2.0000      -0.424809       -11.5596
  54   2.0000      -0.416127       -11.3234
  55   2.0000      -0.406056       -11.0494
  56   2.0000      -0.399430       -10.8690
  57   2.0000      -0.395068       -10.7503
  58   2.0000      -0.380030       -10.3411
  59   2.0000      -0.371173       -10.1001
  60   2.0000      -0.356648        -9.7049
  61   0.0000       0.096297         2.6204
  62   0.0000       0.099528         2.7083
  63   0.0000       0.123500         3.3606
  64   0.0000       0.127005         3.4560
  65   0.0000       0.132011         3.5922

MULLIKEN ATOMIC CHARGES
-----------------------
   0 C :   -0.170553
   1 C :   -0.423176
   2 C :   -0.113659
   3 C :   -0.277914
   4 S :    0.921140
   5 H :    0.142893
   6 H :    0.094608
   7 H :    0.130989
   8 O :   -0.454656
   9 O :   -0.450465
  10 H :    0.085362
  11 H :    0.087470
  12 F :   -0.096018
  13 C :   -0.252426
  14 H :    0.092899
  15 H :    0.081249
  16 C :   -0.244443
  17 H :    0.121885
  18 H :    0.096461
  19 C :   -0.151277
  20 H :    0.104574
  21 H :    0.111515
  22 C :   -0.233003
  23 H :    0.101208
  24 H :    0.099894
  25 C :   -0.284616
  26 H :    0.127942
  27 H :    0.103373
  28 C :   -0.168677
  29 H :    0.107853
  30 H :    0.127729
  31 H :    0.132784
  32 H :    0.126896
  33 H :    0.165558
  34 H :    0.156603
Sum of atomic charges:    0.0000000

LOEWDIN ATOMIC CHARGES
----------------------
   0 C :   -0.302234
   1 C :   -0.338047
   2 C :   -0.267273
   3 C :   -0.362516
   4 S :    0.575962
   5 H :    0.098505
   6 H :    0.098379
   7 H :    0.100491
   8 O :   -0.273760
   9 O :   -0.280375
  10 H :    0.130617
  11 H :    0.129559
  12 F :    0.109437
  13 C :   -0.265143
  14 H :    0.134467
  15 H :    0.131118
  16 C :   -0.270158
  17 H :    0.136504
  18 H :    0.132959
  19 C :   -0.268364
  20 H :    0.135223
  21 H :    0.132673
  22 C :   -0.270882
  23 H :    0.136135
  24 H :    0.134391
  25 C :   -0.266753
  26 H :    0.138806
  27 H :    0.134610
  28 C :   -0.279280
  29 H :    0.136094
  30 H :    0.141719
  31 H :    0.147588
  32 H :    0.145042
  33 H :    0.148192
  34 H :    0.136316

  Mayer bond orders larger than 0.100000
B(  0-C ,  1-C ) :   0.9380 B(  0-C ,  2-C ) :   0.9576 B(  0-C , 10-H ) :   0.9784
B(  0-C , 11-H ) :   1.0051 B(  1-C ,  5-H ) :   0.9737 B(  1-C ,  6-H ) :   0.9746
B(  1-C ,  7-H ) :   0.9906 B(  2-C , 13-C ) :   0.9839 B(  2-C , 14-H ) :   0.9712
B(  2-C , 15-H ) :   0.9794 B(  3-C ,  4-S ) :   0.9099 B(  3-C , 28-C ) :   0.9671
B(  3-C , 33-H ) :   0.9415 B(  3-C , 34-H ) :   0.9512 B(  4-S ,  8-O ) :   1.8201
B(  4-S ,  9-O ) :   1.8193 B(  4-S , 12-F ) :   1.1585 B( 13-C , 16-C ) :   0.9518
B( 13-C , 17-H ) :   0.9857 B( 13-C , 18-H ) :   0.9711 B( 16-C , 19-C ) :   0.9659
B( 16-C , 20-H ) :   0.9715 B( 16-C , 21-H ) :   0.9902 B( 19-C , 22-C ) :   0.9778
B( 19-C , 23-H ) :   0.9809 B( 19-C , 24-H ) :   0.9833 B( 22-C , 25-C ) :   0.9523
B( 22-C , 26-H ) :   0.9848 B( 22-C , 27-H ) :   0.9749 B( 25-C , 28-C ) :   0.9586
B( 25-C , 29-H ) :   0.9625 B( 25-C , 30-H ) :   0.9890 B( 28-C , 31-H ) :   0.9755
B( 28-C , 32-H ) :   0.9564

Dispersion correction           -0.018589015
FINAL SINGLE POINT ENERGY     -1042.224549088446

DIPOLE MOMENT
-------------
                                X             Y             Z
Electronic contribution:    -12.68771     -20.30650     -14.32297
Nuclear contribution   :     10.70731      19.84772      14.63855
                        -----------------------------------------
Total Dipole Moment    :     -1.98040      -0.45878       0.31559
                        -----------------------------------------
Magnitude (a.u.)       :      2.05720
Magnitude (Debye)      :      5.22898

Rotational constants in cm-1:     0.026014     0.014812     0.010477
Rotational constants in MHz :   779.874765   444.063394   314.081855

                             ****ORCA TERMINATED NORMALLY****
TOTAL RUN TIME: 0 days 0 hours 1 minutes 37 seconds 478 msec
