                         Program Version 5.0.0 -  RELEASE  -
|  1> !LC-PBE RIJCOSX def2-TZVPD def2/J TightSCF
|  2> *xyz -1 1
|  3> C         -1.91658       -2.48508       -3.64367
|  4> C         -1.36353       -1.98134       -2.29361
|  5> O         -0.35039       -2.74969       -1.79601
|  6> H         -2.22622       -1.90839       -1.60204
|  7> H         -1.05135       -0.91567       -2.44333
|  8> H         -1.11522       -2.57167       -4.34739
|  9> H         -2.64227       -1.79099       -4.01314
| 10> H         -2.37564       -3.44180       -3.50640
| 11> *
| 12>
| 13> %MaxCore 64000
| 14> %pal nprocs 4
| 15> end
| 16>
| 17> %scf
| 18>   MaxIter 150
| 19> end
| 20>
| 21>
| 22>                          ****END OF INPUT****

CARTESIAN COORDINATES (ANGSTROEM)
---------------------------------
  C     -1.916580   -2.485080   -3.643670
  C     -1.363530   -1.981340   -2.293610
  O     -0.350390   -2.749690   -1.796010
  H     -2.226220   -1.908390   -1.602040
  H     -1.051350   -0.915670   -2.443330
  H     -1.115220   -2.571670   -4.347390
  H     -2.642270   -1.790990   -4.013140
  H     -2.375640   -3.441800   -3.506400

 Total Charge           Charge          ....   -1
 Multiplicity           Mult            ....    1
 Number of Electrons    NEL             ....   26
 Basis Dimension        Dim             ....  159

ORBITAL ENERGIES
----------------

  NO   OCC          E(Eh)            E(eV)
   0   2.0000     -18.632517      -507.0166
   1   2.0000      -9.927010      -270.1277
   2   2.0000      -9.902804      -269.4690
   3   2.0000      -0.843243       -22.9458
   4   2.0000      -0.695182       -18.9169
   5   2.0000      -0.527784       -14.3617
   6   2.0000      -0.393408       -10.7052
   7   2.0000      -0.367400        -9.9975
   8   2.0000      -0.307933        -8.3793
   9   2.0000      -0.287360        -7.8195
  10   2.0000      -0.243149        -6.6164
  11   2.0000      -0.093000        -2.5307
  12   2.0000      -0.089775        -2.4429
  13   0.0000       0.209667         5.7053
  14   0.0000       0.229993         6.2584
  15   0.0000       0.261510         7.1161
  16   0.0000       0.262406         7.1404
  17   0.0000       0.285649         7.7729

MULLIKEN ATOMIC CHARGES
-----------------------
   0 C :   -0.991178
   1 C :   -0.400862
   2 O :   -0.915821
   3 H :    0.213959
   4 H :    0.210724
   5 H :    0.272172
   6 H :    0.345281
   7 H :    0.265724
Sum of atomic charges:   -1.0000000

LOEWDIN ATOMIC CHARGES
----------------------
   0 C :   -0.188644
   1 C :   -0.647342
   2 O :   -0.432975
   3 H :    0.065370
   4 H :    0.069303
   5 H :    0.048625
   6 H :    0.038208
   7 H :    0.047454

  Mayer bond orders larger than 0.100000
B(  0-C ,  1-C ) :   0.7491 B(  0-C ,  2-O ) :   0.1898 B(  0-C ,  5-H ) :   0.9721
B(  0-C ,  6-H ) :   0.9301 B(  0-C ,  7-H ) :   0.9722 B(  1-C ,  2-O ) :   1.0095
B(  1-C ,  3-H ) :   1.0387 B(  1-C ,  4-H ) :   1.0400

FINAL SINGLE POINT ENERGY      -154.010771796879

DIPOLE MOMENT
-------------
                                X             Y             Z
Electronic contribution:      1.93122      -0.80989       1.75045
Nuclear contribution   :     -3.14382       1.30299      -2.83231
                        -----------------------------------------
Total Dipole Moment    :     -1.21260       0.49310      -1.08186
                        -----------------------------------------
Magnitude (a.u.)       :      1.69823
Magnitude (Debye)      :      4.31655

Rotational constants in cm-1:     1.288206     0.322942     0.285188
Rotational constants in MHz : 38619.437223  9681.562038  8549.712012

                             ****ORCA TERMINATED NORMALLY****
TOTAL RUN TIME: 0 days 0 hours 0 minutes 17 seconds 600 msec
