                         Program Version 5.0.0 -  RELEASE  -
|  1> !LC-PBE RIJCOSX def2-TZVPD def2/J TightSCF
|  2> *xyz 1 1
|  3> C          1.64703       -2.34528       -5.02041
|  4> C          2.20996       -2.81239       -3.66571
|  5> C          2.48901       -1.66851       -2.73754
|  6> N          3.59631       -0.94761       -2.95225
|  7> N          1.66394       -1.41369       -1.77781
|  8> H          0.81164       -1.96318       -1.70275
|  9> H          1.84550       -0.63508       -1.15875
| 10> H          4.20535       -1.17600       -3.73383
| 11> H          3.81723       -0.12585       -2.40604
| 12> H          3.14311       -3.36280       -3.81152
| 13> H          1.48768       -3.45893       -3.16521
| 14> H          1.46566       -3.19589       -5.64368
| 15> H          2.35406       -1.69850       -5.49654
| 16> H          0.73014       -1.81680       -4.86253
| 17> *
| 18>
| 19> %MaxCore 64000
| 20> %pal nprocs 4
| 21> end
| 22>
| 23> %scf
| 24>   MaxIter 150
| 25> end
| 26>
| 27>
| 28>                          ****END OF INPUT****

CARTESIAN COORDINATES (ANGSTROEM)
---------------------------------
  C      1.647030   -2.345280   -5.020410
  C      2.209960   -2.812390   -3.665710
  C      2.489010   -1.668510   -2.737540
  N      3.596310   -0.947610   -2.952250
  N      1.663940   -1.413690   -1.777810
  H      0.811640   -1.963180   -1.702750
  H      1.845500   -0.635080   -1.158750
  H      4.205350   -1.176000   -3.733830
  H      3.817230   -0.125850   -2.406040
  H      3.143110   -3.362800   -3.811520
  H      1.487680   -3.458930   -3.165210
  H      1.465660   -3.195890   -5.643680
  H      2.354060   -1.698500   -5.496540
  H      0.730140   -1.816800   -4.862530

 Total Charge           Charge          ....    1
 Multiplicity           Mult            ....    1
 Number of Electrons    NEL             ....   40
 Basis Dimension        Dim             ....  266

ORBITAL ENERGIES
----------------

  NO   OCC          E(Eh)            E(eV)
   0   2.0000     -14.465794      -393.6343
   1   2.0000     -14.455699      -393.3596
   2   2.0000     -10.446799      -284.2718
   3   2.0000     -10.315247      -280.6921
   4   2.0000     -10.268246      -279.4132
   5   2.0000      -1.384247       -37.6673
   6   2.0000      -1.278749       -34.7965
   7   2.0000      -1.146422       -31.1957
   8   2.0000      -1.023662       -27.8553
   9   2.0000      -0.975367       -26.5411
  10   2.0000      -0.924793       -25.1649
  11   2.0000      -0.901872       -24.5412
  12   2.0000      -0.843323       -22.9480
  13   2.0000      -0.799393       -21.7526
  14   2.0000      -0.765487       -20.8300
  15   2.0000      -0.755622       -20.5615
  16   2.0000      -0.677973       -18.4486
  17   2.0000      -0.667520       -18.1641
  18   2.0000      -0.661272       -17.9941
  19   2.0000      -0.623107       -16.9556
  20   0.0000      -0.117105        -3.1866
  21   0.0000      -0.094109        -2.5608
  22   0.0000      -0.056065        -1.5256
  23   0.0000      -0.052487        -1.4282
  24   0.0000      -0.035191        -0.9576

MULLIKEN ATOMIC CHARGES
-----------------------
   0 C :   -1.090573
   1 C :   -0.899641
   2 C :    0.889214
   3 N :   -0.424970
   4 N :   -0.370322
   5 H :    0.267948
   6 H :    0.238319
   7 H :    0.267205
   8 H :    0.231288
   9 H :    0.387537
  10 H :    0.392866
  11 H :    0.375109
  12 H :    0.369625
  13 H :    0.366394
Sum of atomic charges:    1.0000000

LOEWDIN ATOMIC CHARGES
----------------------
   0 C :   -0.075727
   1 C :   -0.165265
   2 C :   -0.367484
   3 N :    0.212054
   4 N :    0.231398
   5 H :    0.163575
   6 H :    0.158412
   7 H :    0.153335
   8 H :    0.147374
   9 H :    0.142962
  10 H :    0.132719
  11 H :    0.093140
  12 H :    0.083106
  13 H :    0.090401

  Mayer bond orders larger than 0.100000
B(  0-C ,  1-C ) :   0.6515 B(  0-C , 11-H ) :   0.9501 B(  0-C , 12-H ) :   0.8819
B(  0-C , 13-H ) :   0.9314 B(  1-C ,  2-C ) :   0.6264 B(  1-C ,  3-N ) :   0.1128
B(  1-C ,  9-H ) :   0.9147 B(  1-C , 10-H ) :   0.8963 B(  2-C ,  3-N ) :   1.0160
B(  2-C ,  4-N ) :   1.1269 B(  3-N ,  7-H ) :   0.9401 B(  3-N ,  8-H ) :   1.0263
B(  4-N ,  5-H ) :   0.9352 B(  4-N ,  6-H ) :   1.0223

FINAL SINGLE POINT ENERGY      -228.368591441926

DIPOLE MOMENT
-------------
                                X             Y             Z
Electronic contribution:      1.18699       1.64503       3.62276
Nuclear contribution   :     -0.98617      -1.03178      -2.77619
                        -----------------------------------------
Total Dipole Moment    :      0.20082       0.61326       0.84657
                        -----------------------------------------
Magnitude (a.u.)       :      1.06447
Magnitude (Debye)      :      2.70567

Rotational constants in cm-1:     0.257311     0.127495     0.099037
Rotational constants in MHz :  7713.982239  3822.189706  2969.039713

                             ****ORCA TERMINATED NORMALLY****
TOTAL RUN TIME: 0 days 0 hours 0 minutes 41 seconds 899 msec
