                         Program Version 5.0.0 -  RELEASE  -
|  1> !LC-PBE RIJCOSX def2-TZVPD def2/J TightSCF xyzfile
|  2>
|  3> *xyzfile 0 1 B.xyz
|  4>
|  5> %MaxCore 64000
|  6>
|  7> %pal nprocs 4
|  8> end
|  9>
| 10> %scf
| 11>   MaxIter 150
| 12> end
| 13>
| 14>
| 15>                          ****END OF INPUT****

CARTESIAN COORDINATES (ANGSTROEM)
---------------------------------
  C      1.647032   -2.345276   -5.020411
  C      0.217628   -1.814022   -4.924389
  C      2.209964   -2.812388   -3.665708
  C     -0.811356   -2.908780   -4.607625
  C     -1.916579   -2.485081   -3.643665
  H     -2.554525   -1.712428   -4.091993
  C     -1.363531   -1.981337   -2.293608
  H     -2.553448   -3.355667   -3.458815
  O     -0.350395   -2.749689   -1.796006
  H      2.308385   -1.588704   -5.457128
  H      1.674286   -3.203478   -5.697392
  C      2.489007   -1.668510   -2.737538
  N      3.596314   -0.947608   -2.952247
  N      1.663936   -1.413685   -1.777806
  H      0.811642   -1.963178   -1.702755
  H      1.845503   -0.635078   -1.158749
  H      4.205351   -1.176003   -3.733825
  H      3.817230   -0.125845   -2.406041
  H     -1.244829   -3.280884   -5.541040
  H     -0.306331   -3.757746   -4.142734
  H     -0.036244   -1.318555   -5.865303
  H      0.175004   -1.035382   -4.158095
  H      3.143106   -3.362803   -3.811524
  H      1.487683   -3.458935   -3.165211
  H     -2.226220   -1.908386   -1.602039
  H     -1.051353   -0.915671   -2.443331

 Total Charge           Charge          ....    0
 Multiplicity           Mult            ....    1
 Number of Electrons    NEL             ....   80
 Basis Dimension        Dim             ....  517

ORBITAL ENERGIES
----------------

  NO   OCC          E(Eh)            E(eV)
   0   2.0000     -18.827328      -512.3176
   1   2.0000     -14.291094      -388.8804
   2   2.0000     -14.245351      -387.6357
   3   2.0000     -10.262992      -279.2702
   4   2.0000     -10.140923      -275.9485
   5   2.0000     -10.129128      -275.6276
   6   2.0000     -10.098488      -274.7938
   7   2.0000     -10.087954      -274.5072
   8   2.0000     -10.078470      -274.2491
   9   2.0000     -10.061194      -273.7790
  10   2.0000      -1.200788       -32.6751
  11   2.0000      -1.098694       -29.8970
  12   2.0000      -1.043500       -28.3951
  13   2.0000      -0.997148       -27.1338
  14   2.0000      -0.930190       -25.3118
  15   2.0000      -0.874564       -23.7981
  16   2.0000      -0.809951       -22.0399
  17   2.0000      -0.794804       -21.6277
  18   2.0000      -0.747723       -20.3466
  19   2.0000      -0.745330       -20.2815
  20   2.0000      -0.715214       -19.4620
  21   2.0000      -0.672257       -18.2930
  22   2.0000      -0.649267       -17.6674
  23   2.0000      -0.635964       -17.3055
  24   2.0000      -0.609961       -16.5979
  25   2.0000      -0.583764       -15.8850
  26   2.0000      -0.575291       -15.6545
  27   2.0000      -0.543079       -14.7779
  28   2.0000      -0.527511       -14.3543
  29   2.0000      -0.523093       -14.2341
  30   2.0000      -0.488100       -13.2819
  31   2.0000      -0.482754       -13.1364
  32   2.0000      -0.469048       -12.7635
  33   2.0000      -0.449434       -12.2297
  34   2.0000      -0.439394       -11.9565
  35   2.0000      -0.425953       -11.5908
  36   2.0000      -0.417418       -11.3585
  37   2.0000      -0.409348       -11.1389
  38   2.0000      -0.293712        -7.9923
  39   2.0000      -0.288310        -7.8453
  40   0.0000       0.034349         0.9347
  41   0.0000       0.051749         1.4082
  42   0.0000       0.067210         1.8289
  43   0.0000       0.083010         2.2588
  44   0.0000       0.085308         2.3214

MULLIKEN ATOMIC CHARGES
-----------------------
   0 C :   -0.619050
   1 C :   -0.612601
   2 C :   -1.047063
   3 C :   -0.618151
   4 C :   -0.869870
   5 H :    0.336579
   6 C :   -0.588204
   7 H :    0.403082
   8 O :   -0.937061
   9 H :    0.353789
  10 H :    0.386091
  11 C :    0.740579
  12 N :   -0.479659
  13 N :   -0.279106
  14 H :    0.269804
  15 H :    0.154405
  16 H :    0.241013
  17 H :    0.205431
  18 H :    0.400873
  19 H :    0.305089
  20 H :    0.403087
  21 H :    0.305190
  22 H :    0.393381
  23 H :    0.504654
  24 H :    0.357648
  25 H :    0.290068
Sum of atomic charges:    0.0000000

LOEWDIN ATOMIC CHARGES
----------------------
   0 C :   -0.207991
   1 C :   -0.218682
   2 C :   -0.126763
   3 C :   -0.234409
   4 C :   -0.222841
   5 H :    0.113643
   6 C :   -0.453169
   7 H :    0.112249
   8 O :   -0.299366
   9 H :    0.112451
  10 H :    0.125161
  11 C :   -0.371004
  12 N :    0.164413
  13 N :    0.231688
  14 H :   -0.030833
  15 H :    0.146981
  16 H :    0.132356
  17 H :    0.128246
  18 H :    0.115018
  19 H :    0.105749
  20 H :    0.118509
  21 H :    0.104321
  22 H :    0.132712
  23 H :    0.119799
  24 H :    0.104143
  25 H :    0.097621

  Mayer bond orders larger than 0.100000
B(  0-C ,  1-C ) :   0.8604 B(  0-C ,  2-C ) :   0.7224 B(  0-C ,  9-H ) :   0.8167
B(  0-C , 10-H ) :   0.9168 B(  1-C ,  3-C ) :   0.5452 B(  1-C , 20-H ) :   0.9075
B(  1-C , 21-H ) :   0.9345 B(  2-C , 11-C ) :   0.7240 B(  2-C , 12-N ) :   0.1506
B(  2-C , 22-H ) :   0.9607 B(  2-C , 23-H ) :   0.8163 B(  3-C ,  4-C ) :   0.8648
B(  3-C , 18-H ) :   0.8938 B(  3-C , 19-H ) :   0.9797 B(  4-C ,  5-H ) :   0.9869
B(  4-C ,  6-C ) :   0.7797 B(  4-C ,  7-H ) :   0.8867 B(  4-C ,  8-O ) :   0.1088
B(  6-C ,  8-O ) :   0.8605 B(  6-C , 24-H ) :   0.9456 B(  6-C , 25-H ) :   1.0364
B(  8-O , 11-C ) :  -0.1109 B(  8-O , 13-N ) :  -0.1704 B(  8-O , 14-H ) :   0.3823
B( 11-C , 12-N ) :   0.8490 B( 11-C , 13-N ) :   1.2930 B( 11-C , 15-H ) :  -0.1033
B( 12-N , 16-H ) :   0.9823 B( 12-N , 17-H ) :   1.0414 B( 13-N , 14-H ) :   0.6009
B( 13-N , 15-H ) :   1.0920

FINAL SINGLE POINT ENERGY      -459.765659048156

DIPOLE MOMENT
-------------
                                X             Y             Z
Electronic contribution:      5.59542       0.94055       4.26443
Nuclear contribution   :     -2.25948       0.71378      -5.15247
                        -----------------------------------------
Total Dipole Moment    :      3.33594       1.65433      -0.88804
                        -----------------------------------------
Magnitude (a.u.)       :      3.82804
Magnitude (Debye)      :      9.73011

Rotational constants in cm-1:     0.063973     0.031829     0.024059
Rotational constants in MHz :  1917.874550   954.201145   721.285252

                             ****ORCA TERMINATED NORMALLY****
TOTAL RUN TIME: 0 days 0 hours 4 minutes 0 seconds 261 msec
