                         Program Version 5.0.0 -  RELEASE  -
|  1> !LC-PBE RIJCOSX def2-TZVPD def2/J TightSCF
|  2> *xyz 0 1
|  3> C         -1.91658       -2.48508       -3.64367
|  4> C         -1.36353       -1.98134       -2.29361
|  5> F         -0.35039       -2.74969       -1.79601
|  6> H         -2.22622       -1.90839       -1.60204
|  7> H         -1.05135       -0.91567       -2.44333
|  8> H         -1.11522       -2.57167       -4.34739
|  9> H         -2.64227       -1.79099       -4.01314
| 10> H         -2.37564       -3.44180       -3.50640
| 11> *
| 12>
| 13> %MaxCore 64000
| 14> %pal nprocs 4
| 15> end
| 16>
| 17> %scf
| 18>   MaxIter 150
| 19> end
| 20>
| 21>
| 22>                          ****END OF INPUT****

CARTESIAN COORDINATES (ANGSTROEM)
---------------------------------
  C     -1.916580   -2.485080   -3.643670
  C     -1.363530   -1.981340   -2.293610
  F     -0.350390   -2.749690   -1.796010
  H     -2.226220   -1.908390   -1.602040
  H     -1.051350   -0.915670   -2.443330
  H     -1.115220   -2.571670   -4.347390
  H     -2.642270   -1.790990   -4.013140
  H     -2.375640   -3.441800   -3.506400

 Total Charge           Charge          ....    0
 Multiplicity           Mult            ....    1
 Number of Electrons    NEL             ....   26
 Basis Dimension        Dim             ....  159

ORBITAL ENERGIES
----------------

  NO   OCC          E(Eh)            E(eV)
   0   2.0000     -24.477382      -666.0634
   1   2.0000     -10.196313      -277.4558
   2   2.0000     -10.109093      -275.0824
   3   2.0000      -1.356939       -36.9242
   4   2.0000      -0.940073       -25.5807
   5   2.0000      -0.794896       -21.6302
   6   2.0000      -0.658543       -17.9199
   7   2.0000      -0.648016       -17.6334
   8   2.0000      -0.607786       -16.5387
   9   2.0000      -0.547179       -14.8895
  10   2.0000      -0.537811       -14.6346
  11   2.0000      -0.469806       -12.7841
  12   2.0000      -0.460390       -12.5279
  13   0.0000       0.068956         1.8764
  14   0.0000       0.090977         2.4756
  15   0.0000       0.114511         3.1160
  16   0.0000       0.116912         3.1813
  17   0.0000       0.145585         3.9616

MULLIKEN ATOMIC CHARGES
-----------------------
   0 C :   -1.078784
   1 C :   -0.217622
   2 F :   -0.266707
   3 H :    0.274922
   4 H :    0.273110
   5 H :    0.330118
   6 H :    0.366732
   7 H :    0.318231
Sum of atomic charges:    0.0000000

LOEWDIN ATOMIC CHARGES
----------------------
   0 C :   -0.108139
   1 C :   -0.316431
   2 F :   -0.036940
   3 H :    0.118471
   4 H :    0.123875
   5 H :    0.072848
   6 H :    0.074535
   7 H :    0.071782

  Mayer bond orders larger than 0.100000
B(  0-C ,  1-C ) :   0.7647 B(  0-C ,  5-H ) :   0.9229 B(  0-C ,  6-H ) :   0.9063
B(  0-C ,  7-H ) :   0.9325 B(  1-C ,  2-F ) :   0.8027 B(  1-C ,  3-H ) :   0.9617
B(  1-C ,  4-H ) :   0.9630

FINAL SINGLE POINT ENERGY      -178.632195128252

DIPOLE MOMENT
-------------
                                X             Y             Z
Electronic contribution:      3.58454      -1.33002       3.41041
Nuclear contribution   :     -4.15401       1.70894      -3.75000
                        -----------------------------------------
Total Dipole Moment    :     -0.56948       0.37892      -0.33959
                        -----------------------------------------
Magnitude (a.u.)       :      0.76368
Magnitude (Debye)      :      1.94111

Rotational constants in cm-1:     1.266842     0.300492     0.266603
Rotational constants in MHz : 37978.968232  9008.526876  7992.551454

                             ****ORCA TERMINATED NORMALLY****
TOTAL RUN TIME: 0 days 0 hours 0 minutes 13 seconds 591 msec
