                         Program Version 5.0.0 -  RELEASE  -
|  1> !LC-PBE RIJCOSX def2-TZVPD def2/J TightSCF
|  2> *xyz 0 1
|  3> C          1.64703       -2.34528       -5.02041
|  4> C          2.20996       -2.81239       -3.66571
|  5> C          2.48901       -1.66851       -2.73754
|  6> C          3.59631       -0.94761       -2.95225
|  7> N          1.66394       -1.41369       -1.77781
|  8> H          0.81164       -1.96318       -1.70275
|  9> H          1.84550       -0.63508       -1.15875
| 10> H          4.20535       -1.17600       -3.73383
| 11> H          3.81723       -0.12585       -2.40604
| 12> H          3.14311       -3.36280       -3.81152
| 13> H          1.48768       -3.45893       -3.16521
| 14> H          1.46566       -3.19589       -5.64368
| 15> H          2.35406       -1.69850       -5.49654
| 16> H          0.73014       -1.81680       -4.86253
| 17> *
| 18>
| 19> %MaxCore 64000
| 20> %pal nprocs 4
| 21> end
| 22>
| 23> %scf
| 24>   MaxIter 150
| 25> end
| 26>
| 27>
| 28>                          ****END OF INPUT****

CARTESIAN COORDINATES (ANGSTROEM)
---------------------------------
  C      1.647030   -2.345280   -5.020410
  C      2.209960   -2.812390   -3.665710
  C      2.489010   -1.668510   -2.737540
  C      3.596310   -0.947610   -2.952250
  N      1.663940   -1.413690   -1.777810
  H      0.811640   -1.963180   -1.702750
  H      1.845500   -0.635080   -1.158750
  H      4.205350   -1.176000   -3.733830
  H      3.817230   -0.125850   -2.406040
  H      3.143110   -3.362800   -3.811520
  H      1.487680   -3.458930   -3.165210
  H      1.465660   -3.195890   -5.643680
  H      2.354060   -1.698500   -5.496540
  H      0.730140   -1.816800   -4.862530

 Total Charge           Charge          ....    0
 Multiplicity           Mult            ....    1
 Number of Electrons    NEL             ....   40
 Basis Dimension        Dim             ....  266

ORBITAL ENERGIES
----------------

  NO   OCC          E(Eh)            E(eV)
   0   2.0000     -14.217872      -386.8880
   1   2.0000     -10.140158      -275.9277
   2   2.0000     -10.115338      -275.2523
   3   2.0000     -10.096904      -274.7507
   4   2.0000     -10.041016      -273.2299
   5   2.0000      -1.114923       -30.3386
   6   2.0000      -0.956606       -26.0306
   7   2.0000      -0.878660       -23.9096
   8   2.0000      -0.803578       -21.8665
   9   2.0000      -0.720470       -19.6050
  10   2.0000      -0.679075       -18.4786
  11   2.0000      -0.628100       -17.0915
  12   2.0000      -0.585438       -15.9306
  13   2.0000      -0.552276       -15.0282
  14   2.0000      -0.532991       -14.5034
  15   2.0000      -0.516966       -14.0674
  16   2.0000      -0.480653       -13.0792
  17   2.0000      -0.471370       -12.8266
  18   2.0000      -0.462060       -12.5733
  19   2.0000      -0.302842        -8.2408
  20   0.0000       0.065340         1.7780
  21   0.0000       0.089077         2.4239
  22   0.0000       0.091644         2.4938
  23   0.0000       0.097239         2.6460
  24   0.0000       0.124679         3.3927

MULLIKEN ATOMIC CHARGES
-----------------------
   0 C :   -1.027359
   1 C :   -0.918032
   2 C :    0.895272
   3 C :   -1.301512
   4 N :   -0.458850
   5 H :    0.226305
   6 H :    0.195657
   7 H :    0.322640
   8 H :    0.316503
   9 H :    0.347044
  10 H :    0.382664
  11 H :    0.339082
  12 H :    0.355006
  13 H :    0.325581
Sum of atomic charges:    0.0000000

LOEWDIN ATOMIC CHARGES
----------------------
   0 C :   -0.111099
   1 C :   -0.217209
   2 C :   -0.519664
   3 C :   -0.004696
   4 N :    0.097305
   5 H :    0.121012
   6 H :    0.124962
   7 H :    0.030778
   8 H :    0.022285
   9 H :    0.123712
  10 H :    0.111285
  11 H :    0.069770
  12 H :    0.074186
  13 H :    0.077373

  Mayer bond orders larger than 0.100000
B(  0-C ,  1-C ) :   0.6163 B(  0-C , 11-H ) :   0.9440 B(  0-C , 12-H ) :   0.9337
B(  0-C , 13-H ) :   0.9489 B(  1-C ,  2-C ) :   0.4885 B(  1-C ,  3-C ) :   0.1761
B(  1-C ,  4-N ) :   0.1043 B(  1-C ,  9-H ) :   0.9562 B(  1-C , 10-H ) :   0.9659
B(  2-C ,  3-C ) :   1.0745 B(  2-C ,  4-N ) :   0.8411 B(  2-C ,  8-H ) :  -0.1585
B(  2-C , 10-H ) :  -0.1009 B(  3-C ,  4-N ) :   0.1216 B(  3-C ,  7-H ) :   0.9509
B(  3-C ,  8-H ) :   1.0561 B(  4-N ,  5-H ) :   1.0013 B(  4-N ,  6-H ) :   1.0383

FINAL SINGLE POINT ENERGY      -211.911924725206

DIPOLE MOMENT
-------------
                                X             Y             Z
Electronic contribution:     -0.05040       0.64330       3.00197
Nuclear contribution   :     -0.69146      -0.83112      -2.71336
                        -----------------------------------------
Total Dipole Moment    :     -0.74187      -0.18782       0.28861
                        -----------------------------------------
Magnitude (a.u.)       :      0.81789
Magnitude (Debye)      :      2.07890

Rotational constants in cm-1:     0.270661     0.129240     0.102040
Rotational constants in MHz :  8114.202941  3874.518141  3059.074383

                             ****ORCA TERMINATED NORMALLY****
TOTAL RUN TIME: 0 days 0 hours 0 minutes 43 seconds 203 msec
