                         Program Version 5.0.0 -  RELEASE  -
|  1> !LC-PBE RIJCOSX def2-TZVPD def2/J TightSCF
|  2> *xyz 0 1
|  3> C          1.64703       -2.34528       -5.02041
|  4> C          2.20996       -2.81239       -3.66571
|  5> C          2.48901       -1.66851       -2.73754
|  6> N          3.59631       -0.94761       -2.95225
|  7> C          1.66394       -1.41369       -1.77781
|  8> H          0.81164       -1.96318       -1.70275
|  9> H          1.84550       -0.63508       -1.15875
| 10> H          4.20535       -1.17600       -3.73383
| 11> H          3.81723       -0.12585       -2.40604
| 12> H          3.14311       -3.36280       -3.81152
| 13> H          1.48768       -3.45893       -3.16521
| 14> H          1.46566       -3.19589       -5.64368
| 15> H          2.35406       -1.69850       -5.49654
| 16> H          0.73014       -1.81680       -4.86253
| 17> *
| 18>
| 19> %MaxCore 64000
| 20> %pal nprocs 4
| 21> end
| 22>
| 23> %scf
| 24>   MaxIter 150
| 25> end
| 26>
| 27>
| 28>                          ****END OF INPUT****

CARTESIAN COORDINATES (ANGSTROEM)
---------------------------------
  C      1.647030   -2.345280   -5.020410
  C      2.209960   -2.812390   -3.665710
  C      2.489010   -1.668510   -2.737540
  N      3.596310   -0.947610   -2.952250
  C      1.663940   -1.413690   -1.777810
  H      0.811640   -1.963180   -1.702750
  H      1.845500   -0.635080   -1.158750
  H      4.205350   -1.176000   -3.733830
  H      3.817230   -0.125850   -2.406040
  H      3.143110   -3.362800   -3.811520
  H      1.487680   -3.458930   -3.165210
  H      1.465660   -3.195890   -5.643680
  H      2.354060   -1.698500   -5.496540
  H      0.730140   -1.816800   -4.862530

 Total Charge           Charge          ....    0
 Multiplicity           Mult            ....    1
 Number of Electrons    NEL             ....   40
 Basis Dimension        Dim             ....  266

ORBITAL ENERGIES
----------------

  NO   OCC          E(Eh)            E(eV)
   0   2.0000     -14.210819      -386.6960
   1   2.0000     -10.136195      -275.8199
   2   2.0000     -10.113646      -275.2063
   3   2.0000     -10.097923      -274.7785
   4   2.0000     -10.044361      -273.3209
   5   2.0000      -1.096609       -29.8403
   6   2.0000      -0.955707       -26.0061
   7   2.0000      -0.893507       -24.3136
   8   2.0000      -0.798517       -21.7288
   9   2.0000      -0.716630       -19.5005
  10   2.0000      -0.666736       -18.1428
  11   2.0000      -0.628232       -17.0951
  12   2.0000      -0.575735       -15.6666
  13   2.0000      -0.565035       -15.3754
  14   2.0000      -0.533385       -14.5141
  15   2.0000      -0.521950       -14.2030
  16   2.0000      -0.480711       -13.0808
  17   2.0000      -0.463012       -12.5992
  18   2.0000      -0.460656       -12.5351
  19   2.0000      -0.315895        -8.5959
  20   0.0000       0.066242         1.8025
  21   0.0000       0.089481         2.4349
  22   0.0000       0.093747         2.5510
  23   0.0000       0.094595         2.5741
  24   0.0000       0.127561         3.4711

MULLIKEN ATOMIC CHARGES
-----------------------
   0 C :   -1.016378
   1 C :   -0.890726
   2 C :    0.823447
   3 N :   -0.492268
   4 C :   -1.205002
   5 H :    0.301236
   6 H :    0.323769
   7 H :    0.211957
   8 H :    0.187410
   9 H :    0.377553
  10 H :    0.363853
  11 H :    0.347017
  12 H :    0.335204
  13 H :    0.332929
Sum of atomic charges:   -0.0000000

LOEWDIN ATOMIC CHARGES
----------------------
   0 C :   -0.112322
   1 C :   -0.218258
   2 C :   -0.511358
   3 N :    0.086350
   4 C :   -0.000791
   5 H :    0.040485
   6 H :    0.036232
   7 H :    0.111286
   8 H :    0.112903
   9 H :    0.120016
  10 H :    0.116572
  11 H :    0.070008
  12 H :    0.069162
  13 H :    0.079714

  Mayer bond orders larger than 0.100000
B(  0-C ,  1-C ) :   0.6165 B(  0-C , 11-H ) :   0.9483 B(  0-C , 12-H ) :   0.9186
B(  0-C , 13-H ) :   0.9757 B(  1-C ,  2-C ) :   0.5709 B(  1-C ,  3-N ) :   0.1493
B(  1-C ,  4-C ) :   0.1607 B(  1-C ,  9-H ) :   0.9562 B(  1-C , 10-H ) :   0.9073
B(  2-C ,  3-N ) :   0.7053 B(  2-C ,  4-C ) :   1.2279 B(  2-C ,  6-H ) :  -0.1465
B(  3-N ,  4-C ) :   0.1220 B(  3-N ,  7-H ) :   1.0127 B(  3-N ,  8-H ) :   1.0424
B(  4-C ,  5-H ) :   0.9741 B(  4-C ,  6-H ) :   1.0353

FINAL SINGLE POINT ENERGY      -211.916793908547

DIPOLE MOMENT
-------------
                                X             Y             Z
Electronic contribution:      1.62490       1.05700       1.99185
Nuclear contribution   :     -1.13902      -0.93906      -2.44135
                        -----------------------------------------
Total Dipole Moment    :      0.48588       0.11794      -0.44950
                        -----------------------------------------
Magnitude (a.u.)       :      0.67234
Magnitude (Debye)      :      1.70894

Rotational constants in cm-1:     0.267243     0.130607     0.102304
Rotational constants in MHz :  8011.748167  3915.504600  3066.999841

                             ****ORCA TERMINATED NORMALLY****
TOTAL RUN TIME: 0 days 0 hours 0 minutes 48 seconds 386 msec
