                         Program Version 5.0.0 -  RELEASE  -
|  1> !LC-PBE RIJCOSX def2-TZVPD def2/J TightSCF xyzfile
|  2>
|  3> *xyzfile 0 1 D1.xyz
|  4>
|  5> %MaxCore 64000
|  6>
|  7> %pal nprocs 4
|  8> end
|  9>
| 10> %scf
| 11>   MaxIter 150
| 12> end
| 13>
| 14>
| 15>                          ****END OF INPUT****

CARTESIAN COORDINATES (ANGSTROEM)
---------------------------------
  C      1.647032   -2.345276   -5.020411
  C      0.217628   -1.814022   -4.924389
  C      2.209964   -2.812388   -3.665708
  C     -0.811356   -2.908780   -4.607625
  C     -1.916579   -2.485081   -3.643665
  H     -2.554525   -1.712428   -4.091993
  C     -1.363531   -1.981337   -2.293608
  H     -2.553448   -3.355667   -3.458815
  F     -0.350395   -2.749689   -1.796006
  H      2.308385   -1.588704   -5.457128
  H      1.674286   -3.203478   -5.697392
  C      2.489007   -1.668510   -2.737538
  C      3.596314   -0.947608   -2.952247
  N      1.663936   -1.413685   -1.777806
  H      0.811642   -1.963178   -1.702755
  H      1.845503   -0.635078   -1.158749
  H      4.205351   -1.176003   -3.733825
  H      3.817230   -0.125845   -2.406041
  H     -1.244829   -3.280884   -5.541040
  H     -0.306331   -3.757746   -4.142734
  H     -0.036244   -1.318555   -5.865303
  H      0.175004   -1.035382   -4.158095
  H      3.143106   -3.362803   -3.811524
  H      1.487683   -3.458935   -3.165211
  H     -2.226220   -1.908386   -1.602039
  H     -1.051353   -0.915671   -2.443331

 Total Charge           Charge          ....    0
 Multiplicity           Mult            ....    1
 Number of Electrons    NEL             ....   80
 Basis Dimension        Dim             ....  517

ORBITAL ENERGIES
----------------

  NO   OCC          E(Eh)            E(eV)
   0   2.0000     -24.524464      -667.3446
   1   2.0000     -14.181312      -385.8931
   2   2.0000     -10.215558      -277.9795
   3   2.0000     -10.133964      -275.7592
   4   2.0000     -10.124327      -275.4969
   5   2.0000     -10.117327      -275.3065
   6   2.0000     -10.108829      -275.0752
   7   2.0000     -10.105993      -274.9980
   8   2.0000     -10.101500      -274.8758
   9   2.0000     -10.025306      -272.8024
  10   2.0000      -1.412997       -38.4496
  11   2.0000      -1.092799       -29.7366
  12   2.0000      -1.004380       -27.3306
  13   2.0000      -0.958281       -26.0762
  14   2.0000      -0.908999       -24.7351
  15   2.0000      -0.861247       -23.4357
  16   2.0000      -0.834765       -22.7151
  17   2.0000      -0.774241       -21.0682
  18   2.0000      -0.748091       -20.3566
  19   2.0000      -0.733025       -19.9466
  20   2.0000      -0.688372       -18.7316
  21   2.0000      -0.681049       -18.5323
  22   2.0000      -0.661932       -18.0121
  23   2.0000      -0.633552       -17.2398
  24   2.0000      -0.613368       -16.6906
  25   2.0000      -0.605889       -16.4871
  26   2.0000      -0.582323       -15.8458
  27   2.0000      -0.559753       -15.2317
  28   2.0000      -0.559180       -15.2161
  29   2.0000      -0.526045       -14.3144
  30   2.0000      -0.503487       -13.7006
  31   2.0000      -0.496736       -13.5169
  32   2.0000      -0.492856       -13.4113
  33   2.0000      -0.486127       -13.2282
  34   2.0000      -0.471696       -12.8355
  35   2.0000      -0.460005       -12.5174
  36   2.0000      -0.446711       -12.1556
  37   2.0000      -0.439233       -11.9522
  38   2.0000      -0.432607       -11.7718
  39   2.0000      -0.284818        -7.7503
  40   0.0000       0.060481         1.6458
  41   0.0000       0.072215         1.9651
  42   0.0000       0.078102         2.1253
  43   0.0000       0.080307         2.1853
  44   0.0000       0.097285         2.6473

MULLIKEN ATOMIC CHARGES
-----------------------
   0 C :   -0.671348
   1 C :   -0.657245
   2 C :   -1.039965
   3 C :   -0.696712
   4 C :   -0.826800
   5 H :    0.347137
   6 C :   -0.483299
   7 H :    0.404971
   8 F :   -0.368765
   9 H :    0.423812
  10 H :    0.358951
  11 C :    0.746818
  12 C :   -1.330430
  13 N :   -0.444784
  14 H :    0.400330
  15 H :    0.107984
  16 H :    0.317850
  17 H :    0.333316
  18 H :    0.408299
  19 H :    0.334930
  20 H :    0.389002
  21 H :    0.344899
  22 H :    0.389905
  23 H :    0.438978
  24 H :    0.386319
  25 H :    0.385846
Sum of atomic charges:    0.0000000

LOEWDIN ATOMIC CHARGES
----------------------
   0 C :   -0.208587
   1 C :   -0.216814
   2 C :   -0.159872
   3 C :   -0.227612
   4 C :   -0.195291
   5 H :    0.130086
   6 C :   -0.232227
   7 H :    0.117942
   8 F :   -0.016802
   9 H :    0.120616
  10 H :    0.119670
  11 C :   -0.497265
  12 C :   -0.008689
  13 N :    0.118384
  14 H :    0.018254
  15 H :    0.129691
  16 H :    0.027061
  17 H :    0.019654
  18 H :    0.122954
  19 H :    0.109230
  20 H :    0.119945
  21 H :    0.107202
  22 H :    0.129855
  23 H :    0.105641
  24 H :    0.133178
  25 H :    0.133796

  Mayer bond orders larger than 0.100000
B(  0-C ,  1-C ) :   0.8754 B(  0-C ,  2-C ) :   0.7659 B(  0-C ,  9-H ) :   0.8054
B(  0-C , 10-H ) :   0.9218 B(  1-C ,  3-C ) :   0.5086 B(  1-C , 20-H ) :   0.9087
B(  1-C , 21-H ) :   0.9495 B(  2-C , 11-C ) :   0.5403 B(  2-C , 12-C ) :   0.1818
B(  2-C , 22-H ) :   0.9771 B(  2-C , 23-H ) :   0.9129 B(  3-C ,  4-C ) :   0.7963
B(  3-C , 18-H ) :   0.8874 B(  3-C , 19-H ) :   0.9943 B(  4-C ,  5-H ) :   0.9518
B(  4-C ,  6-C ) :   0.7863 B(  4-C ,  7-H ) :   0.9068 B(  4-C ,  8-F ) :   0.1310
B(  6-C ,  8-F ) :   0.7104 B(  6-C , 24-H ) :   0.8844 B(  6-C , 25-H ) :   0.9561
B( 11-C , 12-C ) :   1.1062 B( 11-C , 13-N ) :   0.8336 B( 11-C , 15-H ) :  -0.1105
B( 11-C , 17-H ) :  -0.1305 B( 12-C , 13-N ) :   0.1485 B( 12-C , 16-H ) :   1.0038
B( 12-C , 17-H ) :   1.0125 B( 13-N , 14-H ) :   0.7371 B( 13-N , 15-H ) :   1.1208

FINAL SINGLE POINT ENERGY      -467.714979368711

DIPOLE MOMENT
-------------
                                X             Y             Z
Electronic contribution:     -1.33028      -1.73621       6.88969
Nuclear contribution   :     -0.37390       1.73388      -6.94752
                        -----------------------------------------
Total Dipole Moment    :     -1.70418      -0.00233      -0.05784
                        -----------------------------------------
Magnitude (a.u.)       :      1.70516
Magnitude (Debye)      :      4.33418

Rotational constants in cm-1:     0.062220     0.032742     0.024374
Rotational constants in MHz :  1865.297979   981.573941   730.711364

                             ****ORCA TERMINATED NORMALLY****
TOTAL RUN TIME: 0 days 0 hours 3 minutes 40 seconds 342 msec
