                         Program Version 5.0.0 -  RELEASE  -
|  1> !LC-PBE RIJCOSX def2-TZVPD def2/J TightSCF xyzfile
|  2>
|  3> *xyzfile 0 1 D2.xyz
|  4>
|  5> %MaxCore 64000
|  6>
|  7> %pal nprocs 4
|  8> end
|  9>
| 10> %scf
| 11>   MaxIter 150
| 12> end
| 13>
| 14>
| 15>                          ****END OF INPUT****

CARTESIAN COORDINATES (ANGSTROEM)
---------------------------------
  C      1.647032   -2.345276   -5.020411
  C      0.217628   -1.814022   -4.924389
  C      2.209964   -2.812388   -3.665708
  C     -0.811356   -2.908780   -4.607625
  C     -1.916579   -2.485081   -3.643665
  H     -2.554525   -1.712428   -4.091993
  C     -1.363531   -1.981337   -2.293608
  H     -2.553448   -3.355667   -3.458815
  F     -0.350395   -2.749689   -1.796006
  H      2.308385   -1.588704   -5.457128
  H      1.674286   -3.203478   -5.697392
  C      2.489007   -1.668510   -2.737538
  N      3.596314   -0.947608   -2.952247
  C      1.663936   -1.413685   -1.777806
  H      0.811642   -1.963178   -1.702755
  H      1.845503   -0.635078   -1.158749
  H      4.205351   -1.176003   -3.733825
  H      3.817230   -0.125845   -2.406041
  H     -1.244829   -3.280884   -5.541040
  H     -0.306331   -3.757746   -4.142734
  H     -0.036244   -1.318555   -5.865303
  H      0.175004   -1.035382   -4.158095
  H      3.143106   -3.362803   -3.811524
  H      1.487683   -3.458935   -3.165211
  H     -2.226220   -1.908386   -1.602039
  H     -1.051353   -0.915671   -2.443331

 Total Charge           Charge          ....    0
 Multiplicity           Mult            ....    1
 Number of Electrons    NEL             ....   80
 Basis Dimension        Dim             ....  517

ORBITAL ENERGIES
----------------

  NO   OCC          E(Eh)            E(eV)
   0   2.0000     -24.491032      -666.4349
   1   2.0000     -14.196990      -386.3197
   2   2.0000     -10.196763      -277.4680
   3   2.0000     -10.121958      -275.4325
   4   2.0000     -10.118521      -275.3389
   5   2.0000     -10.109481      -275.0930
   6   2.0000     -10.106725      -275.0180
   7   2.0000     -10.102491      -274.9028
   8   2.0000     -10.100769      -274.8559
   9   2.0000     -10.011082      -272.4154
  10   2.0000      -1.382074       -37.6082
  11   2.0000      -1.082663       -29.4608
  12   2.0000      -0.995040       -27.0764
  13   2.0000      -0.955001       -25.9869
  14   2.0000      -0.899038       -24.4641
  15   2.0000      -0.871658       -23.7190
  16   2.0000      -0.824972       -22.4486
  17   2.0000      -0.764327       -20.7984
  18   2.0000      -0.728188       -19.8150
  19   2.0000      -0.723144       -19.6777
  20   2.0000      -0.678240       -18.4559
  21   2.0000      -0.664970       -18.0948
  22   2.0000      -0.644984       -17.5509
  23   2.0000      -0.635005       -17.2794
  24   2.0000      -0.609393       -16.5824
  25   2.0000      -0.592027       -16.1099
  26   2.0000      -0.584960       -15.9176
  27   2.0000      -0.571480       -15.5508
  28   2.0000      -0.541933       -14.7467
  29   2.0000      -0.518997       -14.1226
  30   2.0000      -0.503133       -13.6910
  31   2.0000      -0.489376       -13.3166
  32   2.0000      -0.482777       -13.1370
  33   2.0000      -0.469706       -12.7813
  34   2.0000      -0.457466       -12.4483
  35   2.0000      -0.451919       -12.2973
  36   2.0000      -0.436949       -11.8900
  37   2.0000      -0.434471       -11.8226
  38   2.0000      -0.419154       -11.4058
  39   2.0000      -0.298664        -8.1271
  40   0.0000       0.068185         1.8554
  41   0.0000       0.073547         2.0013
  42   0.0000       0.078701         2.1416
  43   0.0000       0.085733         2.3329
  44   0.0000       0.097395         2.6502

MULLIKEN ATOMIC CHARGES
-----------------------
   0 C :   -0.608699
   1 C :   -0.617594
   2 C :   -1.057452
   3 C :   -0.719097
   4 C :   -0.827620
   5 H :    0.350200
   6 C :   -0.484548
   7 H :    0.398022
   8 F :   -0.295922
   9 H :    0.393655
  10 H :    0.344141
  11 C :    0.806996
  12 N :   -0.509456
  13 C :   -1.564876
  14 H :    0.671082
  15 H :    0.227453
  16 H :    0.206958
  17 H :    0.178086
  18 H :    0.403580
  19 H :    0.335773
  20 H :    0.392448
  21 H :    0.382278
  22 H :    0.453248
  23 H :    0.370874
  24 H :    0.389138
  25 H :    0.381333
Sum of atomic charges:   -0.0000000

LOEWDIN ATOMIC CHARGES
----------------------
   0 C :   -0.211959
   1 C :   -0.217721
   2 C :   -0.159398
   3 C :   -0.226836
   4 C :   -0.196412
   5 H :    0.128061
   6 C :   -0.236498
   7 H :    0.116635
   8 F :   -0.038860
   9 H :    0.115910
  10 H :    0.118797
  11 C :   -0.482157
  12 N :    0.084465
  13 C :    0.017225
  14 H :   -0.034937
  15 H :    0.047832
  16 H :    0.108044
  17 H :    0.110532
  18 H :    0.121230
  19 H :    0.109896
  20 H :    0.118606
  21 H :    0.106509
  22 H :    0.125914
  23 H :    0.110269
  24 H :    0.131526
  25 H :    0.133329

  Mayer bond orders larger than 0.100000
B(  0-C ,  1-C ) :   0.9054 B(  0-C ,  2-C ) :   0.7691 B(  0-C ,  9-H ) :   0.7854
B(  0-C , 10-H ) :   0.9389 B(  1-C ,  3-C ) :   0.5143 B(  1-C , 20-H ) :   0.9109
B(  1-C , 21-H ) :   0.9286 B(  2-C , 11-C ) :   0.5627 B(  2-C , 12-N ) :   0.2435
B(  2-C , 13-C ) :   0.1503 B(  2-C , 22-H ) :   0.9036 B(  2-C , 23-H ) :   0.9357
B(  3-C ,  4-C ) :   0.8111 B(  3-C , 18-H ) :   0.8919 B(  3-C , 19-H ) :   0.9858
B(  4-C ,  5-H ) :   0.9431 B(  4-C ,  6-C ) :   0.8047 B(  4-C ,  7-H ) :   0.9081
B(  4-C ,  8-F ) :   0.1199 B(  6-C ,  8-F ) :   0.7698 B(  6-C , 13-C ) :   0.1723
B(  6-C , 24-H ) :   0.8644 B(  6-C , 25-H ) :   0.9566 B(  8-F , 13-C ) :   0.1039
B(  8-F , 14-H ) :  -0.2850 B( 11-C , 12-N ) :   0.5991 B( 11-C , 13-C ) :   1.1107
B( 11-C , 15-H ) :  -0.1820 B( 12-N , 16-H ) :   1.0288 B( 12-N , 17-H ) :   1.0575
B( 13-C , 14-H ) :   0.7252 B( 13-C , 15-H ) :   1.2349

FINAL SINGLE POINT ENERGY      -467.699110987545

DIPOLE MOMENT
-------------
                                X             Y             Z
Electronic contribution:      0.36663      -1.31306       6.05421
Nuclear contribution   :     -0.73748       1.64619      -6.72655
                        -----------------------------------------
Total Dipole Moment    :     -0.37085       0.33313      -0.67234
                        -----------------------------------------
Magnitude (a.u.)       :      0.83699
Magnitude (Debye)      :      2.12746

Rotational constants in cm-1:     0.063169     0.031711     0.023958
Rotational constants in MHz :  1893.751676   950.657187   718.229932

                             ****ORCA TERMINATED NORMALLY****
TOTAL RUN TIME: 0 days 0 hours 3 minutes 58 seconds 586 msec
