                         Program Version 5.0.0 -  RELEASE  -
|  1> !CAM-B3LYP RIJCOSX def2-TZVPD def2/J TightSCF
|  2> *xyz -1 1
|  3> C         -0.77455        2.78833       -0.54394
|  4> C          0.69721        3.22791       -0.52513
|  5> O          1.48929        2.37470        0.19919
|  6> H          0.71600        4.26403       -0.13077
|  7> H          1.03615        3.33092       -1.58367
|  8> H         -1.34746        3.48478       -1.11982
|  9> H         -1.15078        2.75876        0.45729
| 10> H         -0.85058        1.81526       -0.98241
| 11> *
| 12>
| 13> %MaxCore 64000
| 14> %pal nprocs 4
| 15> end
| 16>
| 17> %scf
| 18>   MaxIter 150
| 19> end
| 20>
| 21>
| 22>                          ****END OF INPUT****

CARTESIAN COORDINATES (ANGSTROEM)
---------------------------------
  C     -0.774550    2.788330   -0.543940
  C      0.697210    3.227910   -0.525130
  O      1.489290    2.374700    0.199190
  H      0.716000    4.264030   -0.130770
  H      1.036150    3.330920   -1.583670
  H     -1.347460    3.484780   -1.119820
  H     -1.150780    2.758760    0.457290
  H     -0.850580    1.815260   -0.982410

 Total Charge           Charge          ....   -1
 Multiplicity           Mult            ....    1
 Number of Electrons    NEL             ....   26
 Basis Dimension        Dim             ....  159

ORBITAL ENERGIES
----------------

  NO   OCC          E(Eh)            E(eV)
   0   2.0000     -18.865010      -513.3430
   1   2.0000     -10.058105      -273.6949
   2   2.0000     -10.033357      -273.0215
   3   2.0000      -0.760627       -20.6977
   4   2.0000      -0.607622       -16.5342
   5   2.0000      -0.449786       -12.2393
   6   2.0000      -0.321203        -8.7404
   7   2.0000      -0.297615        -8.0985
   8   2.0000      -0.240905        -6.5554
   9   2.0000      -0.222856        -6.0642
  10   2.0000      -0.178468        -4.8564
  11   2.0000      -0.033554        -0.9131
  12   2.0000      -0.031978        -0.8702
  13   0.0000       0.179273         4.8783
  14   0.0000       0.201820         5.4918
  15   0.0000       0.230288         6.2664
  16   0.0000       0.232151         6.3172
  17   0.0000       0.254387         6.9222

MULLIKEN ATOMIC CHARGES
-----------------------
   0 C :   -0.943265
   1 C :   -0.305431
   2 O :   -0.931640
   3 H :    0.191733
   4 H :    0.195581
   5 H :    0.326528
   6 H :    0.232646
   7 H :    0.233850
Sum of atomic charges:   -1.0000000

LOEWDIN ATOMIC CHARGES
----------------------
   0 C :   -0.173037
   1 C :   -0.623593
   2 O :   -0.425946
   3 H :    0.055837
   4 H :    0.059114
   5 H :    0.028060
   6 H :    0.039966
   7 H :    0.039598

  Mayer bond orders larger than 0.100000
B(  0-C ,  1-C ) :   0.7324 B(  0-C ,  2-O ) :   0.2705 B(  0-C ,  5-H ) :   0.9513
B(  0-C ,  6-H ) :   1.0021 B(  0-C ,  7-H ) :   1.0012 B(  1-C ,  2-O ) :   0.9532
B(  1-C ,  3-H ) :   1.0543 B(  1-C ,  4-H ) :   1.0463

FINAL SINGLE POINT ENERGY      -154.416401953569

DIPOLE MOMENT
-------------
                                X             Y             Z
Electronic contribution:      2.36164      -0.98956       1.14113
Nuclear contribution   :     -3.69910       1.55962      -1.78699
                        -----------------------------------------
Total Dipole Moment    :     -1.33746       0.57007      -0.64586
                        -----------------------------------------
Magnitude (a.u.)       :      1.59088
Magnitude (Debye)      :      4.04370

Rotational constants in cm-1:     1.268893     0.327436     0.287754
Rotational constants in MHz : 38040.440181  9816.269339  8626.646564

                             ****ORCA TERMINATED NORMALLY****
TOTAL RUN TIME: 0 days 0 hours 0 minutes 22 seconds 410 msec
