                         Program Version 5.0.0 -  RELEASE  -
|  1> !CAM-B3LYP RIJCOSX def2-TZVPD def2/J TightSCF
|  2> *xyz 1 1
|  3> C          3.95643        0.50147       -0.37910
|  4> H          3.16840        0.02920        0.20738
|  5> N          3.80389        1.96157       -0.15675
|  6> C          3.84232        0.14849       -1.85406
|  7> H          4.92323        0.17798        0.00937
|  8> H          4.20643        2.24441        0.74536
|  9> H          2.80827        2.21132       -0.09610
| 10> H          4.28076        2.50155       -0.89104
| 11> H          4.62951        0.62800       -2.39748
| 12> H          2.89665        0.48102       -2.22825
| 13> H          3.92053       -0.91187       -1.97413
| 14> *
| 15>
| 16> %MaxCore 64000
| 17> %pal nprocs 4
| 18> end
| 19>
| 20> %scf
| 21>   MaxIter 150
| 22> end
| 23>
| 24>
| 25>                          ****END OF INPUT****

CARTESIAN COORDINATES (ANGSTROEM)
---------------------------------
  C      3.956430    0.501470   -0.379100
  H      3.168400    0.029200    0.207380
  N      3.803890    1.961570   -0.156750
  C      3.842320    0.148490   -1.854060
  H      4.923230    0.177980    0.009370
  H      4.206430    2.244410    0.745360
  H      2.808270    2.211320   -0.096100
  H      4.280760    2.501550   -0.891040
  H      4.629510    0.628000   -2.397480
  H      2.896650    0.481020   -2.228250
  H      3.920530   -0.911870   -1.974130

 Total Charge           Charge          ....    1
 Multiplicity           Mult            ....    1
 Number of Electrons    NEL             ....   26
 Basis Dimension        Dim             ....  183

ORBITAL ENERGIES
----------------

  NO   OCC          E(Eh)            E(eV)
   0   2.0000     -14.724748      -400.6808
   1   2.0000     -10.497545      -285.6527
   2   2.0000     -10.417092      -283.4635
   3   2.0000      -1.300631       -35.3920
   4   2.0000      -1.048628       -28.5346
   5   2.0000      -0.923102       -25.1189
   6   2.0000      -0.876159       -23.8415
   7   2.0000      -0.857681       -23.3387
   8   2.0000      -0.767254       -20.8780
   9   2.0000      -0.713430       -19.4134
  10   2.0000      -0.650293       -17.6954
  11   2.0000      -0.635454       -17.2916
  12   2.0000      -0.617806       -16.8114
  13   0.0000      -0.166802        -4.5389
  14   0.0000      -0.108391        -2.9495
  15   0.0000      -0.106964        -2.9106
  16   0.0000      -0.100571        -2.7367
  17   0.0000      -0.069061        -1.8792

MULLIKEN ATOMIC CHARGES
-----------------------
   0 C :   -0.332829
   1 H :    0.328035
   2 N :   -0.314286
   3 C :   -1.163100
   4 H :    0.324890
   5 H :    0.355985
   6 H :    0.358735
   7 H :    0.335825
   8 H :    0.389863
   9 H :    0.373534
  10 H :    0.343348
Sum of atomic charges:    1.0000000

LOEWDIN ATOMIC CHARGES
----------------------
   0 C :   -0.204192
   1 H :    0.136734
   2 N :    0.181354
   3 C :   -0.058192
   4 H :    0.137267
   5 H :    0.181132
   6 H :    0.183843
   7 H :    0.180719
   8 H :    0.083788
   9 H :    0.084011
  10 H :    0.093535

  Mayer bond orders larger than 0.100000
B(  0-C ,  1-H ) :   0.9234 B(  0-C ,  2-N ) :   0.9067 B(  0-C ,  3-C ) :   0.6002
B(  0-C ,  4-H ) :   0.9197 B(  2-N ,  5-H ) :   0.8686 B(  2-N ,  6-H ) :   0.8602
B(  2-N ,  7-H ) :   0.8704 B(  3-C ,  8-H ) :   0.8894 B(  3-C ,  9-H ) :   0.9300
B(  3-C , 10-H ) :   0.9656

FINAL SINGLE POINT ENERGY      -135.507140975322

DIPOLE MOMENT
-------------
                                X             Y             Z
Electronic contribution:     -0.01155       1.32756       1.24805
Nuclear contribution   :     -0.06214      -0.04120      -0.39947
                        -----------------------------------------
Total Dipole Moment    :     -0.07369       1.28635       0.84858
                        -----------------------------------------
Magnitude (a.u.)       :      1.54280
Magnitude (Debye)      :      3.92147

Rotational constants in cm-1:     1.011771     0.281435     0.249812
Rotational constants in MHz : 30332.138762  8437.210602  7489.166323

                             ****ORCA TERMINATED NORMALLY****
TOTAL RUN TIME: 0 days 0 hours 0 minutes 25 seconds 382 msec
