                         Program Version 5.0.0 -  RELEASE  -
|  1> !CAM-B3LYP RIJCOSX def2-TZVPD def2/J TightSCF xyzfile
|  2>
|  3> *xyzfile 0 1 B.xyz
|  4>
|  5> %MaxCore 64000
|  6>
|  7> %pal nprocs 4
|  8> end
|  9>
| 10> %scf
| 11>   MaxIter 150
| 12> end
| 13>
| 14>
| 15>                          ****END OF INPUT****

CARTESIAN COORDINATES (ANGSTROEM)
---------------------------------
  C      3.956426    0.501466   -0.379100
  H      3.168398    0.029201    0.207383
  N      3.803893    1.961572   -0.156747
  C      3.842322    0.148490   -1.854058
  H      4.923231    0.177982    0.009371
  H      4.620021    0.694502   -2.402150
  H      4.096015   -0.910930   -1.955103
  C      2.475619    0.412708   -2.485377
  H      2.174689    1.445076   -2.287971
  C      1.383931   -0.532740   -1.995203
  H      2.575613    0.318574   -3.571460
  H      1.264698   -0.412309   -0.915491
  H      1.705223   -1.566885   -2.164984
  C      0.031398   -0.317260   -2.677791
  C     -0.587292    1.060853   -2.436460
  H     -0.662815   -1.089530   -2.329985
  H      0.149465   -0.478040   -3.755648
  H      0.104376    1.828590   -2.793130
  C     -0.951213    1.334978   -0.972500
  H     -1.478832    1.161355   -3.062484
  H     -0.317007    0.741648   -0.311389
  H     -1.980916    1.012842   -0.788958
  C     -0.774550    2.788332   -0.543943
  H     -1.352609    3.459372   -1.192585
  H     -1.171014    2.902331    0.469968
  C      0.697208    3.227911   -0.525126
  O      1.489294    2.374703    0.199189
  H      0.715998    4.264030   -0.130774
  H      1.036148    3.330920   -1.583669
  H      4.206425    2.244406    0.745359
  H      2.808269    2.211323   -0.096097
  H      4.280757    2.501552   -0.891037

 Total Charge           Charge          ....    0
 Multiplicity           Mult            ....    1
 Number of Electrons    NEL             ....   90
 Basis Dimension        Dim             ....  599

ORBITAL ENERGIES
----------------

  NO   OCC          E(Eh)            E(eV)
   0   2.0000     -19.066885      -518.8363
   1   2.0000     -14.469583      -393.7374
   2   2.0000     -10.311097      -280.5792
   3   2.0000     -10.266354      -279.3617
   4   2.0000     -10.240205      -278.6502
   5   2.0000     -10.227717      -278.3103
   6   2.0000     -10.225970      -278.2628
   7   2.0000     -10.222187      -278.1599
   8   2.0000     -10.209634      -277.8183
   9   2.0000     -10.196474      -277.4602
  10   2.0000     -10.189773      -277.2778
  11   2.0000      -1.073063       -29.1995
  12   2.0000      -0.971432       -26.4340
  13   2.0000      -0.901500       -24.5311
  14   2.0000      -0.861731       -23.4489
  15   2.0000      -0.822807       -22.3897
  16   2.0000      -0.778800       -21.1922
  17   2.0000      -0.740151       -20.1405
  18   2.0000      -0.699841       -19.0436
  19   2.0000      -0.671993       -18.2859
  20   2.0000      -0.644502       -17.5378
  21   2.0000      -0.640679       -17.4337
  22   2.0000      -0.622609       -16.9420
  23   2.0000      -0.584409       -15.9026
  24   2.0000      -0.562381       -15.3032
  25   2.0000      -0.538802       -14.6615
  26   2.0000      -0.537358       -14.6222
  27   2.0000      -0.507281       -13.8038
  28   2.0000      -0.491854       -13.3840
  29   2.0000      -0.487383       -13.2624
  30   2.0000      -0.468823       -12.7573
  31   2.0000      -0.458576       -12.4785
  32   2.0000      -0.448180       -12.1956
  33   2.0000      -0.430199       -11.7063
  34   2.0000      -0.421558       -11.4712
  35   2.0000      -0.409453       -11.1418
  36   2.0000      -0.401610       -10.9284
  37   2.0000      -0.389836       -10.6080
  38   2.0000      -0.378916       -10.3108
  39   2.0000      -0.373772       -10.1709
  40   2.0000      -0.352971        -9.6048
  41   2.0000      -0.347135        -9.4460
  42   2.0000      -0.343271        -9.3409
  43   2.0000      -0.246031        -6.6948
  44   2.0000      -0.239288        -6.5114
  45   0.0000       0.004812         0.1309
  46   0.0000       0.032461         0.8833
  47   0.0000       0.036641         0.9971
  48   0.0000       0.049713         1.3528
  49   0.0000       0.063086         1.7167

MULLIKEN ATOMIC CHARGES
-----------------------
   0 C :   -0.574284
   1 H :    0.322883
   2 N :   -0.109691
   3 C :   -0.620498
   4 H :    0.311819
   5 H :    0.249936
   6 H :    0.292556
   7 C :   -0.116569
   8 H :    0.039081
   9 C :   -0.438289
  10 H :    0.304214
  11 H :    0.196019
  12 H :    0.302277
  13 C :   -0.727856
  14 C :   -0.587766
  15 H :    0.274883
  16 H :    0.299859
  17 H :    0.281652
  18 C :   -0.344336
  19 H :    0.321703
  20 H :    0.120399
  21 H :    0.315870
  22 C :   -0.685883
  23 H :    0.250751
  24 H :    0.328273
  25 C :   -0.373346
  26 O :   -0.929212
  27 H :    0.260377
  28 H :    0.223441
  29 H :    0.351155
  30 H :    0.125041
  31 H :    0.335543
Sum of atomic charges:    0.0000000

LOEWDIN ATOMIC CHARGES
----------------------
   0 C :   -0.173609
   1 H :    0.127719
   2 N :    0.140263
   3 C :   -0.195329
   4 H :    0.119193
   5 H :    0.112034
   6 H :    0.117242
   7 C :   -0.206578
   8 H :    0.092551
   9 C :   -0.214000
  10 H :    0.120177
  11 H :    0.097844
  12 H :    0.114256
  13 C :   -0.212012
  14 C :   -0.211941
  15 H :    0.111697
  16 H :    0.107596
  17 H :    0.091436
  18 C :   -0.218150
  19 H :    0.109318
  20 H :    0.090767
  21 H :    0.107485
  22 C :   -0.207025
  23 H :    0.107768
  24 H :    0.105248
  25 C :   -0.419327
  26 O :   -0.279561
  27 H :    0.096647
  28 H :    0.087589
  29 H :    0.161975
  30 H :   -0.043059
  31 H :    0.161783

  Mayer bond orders larger than 0.100000
B(  0-C ,  1-H ) :   0.9290 B(  0-C ,  2-N ) :   0.9043 B(  0-C ,  3-C ) :   0.7226
B(  0-C ,  4-H ) :   0.9414 B(  2-N , 26-O ) :  -0.1434 B(  2-N , 29-H ) :   0.8571
B(  2-N , 30-H ) :   0.8440 B(  2-N , 31-H ) :   0.8375 B(  3-C ,  5-H ) :   1.0021
B(  3-C ,  6-H ) :   0.9742 B(  3-C ,  7-C ) :   0.7588 B(  7-C ,  8-H ) :   1.1968
B(  7-C ,  9-C ) :   0.4682 B(  7-C , 10-H ) :   0.9078 B(  7-C , 12-H ) :  -0.1026
B(  7-C , 13-C ) :   0.1173 B(  9-C , 11-H ) :   1.0677 B(  9-C , 12-H ) :   0.9448
B(  9-C , 13-C ) :   0.7869 B( 13-C , 14-C ) :   0.8089 B( 13-C , 15-H ) :   0.9913
B( 13-C , 16-H ) :   0.9634 B( 13-C , 18-C ) :   0.1257 B( 14-C , 17-H ) :   0.9993
B( 14-C , 18-C ) :   0.5322 B( 14-C , 19-H ) :   0.9471 B( 14-C , 22-C ) :   0.1640
B( 18-C , 20-H ) :   1.0547 B( 18-C , 21-H ) :   0.9326 B( 18-C , 22-C ) :   0.8902
B( 22-C , 23-H ) :   1.0286 B( 22-C , 24-H ) :   0.9076 B( 22-C , 25-C ) :   0.8735
B( 25-C , 26-O ) :   0.7913 B( 25-C , 27-H ) :   0.9932 B( 25-C , 28-H ) :   0.9869
B( 26-O , 30-H ) :   0.3117

FINAL SINGLE POINT ENERGY      -485.454802859392

DIPOLE MOMENT
-------------
                                X             Y             Z
Electronic contribution:      2.11825       0.89819       2.54115
Nuclear contribution   :      0.61785      -1.47632      -2.91844
                        -----------------------------------------
Total Dipole Moment    :      2.73610      -0.57813      -0.37729
                        -----------------------------------------
Magnitude (a.u.)       :      2.82185
Magnitude (Debye)      :      7.17256

Rotational constants in cm-1:     0.040993     0.027400     0.018162
Rotational constants in MHz :  1228.944366   821.418004   544.476857

                             ****ORCA TERMINATED NORMALLY****
TOTAL RUN TIME: 0 days 0 hours 7 minutes 44 seconds 732 msec
