                         Program Version 5.0.0 -  RELEASE  -
|  1> !CAM-B3LYP RIJCOSX def2-TZVPD def2/J TightSCF
|  2> *xyz 0 1
|  3> C         -0.77455        2.78833       -0.54394
|  4> C          0.69721        3.22791       -0.52513
|  5> F          1.48929        2.37470        0.19919
|  6> H          0.71600        4.26403       -0.13077
|  7> H          1.03615        3.33092       -1.58367
|  8> H         -1.34746        3.48478       -1.11982
|  9> H         -1.15078        2.75876        0.45729
| 10> H         -0.85058        1.81526       -0.98241
| 11> *
| 12>
| 13> %MaxCore 64000
| 14> %pal nprocs 4
| 15> end
| 16>
| 17> %scf
| 18>   MaxIter 150
| 19> end
| 20>
| 21>
| 22>                          ****END OF INPUT****

CARTESIAN COORDINATES (ANGSTROEM)
---------------------------------
  C     -0.774550    2.788330   -0.543940
  C      0.697210    3.227910   -0.525130
  F      1.489290    2.374700    0.199190
  H      0.716000    4.264030   -0.130770
  H      1.036150    3.330920   -1.583670
  H     -1.347460    3.484780   -1.119820
  H     -1.150780    2.758760    0.457290
  H     -0.850580    1.815260   -0.982410

 Total Charge           Charge          ....    0
 Multiplicity           Mult            ....    1
 Number of Electrons    NEL             ....   26
 Basis Dimension        Dim             ....  159

ORBITAL ENERGIES
----------------

  NO   OCC          E(Eh)            E(eV)
   0   2.0000     -24.745020      -673.3462
   1   2.0000     -10.324544      -280.9451
   2   2.0000     -10.238295      -278.5982
   3   2.0000      -1.281439       -34.8697
   4   2.0000      -0.848368       -23.0853
   5   2.0000      -0.710886       -19.3442
   6   2.0000      -0.582204       -15.8426
   7   2.0000      -0.570147       -15.5145
   8   2.0000      -0.531821       -14.4716
   9   2.0000      -0.476374       -12.9628
  10   2.0000      -0.469994       -12.7892
  11   2.0000      -0.405368       -11.0306
  12   2.0000      -0.398866       -10.8537
  13   0.0000       0.035788         0.9738
  14   0.0000       0.060440         1.6447
  15   0.0000       0.080805         2.1988
  16   0.0000       0.083509         2.2724
  17   0.0000       0.111930         3.0458

MULLIKEN ATOMIC CHARGES
-----------------------
   0 C :   -0.942055
   1 C :   -0.121941
   2 F :   -0.297634
   3 H :    0.233546
   4 H :    0.235727
   5 H :    0.323972
   6 H :    0.284818
   7 H :    0.283567
Sum of atomic charges:   -0.0000000

LOEWDIN ATOMIC CHARGES
----------------------
   0 C :   -0.086992
   1 C :   -0.292470
   2 F :   -0.046892
   3 H :    0.111779
   4 H :    0.115847
   5 H :    0.067566
   6 H :    0.065751
   7 H :    0.065410

  Mayer bond orders larger than 0.100000
B(  0-C ,  1-C ) :   0.7355 B(  0-C ,  5-H ) :   0.9358 B(  0-C ,  6-H ) :   0.9593
B(  0-C ,  7-H ) :   0.9588 B(  1-C ,  2-F ) :   0.8094 B(  1-C ,  3-H ) :   0.9823
B(  1-C ,  4-H ) :   0.9768

FINAL SINGLE POINT ENERGY      -179.063502010250

DIPOLE MOMENT
-------------
                                X             Y             Z
Electronic contribution:      4.39940      -1.63755       1.98733
Nuclear contribution   :     -4.89513       2.05627      -2.36166
                        -----------------------------------------
Total Dipole Moment    :     -0.49574       0.41872      -0.37433
                        -----------------------------------------
Magnitude (a.u.)       :      0.74914
Magnitude (Debye)      :      1.90416

Rotational constants in cm-1:     1.247826     0.304622     0.269019
Rotational constants in MHz : 37408.889506  9132.346906  8064.979146

                             ****ORCA TERMINATED NORMALLY****
TOTAL RUN TIME: 0 days 0 hours 0 minutes 18 seconds 140 msec
