                         Program Version 5.0.0 -  RELEASE  -
|  1> !CAM-B3LYP RIJCOSX def2-TZVPD def2/J TightSCF
|  2> *xyz 0 1
|  3> C          3.95643        0.50147       -0.37910
|  4> H          3.16840        0.02920        0.20738
|  5> C          3.80389        1.96157       -0.15675
|  6> C          3.84232        0.14849       -1.85406
|  7> H          4.92323        0.17798        0.00937
|  8> H          4.20643        2.24441        0.74536
|  9> H          2.80827        2.21132       -0.09610
| 10> H          4.28076        2.50155       -0.89104
| 11> H          4.62951        0.62800       -2.39748
| 12> H          2.89665        0.48102       -2.22825
| 13> H          3.92053       -0.91187       -1.97413
| 14> *
| 15>
| 16> %MaxCore 64000
| 17> %pal nprocs 4
| 18> end
| 19>
| 20> %scf
| 21>   MaxIter 150
| 22> end
| 23>
| 24>
| 25>                          ****END OF INPUT****

CARTESIAN COORDINATES (ANGSTROEM)
---------------------------------
  C      3.956430    0.501470   -0.379100
  H      3.168400    0.029200    0.207380
  C      3.803890    1.961570   -0.156750
  C      3.842320    0.148490   -1.854060
  H      4.923230    0.177980    0.009370
  H      4.206430    2.244410    0.745360
  H      2.808270    2.211320   -0.096100
  H      4.280760    2.501550   -0.891040
  H      4.629510    0.628000   -2.397480
  H      2.896650    0.481020   -2.228250
  H      3.920530   -0.911870   -1.974130

 Total Charge           Charge          ....    0
 Multiplicity           Mult            ....    1
 Number of Electrons    NEL             ....   26
 Basis Dimension        Dim             ....  183

ORBITAL ENERGIES
----------------

  NO   OCC          E(Eh)            E(eV)
   0   2.0000     -10.227827      -278.3133
   1   2.0000     -10.219039      -278.0742
   2   2.0000     -10.200809      -277.5781
   3   2.0000      -0.875462       -23.8225
   4   2.0000      -0.770616       -20.9695
   5   2.0000      -0.662203       -18.0194
   6   2.0000      -0.540883       -14.7182
   7   2.0000      -0.516106       -14.0440
   8   2.0000      -0.469692       -12.7810
   9   2.0000      -0.458344       -12.4722
  10   2.0000      -0.401774       -10.9328
  11   2.0000      -0.399536       -10.8719
  12   2.0000      -0.390021       -10.6130
  13   0.0000       0.040498         1.1020
  14   0.0000       0.061586         1.6759
  15   0.0000       0.064414         1.7528
  16   0.0000       0.088276         2.4021
  17   0.0000       0.110922         3.0183

MULLIKEN ATOMIC CHARGES
-----------------------
   0 C :   -0.068200
   1 H :    0.228279
   2 C :   -1.262561
   3 C :   -1.118193
   4 H :    0.253907
   5 H :    0.356472
   6 H :    0.345603
   7 H :    0.335549
   8 H :    0.313173
   9 H :    0.310807
  10 H :    0.305164
Sum of atomic charges:   -0.0000000

LOEWDIN ATOMIC CHARGES
----------------------
   0 C :   -0.320166
   1 H :    0.104276
   2 C :   -0.131076
   3 C :   -0.119654
   4 H :    0.103991
   5 H :    0.052369
   6 H :    0.057275
   7 H :    0.055898
   8 H :    0.066937
   9 H :    0.068531
  10 H :    0.061619

  Mayer bond orders larger than 0.100000
B(  0-C ,  1-H ) :   0.9886 B(  0-C ,  2-C ) :   0.5824 B(  0-C ,  3-C ) :   0.5971
B(  0-C ,  4-H ) :   0.9788 B(  2-C ,  5-H ) :   0.9526 B(  2-C ,  6-H ) :   0.9575
B(  2-C ,  7-H ) :   0.9300 B(  3-C ,  8-H ) :   0.9691 B(  3-C ,  9-H ) :   0.9723
B(  3-C , 10-H ) :   0.9848

FINAL SINGLE POINT ENERGY      -119.094657227254

DIPOLE MOMENT
-------------
                                X             Y             Z
Electronic contribution:      0.08102      -0.29658       0.23369
Nuclear contribution   :     -0.08172       0.30475      -0.19303
                        -----------------------------------------
Total Dipole Moment    :     -0.00070       0.00817       0.04066
                        -----------------------------------------
Magnitude (a.u.)       :      0.04148
Magnitude (Debye)      :      0.10543

Rotational constants in cm-1:     1.020248     0.295755     0.261591
Rotational constants in MHz : 30586.266829  8866.511639  7842.297953

                             ****ORCA TERMINATED NORMALLY****
TOTAL RUN TIME: 0 days 0 hours 0 minutes 23 seconds 387 msec
