                         Program Version 5.0.0 -  RELEASE  -
|  1> !CAM-B3LYP RIJCOSX def2-TZVPD def2/J TightSCF xyzfile
|  2>
|  3> *xyzfile 0 1 D.xyz
|  4>
|  5> %MaxCore 64000
|  6>
|  7> %pal nprocs 4
|  8> end
|  9>
| 10> %scf
| 11>   MaxIter 150
| 12> end
| 13>
| 14>
| 15>                          ****END OF INPUT****

CARTESIAN COORDINATES (ANGSTROEM)
---------------------------------
  C      3.956426    0.501466   -0.379100
  H      3.168398    0.029201    0.207383
  C      3.803893    1.961572   -0.156747
  C      3.842322    0.148490   -1.854058
  H      4.923231    0.177982    0.009371
  H      4.620021    0.694502   -2.402150
  H      4.096015   -0.910930   -1.955103
  C      2.475619    0.412708   -2.485377
  H      2.174689    1.445076   -2.287971
  C      1.383931   -0.532740   -1.995203
  H      2.575613    0.318574   -3.571460
  H      1.264698   -0.412309   -0.915491
  H      1.705223   -1.566885   -2.164984
  C      0.031398   -0.317260   -2.677791
  C     -0.587292    1.060853   -2.436460
  H     -0.662815   -1.089530   -2.329985
  H      0.149465   -0.478040   -3.755648
  H      0.104376    1.828590   -2.793130
  C     -0.951213    1.334978   -0.972500
  H     -1.478832    1.161355   -3.062484
  H     -0.317007    0.741648   -0.311389
  H     -1.980916    1.012842   -0.788958
  C     -0.774550    2.788332   -0.543943
  H     -1.352609    3.459372   -1.192585
  H     -1.171014    2.902331    0.469968
  C      0.697208    3.227911   -0.525126
  F      1.489294    2.374703    0.199189
  H      0.715998    4.264030   -0.130774
  H      1.036148    3.330920   -1.583669
  H      4.206425    2.244406    0.745359
  H      2.808269    2.211323   -0.096097
  H      4.280757    2.501552   -0.891037

 Total Charge           Charge          ....    0
 Multiplicity           Mult            ....    1
 Number of Electrons    NEL             ....   90
 Basis Dimension        Dim             ....  599

ORBITAL ENERGIES
----------------

  NO   OCC          E(Eh)            E(eV)
   0   2.0000     -24.764566      -673.8781
   1   2.0000     -10.332455      -281.1604
   2   2.0000     -10.254264      -279.0327
   3   2.0000     -10.240237      -278.6510
   4   2.0000     -10.236822      -278.5581
   5   2.0000     -10.233654      -278.4719
   6   2.0000     -10.227599      -278.3071
   7   2.0000     -10.225561      -278.2517
   8   2.0000     -10.219567      -278.0885
   9   2.0000     -10.208546      -277.7887
  10   2.0000     -10.154896      -276.3288
  11   2.0000      -1.315225       -35.7891
  12   2.0000      -0.904882       -24.6231
  13   2.0000      -0.884824       -24.0773
  14   2.0000      -0.851064       -23.1586
  15   2.0000      -0.819224       -22.2922
  16   2.0000      -0.770633       -20.9700
  17   2.0000      -0.744373       -20.2554
  18   2.0000      -0.702111       -19.1054
  19   2.0000      -0.677805       -18.4440
  20   2.0000      -0.641127       -17.4460
  21   2.0000      -0.627545       -17.0764
  22   2.0000      -0.604137       -16.4394
  23   2.0000      -0.589882       -16.0515
  24   2.0000      -0.567974       -15.4554
  25   2.0000      -0.541185       -14.7264
  26   2.0000      -0.529692       -14.4137
  27   2.0000      -0.519434       -14.1345
  28   2.0000      -0.499143       -13.5824
  29   2.0000      -0.496288       -13.5047
  30   2.0000      -0.478929       -13.0323
  31   2.0000      -0.461201       -12.5499
  32   2.0000      -0.454077       -12.3561
  33   2.0000      -0.440901       -11.9975
  34   2.0000      -0.432390       -11.7659
  35   2.0000      -0.421931       -11.4813
  36   2.0000      -0.414365       -11.2755
  37   2.0000      -0.407610       -11.0916
  38   2.0000      -0.388558       -10.5732
  39   2.0000      -0.383844       -10.4449
  40   2.0000      -0.376854       -10.2547
  41   2.0000      -0.375768       -10.2252
  42   2.0000      -0.360591        -9.8122
  43   2.0000      -0.359451        -9.7812
  44   2.0000      -0.337862        -9.1937
  45   0.0000       0.031860         0.8670
  46   0.0000       0.039677         1.0797
  47   0.0000       0.044672         1.2156
  48   0.0000       0.050277         1.3681
  49   0.0000       0.061203         1.6654

MULLIKEN ATOMIC CHARGES
-----------------------
   0 C :   -0.263323
   1 H :    0.287513
   2 C :   -0.925669
   3 C :   -0.685744
   4 H :    0.239542
   5 H :    0.296835
   6 H :    0.263003
   7 C :   -0.238910
   8 H :    0.029916
   9 C :   -0.367038
  10 H :    0.292486
  11 H :    0.156627
  12 H :    0.312088
  13 C :   -0.746976
  14 C :   -0.589308
  15 H :    0.275843
  16 H :    0.315517
  17 H :    0.313573
  18 C :   -0.407048
  19 H :    0.318644
  20 H :    0.191083
  21 H :    0.327023
  22 C :   -0.655719
  23 H :    0.268027
  24 H :    0.332276
  25 C :   -0.318982
  26 F :   -0.403195
  27 H :    0.292261
  28 H :    0.286150
  29 H :    0.416563
  30 H :    0.025409
  31 H :    0.361531
Sum of atomic charges:    0.0000000

LOEWDIN ATOMIC CHARGES
----------------------
   0 C :   -0.253991
   1 H :    0.104895
   2 C :   -0.113272
   3 C :   -0.218447
   4 H :    0.106417
   5 H :    0.111852
   6 H :    0.106670
   7 C :   -0.208385
   8 H :    0.088982
   9 C :   -0.213346
  10 H :    0.117597
  11 H :    0.095780
  12 H :    0.117622
  13 C :   -0.211437
  14 C :   -0.210375
  15 H :    0.111951
  16 H :    0.110739
  17 H :    0.092708
  18 C :   -0.208419
  19 H :    0.112102
  20 H :    0.098403
  21 H :    0.115275
  22 C :   -0.181190
  23 H :    0.121936
  24 H :    0.111898
  25 C :   -0.204166
  26 F :   -0.037674
  27 H :    0.127448
  28 H :    0.120862
  29 H :    0.061144
  30 H :   -0.038239
  31 H :    0.064663

  Mayer bond orders larger than 0.100000
B(  0-C ,  1-H ) :   0.9412 B(  0-C ,  2-C ) :   0.4281 B(  0-C ,  3-C ) :   0.7664
B(  0-C ,  4-H ) :   1.0073 B(  0-C ,  9-C ) :   0.1076 B(  0-C , 30-H ) :  -0.1028
B(  2-C , 26-F ) :   0.2273 B(  2-C , 29-H ) :   0.9648 B(  2-C , 30-H ) :   0.9380
B(  2-C , 31-H ) :   1.0765 B(  3-C ,  5-H ) :   0.9594 B(  3-C ,  6-H ) :   0.9683
B(  3-C ,  7-C ) :   0.9233 B(  7-C ,  8-H ) :   1.2580 B(  7-C ,  9-C ) :   0.4069
B(  7-C , 10-H ) :   0.8949 B(  7-C , 13-C ) :   0.1071 B(  8-H ,  9-C ) :  -0.1340
B(  9-C , 11-H ) :   1.1046 B(  9-C , 12-H ) :   0.9233 B(  9-C , 13-C ) :   0.7758
B( 13-C , 14-C ) :   0.8340 B( 13-C , 15-H ) :   0.9965 B( 13-C , 16-H ) :   0.9568
B( 13-C , 18-C ) :   0.1369 B( 14-C , 17-H ) :   0.9815 B( 14-C , 18-C ) :   0.5358
B( 14-C , 19-H ) :   0.9519 B( 14-C , 22-C ) :   0.1491 B( 18-C , 20-H ) :   1.0370
B( 18-C , 21-H ) :   0.9351 B( 18-C , 22-C ) :   0.8443 B( 22-C , 23-H ) :   0.9858
B( 22-C , 24-H ) :   0.9333 B( 22-C , 25-C ) :   0.8215 B( 22-C , 26-F ) :   0.1098
B( 25-C , 26-F ) :   0.6544 B( 25-C , 27-H ) :   0.9272 B( 25-C , 28-H ) :   0.9835
B( 26-F , 30-H ) :  -0.1703

FINAL SINGLE POINT ENERGY      -493.423210929327

DIPOLE MOMENT
-------------
                                X             Y             Z
Electronic contribution:     -1.97019       3.29506       4.26996
Nuclear contribution   :      1.09293      -2.80761      -4.51228
                        -----------------------------------------
Total Dipole Moment    :     -0.87726       0.48745      -0.24232
                        -----------------------------------------
Magnitude (a.u.)       :      1.03243
Magnitude (Debye)      :      2.62422

Rotational constants in cm-1:     0.040502     0.027818     0.018259
Rotational constants in MHz :  1214.218058   833.972871   547.398614

                             ****ORCA TERMINATED NORMALLY****
TOTAL RUN TIME: 0 days 0 hours 7 minutes 2 seconds 382 msec
