                         Program Version 5.0.0 -  RELEASE  -
|  1> !wB97X-D3 RIJCOSX def2-SVPD def2/J TightSCF CPCM(Water)
|  2> *xyz -1 1
|  3> C         -7.33044       -2.67899       -3.20681
|  4> S         -6.01966       -2.92697       -4.41913
|  5> O         -5.64583       -1.58838       -4.91931
|  6> O         -4.88196       -3.50370       -3.66724
|  7> O         -6.54927       -3.80515       -5.42507
|  8> C         -6.28692       -0.73588       -1.89353
|  9> C         -7.46900       -1.24615       -2.71383
| 10> H         -7.60191       -0.60135       -3.58533
| 11> H         -8.38979       -1.17344       -2.12692
| 12> H         -7.11825       -3.37982       -2.39805
| 13> H         -8.24184       -3.00474       -3.70651
| 14> H         -5.39124       -0.81034       -2.47415
| 15> H         -6.18709       -1.32597       -1.00655
| 16> H         -6.45393        0.28631       -1.62495
| 17> *
| 18> %MaxCore 64000
| 19>
| 20> %pal nprocs 8
| 21> end
| 22>
| 23> %scf
| 24>   MaxIter 150
| 25> end
| 26>
| 27>
| 28>                          ****END OF INPUT****

CARTESIAN COORDINATES (ANGSTROEM)
---------------------------------
  C     -7.330440   -2.678990   -3.206810
  S     -6.019660   -2.926970   -4.419130
  O     -5.645830   -1.588380   -4.919310
  O     -4.881960   -3.503700   -3.667240
  O     -6.549270   -3.805150   -5.425070
  C     -6.286920   -0.735880   -1.893530
  C     -7.469000   -1.246150   -2.713830
  H     -7.601910   -0.601350   -3.585330
  H     -8.389790   -1.173440   -2.126920
  H     -7.118250   -3.379820   -2.398050
  H     -8.241840   -3.004740   -3.706510
  H     -5.391240   -0.810340   -2.474150
  H     -6.187090   -1.325970   -1.006550
  H     -6.453930    0.286310   -1.624950

 Total Charge           Charge          ....   -1
 Multiplicity           Mult            ....    1
 Number of Electrons    NEL             ....   66
 Basis Dimension        Dim             ....  212

ORBITAL ENERGIES
----------------

  NO   OCC          E(Eh)            E(eV)
   0   2.0000     -89.151764     -2425.9428
   1   2.0000     -19.210437      -522.7426
   2   2.0000     -19.199143      -522.4352
   3   2.0000     -19.197958      -522.4030
   4   2.0000     -10.298135      -280.2265
   5   2.0000     -10.285078      -279.8712
   6   2.0000     -10.263817      -279.2927
   7   2.0000      -8.226103      -223.8436
   8   2.0000      -6.185965      -168.3287
   9   2.0000      -6.185916      -168.3273
  10   2.0000      -6.184171      -168.2799
  11   2.0000      -1.225716       -33.3534
  12   2.0000      -1.083881       -29.4939
  13   2.0000      -1.061557       -28.8864
  14   2.0000      -0.904002       -24.5991
  15   2.0000      -0.814459       -22.1625
  16   2.0000      -0.714644       -19.4465
  17   2.0000      -0.648478       -17.6460
  18   2.0000      -0.591337       -16.0911
  19   2.0000      -0.567378       -15.4391
  20   2.0000      -0.555853       -15.1255
  21   2.0000      -0.535560       -14.5733
  22   2.0000      -0.531501       -14.4629
  23   2.0000      -0.499436       -13.5903
  24   2.0000      -0.455725       -12.4009
  25   2.0000      -0.443737       -12.0747
  26   2.0000      -0.434536       -11.8243
  27   2.0000      -0.431288       -11.7360
  28   2.0000      -0.420921       -11.4538
  29   2.0000      -0.386670       -10.5218
  30   2.0000      -0.378476       -10.2989
  31   2.0000      -0.369306       -10.0493
  32   2.0000      -0.343631        -9.3507
  33   0.0000       0.082179         2.2362
  34   0.0000       0.100449         2.7333
  35   0.0000       0.101475         2.7613
  36   0.0000       0.104211         2.8357
  37   0.0000       0.136869         3.7244

MULLIKEN ATOMIC CHARGES
-----------------------
   0 C :    0.000467
   1 S :    1.279436
   2 O :   -0.863426
   3 O :   -0.845821
   4 O :   -0.821379
   5 C :    0.706284
   6 C :   -0.221129
   7 H :    0.014615
   8 H :   -0.147968
   9 H :    0.028242
  10 H :    0.024539
  11 H :   -0.136792
  12 H :    0.005143
  13 H :   -0.022210
Sum of atomic charges:   -1.0000000

LOEWDIN ATOMIC CHARGES
----------------------
   0 C :   -0.066909
   1 S :    0.865742
   2 O :   -0.614880
   3 O :   -0.635048
   4 O :   -0.600205
   5 C :    0.125565
   6 C :   -0.088179
   7 H :    0.015583
   8 H :    0.027896
   9 H :    0.019064
  10 H :    0.012223
  11 H :   -0.036603
  12 H :   -0.010843
  13 H :   -0.013406

  Mayer bond orders larger than 0.100000
B(  0-C ,  1-S ) :   0.9146 B(  0-C ,  6-C ) :   1.2118 B(  0-C ,  7-H ) :   0.1343
B(  0-C ,  8-H ) :   0.1095 B(  0-C ,  9-H ) :   0.9394 B(  0-C , 10-H ) :   0.9372
B(  1-S ,  2-O ) :   1.2584 B(  1-S ,  3-O ) :   1.2555 B(  1-S ,  4-O ) :   1.3625
B(  5-C ,  6-C ) :   1.2448 B(  5-C , 11-H ) :   0.8414 B(  5-C , 12-H ) :   0.7824
B(  5-C , 13-H ) :   0.7902 B(  6-C ,  7-H ) :   0.8870 B(  6-C ,  8-H ) :   0.9594
B(  6-C ,  9-H ) :   0.1023 B(  6-C , 10-H ) :   0.1047 B(  6-C , 11-H ) :   0.1992
B(  6-C , 12-H ) :   0.1969 B(  6-C , 13-H ) :   0.1893

Dispersion correction           -0.004501560
FINAL SINGLE POINT ENERGY      -742.073576958221

DIPOLE MOMENT
-------------
                                X             Y             Z
Electronic contribution:      3.08729      -5.56487      -7.23595
Nuclear contribution   :     -5.28952       6.71955       9.52938
                        -----------------------------------------
Total Dipole Moment    :     -2.20223       1.15468       2.29343
                        -----------------------------------------
Magnitude (a.u.)       :      3.38273
Magnitude (Debye)      :      8.59822

Rotational constants in cm-1:     0.135789     0.055302     0.052251
Rotational constants in MHz :  4070.851802  1657.908940  1566.458563

                             ****ORCA TERMINATED NORMALLY****
TOTAL RUN TIME: 0 days 0 hours 0 minutes 27 seconds 300 msec
