                         Program Version 5.0.0 -  RELEASE  -
|  1> !wB97X-D3 RIJCOSX def2-SVPD def2/J TightSCF CPCM(Water)
|  2> *xyz 1 1
|  3> C         -2.16038       -1.36949       -3.46710
|  4> N         -3.03011       -1.91086       -4.54107
|  5> C         -2.04772        0.14658       -3.51177
|  6> H         -3.47744       -2.79151       -4.25710
|  7> H         -2.53801       -2.01786       -5.43808
|  8> H         -3.89159       -1.37604       -4.71437
|  9> H         -1.18444       -1.84400       -3.56639
| 10> H         -2.59819       -1.70838       -2.52848
| 11> C         -3.32876        0.87504       -3.10367
| 12> H         -1.74003        0.45234       -4.51713
| 13> H         -1.23261        0.43494       -2.84221
| 14> H         -4.12483        0.59148       -3.76000
| 15> H         -3.17368        1.93185       -3.16688
| 16> H         -3.58415        0.61151       -2.09857
| 17> *
| 18> %MaxCore 64000
| 19>
| 20> %pal nprocs 8
| 21> end
| 22>
| 23> %scf
| 24>   MaxIter 150
| 25> end
| 26>
| 27>
| 28>                          ****END OF INPUT****

CARTESIAN COORDINATES (ANGSTROEM)
---------------------------------
  C     -2.160380   -1.369490   -3.467100
  N     -3.030110   -1.910860   -4.541070
  C     -2.047720    0.146580   -3.511770
  H     -3.477440   -2.791510   -4.257100
  H     -2.538010   -2.017860   -5.438080
  H     -3.891590   -1.376040   -4.714370
  H     -1.184440   -1.844000   -3.566390
  H     -2.598190   -1.708380   -2.528480
  C     -3.328760    0.875040   -3.103670
  H     -1.740030    0.452340   -4.517130
  H     -1.232610    0.434940   -2.842210
  H     -4.124830    0.591480   -3.760000
  H     -3.173680    1.931850   -3.166880
  H     -3.584150    0.611510   -2.098570

 Total Charge           Charge          ....    1
 Multiplicity           Mult            ....    1
 Number of Electrons    NEL             ....   34
 Basis Dimension        Dim             ....  160

ORBITAL ENERGIES
----------------

  NO   OCC          E(Eh)            E(eV)
   0   2.0000     -14.555315      -396.0702
   1   2.0000     -10.350282      -281.6455
   2   2.0000     -10.300505      -280.2910
   3   2.0000     -10.277924      -279.6765
   4   2.0000      -1.109590       -30.1935
   5   2.0000      -0.908642       -24.7254
   6   2.0000      -0.816336       -22.2136
   7   2.0000      -0.721229       -19.6256
   8   2.0000      -0.692013       -18.8306
   9   2.0000      -0.661792       -18.0083
  10   2.0000      -0.604111       -16.4387
  11   2.0000      -0.552495       -15.0342
  12   2.0000      -0.538917       -14.6647
  13   2.0000      -0.509865       -13.8741
  14   2.0000      -0.455251       -12.3880
  15   2.0000      -0.448789       -12.2122
  16   2.0000      -0.443752       -12.0751
  17   0.0000       0.085531         2.3274
  18   0.0000       0.116927         3.1817
  19   0.0000       0.118035         3.2119
  20   0.0000       0.127587         3.4718
  21   0.0000       0.162788         4.4297

MULLIKEN ATOMIC CHARGES
-----------------------
   0 C :    0.571438
   1 N :   -1.015434
   2 C :   -0.419810
   3 H :    0.444989
   4 H :    0.501682
   5 H :    0.387891
   6 H :   -0.034946
   7 H :    0.039444
   8 C :    0.611916
   9 H :    0.004784
  10 H :    0.020185
  11 H :   -0.149658
  12 H :    0.002164
  13 H :    0.035355
Sum of atomic charges:    1.0000000

LOEWDIN ATOMIC CHARGES
----------------------
   0 C :    0.092522
   1 N :    0.351340
   2 C :   -0.054463
   3 H :    0.118620
   4 H :    0.124300
   5 H :    0.101309
   6 H :    0.051572
   7 H :    0.052451
   8 C :    0.130942
   9 H :    0.034224
  10 H :    0.035022
  11 H :   -0.020733
  12 H :   -0.009189
  13 H :   -0.007917

  Mayer bond orders larger than 0.100000
B(  0-C ,  1-N ) :   0.6283 B(  0-C ,  2-C ) :   1.1833 B(  0-C ,  6-H ) :   0.9211
B(  0-C ,  7-H ) :   0.9110 B(  0-C , 10-H ) :   0.1032 B(  1-N ,  3-H ) :   0.6504
B(  1-N ,  4-H ) :   0.5932 B(  1-N ,  5-H ) :   0.7240 B(  1-N ,  6-H ) :   0.1101
B(  2-C ,  8-C ) :   1.2679 B(  2-C ,  9-H ) :   0.9618 B(  2-C , 10-H ) :   0.9355
B(  2-C , 11-H ) :   0.1775 B(  2-C , 12-H ) :   0.1875 B(  2-C , 13-H ) :   0.1632
B(  8-C , 11-H ) :   0.8618 B(  8-C , 12-H ) :   0.8104 B(  8-C , 13-H ) :   0.8053
B( 11-H , 13-H ) :   0.1027

Dispersion correction           -0.002834713
FINAL SINGLE POINT ENERGY      -174.797319512701

DIPOLE MOMENT
-------------
                                X             Y             Z
Electronic contribution:      0.17040      -2.58644      -1.39366
Nuclear contribution   :     -0.76147       0.35838       0.01319
                        -----------------------------------------
Total Dipole Moment    :     -0.59107      -2.22805      -1.38047
                        -----------------------------------------
Magnitude (a.u.)       :      2.68687
Magnitude (Debye)      :      6.82948

Rotational constants in cm-1:     0.457188     0.153451     0.133348
Rotational constants in MHz : 13706.154863  4600.337483  3997.673747

                             ****ORCA TERMINATED NORMALLY****
TOTAL RUN TIME: 0 days 0 hours 0 minutes 15 seconds 120 msec
