                         Program Version 5.0.0 -  RELEASE  -
|  1> !wB97X-D3 RIJCOSX def2-SVPD def2/J TightSCF CPCM(Water)
|  2> *xyz 0 1
|  3> C         -7.33044       -2.67899       -3.20681
|  4> S         -6.01966       -2.92697       -4.41913
|  5> F         -5.64583       -1.58838       -4.91931
|  6> O         -4.88196       -3.50370       -3.66724
|  7> O         -6.54927       -3.80515       -5.42507
|  8> C         -6.28692       -0.73588       -1.89353
|  9> C         -7.46900       -1.24615       -2.71383
| 10> H         -7.60191       -0.60135       -3.58533
| 11> H         -8.38979       -1.17344       -2.12692
| 12> H         -7.11825       -3.37982       -2.39805
| 13> H         -8.24184       -3.00474       -3.70651
| 14> H         -5.39124       -0.81034       -2.47415
| 15> H         -6.18709       -1.32597       -1.00655
| 16> H         -6.45393        0.28631       -1.62495
| 17> *
| 18> %MaxCore 64000
| 19>
| 20> %pal nprocs 8
| 21> end
| 22>
| 23> %scf
| 24>   MaxIter 150
| 25> end
| 26>
| 27>
| 28>                          ****END OF INPUT****

CARTESIAN COORDINATES (ANGSTROEM)
---------------------------------
  C     -7.330440   -2.678990   -3.206810
  S     -6.019660   -2.926970   -4.419130
  F     -5.645830   -1.588380   -4.919310
  O     -4.881960   -3.503700   -3.667240
  O     -6.549270   -3.805150   -5.425070
  C     -6.286920   -0.735880   -1.893530
  C     -7.469000   -1.246150   -2.713830
  H     -7.601910   -0.601350   -3.585330
  H     -8.389790   -1.173440   -2.126920
  H     -7.118250   -3.379820   -2.398050
  H     -8.241840   -3.004740   -3.706510
  H     -5.391240   -0.810340   -2.474150
  H     -6.187090   -1.325970   -1.006550
  H     -6.453930    0.286310   -1.624950

 Total Charge           Charge          ....    0
 Multiplicity           Mult            ....    1
 Number of Electrons    NEL             ....   66
 Basis Dimension        Dim             ....  212

ORBITAL ENERGIES
----------------

  NO   OCC          E(Eh)            E(eV)
   0   2.0000     -89.238653     -2428.3072
   1   2.0000     -24.904807      -677.6943
   2   2.0000     -19.272260      -524.4248
   3   2.0000     -19.258849      -524.0599
   4   2.0000     -10.339950      -281.3643
   5   2.0000     -10.304808      -280.4081
   6   2.0000     -10.276614      -279.6409
   7   2.0000      -8.313060      -226.2099
   8   2.0000      -6.276693      -170.7975
   9   2.0000      -6.270834      -170.6381
  10   2.0000      -6.268593      -170.5771
  11   2.0000      -1.465102       -39.8675
  12   2.0000      -1.236791       -33.6548
  13   2.0000      -1.133528       -30.8449
  14   2.0000      -0.939239       -25.5580
  15   2.0000      -0.854405       -23.2495
  16   2.0000      -0.806750       -21.9528
  17   2.0000      -0.733824       -19.9684
  18   2.0000      -0.685667       -18.6580
  19   2.0000      -0.677199       -18.4275
  20   2.0000      -0.652971       -17.7682
  21   2.0000      -0.586556       -15.9610
  22   2.0000      -0.575846       -15.6696
  23   2.0000      -0.561283       -15.2733
  24   2.0000      -0.553670       -15.0661
  25   2.0000      -0.524432       -14.2705
  26   2.0000      -0.500082       -13.6079
  27   2.0000      -0.474481       -12.9113
  28   2.0000      -0.463111       -12.6019
  29   2.0000      -0.447724       -12.1832
  30   2.0000      -0.433438       -11.7944
  31   2.0000      -0.423014       -11.5108
  32   2.0000      -0.416267       -11.3272
  33   0.0000       0.068759         1.8710
  34   0.0000       0.094284         2.5656
  35   0.0000       0.097456         2.6519
  36   0.0000       0.099687         2.7126
  37   0.0000       0.119886         3.2623

MULLIKEN ATOMIC CHARGES
-----------------------
   0 C :   -0.058792
   1 S :    1.488770
   2 F :   -0.421654
   3 O :   -0.735562
   4 O :   -0.706922
   5 C :    0.682367
   6 C :   -0.275007
   7 H :    0.048338
   8 H :   -0.101313
   9 H :    0.095157
  10 H :    0.086473
  11 H :   -0.124812
  12 H :    0.025978
  13 H :   -0.003022
Sum of atomic charges:    0.0000000

LOEWDIN ATOMIC CHARGES
----------------------
   0 C :   -0.022954
   1 S :    1.136368
   2 F :   -0.260645
   3 O :   -0.527883
   4 O :   -0.492524
   5 C :    0.135736
   6 C :   -0.075936
   7 H :    0.029622
   8 H :    0.040255
   9 H :    0.042465
  10 H :    0.031911
  11 H :   -0.026434
  12 H :   -0.003770
  13 H :   -0.006209

  Mayer bond orders larger than 0.100000
B(  0-C ,  1-S ) :   0.9768 B(  0-C ,  6-C ) :   1.2102 B(  0-C ,  7-H ) :   0.1188
B(  0-C ,  9-H ) :   0.9432 B(  0-C , 10-H ) :   0.9390 B(  1-S ,  2-F ) :   0.6484
B(  1-S ,  3-O ) :   1.4509 B(  1-S ,  4-O ) :   1.5373 B(  5-C ,  6-C ) :   1.2575
B(  5-C , 11-H ) :   0.8345 B(  5-C , 12-H ) :   0.7946 B(  5-C , 13-H ) :   0.7968
B(  6-C ,  7-H ) :   0.9029 B(  6-C ,  8-H ) :   0.9704 B(  6-C , 10-H ) :   0.1064
B(  6-C , 11-H ) :   0.1887 B(  6-C , 12-H ) :   0.1929 B(  6-C , 13-H ) :   0.1873

Dispersion correction           -0.004487415
FINAL SINGLE POINT ENERGY      -766.479710433716

DIPOLE MOMENT
-------------
                                X             Y             Z
Electronic contribution:      4.38227      -4.23488      -9.63918
Nuclear contribution   :     -5.93570       5.78812      10.65621
                        -----------------------------------------
Total Dipole Moment    :     -1.55343       1.55324       1.01702
                        -----------------------------------------
Magnitude (a.u.)       :      2.42075
Magnitude (Debye)      :      6.15306

Rotational constants in cm-1:     0.129417     0.054385     0.051980
Rotational constants in MHz :  3879.823072  1630.427453  1558.324762

                             ****ORCA TERMINATED NORMALLY****
TOTAL RUN TIME: 0 days 0 hours 0 minutes 29 seconds 739 msec
