                         Program Version 5.0.0 -  RELEASE  -
|  1> !wB97X-D3 RIJCOSX def2-SVPD def2/J TightSCF CPCM(Water)
|  2> *xyz 0 1
|  3> C         -2.16038       -1.36949       -3.46710
|  4> C         -3.03011       -1.91086       -4.54107
|  5> C         -2.04772        0.14658       -3.51177
|  6> H         -3.47744       -2.79151       -4.25710
|  7> H         -2.53801       -2.01786       -5.43808
|  8> H         -3.89159       -1.37604       -4.71437
|  9> H         -1.18444       -1.84400       -3.56639
| 10> H         -2.59819       -1.70838       -2.52848
| 11> C         -3.32876        0.87504       -3.10367
| 12> H         -1.74003        0.45234       -4.51713
| 13> H         -1.23261        0.43494       -2.84221
| 14> H         -4.12483        0.59148       -3.76000
| 15> H         -3.17368        1.93185       -3.16688
| 16> H         -3.58415        0.61151       -2.09857
| 17> *
| 18> %MaxCore 64000
| 19>
| 20> %pal nprocs 8
| 21> end
| 22>
| 23> %scf
| 24>   MaxIter 150
| 25> end
| 26>
| 27>
| 28>                          ****END OF INPUT****

CARTESIAN COORDINATES (ANGSTROEM)
---------------------------------
  C     -2.160380   -1.369490   -3.467100
  C     -3.030110   -1.910860   -4.541070
  C     -2.047720    0.146580   -3.511770
  H     -3.477440   -2.791510   -4.257100
  H     -2.538010   -2.017860   -5.438080
  H     -3.891590   -1.376040   -4.714370
  H     -1.184440   -1.844000   -3.566390
  H     -2.598190   -1.708380   -2.528480
  C     -3.328760    0.875040   -3.103670
  H     -1.740030    0.452340   -4.517130
  H     -1.232610    0.434940   -2.842210
  H     -4.124830    0.591480   -3.760000
  H     -3.173680    1.931850   -3.166880
  H     -3.584150    0.611510   -2.098570

 Total Charge           Charge          ....    0
 Multiplicity           Mult            ....    1
 Number of Electrons    NEL             ....   34
 Basis Dimension        Dim             ....  160

ORBITAL ENERGIES
----------------

  NO   OCC          E(Eh)            E(eV)
   0   2.0000     -10.274904      -279.5943
   1   2.0000     -10.270319      -279.4696
   2   2.0000     -10.264467      -279.3103
   3   2.0000     -10.244494      -278.7669
   4   2.0000      -0.909082       -24.7374
   5   2.0000      -0.834539       -22.7090
   6   2.0000      -0.748315       -20.3627
   7   2.0000      -0.669641       -18.2218
   8   2.0000      -0.564173       -15.3519
   9   2.0000      -0.557818       -15.1790
  10   2.0000      -0.523733       -14.2515
  11   2.0000      -0.481667       -13.1068
  12   2.0000      -0.470283       -12.7971
  13   2.0000      -0.456110       -12.4114
  14   2.0000      -0.411699       -11.2029
  15   2.0000      -0.410685       -11.1753
  16   2.0000      -0.407542       -11.0898
  17   0.0000       0.101638         2.7657
  18   0.0000       0.125452         3.4137
  19   0.0000       0.126314         3.4372
  20   0.0000       0.134772         3.6673
  21   0.0000       0.178190         4.8488

MULLIKEN ATOMIC CHARGES
-----------------------
   0 C :   -0.250087
   1 C :    0.975702
   2 C :   -0.300340
   3 H :   -0.124139
   4 H :   -0.077227
   5 H :   -0.475914
   6 H :   -0.107315
   7 H :   -0.001897
   8 C :    0.650973
   9 H :   -0.074626
  10 H :   -0.060078
  11 H :   -0.192030
  12 H :   -0.007800
  13 H :    0.044777
Sum of atomic charges:    0.0000000

LOEWDIN ATOMIC CHARGES
----------------------
   0 C :   -0.077868
   1 C :    0.115146
   2 C :   -0.084239
   3 H :   -0.031525
   4 H :   -0.023487
   5 H :   -0.043826
   6 H :    0.023141
   7 H :    0.024136
   8 C :    0.119384
   9 H :    0.024274
  10 H :    0.015670
  11 H :   -0.028783
  12 H :   -0.017818
  13 H :   -0.014206

  Mayer bond orders larger than 0.100000
B(  0-C ,  1-C ) :   1.2319 B(  0-C ,  2-C ) :   1.1711 B(  0-C ,  3-H ) :   0.1942
B(  0-C ,  4-H ) :   0.1979 B(  0-C ,  5-H ) :   0.2379 B(  0-C ,  6-H ) :   0.9428
B(  0-C ,  7-H ) :   0.8930 B(  0-C ,  9-H ) :   0.1334 B(  0-C , 10-H ) :   0.1093
B(  1-C ,  3-H ) :   0.6270 B(  1-C ,  4-H ) :   0.7249 B(  1-C ,  5-H ) :   0.6036
B(  1-C ,  6-H ) :   0.1036 B(  1-C ,  7-H ) :   0.1081 B(  2-C ,  6-H ) :   0.1051
B(  2-C ,  8-C ) :   1.2580 B(  2-C ,  9-H ) :   0.9485 B(  2-C , 10-H ) :   0.9343
B(  2-C , 11-H ) :   0.1930 B(  2-C , 12-H ) :   0.1870 B(  2-C , 13-H ) :   0.1933
B(  3-H ,  5-H ) :   0.2760 B(  4-H ,  5-H ) :   0.1131 B(  8-C , 11-H ) :   0.8647
B(  8-C , 12-H ) :   0.7913 B(  8-C , 13-H ) :   0.7768

Dispersion correction           -0.002735097
FINAL SINGLE POINT ENERGY      -158.288721256559

DIPOLE MOMENT
-------------
                                X             Y             Z
Electronic contribution:      0.85143       0.02453       0.25158
Nuclear contribution   :     -0.87438      -0.05339      -0.25605
                        -----------------------------------------
Total Dipole Moment    :     -0.02295      -0.02886      -0.00447
                        -----------------------------------------
Magnitude (a.u.)       :      0.03714
Magnitude (Debye)      :      0.09441

Rotational constants in cm-1:     0.464420     0.160323     0.139078
Rotational constants in MHz : 13922.972952  4806.377145  4169.443621

                             ****ORCA TERMINATED NORMALLY****
TOTAL RUN TIME: 0 days 0 hours 0 minutes 14 seconds 730 msec
