                         Program Version 5.0.0 -  RELEASE  -
|  1> !wB97X-D3 RIJCOSX def2-SVPD def2/J TightSCF CPCM(Water)
|  2> *xyz 0 1
|  3> C         -7.33044       -2.67899       -3.20681
|  4> S         -6.01966       -2.92697       -4.41913
|  5> O         -5.64583       -1.58838       -4.91931
|  6> F         -4.88196       -3.50370       -3.66724
|  7> O         -6.54927       -3.80515       -5.42507
|  8> C         -6.28692       -0.73588       -1.89353
|  9> C         -7.46900       -1.24615       -2.71383
| 10> H         -7.60191       -0.60135       -3.58533
| 11> H         -8.38979       -1.17344       -2.12692
| 12> H         -7.11825       -3.37982       -2.39805
| 13> H         -8.24184       -3.00474       -3.70651
| 14> H         -5.39124       -0.81034       -2.47415
| 15> H         -6.18709       -1.32597       -1.00655
| 16> H         -6.45393        0.28631       -1.62495
| 17> *
| 18> %MaxCore 64000
| 19>
| 20> %pal nprocs 8
| 21> end
| 22>
| 23> %scf
| 24>   MaxIter 150
| 25> end
| 26>
| 27>
| 28>                          ****END OF INPUT****

CARTESIAN COORDINATES (ANGSTROEM)
---------------------------------
  C     -7.330440   -2.678990   -3.206810
  S     -6.019660   -2.926970   -4.419130
  O     -5.645830   -1.588380   -4.919310
  F     -4.881960   -3.503700   -3.667240
  O     -6.549270   -3.805150   -5.425070
  C     -6.286920   -0.735880   -1.893530
  C     -7.469000   -1.246150   -2.713830
  H     -7.601910   -0.601350   -3.585330
  H     -8.389790   -1.173440   -2.126920
  H     -7.118250   -3.379820   -2.398050
  H     -8.241840   -3.004740   -3.706510
  H     -5.391240   -0.810340   -2.474150
  H     -6.187090   -1.325970   -1.006550
  H     -6.453930    0.286310   -1.624950

 Total Charge           Charge          ....    0
 Multiplicity           Mult            ....    1
 Number of Electrons    NEL             ....   66
 Basis Dimension        Dim             ....  212

ORBITAL ENERGIES
----------------

  NO   OCC          E(Eh)            E(eV)
   0   2.0000     -89.237779     -2428.2834
   1   2.0000     -24.901022      -677.5912
   2   2.0000     -19.271705      -524.4097
   3   2.0000     -19.260167      -524.0958
   4   2.0000     -10.339311      -281.3470
   5   2.0000     -10.301874      -280.3282
   6   2.0000     -10.273549      -279.5575
   7   2.0000      -8.312147      -226.1850
   8   2.0000      -6.275704      -170.7706
   9   2.0000      -6.269919      -170.6132
  10   2.0000      -6.267785      -170.5551
  11   2.0000      -1.460495       -39.7421
  12   2.0000      -1.236735       -33.6533
  13   2.0000      -1.135617       -30.9017
  14   2.0000      -0.935696       -25.4616
  15   2.0000      -0.855073       -23.2677
  16   2.0000      -0.803603       -21.8671
  17   2.0000      -0.730901       -19.8888
  18   2.0000      -0.674597       -18.3567
  19   2.0000      -0.668351       -18.1868
  20   2.0000      -0.661748       -18.0071
  21   2.0000      -0.596589       -16.2340
  22   2.0000      -0.577973       -15.7274
  23   2.0000      -0.558528       -15.1983
  24   2.0000      -0.542939       -14.7741
  25   2.0000      -0.523489       -14.2449
  26   2.0000      -0.500110       -13.6087
  27   2.0000      -0.471174       -12.8213
  28   2.0000      -0.454434       -12.3658
  29   2.0000      -0.445697       -12.1280
  30   2.0000      -0.434548       -11.8247
  31   2.0000      -0.424863       -11.5611
  32   2.0000      -0.419399       -11.4124
  33   0.0000       0.071655         1.9498
  34   0.0000       0.095218         2.5910
  35   0.0000       0.098252         2.6736
  36   0.0000       0.101745         2.7686
  37   0.0000       0.115353         3.1389

MULLIKEN ATOMIC CHARGES
-----------------------
   0 C :   -0.094232
   1 S :    1.506461
   2 O :   -0.760859
   3 F :   -0.402144
   4 O :   -0.709324
   5 C :    0.667010
   6 C :   -0.232485
   7 H :    0.043086
   8 H :   -0.114134
   9 H :    0.113575
  10 H :    0.089038
  11 H :   -0.126431
  12 H :    0.025283
  13 H :   -0.004842
Sum of atomic charges:   -0.0000000

LOEWDIN ATOMIC CHARGES
----------------------
   0 C :   -0.025099
   1 S :    1.142174
   2 O :   -0.513171
   3 F :   -0.265789
   4 O :   -0.493873
   5 C :    0.134562
   6 C :   -0.073685
   7 H :    0.025301
   8 H :    0.040311
   9 H :    0.037740
  10 H :    0.034980
  11 H :   -0.029993
  12 H :   -0.006185
  13 H :   -0.007273

  Mayer bond orders larger than 0.100000
B(  0-C ,  1-S ) :   0.9671 B(  0-C ,  6-C ) :   1.2423 B(  0-C ,  7-H ) :   0.1330
B(  0-C ,  8-H ) :   0.1087 B(  0-C ,  9-H ) :   0.9262 B(  0-C , 10-H ) :   0.9392
B(  1-S ,  2-O ) :   1.4536 B(  1-S ,  3-F ) :   0.6411 B(  1-S ,  4-O ) :   1.5401
B(  5-C ,  6-C ) :   1.2558 B(  5-C , 11-H ) :   0.8451 B(  5-C , 12-H ) :   0.7981
B(  5-C , 13-H ) :   0.7928 B(  6-C ,  7-H ) :   0.8920 B(  6-C ,  8-H ) :   0.9644
B(  6-C ,  9-H ) :   0.1014 B(  6-C , 11-H ) :   0.1833 B(  6-C , 12-H ) :   0.1909
B(  6-C , 13-H ) :   0.1872

Dispersion correction           -0.004440525
FINAL SINGLE POINT ENERGY      -766.482269310162

DIPOLE MOMENT
-------------
                                X             Y             Z
Electronic contribution:      5.92088      -7.99533      -7.20992
Nuclear contribution   :     -6.75719       7.84793       9.30968
                        -----------------------------------------
Total Dipole Moment    :     -0.83631      -0.14739       2.09976
                        -----------------------------------------
Magnitude (a.u.)       :      2.26498
Magnitude (Debye)      :      5.75712

Rotational constants in cm-1:     0.129104     0.054499     0.051192
Rotational constants in MHz :  3870.429564  1633.827608  1534.709243

                             ****ORCA TERMINATED NORMALLY****
TOTAL RUN TIME: 0 days 0 hours 0 minutes 29 seconds 577 msec
