                         Program Version 5.0.0 -  RELEASE  -
|  1> !wB97X-D3 RIJCOSX def2-SVPD def2/J TightSCF CPCM(Water)
|  2> *xyz 0 1
|  3> C         -7.33044       -2.67899       -3.20681
|  4> S         -6.01966       -2.92697       -4.41913
|  5> O         -5.64583       -1.58838       -4.91931
|  6> O         -4.88196       -3.50370       -3.66724
|  7> F         -6.54927       -3.80515       -5.42507
|  8> C         -6.28692       -0.73588       -1.89353
|  9> C         -7.46900       -1.24615       -2.71383
| 10> H         -7.60191       -0.60135       -3.58533
| 11> H         -8.38979       -1.17344       -2.12692
| 12> H         -7.11825       -3.37982       -2.39805
| 13> H         -8.24184       -3.00474       -3.70651
| 14> H         -5.39124       -0.81034       -2.47415
| 15> H         -6.18709       -1.32597       -1.00655
| 16> H         -6.45393        0.28631       -1.62495
| 17> *
| 18> %MaxCore 64000
| 19>
| 20> %pal nprocs 8
| 21> end
| 22>
| 23> %scf
| 24>   MaxIter 150
| 25> end
| 26>
| 27>
| 28>                          ****END OF INPUT****

CARTESIAN COORDINATES (ANGSTROEM)
---------------------------------
  C     -7.330440   -2.678990   -3.206810
  S     -6.019660   -2.926970   -4.419130
  O     -5.645830   -1.588380   -4.919310
  O     -4.881960   -3.503700   -3.667240
  F     -6.549270   -3.805150   -5.425070
  C     -6.286920   -0.735880   -1.893530
  C     -7.469000   -1.246150   -2.713830
  H     -7.601910   -0.601350   -3.585330
  H     -8.389790   -1.173440   -2.126920
  H     -7.118250   -3.379820   -2.398050
  H     -8.241840   -3.004740   -3.706510
  H     -5.391240   -0.810340   -2.474150
  H     -6.187090   -1.325970   -1.006550
  H     -6.453930    0.286310   -1.624950

 Total Charge           Charge          ....    0
 Multiplicity           Mult            ....    1
 Number of Electrons    NEL             ....   66
 Basis Dimension        Dim             ....  212

ORBITAL ENERGIES
----------------

  NO   OCC          E(Eh)            E(eV)
   0   2.0000     -89.240510     -2428.3577
   1   2.0000     -24.920793      -678.1293
   2   2.0000     -19.261023      -524.1191
   3   2.0000     -19.259156      -524.0683
   4   2.0000     -10.340017      -281.3662
   5   2.0000     -10.303514      -280.3729
   6   2.0000     -10.272906      -279.5400
   7   2.0000      -8.314901      -226.2600
   8   2.0000      -6.278532      -170.8475
   9   2.0000      -6.272591      -170.6859
  10   2.0000      -6.270384      -170.6258
  11   2.0000      -1.495694       -40.6999
  12   2.0000      -1.222413       -33.2635
  13   2.0000      -1.119293       -30.4575
  14   2.0000      -0.936055       -25.4714
  15   2.0000      -0.863867       -23.5070
  16   2.0000      -0.812004       -22.0958
  17   2.0000      -0.736426       -20.0392
  18   2.0000      -0.696794       -18.9607
  19   2.0000      -0.684724       -18.6323
  20   2.0000      -0.661064       -17.9885
  21   2.0000      -0.592344       -16.1185
  22   2.0000      -0.577231       -15.7073
  23   2.0000      -0.559991       -15.2381
  24   2.0000      -0.545696       -14.8491
  25   2.0000      -0.515701       -14.0329
  26   2.0000      -0.491798       -13.3825
  27   2.0000      -0.463063       -12.6006
  28   2.0000      -0.459411       -12.5012
  29   2.0000      -0.440928       -11.9983
  30   2.0000      -0.432730       -11.7752
  31   2.0000      -0.419767       -11.4224
  32   2.0000      -0.409243       -11.1361
  33   0.0000       0.071257         1.9390
  34   0.0000       0.093670         2.5489
  35   0.0000       0.099279         2.7015
  36   0.0000       0.100552         2.7362
  37   0.0000       0.114067         3.1039

MULLIKEN ATOMIC CHARGES
-----------------------
   0 C :   -0.088725
   1 S :    1.549951
   2 O :   -0.753791
   3 O :   -0.730596
   4 F :   -0.420641
   5 C :    0.683182
   6 C :   -0.260315
   7 H :    0.045451
   8 H :   -0.110377
   9 H :    0.092832
  10 H :    0.108933
  11 H :   -0.128778
  12 H :    0.018966
  13 H :   -0.006091
Sum of atomic charges:    0.0000000

LOEWDIN ATOMIC CHARGES
----------------------
   0 C :   -0.028116
   1 S :    1.151532
   2 O :   -0.514626
   3 O :   -0.527529
   4 F :   -0.240497
   5 C :    0.135662
   6 C :   -0.068703
   7 H :    0.025166
   8 H :    0.041369
   9 H :    0.037122
  10 H :    0.031552
  11 H :   -0.029710
  12 H :   -0.005826
  13 H :   -0.007397

  Mayer bond orders larger than 0.100000
B(  0-C ,  1-S ) :   0.9512 B(  0-C ,  6-C ) :   1.2466 B(  0-C ,  7-H ) :   0.1300
B(  0-C ,  8-H ) :   0.1013 B(  0-C ,  9-H ) :   0.9531 B(  0-C , 10-H ) :   0.8998
B(  1-S ,  2-O ) :   1.4326 B(  1-S ,  3-O ) :   1.4381 B(  1-S ,  4-F ) :   0.6936
B(  5-C ,  6-C ) :   1.2544 B(  5-C , 11-H ) :   0.8437 B(  5-C , 12-H ) :   0.7909
B(  5-C , 13-H ) :   0.7935 B(  6-C ,  7-H ) :   0.8917 B(  6-C ,  8-H ) :   0.9706
B(  6-C ,  9-H ) :   0.1040 B(  6-C , 10-H ) :   0.1112 B(  6-C , 11-H ) :   0.1887
B(  6-C , 12-H ) :   0.1944 B(  6-C , 13-H ) :   0.1863

Dispersion correction           -0.004488984
FINAL SINGLE POINT ENERGY      -766.465634421766

DIPOLE MOMENT
-------------
                                X             Y             Z
Electronic contribution:      2.64569      -8.55805     -10.65609
Nuclear contribution   :     -4.96410       8.17213      11.20012
                        -----------------------------------------
Total Dipole Moment    :     -2.31841      -0.38593       0.54403
                        -----------------------------------------
Magnitude (a.u.)       :      2.41245
Magnitude (Debye)      :      6.13197

Rotational constants in cm-1:     0.133784     0.053405     0.050278
Rotational constants in MHz :  4010.731548  1601.045142  1507.298018

                             ****ORCA TERMINATED NORMALLY****
TOTAL RUN TIME: 0 days 0 hours 0 minutes 29 seconds 478 msec
