                         Program Version 5.0.0 -  RELEASE  -
|  1> !wB97X-D3 RIJCOSX def2-SVPD def2/J TightSCF CPCM(Water) xyzfile
|  2>
|  3> *xyzfile 0 1 D1.xyz
|  4>
|  5> %MaxCore 64000
|  6>
|  7> %pal nprocs 18
|  8> end
|  9>
| 10> %scf
| 11>   MaxIter 150
| 12> end
| 13>
| 14>
| 15>                          ****END OF INPUT****

CARTESIAN COORDINATES (ANGSTROEM)
---------------------------------
  C     -2.160376   -1.369486   -3.467104
  C     -3.030108   -1.910857   -4.541074
  C     -2.047717    0.146583   -3.511774
  C     -7.330440   -2.678991   -3.206811
  S     -6.019659   -2.926965   -4.419128
  H     -3.477443   -2.791513   -4.257096
  H     -2.538013   -2.017860   -5.438075
  H     -3.891589   -1.376039   -4.714365
  F     -5.645830   -1.588384   -4.919307
  O     -4.881961   -3.503697   -3.667235
  H     -1.184438   -1.843997   -3.566393
  H     -2.598195   -1.708376   -2.528477
  O     -6.549267   -3.805150   -5.425071
  C     -3.328755    0.875037   -3.103669
  H     -1.740034    0.452343   -4.517126
  H     -1.232611    0.434938   -2.842208
  C     -3.628487    0.771601   -1.609363
  H     -4.175106    0.490791   -3.682203
  H     -3.237812    1.928663   -3.381480
  C     -4.975718    1.361432   -1.190644
  H     -2.830700    1.276234   -1.054766
  H     -3.594312   -0.275838   -1.294603
  C     -6.184720    0.784347   -1.926464
  H     -4.956292    2.445725   -1.342200
  H     -5.097256    1.205252   -0.114136
  C     -6.286921   -0.735882   -1.893531
  H     -6.163994    1.100199   -2.974250
  H     -7.094530    1.223459   -1.504509
  C     -7.468999   -1.246153   -2.713833
  H     -6.360641   -1.090347   -0.859176
  H     -5.369848   -1.171853   -2.295982
  H     -7.601914   -0.601349   -3.585329
  H     -8.389791   -1.173436   -2.126922
  H     -7.118254   -3.379818   -2.398055
  H     -8.241838   -3.004745   -3.706513

 Total Charge           Charge          ....    0
 Multiplicity           Mult            ....    1
 Number of Electrons    NEL             ....  122
 Basis Dimension        Dim             ....  464

ORBITAL ENERGIES
----------------

  NO   OCC          E(Eh)            E(eV)
   0   2.0000     -89.241852     -2428.3943
   1   2.0000     -24.907342      -677.7632
   2   2.0000     -19.274060      -524.4738
   3   2.0000     -19.257268      -524.0169
   4   2.0000     -10.340381      -281.3761
   5   2.0000     -10.302649      -280.3493
   6   2.0000     -10.285487      -279.8823
   7   2.0000     -10.278858      -279.7020
   8   2.0000     -10.276382      -279.6346
   9   2.0000     -10.273407      -279.5536
  10   2.0000     -10.272804      -279.5372
  11   2.0000     -10.270630      -279.4781
  12   2.0000     -10.264103      -279.3004
  13   2.0000     -10.218427      -278.0575
  14   2.0000      -8.315111      -226.2657
  15   2.0000      -6.278812      -170.8552
  16   2.0000      -6.273002      -170.6971
  17   2.0000      -6.270673      -170.6337
  18   2.0000      -1.469940       -39.9991
  19   2.0000      -1.239031       -33.7157
  20   2.0000      -1.137844       -30.9623
  21   2.0000      -0.945678       -25.7332
  22   2.0000      -0.922152       -25.0930
  23   2.0000      -0.894141       -24.3308
  24   2.0000      -0.865726       -23.5576
  25   2.0000      -0.826959       -22.5027
  26   2.0000      -0.810076       -22.0433
  27   2.0000      -0.773699       -21.0534
  28   2.0000      -0.737547       -20.0697
  29   2.0000      -0.720171       -19.5968
  30   2.0000      -0.691787       -18.8245
  31   2.0000      -0.685776       -18.6609
  32   2.0000      -0.668002       -18.1773
  33   2.0000      -0.659352       -17.9419
  34   2.0000      -0.645484       -17.5645
  35   2.0000      -0.591272       -16.0893
  36   2.0000      -0.583990       -15.8912
  37   2.0000      -0.578043       -15.7293
  38   2.0000      -0.568497       -15.4696
  39   2.0000      -0.563424       -15.3316
  40   2.0000      -0.548471       -14.9247
  41   2.0000      -0.529872       -14.4186
  42   2.0000      -0.526030       -14.3140
  43   2.0000      -0.519065       -14.1245
  44   2.0000      -0.511593       -13.9212
  45   2.0000      -0.494130       -13.4460
  46   2.0000      -0.485410       -13.2087
  47   2.0000      -0.481610       -13.1053
  48   2.0000      -0.464014       -12.6265
  49   2.0000      -0.453852       -12.3499
  50   2.0000      -0.449358       -12.2277
  51   2.0000      -0.441778       -12.0214
  52   2.0000      -0.429685       -11.6923
  53   2.0000      -0.425360       -11.5746
  54   2.0000      -0.417991       -11.3741
  55   2.0000      -0.417302       -11.3554
  56   2.0000      -0.408284       -11.1100
  57   2.0000      -0.398742       -10.8503
  58   2.0000      -0.394202       -10.7268
  59   2.0000      -0.389817       -10.6074
  60   2.0000      -0.374004       -10.1772
  61   0.0000       0.070670         1.9230
  62   0.0000       0.091400         2.4871
  63   0.0000       0.096102         2.6151
  64   0.0000       0.102060         2.7772
  65   0.0000       0.107893         2.9359

MULLIKEN ATOMIC CHARGES
-----------------------
   0 C :   -0.004233
   1 C :    1.891896
   2 C :    0.530206
   3 C :    0.323030
   4 S :    1.453867
   5 H :   -0.518281
   6 H :   -0.246085
   7 H :   -0.957248
   8 F :   -0.459867
   9 O :   -0.760077
  10 H :   -0.249286
  11 H :   -0.005890
  12 O :   -0.761940
  13 C :    0.352414
  14 H :   -0.071679
  15 H :   -0.087342
  16 C :   -0.173618
  17 H :   -0.541691
  18 H :   -0.049263
  19 C :    0.649137
  20 H :   -0.314599
  21 H :    0.113012
  22 C :   -0.136655
  23 H :   -0.006100
  24 H :    0.025419
  25 C :    0.311943
  26 H :    0.208213
  27 H :   -0.377608
  28 C :    0.186971
  29 H :   -0.015229
  30 H :   -0.410600
  31 H :    0.094586
  32 H :   -0.122549
  33 H :    0.057524
  34 H :    0.071623
Sum of atomic charges:    0.0000000

LOEWDIN ATOMIC CHARGES
----------------------
   0 C :   -0.042036
   1 C :    0.119918
   2 C :   -0.031969
   3 C :   -0.008863
   4 S :    1.174303
   5 H :   -0.127788
   6 H :   -0.013616
   7 H :   -0.090841
   8 F :   -0.256906
   9 O :   -0.487454
  10 H :    0.023411
  11 H :    0.011942
  12 O :   -0.476660
  13 C :   -0.022920
  14 H :    0.025555
  15 H :    0.018145
  16 C :   -0.036958
  17 H :   -0.002765
  18 H :    0.027881
  19 C :   -0.031810
  20 H :    0.025104
  21 H :    0.005600
  22 C :   -0.036634
  23 H :    0.024163
  24 H :    0.024149
  25 C :   -0.022404
  26 H :    0.019156
  27 H :    0.029177
  28 C :   -0.032945
  29 H :    0.044187
  30 H :   -0.004812
  31 H :    0.029854
  32 H :    0.045871
  33 H :    0.045382
  34 H :    0.033585

  Mayer bond orders larger than 0.100000
B(  0-C ,  1-C ) :   0.9724 B(  0-C ,  2-C ) :   1.1821 B(  0-C ,  5-H ) :   0.3929
B(  0-C ,  6-H ) :   0.1165 B(  0-C ,  7-H ) :   0.4056 B(  0-C , 10-H ) :   0.9191
B(  0-C , 11-H ) :   0.7682 B(  0-C , 14-H ) :   0.1355 B(  0-C , 15-H ) :   0.1744
B(  1-C ,  5-H ) :  -0.1821 B(  1-C ,  6-H ) :   0.6275 B(  1-C ,  7-H ) :  -0.6354
B(  1-C ,  9-O ) :  -0.1045 B(  1-C , 11-H ) :   0.2097 B(  2-C ,  7-H ) :  -0.1079
B(  2-C , 11-H ) :   0.1005 B(  2-C , 13-C ) :   1.1898 B(  2-C , 14-H ) :   0.7165
B(  2-C , 15-H ) :   0.7532 B(  2-C , 17-H ) :   0.1216 B(  3-C ,  4-S ) :   0.9047
B(  3-C , 12-O ) :   0.1004 B(  3-C , 28-C ) :   1.2607 B(  3-C , 33-H ) :   0.9160
B(  3-C , 34-H ) :   0.7707 B(  4-S ,  8-F ) :   0.6117 B(  4-S ,  9-O ) :   1.4182
B(  4-S , 12-O ) :   1.4805 B(  5-H ,  6-H ) :  -0.1405 B(  5-H ,  7-H ) :   0.8797
B(  5-H ,  9-O ) :   0.1509 B(  6-H ,  7-H ) :   0.1562 B(  7-H ,  9-O ) :   0.1052
B(  7-H , 17-H ) :   0.1596 B( 11-H , 21-H ) :   0.1002 B( 13-C , 14-H ) :   0.1978
B( 13-C , 15-H ) :   0.1464 B( 13-C , 16-C ) :   1.1651 B( 13-C , 17-H ) :   0.7737
B( 13-C , 18-H ) :   0.7657 B( 13-C , 20-H ) :   0.1831 B( 14-H , 15-H ) :  -0.1412
B( 16-C , 17-H ) :   0.1917 B( 16-C , 18-H ) :   0.1854 B( 16-C , 19-C ) :   1.1772
B( 16-C , 20-H ) :   1.0108 B( 16-C , 21-H ) :   0.8628 B( 16-C , 23-H ) :   0.1480
B( 16-C , 24-H ) :   0.2522 B( 17-H , 26-H ) :   0.1013 B( 19-C , 22-C ) :   1.1322
B( 19-C , 23-H ) :   0.6941 B( 19-C , 24-H ) :   0.6998 B( 22-C , 23-H ) :   0.2215
B( 22-C , 24-H ) :   0.1146 B( 22-C , 25-C ) :   1.2358 B( 22-C , 26-H ) :   0.7941
B( 22-C , 27-H ) :   1.0700 B( 22-C , 28-C ) :   0.1092 B( 22-C , 29-H ) :   0.1001
B( 22-C , 30-H ) :   0.1329 B( 25-C , 26-H ) :   0.1002 B( 25-C , 27-H ) :   0.1783
B( 25-C , 28-C ) :   1.1192 B( 25-C , 29-H ) :   0.7442 B( 25-C , 30-H ) :   0.8211
B( 25-C , 32-H ) :   0.1865 B( 28-C , 29-H ) :   0.1265 B( 28-C , 31-H ) :   0.8698
B( 28-C , 32-H ) :   0.8548 B( 28-C , 34-H ) :   0.2119 B( 29-H , 30-H ) :   0.2404

Dispersion correction           -0.018496574
FINAL SINGLE POINT ENERGY     -1041.382665525573

DIPOLE MOMENT
-------------
                                X             Y             Z
Electronic contribution:    -11.39688     -15.81772     -12.95439
Nuclear contribution   :      9.63012      17.20461      14.03552
                        -----------------------------------------
Total Dipole Moment    :     -1.76676       1.38689       1.08113
                        -----------------------------------------
Magnitude (a.u.)       :      2.49274
Magnitude (Debye)      :      6.33603

Rotational constants in cm-1:     0.025899     0.015189     0.010690
Rotational constants in MHz :   776.424978   455.369614   320.488876

                             ****ORCA TERMINATED NORMALLY****
TOTAL RUN TIME: 0 days 0 hours 1 minutes 25 seconds 499 msec
