                         Program Version 5.0.0 -  RELEASE  -
|  1> !B3LYP D3BJ RIJCOSX def2-TZVP def2/J TightSCF
|  2> *xyz -1 1
|  3> C          4.08422        1.74208       -2.11472
|  4> C          4.26524        2.50052       -0.79589
|  5> H          4.86853        3.39267       -0.98113
|  6> H          3.30764        2.82457       -0.38781
|  7> C          4.98224        1.65026        0.24742
|  8> O          4.36806        1.38927        1.31371
|  9> O          6.12892        1.23351       -0.04562
| 10> H          3.57911        2.36849       -2.81997
| 11> H          3.50424        0.85965       -1.94198
| 12> H          5.04288        1.46841       -2.50327
| 13> *
| 14> %MaxCore 64000
| 15> %pal nprocs 8
| 16> end
| 17> %scf
| 18>   MaxIter 150
| 19> end
| 20>
| 21>
| 22>                          ****END OF INPUT****

CARTESIAN COORDINATES (ANGSTROEM)
---------------------------------
  C      4.084220    1.742080   -2.114720
  C      4.265240    2.500520   -0.795890
  H      4.868530    3.392670   -0.981130
  H      3.307640    2.824570   -0.387810
  C      4.982240    1.650260    0.247420
  O      4.368060    1.389270    1.313710
  O      6.128920    1.233510   -0.045620
  H      3.579110    2.368490   -2.819970
  H      3.504240    0.859650   -1.941980
  H      5.042880    1.468410   -2.503270

 Total Charge           Charge          ....   -1
 Multiplicity           Mult            ....    1
 Number of Electrons    NEL             ....   40
 Basis Dimension        Dim             ....  185

ORBITAL ENERGIES
----------------

  NO   OCC          E(Eh)            E(eV)
   0   2.0000     -18.847358      -512.8627
   1   2.0000     -18.847005      -512.8531
   2   2.0000     -10.039959      -273.2012
   3   2.0000     -10.000887      -272.1380
   4   2.0000      -9.987880      -271.7840
   5   2.0000      -0.809312       -22.0225
   6   2.0000      -0.717162       -19.5150
   7   2.0000      -0.600398       -16.3377
   8   2.0000      -0.469140       -12.7660
   9   2.0000      -0.314746        -8.5647
  10   2.0000      -0.287747        -7.8300
  11   2.0000      -0.253594        -6.9007
  12   2.0000      -0.223426        -6.0797
  13   2.0000      -0.208190        -5.6651
  14   2.0000      -0.201245        -5.4762
  15   2.0000      -0.170863        -4.6494
  16   2.0000      -0.153739        -4.1835
  17   2.0000      -0.038681        -1.0526
  18   2.0000      -0.032488        -0.8841
  19   2.0000      -0.017607        -0.4791
  20   0.0000       0.183766         5.0005
  21   0.0000       0.224541         6.1101
  22   0.0000       0.244753         6.6601
  23   0.0000       0.248708         6.7677
  24   0.0000       0.260929         7.1002

MULLIKEN ATOMIC CHARGES
-----------------------
   0 C :   -0.305538
   1 C :   -0.100976
   2 H :    0.019897
   3 H :    0.025501
   4 C :    0.204012
   5 O :   -0.527873
   6 O :   -0.528154
   7 H :    0.046165
   8 H :    0.079467
   9 H :    0.087498
Sum of atomic charges:   -1.0000000

LOEWDIN ATOMIC CHARGES
----------------------
   0 C :   -0.319507
   1 C :   -0.286921
   2 H :    0.117266
   3 H :    0.113905
   4 C :   -0.702168
   5 O :   -0.116587
   6 O :   -0.111833
   7 H :    0.090427
   8 H :    0.106269
   9 H :    0.109148

  Mayer bond orders larger than 0.100000
B(  0-C ,  1-C ) :   0.9484 B(  0-C ,  7-H ) :   0.9691 B(  0-C ,  8-H ) :   0.9841
B(  0-C ,  9-H ) :   0.9717 B(  1-C ,  2-H ) :   0.9508 B(  1-C ,  3-H ) :   0.9497
B(  1-C ,  4-C ) :   0.9303 B(  4-C ,  5-O ) :   1.8865 B(  4-C ,  6-O ) :   1.8476

Dispersion correction           -0.010991650
FINAL SINGLE POINT ENERGY      -267.810861076239

DIPOLE MOMENT
-------------
                                X             Y             Z
Electronic contribution:      2.47282      -1.51404       5.18746
Nuclear contribution   :     -3.31311       2.28398      -6.76358
                        -----------------------------------------
Total Dipole Moment    :     -0.84029       0.76995      -1.57612
                        -----------------------------------------
Magnitude (a.u.)       :      1.94501
Magnitude (Debye)      :      4.94382

Rotational constants in cm-1:     0.309287     0.135287     0.107346
Rotational constants in MHz :  9272.201029  4055.789113  3218.155789

                             ****ORCA TERMINATED NORMALLY****
TOTAL RUN TIME: 0 days 0 hours 0 minutes 14 seconds 872 msec
