                         Program Version 5.0.0 -  RELEASE  -
|  1> !B3LYP D3BJ RIJCOSX def2-TZVP def2/J TightSCF
|  2> *xyz 1 1
|  3> C          3.91385       -1.65829        3.01513
|  4> N          5.03927       -0.90115        2.49282
|  5> C          6.21038       -1.41726        2.17824
|  6> N          6.53591       -2.67712        2.55608
|  7> N          7.07675       -0.70082        1.47891
|  8> H          7.95464       -1.12155        1.20755
|  9> H          6.75616        0.10664        0.96028
| 10> H          4.84217        0.01761        2.11519
| 11> H          5.99388       -3.12692        3.28278
| 12> C          3.13916       -2.37657        1.91061
| 13> H          3.26723       -0.93940        3.52069
| 14> H          4.24720       -2.35509        3.79006
| 15> H          7.49844       -2.97548        2.46878
| 16> H          2.82969       -1.66654        1.17238
| 17> H          2.27790       -2.85264        2.33072
| 18> H          3.76754       -3.11338        1.45548
| 19> *
| 20> %MaxCore 64000
| 21> %pal nprocs 8
| 22> end
| 23> %scf
| 24>   MaxIter 150
| 25> end
| 26>
| 27>
| 28>                          ****END OF INPUT****

CARTESIAN COORDINATES (ANGSTROEM)
---------------------------------
  C      3.913850   -1.658290    3.015130
  N      5.039270   -0.901150    2.492820
  C      6.210380   -1.417260    2.178240
  N      6.535910   -2.677120    2.556080
  N      7.076750   -0.700820    1.478910
  H      7.954640   -1.121550    1.207550
  H      6.756160    0.106640    0.960280
  H      4.842170    0.017610    2.115190
  H      5.993880   -3.126920    3.282780
  C      3.139160   -2.376570    1.910610
  H      3.267230   -0.939400    3.520690
  H      4.247200   -2.355090    3.790060
  H      7.498440   -2.975480    2.468780
  H      2.829690   -1.666540    1.172380
  H      2.277900   -2.852640    2.330720
  H      3.767540   -3.113380    1.455480

 Total Charge           Charge          ....    1
 Multiplicity           Mult            ....    1
 Number of Electrons    NEL             ....   48
 Basis Dimension        Dim             ....  246

ORBITAL ENERGIES
----------------

  NO   OCC          E(Eh)            E(eV)
   0   2.0000     -14.539281      -395.6339
   1   2.0000     -14.537742      -395.5921
   2   2.0000     -14.535423      -395.5290
   3   2.0000     -10.502366      -285.7839
   4   2.0000     -10.376743      -282.3655
   5   2.0000     -10.302623      -280.3486
   6   2.0000      -1.215483       -33.0750
   7   2.0000      -1.107396       -30.1338
   8   2.0000      -1.091163       -29.6921
   9   2.0000      -0.930658       -25.3245
  10   2.0000      -0.842228       -22.9182
  11   2.0000      -0.802040       -21.8246
  12   2.0000      -0.785646       -21.3785
  13   2.0000      -0.744387       -20.2558
  14   2.0000      -0.692563       -18.8456
  15   2.0000      -0.687064       -18.6960
  16   2.0000      -0.654132       -17.7998
  17   2.0000      -0.628865       -17.1123
  18   2.0000      -0.602156       -16.3855
  19   2.0000      -0.561703       -15.2847
  20   2.0000      -0.532951       -14.5023
  21   2.0000      -0.514014       -13.9870
  22   2.0000      -0.478426       -13.0186
  23   2.0000      -0.451128       -12.2758
  24   0.0000      -0.167708        -4.5636
  25   0.0000      -0.155099        -4.2205
  26   0.0000      -0.123027        -3.3477
  27   0.0000      -0.112920        -3.0727
  28   0.0000      -0.092218        -2.5094

MULLIKEN ATOMIC CHARGES
-----------------------
   0 C :   -0.144253
   1 N :   -0.237463
   2 C :    0.432408
   3 N :   -0.393626
   4 N :   -0.379924
   5 H :    0.275079
   6 H :    0.275068
   7 H :    0.245320
   8 H :    0.271437
   9 C :   -0.292759
  10 H :    0.160652
  11 H :    0.118306
  12 H :    0.267242
  13 H :    0.124062
  14 H :    0.153256
  15 H :    0.125196
Sum of atomic charges:    1.0000000

LOEWDIN ATOMIC CHARGES
----------------------
   0 C :   -0.276839
   1 N :    0.177166
   2 C :   -0.399192
   3 N :    0.052437
   4 N :    0.070127
   5 H :    0.197104
   6 H :    0.197331
   7 H :    0.210076
   8 H :    0.191283
   9 C :   -0.277309
  10 H :    0.150065
  11 H :    0.135242
  12 H :    0.193426
  13 H :    0.123787
  14 H :    0.134390
  15 H :    0.120907

  Mayer bond orders larger than 0.100000
B(  0-C ,  1-N ) :   0.8772 B(  0-C ,  9-C ) :   0.9550 B(  0-C , 10-H ) :   0.9589
B(  0-C , 11-H ) :   0.9678 B(  1-N ,  2-C ) :   1.4009 B(  1-N ,  7-H ) :   0.9059
B(  2-C ,  3-N ) :   1.3104 B(  2-C ,  4-N ) :   1.3318 B(  3-N ,  8-H ) :   0.8923
B(  3-N , 12-H ) :   0.9025 B(  4-N ,  5-H ) :   0.8999 B(  4-N ,  6-H ) :   0.8996
B(  9-C , 13-H ) :   0.9666 B(  9-C , 14-H ) :   0.9679 B(  9-C , 15-H ) :   0.9653

Dispersion correction           -0.020359108
FINAL SINGLE POINT ENERGY      -284.353925314588

DIPOLE MOMENT
-------------
                                X             Y             Z
Electronic contribution:      4.71467       1.91471       0.07038
Nuclear contribution   :     -3.67981      -1.62355      -0.28562
                        -----------------------------------------
Total Dipole Moment    :      1.03486       0.29116      -0.21524
                        -----------------------------------------
Magnitude (a.u.)       :      1.09637
Magnitude (Debye)      :      2.78675

Rotational constants in cm-1:     0.222027     0.074735     0.065694
Rotational constants in MHz :  6656.200457  2240.503315  1969.451902

                             ****ORCA TERMINATED NORMALLY****
TOTAL RUN TIME: 0 days 0 hours 0 minutes 20 seconds 642 msec
