                         Program Version 5.0.0 -  RELEASE  -
|  1> !B3LYP D3BJ RIJCOSX def2-TZVP def2/J TightSCF
|  2> *xyz 0 1
|  3> C          4.08422        1.74208       -2.11472
|  4> C          4.26524        2.50052       -0.79589
|  5> H          4.86853        3.39267       -0.98113
|  6> H          3.30764        2.82457       -0.38781
|  7> C          4.98224        1.65026        0.24742
|  8> F          4.36806        1.38927        1.31371
|  9> O          6.12892        1.23351       -0.04562
| 10> H          3.57911        2.36849       -2.81997
| 11> H          3.50424        0.85965       -1.94198
| 12> H          5.04288        1.46841       -2.50327
| 13> *
| 14> %MaxCore 64000
| 15> %pal nprocs 8
| 16> end
| 17> %scf
| 18>   MaxIter 150
| 19> end
| 20>
| 21>
| 22>                          ****END OF INPUT****

CARTESIAN COORDINATES (ANGSTROEM)
---------------------------------
  C      4.084220    1.742080   -2.114720
  C      4.265240    2.500520   -0.795890
  H      4.868530    3.392670   -0.981130
  H      3.307640    2.824570   -0.387810
  C      4.982240    1.650260    0.247420
  F      4.368060    1.389270    1.313710
  O      6.128920    1.233510   -0.045620
  H      3.579110    2.368490   -2.819970
  H      3.504240    0.859650   -1.941980
  H      5.042880    1.468410   -2.503270

 Total Charge           Charge          ....    0
 Multiplicity           Mult            ....    1
 Number of Electrons    NEL             ....   40
 Basis Dimension        Dim             ....  185

ORBITAL ENERGIES
----------------

  NO   OCC          E(Eh)            E(eV)
   0   2.0000     -24.749604      -673.4710
   1   2.0000     -19.128980      -520.5260
   2   2.0000     -10.345797      -281.5235
   3   2.0000     -10.200384      -277.5666
   4   2.0000     -10.173087      -276.8238
   5   2.0000      -1.316960       -35.8363
   6   2.0000      -1.033081       -28.1116
   7   2.0000      -0.800773       -21.7901
   8   2.0000      -0.689821       -18.7710
   9   2.0000      -0.638874       -17.3846
  10   2.0000      -0.547445       -14.8967
  11   2.0000      -0.533903       -14.5283
  12   2.0000      -0.508419       -13.8348
  13   2.0000      -0.465965       -12.6795
  14   2.0000      -0.435208       -11.8426
  15   2.0000      -0.400197       -10.8899
  16   2.0000      -0.380561       -10.3556
  17   2.0000      -0.375982       -10.2310
  18   2.0000      -0.347041        -9.4435
  19   2.0000      -0.293263        -7.9801
  20   0.0000      -0.031649        -0.8612
  21   0.0000       0.034210         0.9309
  22   0.0000       0.071820         1.9543
  23   0.0000       0.086329         2.3491
  24   0.0000       0.097090         2.6420

MULLIKEN ATOMIC CHARGES
-----------------------
   0 C :   -0.329249
   1 C :   -0.180606
   2 H :    0.117216
   3 H :    0.099457
   4 C :    0.375882
   5 F :   -0.106209
   6 O :   -0.333552
   7 H :    0.114361
   8 H :    0.109358
   9 H :    0.133343
Sum of atomic charges:   -0.0000000

LOEWDIN ATOMIC CHARGES
----------------------
   0 C :   -0.280554
   1 C :   -0.254854
   2 H :    0.152842
   3 H :    0.135702
   4 C :   -0.497675
   5 F :    0.320064
   6 O :    0.064854
   7 H :    0.117562
   8 H :    0.117962
   9 H :    0.124097

  Mayer bond orders larger than 0.100000
B(  0-C ,  1-C ) :   0.9583 B(  0-C ,  7-H ) :   0.9705 B(  0-C ,  8-H ) :   0.9754
B(  0-C ,  9-H ) :   0.9705 B(  1-C ,  2-H ) :   0.9447 B(  1-C ,  3-H ) :   0.9572
B(  1-C ,  4-C ) :   0.9836 B(  4-C ,  5-F ) :   1.1520 B(  4-C ,  6-O ) :   2.0471

Dispersion correction           -0.010420681
FINAL SINGLE POINT ENERGY      -292.381471411546

DIPOLE MOMENT
-------------
                                X             Y             Z
Electronic contribution:      1.92891      -2.04721       8.14173
Nuclear contribution   :     -2.87511       2.61564      -8.50037
                        -----------------------------------------
Total Dipole Moment    :     -0.94619       0.56842      -0.35864
                        -----------------------------------------
Magnitude (a.u.)       :      1.16061
Magnitude (Debye)      :      2.95003

Rotational constants in cm-1:     0.297822     0.128965     0.102219
Rotational constants in MHz :  8928.481997  3866.271686  3064.463504

                             ****ORCA TERMINATED NORMALLY****
TOTAL RUN TIME: 0 days 0 hours 0 minutes 14 seconds 125 msec
