                         Program Version 5.0.0 -  RELEASE  -
|  1> !B3LYP D3BJ RIJCOSX def2-TZVP def2/J TightSCF
|  2> *xyz 0 1
|  3> C          3.91385       -1.65829        3.01513
|  4> C          5.03927       -0.90115        2.49282
|  5> C          6.21038       -1.41726        2.17824
|  6> N          6.53591       -2.67712        2.55608
|  7> N          7.07675       -0.70082        1.47891
|  8> H          7.95464       -1.12155        1.20755
|  9> H          6.75616        0.10664        0.96028
| 10> H          4.84217        0.01761        2.11519
| 11> H          5.99388       -3.12692        3.28278
| 12> C          3.13916       -2.37657        1.91061
| 13> H          3.26723       -0.93940        3.52069
| 14> H          4.24720       -2.35509        3.79006
| 15> H          7.49844       -2.97548        2.46878
| 16> H          2.82969       -1.66654        1.17238
| 17> H          2.27790       -2.85264        2.33072
| 18> H          3.76754       -3.11338        1.45548
| 19> *
| 20> %MaxCore 64000
| 21> %pal nprocs 8
| 22> end
| 23> %scf
| 24>   MaxIter 150
| 25> end
| 26>
| 27>
| 28>                          ****END OF INPUT****

CARTESIAN COORDINATES (ANGSTROEM)
---------------------------------
  C      3.913850   -1.658290    3.015130
  C      5.039270   -0.901150    2.492820
  C      6.210380   -1.417260    2.178240
  N      6.535910   -2.677120    2.556080
  N      7.076750   -0.700820    1.478910
  H      7.954640   -1.121550    1.207550
  H      6.756160    0.106640    0.960280
  H      4.842170    0.017610    2.115190
  H      5.993880   -3.126920    3.282780
  C      3.139160   -2.376570    1.910610
  H      3.267230   -0.939400    3.520690
  H      4.247200   -2.355090    3.790060
  H      7.498440   -2.975480    2.468780
  H      2.829690   -1.666540    1.172380
  H      2.277900   -2.852640    2.330720
  H      3.767540   -3.113380    1.455480

 Total Charge           Charge          ....    0
 Multiplicity           Mult            ....    1
 Number of Electrons    NEL             ....   48
 Basis Dimension        Dim             ....  246

ORBITAL ENERGIES
----------------

  NO   OCC          E(Eh)            E(eV)
   0   2.0000     -14.312453      -389.4617
   1   2.0000     -14.310524      -389.4092
   2   2.0000     -10.207234      -277.7529
   3   2.0000     -10.140467      -275.9361
   4   2.0000     -10.128439      -275.6088
   5   2.0000     -10.086120      -274.4573
   6   2.0000      -0.957352       -26.0509
   7   2.0000      -0.868424       -23.6310
   8   2.0000      -0.770737       -20.9728
   9   2.0000      -0.691364       -18.8130
  10   2.0000      -0.614585       -16.7237
  11   2.0000      -0.574209       -15.6250
  12   2.0000      -0.537639       -14.6299
  13   2.0000      -0.508614       -13.8401
  14   2.0000      -0.471850       -12.8397
  15   2.0000      -0.436022       -11.8647
  16   2.0000      -0.415794       -11.3143
  17   2.0000      -0.385336       -10.4855
  18   2.0000      -0.380040       -10.3414
  19   2.0000      -0.351385        -9.5617
  20   2.0000      -0.326711        -8.8902
  21   2.0000      -0.318547        -8.6681
  22   2.0000      -0.264359        -7.1936
  23   2.0000      -0.157979        -4.2988
  24   0.0000       0.018510         0.5037
  25   0.0000       0.050016         1.3610
  26   0.0000       0.057858         1.5744
  27   0.0000       0.080225         2.1830
  28   0.0000       0.083887         2.2827

MULLIKEN ATOMIC CHARGES
-----------------------
   0 C :   -0.172280
   1 C :   -0.299679
   2 C :    0.336723
   3 N :   -0.468291
   4 N :   -0.452793
   5 H :    0.205611
   6 H :    0.232300
   7 H :    0.063191
   8 H :    0.228587
   9 C :   -0.270969
  10 H :    0.079701
  11 H :    0.044562
  12 H :    0.202414
  13 H :    0.086566
  14 H :    0.085824
  15 H :    0.098534
Sum of atomic charges:    0.0000000

LOEWDIN ATOMIC CHARGES
----------------------
   0 C :   -0.302334
   1 C :   -0.277454
   2 C :   -0.451227
   3 N :   -0.026363
   4 N :   -0.010851
   5 H :    0.159451
   6 H :    0.175826
   7 H :    0.118287
   8 H :    0.169956
   9 C :   -0.297302
  10 H :    0.135552
  11 H :    0.121060
  12 H :    0.157363
  13 H :    0.111252
  14 H :    0.104902
  15 H :    0.111883

  Mayer bond orders larger than 0.100000
B(  0-C ,  1-C ) :   1.0407 B(  0-C ,  9-C ) :   0.9302 B(  0-C , 10-H ) :   0.9850
B(  0-C , 11-H ) :   0.9680 B(  1-C ,  2-C ) :   1.6928 B(  1-C ,  7-H ) :   1.0029
B(  2-C ,  3-N ) :   1.1267 B(  2-C ,  4-N ) :   1.1356 B(  3-N ,  8-H ) :   0.9196
B(  3-N , 12-H ) :   0.9295 B(  4-N ,  5-H ) :   0.9313 B(  4-N ,  6-H ) :   0.9227
B(  9-C , 13-H ) :   0.9800 B(  9-C , 14-H ) :   0.9734 B(  9-C , 15-H ) :   0.9803

Dispersion correction           -0.021288829
FINAL SINGLE POINT ENERGY      -267.869331619113

DIPOLE MOMENT
-------------
                                X             Y             Z
Electronic contribution:      4.70200       1.21756      -0.05851
Nuclear contribution   :     -3.74303      -1.46908      -0.23637
                        -----------------------------------------
Total Dipole Moment    :      0.95897      -0.25152      -0.29488
                        -----------------------------------------
Magnitude (a.u.)       :      1.03433
Magnitude (Debye)      :      2.62906

Rotational constants in cm-1:     0.225937     0.074877     0.065953
Rotational constants in MHz :  6773.424301  2244.750632  1977.214101

                             ****ORCA TERMINATED NORMALLY****
TOTAL RUN TIME: 0 days 0 hours 0 minutes 24 seconds 216 msec
