                         Program Version 5.0.0 -  RELEASE  -
|  1> !B3LYP D3BJ RIJCOSX def2-TZVP def2/J TightSCF
|  2> *xyz 0 1
|  3> C          4.08422        1.74208       -2.11472
|  4> C          4.26524        2.50052       -0.79589
|  5> H          4.86853        3.39267       -0.98113
|  6> H          3.30764        2.82457       -0.38781
|  7> C          4.98224        1.65026        0.24742
|  8> O          4.36806        1.38927        1.31371
|  9> F          6.12892        1.23351       -0.04562
| 10> H          3.57911        2.36849       -2.81997
| 11> H          3.50424        0.85965       -1.94198
| 12> H          5.04288        1.46841       -2.50327
| 13> *
| 14> %MaxCore 64000
| 15> %pal nprocs 8
| 16> end
| 17> %scf
| 18>   MaxIter 150
| 19> end
| 20>
| 21>
| 22>                          ****END OF INPUT****

CARTESIAN COORDINATES (ANGSTROEM)
---------------------------------
  C      4.084220    1.742080   -2.114720
  C      4.265240    2.500520   -0.795890
  H      4.868530    3.392670   -0.981130
  H      3.307640    2.824570   -0.387810
  C      4.982240    1.650260    0.247420
  O      4.368060    1.389270    1.313710
  F      6.128920    1.233510   -0.045620
  H      3.579110    2.368490   -2.819970
  H      3.504240    0.859650   -1.941980
  H      5.042880    1.468410   -2.503270

 Total Charge           Charge          ....    0
 Multiplicity           Mult            ....    1
 Number of Electrons    NEL             ....   40
 Basis Dimension        Dim             ....  185

ORBITAL ENERGIES
----------------

  NO   OCC          E(Eh)            E(eV)
   0   2.0000     -24.750746      -673.5020
   1   2.0000     -19.128372      -520.5095
   2   2.0000     -10.345312      -281.5103
   3   2.0000     -10.200068      -277.5580
   4   2.0000     -10.177620      -276.9471
   5   2.0000      -1.319614       -35.9085
   6   2.0000      -1.029920       -28.0256
   7   2.0000      -0.804690       -21.8967
   8   2.0000      -0.687621       -18.7111
   9   2.0000      -0.644134       -17.5278
  10   2.0000      -0.550537       -14.9809
  11   2.0000      -0.539327       -14.6758
  12   2.0000      -0.502129       -13.6636
  13   2.0000      -0.466362       -12.6904
  14   2.0000      -0.436445       -11.8763
  15   2.0000      -0.403151       -10.9703
  16   2.0000      -0.384611       -10.4658
  17   2.0000      -0.379060       -10.3147
  18   2.0000      -0.350104        -9.5268
  19   2.0000      -0.288473        -7.8497
  20   0.0000      -0.028305        -0.7702
  21   0.0000       0.030386         0.8268
  22   0.0000       0.070708         1.9241
  23   0.0000       0.088275         2.4021
  24   0.0000       0.101320         2.7571

MULLIKEN ATOMIC CHARGES
-----------------------
   0 C :   -0.333906
   1 C :   -0.177551
   2 H :    0.104775
   3 H :    0.123159
   4 C :    0.368394
   5 O :   -0.332589
   6 F :   -0.107444
   7 H :    0.118876
   8 H :    0.120656
   9 H :    0.115629
Sum of atomic charges:   -0.0000000

LOEWDIN ATOMIC CHARGES
----------------------
   0 C :   -0.286910
   1 C :   -0.250428
   2 H :    0.145237
   3 H :    0.148802
   4 C :   -0.500867
   5 O :    0.059298
   6 F :    0.326861
   7 H :    0.119423
   8 H :    0.120364
   9 H :    0.118219

  Mayer bond orders larger than 0.100000
B(  0-C ,  1-C ) :   0.9463 B(  0-C ,  7-H ) :   0.9708 B(  0-C ,  8-H ) :   0.9738
B(  0-C ,  9-H ) :   0.9722 B(  1-C ,  2-H ) :   0.9403 B(  1-C ,  3-H ) :   0.9647
B(  1-C ,  4-C ) :   1.0013 B(  4-C ,  5-O ) :   2.0621 B(  4-C ,  6-F ) :   1.1424

Dispersion correction           -0.010353172
FINAL SINGLE POINT ENERGY      -292.380742341392

DIPOLE MOMENT
-------------
                                X             Y             Z
Electronic contribution:      4.84118      -2.29429       5.86286
Nuclear contribution   :     -4.79499       2.78546      -7.01827
                        -----------------------------------------
Total Dipole Moment    :      0.04619       0.49117      -1.15541
                        -----------------------------------------
Magnitude (a.u.)       :      1.25633
Magnitude (Debye)      :      3.19333

Rotational constants in cm-1:     0.286098     0.133492     0.103343
Rotational constants in MHz :  8577.003657  4001.981591  3098.148068

                             ****ORCA TERMINATED NORMALLY****
TOTAL RUN TIME: 0 days 0 hours 0 minutes 15 seconds 56 msec
