                         Program Version 5.0.0 -  RELEASE  -
|  1> !B3LYP D3BJ RIJCOSX def2-TZVP def2/J TightSCF
|  2> *xyz 0 1
|  3> C          3.91385       -1.65829        3.01513
|  4> N          5.03927       -0.90115        2.49282
|  5> C          6.21038       -1.41726        2.17824
|  6> C          6.53591       -2.67712        2.55608
|  7> N          7.07675       -0.70082        1.47891
|  8> H          7.95464       -1.12155        1.20755
|  9> H          6.75616        0.10664        0.96028
| 10> H          4.84217        0.01761        2.11519
| 11> H          5.99388       -3.12692        3.28278
| 12> C          3.13916       -2.37657        1.91061
| 13> H          3.26723       -0.93940        3.52069
| 14> H          4.24720       -2.35509        3.79006
| 15> H          7.49844       -2.97548        2.46878
| 16> H          2.82969       -1.66654        1.17238
| 17> H          2.27790       -2.85264        2.33072
| 18> H          3.76754       -3.11338        1.45548
| 19> *
| 20> %MaxCore 64000
| 21> %pal nprocs 8
| 22> end
| 23> %scf
| 24>   MaxIter 150
| 25> end
| 26>
| 27>
| 28>                          ****END OF INPUT****

CARTESIAN COORDINATES (ANGSTROEM)
---------------------------------
  C      3.913850   -1.658290    3.015130
  N      5.039270   -0.901150    2.492820
  C      6.210380   -1.417260    2.178240
  C      6.535910   -2.677120    2.556080
  N      7.076750   -0.700820    1.478910
  H      7.954640   -1.121550    1.207550
  H      6.756160    0.106640    0.960280
  H      4.842170    0.017610    2.115190
  H      5.993880   -3.126920    3.282780
  C      3.139160   -2.376570    1.910610
  H      3.267230   -0.939400    3.520690
  H      4.247200   -2.355090    3.790060
  H      7.498440   -2.975480    2.468780
  H      2.829690   -1.666540    1.172380
  H      2.277900   -2.852640    2.330720
  H      3.767540   -3.113380    1.455480

 Total Charge           Charge          ....    0
 Multiplicity           Mult            ....    1
 Number of Electrons    NEL             ....   48
 Basis Dimension        Dim             ....  246

ORBITAL ENERGIES
----------------

  NO   OCC          E(Eh)            E(eV)
   0   2.0000     -14.317142      -389.5892
   1   2.0000     -14.314136      -389.5074
   2   2.0000     -10.213568      -277.9253
   3   2.0000     -10.200398      -277.5669
   4   2.0000     -10.147480      -276.1270
   5   2.0000     -10.076483      -274.1951
   6   2.0000      -0.971300       -26.4304
   7   2.0000      -0.888267       -24.1710
   8   2.0000      -0.752452       -20.4753
   9   2.0000      -0.703467       -19.1423
  10   2.0000      -0.640191       -17.4205
  11   2.0000      -0.563565       -15.3354
  12   2.0000      -0.549466       -14.9517
  13   2.0000      -0.519542       -14.1375
  14   2.0000      -0.465123       -12.6566
  15   2.0000      -0.438814       -11.9407
  16   2.0000      -0.415934       -11.3181
  17   2.0000      -0.397309       -10.8113
  18   2.0000      -0.378836       -10.3086
  19   2.0000      -0.366010        -9.9597
  20   2.0000      -0.360557        -9.8113
  21   2.0000      -0.345560        -9.4032
  22   2.0000      -0.250560        -6.8181
  23   2.0000      -0.161651        -4.3987
  24   0.0000       0.018410         0.5010
  25   0.0000       0.048846         1.3292
  26   0.0000       0.062847         1.7102
  27   0.0000       0.073464         1.9991
  28   0.0000       0.088469         2.4074

MULLIKEN ATOMIC CHARGES
-----------------------
   0 C :   -0.078780
   1 N :   -0.296975
   2 C :    0.335990
   3 C :   -0.490772
   4 N :   -0.448722
   5 H :    0.236650
   6 H :    0.202691
   7 H :    0.179175
   8 H :    0.069725
   9 C :   -0.289937
  10 H :    0.098020
  11 H :    0.104415
  12 H :    0.065701
  13 H :    0.079626
  14 H :    0.097624
  15 H :    0.135568
Sum of atomic charges:   -0.0000000

LOEWDIN ATOMIC CHARGES
----------------------
   0 C :   -0.292092
   1 N :    0.122323
   2 C :   -0.462898
   3 C :   -0.361057
   4 N :   -0.006183
   5 H :    0.177688
   6 H :    0.158088
   7 H :    0.176210
   8 H :    0.093260
   9 C :   -0.299965
  10 H :    0.126512
  11 H :    0.133145
  12 H :    0.091130
  13 H :    0.108928
  14 H :    0.113455
  15 H :    0.121456

  Mayer bond orders larger than 0.100000
B(  0-C ,  1-N ) :   0.9387 B(  0-C ,  9-C ) :   0.9508 B(  0-C , 10-H ) :   0.9763
B(  0-C , 11-H ) :   0.9636 B(  1-N ,  2-C ) :   1.2063 B(  1-N ,  7-H ) :   0.9322
B(  2-C ,  3-C ) :   1.6362 B(  2-C ,  4-N ) :   1.1505 B(  3-C ,  8-H ) :   1.0081
B(  3-C , 12-H ) :   0.9938 B(  4-N ,  5-H ) :   0.9240 B(  4-N ,  6-H ) :   0.9246
B(  9-C , 13-H ) :   0.9737 B(  9-C , 14-H ) :   0.9710 B(  9-C , 15-H ) :   0.9746

Dispersion correction           -0.021191851
FINAL SINGLE POINT ENERGY      -267.861368166453

DIPOLE MOMENT
-------------
                                X             Y             Z
Electronic contribution:      3.07632       2.86678      -0.23507
Nuclear contribution   :     -3.42552      -1.84584      -0.22295
                        -----------------------------------------
Total Dipole Moment    :     -0.34921       1.02094      -0.45803
                        -----------------------------------------
Magnitude (a.u.)       :      1.17220
Magnitude (Debye)      :      2.97949

Rotational constants in cm-1:     0.233526     0.075277     0.067092
Rotational constants in MHz :  7000.931279  2256.752901  2011.361214

                             ****ORCA TERMINATED NORMALLY****
TOTAL RUN TIME: 0 days 0 hours 0 minutes 23 seconds 18 msec
