                         Program Version 5.0.0 -  RELEASE  -
|  1> !B3LYP D3BJ RIJCOSX def2-TZVP def2/J TightSCF
|  2> *xyz 0 1
|  3> C          3.91385       -1.65829        3.01513
|  4> N          5.03927       -0.90115        2.49282
|  5> C          6.21038       -1.41726        2.17824
|  6> N          6.53591       -2.67712        2.55608
|  7> C          7.07675       -0.70082        1.47891
|  8> H          7.95464       -1.12155        1.20755
|  9> H          6.75616        0.10664        0.96028
| 10> H          4.84217        0.01761        2.11519
| 11> H          5.99388       -3.12692        3.28278
| 12> C          3.13916       -2.37657        1.91061
| 13> H          3.26723       -0.93940        3.52069
| 14> H          4.24720       -2.35509        3.79006
| 15> H          7.49844       -2.97548        2.46878
| 16> H          2.82969       -1.66654        1.17238
| 17> H          2.27790       -2.85264        2.33072
| 18> H          3.76754       -3.11338        1.45548
| 19> *
| 20> %MaxCore 64000
| 21> %pal nprocs 8
| 22> end
| 23> %scf
| 24>   MaxIter 150
| 25> end
| 26>
| 27>
| 28>                          ****END OF INPUT****

CARTESIAN COORDINATES (ANGSTROEM)
---------------------------------
  C      3.913850   -1.658290    3.015130
  N      5.039270   -0.901150    2.492820
  C      6.210380   -1.417260    2.178240
  N      6.535910   -2.677120    2.556080
  C      7.076750   -0.700820    1.478910
  H      7.954640   -1.121550    1.207550
  H      6.756160    0.106640    0.960280
  H      4.842170    0.017610    2.115190
  H      5.993880   -3.126920    3.282780
  C      3.139160   -2.376570    1.910610
  H      3.267230   -0.939400    3.520690
  H      4.247200   -2.355090    3.790060
  H      7.498440   -2.975480    2.468780
  H      2.829690   -1.666540    1.172380
  H      2.277900   -2.852640    2.330720
  H      3.767540   -3.113380    1.455480

 Total Charge           Charge          ....    0
 Multiplicity           Mult            ....    1
 Number of Electrons    NEL             ....   48
 Basis Dimension        Dim             ....  246

ORBITAL ENERGIES
----------------

  NO   OCC          E(Eh)            E(eV)
   0   2.0000     -14.313845      -389.4995
   1   2.0000     -14.312290      -389.4572
   2   2.0000     -10.210982      -277.8549
   3   2.0000     -10.208857      -277.7971
   4   2.0000     -10.155333      -276.3407
   5   2.0000     -10.075822      -274.1770
   6   2.0000      -0.966477       -26.2992
   7   2.0000      -0.881316       -23.9818
   8   2.0000      -0.769668       -20.9437
   9   2.0000      -0.700605       -19.0644
  10   2.0000      -0.628916       -17.1137
  11   2.0000      -0.598373       -16.2825
  12   2.0000      -0.534123       -14.5342
  13   2.0000      -0.496284       -13.5046
  14   2.0000      -0.477306       -12.9882
  15   2.0000      -0.439672       -11.9641
  16   2.0000      -0.429745       -11.6940
  17   2.0000      -0.404258       -11.0004
  18   2.0000      -0.380293       -10.3483
  19   2.0000      -0.371110       -10.0984
  20   2.0000      -0.359326        -9.7777
  21   2.0000      -0.356007        -9.6874
  22   2.0000      -0.253997        -6.9116
  23   2.0000      -0.161440        -4.3930
  24   0.0000       0.020876         0.5681
  25   0.0000       0.045820         1.2468
  26   0.0000       0.057803         1.5729
  27   0.0000       0.073006         1.9866
  28   0.0000       0.085846         2.3360

MULLIKEN ATOMIC CHARGES
-----------------------
   0 C :   -0.121160
   1 N :   -0.284941
   2 C :    0.361028
   3 N :   -0.467694
   4 C :   -0.487202
   5 H :    0.063697
   6 H :    0.069262
   7 H :    0.206900
   8 H :    0.206819
   9 C :   -0.265260
  10 H :    0.105529
  11 H :    0.081593
  12 H :    0.228926
  13 H :    0.093006
  14 H :    0.095136
  15 H :    0.114361
Sum of atomic charges:   -0.0000000

LOEWDIN ATOMIC CHARGES
----------------------
   0 C :   -0.309707
   1 N :    0.125322
   2 C :   -0.454398
   3 N :   -0.022518
   4 C :   -0.343377
   5 H :    0.094238
   6 H :    0.094440
   7 H :    0.193272
   8 H :    0.155857
   9 C :   -0.300466
  10 H :    0.129178
  11 H :    0.121678
  12 H :    0.173959
  13 H :    0.113302
  14 H :    0.112478
  15 H :    0.116743

  Mayer bond orders larger than 0.100000
B(  0-C ,  1-N ) :   0.9634 B(  0-C ,  9-C ) :   0.9367 B(  0-C , 10-H ) :   0.9778
B(  0-C , 11-H ) :   0.9751 B(  1-N ,  2-C ) :   1.2169 B(  1-N ,  7-H ) :   0.9268
B(  2-C ,  3-N ) :   1.1268 B(  2-C ,  4-C ) :   1.6402 B(  3-N ,  8-H ) :   0.9214
B(  3-N , 12-H ) :   0.9258 B(  4-C ,  5-H ) :   1.0099 B(  4-C ,  6-H ) :   1.0055
B(  9-C , 13-H ) :   0.9729 B(  9-C , 14-H ) :   0.9681 B(  9-C , 15-H ) :   0.9749

Dispersion correction           -0.021046516
FINAL SINGLE POINT ENERGY      -267.861777302178

DIPOLE MOMENT
-------------
                                X             Y             Z
Electronic contribution:      2.53376       0.90761       0.97829
Nuclear contribution   :     -3.31079      -1.42658      -0.45147
                        -----------------------------------------
Total Dipole Moment    :     -0.77702      -0.51897       0.52682
                        -----------------------------------------
Magnitude (a.u.)       :      1.07268
Magnitude (Debye)      :      2.72653

Rotational constants in cm-1:     0.225507     0.077571     0.068070
Rotational constants in MHz :  6760.542142  2325.533779  2040.680522

                             ****ORCA TERMINATED NORMALLY****
TOTAL RUN TIME: 0 days 0 hours 0 minutes 22 seconds 578 msec
