                         Program Version 5.0.0 -  RELEASE  -
|  1> !B3LYP D3BJ RIJCOSX def2-TZVP def2/J TightSCF xyzfile
|  2>
|  3> *xyzfile 0 1 D1.xyz
|  4>
|  5> %MaxCore 64000
|  6>
|  7> %pal nprocs 18
|  8> end
|  9>
| 10> %scf
| 11>   MaxIter 150
| 12> end
| 13>
| 14>
| 15>                          ****END OF INPUT****

CARTESIAN COORDINATES (ANGSTROEM)
---------------------------------
  C      3.913853   -1.658291    3.015134
  C      5.039266   -0.901154    2.492821
  C      4.084215    1.742081   -2.114724
  C      4.265245    2.500518   -0.795890
  H      4.868534    3.392674   -0.981134
  H      3.307640    2.824571   -0.387809
  C      4.982240    1.650257    0.247422
  C      6.210384   -1.417261    2.178244
  N      6.535913   -2.677122    2.556078
  N      7.076754   -0.700820    1.478906
  H      7.954643   -1.121554    1.207554
  H      6.756161    0.106637    0.960278
  H      4.842168    0.017609    2.115191
  H      5.993876   -3.126918    3.282784
  H      7.498441   -2.975482    2.468776
  F      4.368065    1.389270    1.313706
  O      6.128919    1.233512   -0.045620
  C      3.139159   -2.376572    1.910609
  H      3.267235   -0.939401    3.520693
  H      4.247195   -2.355095    3.790065
  C      1.997274    0.430918   -1.399218
  C      3.412746    0.376886   -1.965497
  H      4.047407   -0.246590   -1.326706
  H      3.390774   -0.118719   -2.942839
  H      5.068475    1.598504   -2.565728
  H      3.503356    2.363939   -2.804565
  C      2.399946   -1.389579    1.009490
  H      2.440750   -3.087118    2.362976
  H      3.844475   -2.970462    1.318677
  C      2.070177   -1.936705   -0.372401
  H      1.481611   -1.061542    1.509912
  H      3.008628   -0.490001    0.897451
  C      1.322238   -0.935775   -1.256413
  H      1.472747   -2.850902   -0.283997
  H      3.003539   -2.234041   -0.862535
  H      1.376444    1.058920   -2.047420
  H      2.015341    0.929780   -0.426535
  H      0.316648   -0.787213   -0.848278
  H      1.185611   -1.379252   -2.248613

 Total Charge           Charge          ....    0
 Multiplicity           Mult            ....    1
 Number of Electrons    NEL             ....  126
 Basis Dimension        Dim             ....  634

ORBITAL ENERGIES
----------------

  NO   OCC          E(Eh)            E(eV)
   0   2.0000     -24.763740      -673.8556
   1   2.0000     -19.151750      -521.1456
   2   2.0000     -14.296133      -389.0176
   3   2.0000     -14.270860      -388.3299
   4   2.0000     -10.366847      -282.0962
   5   2.0000     -10.205820      -277.7145
   6   2.0000     -10.187882      -277.2264
   7   2.0000     -10.185897      -277.1723
   8   2.0000     -10.169798      -276.7343
   9   2.0000     -10.164496      -276.5900
  10   2.0000     -10.158249      -276.4200
  11   2.0000     -10.150296      -276.2036
  12   2.0000     -10.143322      -276.0138
  13   2.0000     -10.134636      -275.7775
  14   2.0000     -10.129461      -275.6367
  15   2.0000     -10.061610      -273.7903
  16   2.0000      -1.336144       -36.3583
  17   2.0000      -1.061345       -28.8807
  18   2.0000      -0.934365       -25.4254
  19   2.0000      -0.844975       -22.9929
  20   2.0000      -0.830370       -22.5955
  21   2.0000      -0.800954       -21.7951
  22   2.0000      -0.772380       -21.0175
  23   2.0000      -0.744288       -20.2531
  24   2.0000      -0.707163       -19.2429
  25   2.0000      -0.686858       -18.6903
  26   2.0000      -0.660482       -17.9726
  27   2.0000      -0.634209       -17.2577
  28   2.0000      -0.603035       -16.4094
  29   2.0000      -0.585602       -15.9350
  30   2.0000      -0.566692       -15.4205
  31   2.0000      -0.557678       -15.1752
  32   2.0000      -0.555902       -15.1269
  33   2.0000      -0.550080       -14.9684
  34   2.0000      -0.525150       -14.2901
  35   2.0000      -0.513157       -13.9637
  36   2.0000      -0.486608       -13.2413
  37   2.0000      -0.478951       -13.0329
  38   2.0000      -0.475635       -12.9427
  39   2.0000      -0.458234       -12.4692
  40   2.0000      -0.445820       -12.1314
  41   2.0000      -0.435998       -11.8641
  42   2.0000      -0.426118       -11.5953
  43   2.0000      -0.416296       -11.3280
  44   2.0000      -0.413396       -11.2491
  45   2.0000      -0.407071       -11.0770
  46   2.0000      -0.390772       -10.6335
  47   2.0000      -0.386197       -10.5089
  48   2.0000      -0.369621       -10.0579
  49   2.0000      -0.365399        -9.9430
  50   2.0000      -0.360369        -9.8061
  51   2.0000      -0.358577        -9.7574
  52   2.0000      -0.348136        -9.4733
  53   2.0000      -0.337518        -9.1843
  54   2.0000      -0.335250        -9.1226
  55   2.0000      -0.321806        -8.7568
  56   2.0000      -0.311870        -8.4864
  57   2.0000      -0.307116        -8.3570
  58   2.0000      -0.303482        -8.2582
  59   2.0000      -0.298412        -8.1202
  60   2.0000      -0.291761        -7.9392
  61   2.0000      -0.240888        -6.5549
  62   2.0000      -0.140120        -3.8129
  63   0.0000      -0.050759        -1.3812
  64   0.0000       0.028230         0.7682
  65   0.0000       0.037493         1.0202
  66   0.0000       0.047121         1.2822
  67   0.0000       0.049510         1.3472

MULLIKEN ATOMIC CHARGES
-----------------------
   0 C :   -0.189849
   1 C :   -0.384916
   2 C :   -0.133921
   3 C :   -0.195028
   4 H :    0.131016
   5 H :    0.123566
   6 C :    0.409048
   7 C :    0.315731
   8 N :   -0.467253
   9 N :   -0.460071
  10 H :    0.186192
  11 H :    0.253040
  12 H :    0.122581
  13 H :    0.222357
  14 H :    0.198869
  15 F :   -0.102091
  16 O :   -0.369838
  17 C :   -0.056216
  18 H :    0.063252
  19 H :    0.059686
  20 C :   -0.205887
  21 C :   -0.250747
  22 H :    0.136637
  23 H :    0.090119
  24 H :    0.110040
  25 H :    0.096556
  26 C :   -0.217818
  27 H :    0.059727
  28 H :    0.078028
  29 C :   -0.175216
  30 H :    0.073686
  31 H :    0.072123
  32 C :   -0.131300
  33 H :    0.084914
  34 H :    0.095842
  35 H :    0.085694
  36 H :    0.102767
  37 H :    0.084517
  38 H :    0.084162
Sum of atomic charges:    0.0000000

LOEWDIN ATOMIC CHARGES
----------------------
   0 C :   -0.284426
   1 C :   -0.292445
   2 C :   -0.249327
   3 C :   -0.223168
   4 H :    0.157234
   5 H :    0.141499
   6 C :   -0.472163
   7 C :   -0.456264
   8 N :   -0.029907
   9 N :   -0.013059
  10 H :    0.152430
  11 H :    0.143884
  12 H :    0.112822
  13 H :    0.166673
  14 H :    0.155138
  15 F :    0.347530
  16 O :    0.088073
  17 C :   -0.254696
  18 H :    0.137148
  19 H :    0.122488
  20 C :   -0.267242
  21 C :   -0.262222
  22 H :    0.141168
  23 H :    0.138053
  24 H :    0.143038
  25 H :    0.138615
  26 C :   -0.264914
  27 H :    0.121945
  28 H :    0.134963
  29 C :   -0.267382
  30 H :    0.130644
  31 H :    0.131463
  32 C :   -0.262607
  33 H :    0.133069
  34 H :    0.132383
  35 H :    0.133092
  36 H :    0.130605
  37 H :    0.133670
  38 H :    0.132195

  Mayer bond orders larger than 0.100000
B(  0-C ,  1-C ) :   1.0260 B(  0-C , 17-C ) :   0.9193 B(  0-C , 18-H ) :   0.9780
B(  0-C , 19-H ) :   0.9842 B(  1-C ,  7-C ) :   1.6467 B(  1-C , 12-H ) :   1.0204
B(  2-C ,  3-C ) :   0.9510 B(  2-C , 21-C ) :   0.9702 B(  2-C , 24-H ) :   0.9631
B(  2-C , 25-H ) :   0.9630 B(  3-C ,  4-H ) :   0.9468 B(  3-C ,  5-H ) :   0.9714
B(  3-C ,  6-C ) :   0.9715 B(  6-C , 15-F ) :   1.1348 B(  6-C , 16-O ) :   1.9023
B(  7-C ,  8-N ) :   1.1233 B(  7-C ,  9-N ) :   1.1917 B(  8-N , 13-H ) :   0.9190
B(  8-N , 14-H ) :   0.9304 B(  9-N , 10-H ) :   0.9359 B(  9-N , 11-H ) :   0.8538
B( 11-H , 16-O ) :   0.1206 B( 17-C , 26-C ) :   1.0047 B( 17-C , 27-H ) :   0.9565
B( 17-C , 28-H ) :   0.9678 B( 20-C , 21-C ) :   0.9432 B( 20-C , 32-C ) :   0.9699
B( 20-C , 35-H ) :   0.9645 B( 20-C , 36-H ) :   0.9742 B( 21-C , 22-H ) :   0.9740
B( 21-C , 23-H ) :   0.9666 B( 26-C , 29-C ) :   0.9662 B( 26-C , 30-H ) :   0.9586
B( 26-C , 31-H ) :   0.9820 B( 29-C , 32-C ) :   0.9678 B( 29-C , 33-H ) :   0.9717
B( 29-C , 34-H ) :   0.9755 B( 32-C , 37-H ) :   0.9726 B( 32-C , 38-H ) :   0.9721

Dispersion correction           -0.072398918
FINAL SINGLE POINT ENERGY      -755.556340499511

DIPOLE MOMENT
-------------
                                X             Y             Z
Electronic contribution:     11.40484       8.95394       5.89758
Nuclear contribution   :    -11.48003      -8.36271      -6.78621
                        -----------------------------------------
Total Dipole Moment    :     -0.07519       0.59122      -0.88864
                        -----------------------------------------
Magnitude (a.u.)       :      1.06999
Magnitude (Debye)      :      2.71969

Rotational constants in cm-1:     0.020055     0.013548     0.009477
Rotational constants in MHz :   601.234832   406.162779   284.104317

                             ****ORCA TERMINATED NORMALLY****
TOTAL RUN TIME: 0 days 0 hours 1 minutes 33 seconds 947 msec
