                         Program Version 5.0.0 -  RELEASE  -
|  1> !B3LYP D3BJ RIJCOSX def2-TZVP def2/J TightSCF xyzfile
|  2>
|  3> *xyzfile 0 1 D2.xyz
|  4>
|  5> %MaxCore 64000
|  6>
|  7> %pal nprocs 18
|  8> end
|  9>
| 10> %scf
| 11>   MaxIter 150
| 12> end
| 13>
| 14>
| 15>                          ****END OF INPUT****

CARTESIAN COORDINATES (ANGSTROEM)
---------------------------------
  C      3.913853   -1.658291    3.015134
  N      5.039266   -0.901154    2.492821
  C      4.084215    1.742081   -2.114724
  C      4.265245    2.500518   -0.795890
  H      4.868534    3.392674   -0.981134
  H      3.307640    2.824571   -0.387809
  C      4.982240    1.650257    0.247422
  C      6.210384   -1.417261    2.178244
  C      6.535913   -2.677122    2.556078
  N      7.076754   -0.700820    1.478906
  H      7.954643   -1.121554    1.207554
  H      6.756161    0.106637    0.960278
  H      4.842168    0.017609    2.115191
  H      5.993876   -3.126918    3.282784
  H      7.498441   -2.975482    2.468776
  F      4.368065    1.389270    1.313706
  O      6.128919    1.233512   -0.045620
  C      3.139159   -2.376572    1.910609
  H      3.267235   -0.939401    3.520693
  H      4.247195   -2.355095    3.790065
  C      1.997274    0.430918   -1.399218
  C      3.412746    0.376886   -1.965497
  H      4.047407   -0.246590   -1.326706
  H      3.390774   -0.118719   -2.942839
  H      5.068475    1.598504   -2.565728
  H      3.503356    2.363939   -2.804565
  C      2.399946   -1.389579    1.009490
  H      2.440750   -3.087118    2.362976
  H      3.844475   -2.970462    1.318677
  C      2.070177   -1.936705   -0.372401
  H      1.481611   -1.061542    1.509912
  H      3.008628   -0.490001    0.897451
  C      1.322238   -0.935775   -1.256413
  H      1.472747   -2.850902   -0.283997
  H      3.003539   -2.234041   -0.862535
  H      1.376444    1.058920   -2.047420
  H      2.015341    0.929780   -0.426535
  H      0.316648   -0.787213   -0.848278
  H      1.185611   -1.379252   -2.248613

 Total Charge           Charge          ....    0
 Multiplicity           Mult            ....    1
 Number of Electrons    NEL             ....  126
 Basis Dimension        Dim             ....  634

ORBITAL ENERGIES
----------------

  NO   OCC          E(Eh)            E(eV)
   0   2.0000     -24.791803      -674.6192
   1   2.0000     -19.166946      -521.5591
   2   2.0000     -14.294216      -388.9654
   3   2.0000     -14.272552      -388.3759
   4   2.0000     -10.381723      -282.5010
   5   2.0000     -10.217675      -278.0371
   6   2.0000     -10.195403      -277.4310
   7   2.0000     -10.191058      -277.3128
   8   2.0000     -10.187495      -277.2158
   9   2.0000     -10.179483      -276.9978
  10   2.0000     -10.174418      -276.8600
  11   2.0000     -10.167951      -276.6840
  12   2.0000     -10.161765      -276.5157
  13   2.0000     -10.160035      -276.4686
  14   2.0000     -10.151432      -276.2345
  15   2.0000     -10.057374      -273.6751
  16   2.0000      -1.362612       -37.0786
  17   2.0000      -1.076374       -29.2896
  18   2.0000      -0.948760       -25.8171
  19   2.0000      -0.863539       -23.4981
  20   2.0000      -0.841412       -22.8960
  21   2.0000      -0.810475       -22.0542
  22   2.0000      -0.776470       -21.1288
  23   2.0000      -0.743429       -20.2297
  24   2.0000      -0.715471       -19.4690
  25   2.0000      -0.692170       -18.8349
  26   2.0000      -0.678393       -18.4600
  27   2.0000      -0.654558       -17.8114
  28   2.0000      -0.619725       -16.8636
  29   2.0000      -0.598381       -16.2828
  30   2.0000      -0.588916       -16.0252
  31   2.0000      -0.579211       -15.7611
  32   2.0000      -0.567236       -15.4353
  33   2.0000      -0.550816       -14.9885
  34   2.0000      -0.534073       -14.5329
  35   2.0000      -0.511953       -13.9309
  36   2.0000      -0.496757       -13.5174
  37   2.0000      -0.487102       -13.2547
  38   2.0000      -0.486614       -13.2414
  39   2.0000      -0.468374       -12.7451
  40   2.0000      -0.453548       -12.3417
  41   2.0000      -0.446672       -12.1546
  42   2.0000      -0.434577       -11.8254
  43   2.0000      -0.427460       -11.6318
  44   2.0000      -0.419350       -11.4111
  45   2.0000      -0.408945       -11.1279
  46   2.0000      -0.402727       -10.9588
  47   2.0000      -0.392875       -10.6907
  48   2.0000      -0.381260       -10.3746
  49   2.0000      -0.377127       -10.2622
  50   2.0000      -0.369647       -10.0586
  51   2.0000      -0.363528        -9.8921
  52   2.0000      -0.359536        -9.7835
  53   2.0000      -0.350317        -9.5326
  54   2.0000      -0.343503        -9.3472
  55   2.0000      -0.338879        -9.2214
  56   2.0000      -0.330347        -8.9892
  57   2.0000      -0.319701        -8.6995
  58   2.0000      -0.318848        -8.6763
  59   2.0000      -0.315515        -8.5856
  60   2.0000      -0.311308        -8.4711
  61   2.0000      -0.226250        -6.1566
  62   2.0000      -0.142308        -3.8724
  63   0.0000      -0.066218        -1.8019
  64   0.0000       0.018046         0.4910
  65   0.0000       0.038155         1.0382
  66   0.0000       0.040292         1.0964
  67   0.0000       0.045980         1.2512

MULLIKEN ATOMIC CHARGES
-----------------------
   0 C :   -0.110380
   1 N :   -0.309968
   2 C :   -0.136336
   3 C :   -0.196850
   4 H :    0.136863
   5 H :    0.125853
   6 C :    0.400594
   7 C :    0.325465
   8 C :   -0.518403
   9 N :   -0.464774
  10 H :    0.217025
  11 H :    0.235736
  12 H :    0.198363
  13 H :    0.063113
  14 H :    0.060754
  15 F :   -0.128756
  16 O :   -0.350783
  17 C :   -0.066066
  18 H :    0.092781
  19 H :    0.114262
  20 C :   -0.204773
  21 C :   -0.254007
  22 H :    0.133248
  23 H :    0.096175
  24 H :    0.115694
  25 H :    0.100707
  26 C :   -0.251522
  27 H :    0.078468
  28 H :    0.111653
  29 C :   -0.175423
  30 H :    0.077269
  31 H :    0.053067
  32 C :   -0.133455
  33 H :    0.092400
  34 H :    0.104944
  35 H :    0.090499
  36 H :    0.099081
  37 H :    0.087861
  38 H :    0.089621
Sum of atomic charges:    0.0000000

LOEWDIN ATOMIC CHARGES
----------------------
   0 C :   -0.272158
   1 N :    0.119359
   2 C :   -0.247628
   3 C :   -0.222749
   4 H :    0.159184
   5 H :    0.141924
   6 C :   -0.479414
   7 C :   -0.465845
   8 C :   -0.374968
   9 N :   -0.009701
  10 H :    0.170286
  11 H :    0.133667
  12 H :    0.160062
  13 H :    0.089984
  14 H :    0.088847
  15 F :    0.337336
  16 O :    0.096255
  17 C :   -0.259374
  18 H :    0.128244
  19 H :    0.134401
  20 C :   -0.267263
  21 C :   -0.261704
  22 H :    0.140098
  23 H :    0.139959
  24 H :    0.144540
  25 H :    0.140116
  26 C :   -0.271383
  27 H :    0.131145
  28 H :    0.144354
  29 C :   -0.265193
  30 H :    0.131700
  31 H :    0.124717
  32 C :   -0.261483
  33 H :    0.135423
  34 H :    0.135036
  35 H :    0.134531
  36 H :    0.129152
  37 H :    0.134448
  38 H :    0.134095

  Mayer bond orders larger than 0.100000
B(  0-C ,  1-N ) :   0.9742 B(  0-C , 17-C ) :   0.9297 B(  0-C , 18-H ) :   0.9824
B(  0-C , 19-H ) :   0.9719 B(  1-N ,  7-C ) :   1.2045 B(  1-N , 12-H ) :   0.9131
B(  2-C ,  3-C ) :   0.9495 B(  2-C , 21-C ) :   0.9682 B(  2-C , 24-H ) :   0.9637
B(  2-C , 25-H ) :   0.9627 B(  3-C ,  4-H ) :   0.9464 B(  3-C ,  5-H ) :   0.9695
B(  3-C ,  6-C ) :   0.9749 B(  6-C , 15-F ) :   1.0877 B(  6-C , 16-O ) :   1.9268
B(  7-C ,  8-C ) :   1.6023 B(  7-C ,  9-N ) :   1.1859 B(  8-C , 13-H ) :   1.0021
B(  8-C , 14-H ) :   0.9954 B(  9-N , 10-H ) :   0.9325 B(  9-N , 11-H ) :   0.8626
B( 11-H , 16-O ) :   0.1104 B( 17-C , 26-C ) :   0.9763 B( 17-C , 27-H ) :   0.9625
B( 17-C , 28-H ) :   0.9624 B( 20-C , 21-C ) :   0.9392 B( 20-C , 32-C ) :   0.9672
B( 20-C , 35-H ) :   0.9644 B( 20-C , 36-H ) :   0.9756 B( 21-C , 22-H ) :   0.9744
B( 21-C , 23-H ) :   0.9668 B( 26-C , 29-C ) :   0.9661 B( 26-C , 30-H ) :   0.9546
B( 26-C , 31-H ) :   0.9878 B( 29-C , 32-C ) :   0.9644 B( 29-C , 33-H ) :   0.9726
B( 29-C , 34-H ) :   0.9757 B( 32-C , 37-H ) :   0.9736 B( 32-C , 38-H ) :   0.9722

Dispersion correction           -0.071972220
FINAL SINGLE POINT ENERGY      -755.554355217299

DIPOLE MOMENT
-------------
                                X             Y             Z
Electronic contribution:      9.79388      10.55599       5.52536
Nuclear contribution   :    -11.22009      -8.67117      -6.77523
                        -----------------------------------------
Total Dipole Moment    :     -1.42621       1.88483      -1.24986
                        -----------------------------------------
Magnitude (a.u.)       :      2.67373
Magnitude (Debye)      :      6.79607

Rotational constants in cm-1:     0.020086     0.013778     0.009581
Rotational constants in MHz :   602.172053   413.051122   287.243919

                             ****ORCA TERMINATED NORMALLY****
TOTAL RUN TIME: 0 days 0 hours 1 minutes 19 seconds 360 msec
