                         Program Version 5.0.0 -  RELEASE  -
|  1> !B3LYP D3BJ RIJCOSX def2-TZVP def2/J TightSCF xyzfile
|  2>
|  3> *xyzfile 0 1 D4.xyz
|  4>
|  5> %MaxCore 64000
|  6>
|  7> %pal nprocs 18
|  8> end
|  9>
| 10> %scf
| 11>   MaxIter 150
| 12> end
| 13>
| 14>
| 15>                          ****END OF INPUT****

CARTESIAN COORDINATES (ANGSTROEM)
---------------------------------
  C      3.913853   -1.658291    3.015134
  C      5.039266   -0.901154    2.492821
  C      4.084215    1.742081   -2.114724
  C      4.265245    2.500518   -0.795890
  H      4.868534    3.392674   -0.981134
  H      3.307640    2.824571   -0.387809
  C      4.982240    1.650257    0.247422
  C      6.210384   -1.417261    2.178244
  N      6.535913   -2.677122    2.556078
  N      7.076754   -0.700820    1.478906
  H      7.954643   -1.121554    1.207554
  H      6.756161    0.106637    0.960278
  H      4.842168    0.017609    2.115191
  H      5.993876   -3.126918    3.282784
  H      7.498441   -2.975482    2.468776
  O      4.368065    1.389270    1.313706
  F      6.128919    1.233512   -0.045620
  C      3.139159   -2.376572    1.910609
  H      3.267235   -0.939401    3.520693
  H      4.247195   -2.355095    3.790065
  C      1.997274    0.430918   -1.399218
  C      3.412746    0.376886   -1.965497
  H      4.047407   -0.246590   -1.326706
  H      3.390774   -0.118719   -2.942839
  H      5.068475    1.598504   -2.565728
  H      3.503356    2.363939   -2.804565
  C      2.399946   -1.389579    1.009490
  H      2.440750   -3.087118    2.362976
  H      3.844475   -2.970462    1.318677
  C      2.070177   -1.936705   -0.372401
  H      1.481611   -1.061542    1.509912
  H      3.008628   -0.490001    0.897451
  C      1.322238   -0.935775   -1.256413
  H      1.472747   -2.850902   -0.283997
  H      3.003539   -2.234041   -0.862535
  H      1.376444    1.058920   -2.047420
  H      2.015341    0.929780   -0.426535
  H      0.316648   -0.787213   -0.848278
  H      1.185611   -1.379252   -2.248613

 Total Charge           Charge          ....    0
 Multiplicity           Mult            ....    1
 Number of Electrons    NEL             ....  126
 Basis Dimension        Dim             ....  634

ORBITAL ENERGIES
----------------

  NO   OCC          E(Eh)            E(eV)
   0   2.0000     -24.777253      -674.2233
   1   2.0000     -19.141368      -520.8631
   2   2.0000     -14.295458      -388.9992
   3   2.0000     -14.286621      -388.7587
   4   2.0000     -10.360486      -281.9232
   5   2.0000     -10.203986      -277.6646
   6   2.0000     -10.188013      -277.2299
   7   2.0000     -10.185875      -277.1718
   8   2.0000     -10.171073      -276.7690
   9   2.0000     -10.160592      -276.4838
  10   2.0000     -10.154587      -276.3203
  11   2.0000     -10.145667      -276.0776
  12   2.0000     -10.134198      -275.7655
  13   2.0000     -10.129464      -275.6367
  14   2.0000     -10.122979      -275.4603
  15   2.0000     -10.052221      -273.5348
  16   2.0000      -1.349352       -36.7177
  17   2.0000      -1.049886       -28.5688
  18   2.0000      -0.938704       -25.5434
  19   2.0000      -0.851489       -23.1702
  20   2.0000      -0.831203       -22.6182
  21   2.0000      -0.797153       -21.6916
  22   2.0000      -0.768302       -20.9066
  23   2.0000      -0.740256       -20.1434
  24   2.0000      -0.708521       -19.2798
  25   2.0000      -0.685310       -18.6482
  26   2.0000      -0.666018       -18.1233
  27   2.0000      -0.631170       -17.1750
  28   2.0000      -0.602977       -16.4078
  29   2.0000      -0.588530       -16.0147
  30   2.0000      -0.574124       -15.6227
  31   2.0000      -0.568806       -15.4780
  32   2.0000      -0.549895       -14.9634
  33   2.0000      -0.539348       -14.6764
  34   2.0000      -0.528967       -14.3939
  35   2.0000      -0.510276       -13.8853
  36   2.0000      -0.484228       -13.1765
  37   2.0000      -0.479085       -13.0366
  38   2.0000      -0.476427       -12.9642
  39   2.0000      -0.455789       -12.4026
  40   2.0000      -0.447690       -12.1823
  41   2.0000      -0.435447       -11.8491
  42   2.0000      -0.425469       -11.5776
  43   2.0000      -0.410136       -11.1604
  44   2.0000      -0.406483       -11.0610
  45   2.0000      -0.400645       -10.9021
  46   2.0000      -0.391588       -10.6556
  47   2.0000      -0.382761       -10.4155
  48   2.0000      -0.376002       -10.2315
  49   2.0000      -0.370721       -10.0878
  50   2.0000      -0.360088        -9.7985
  51   2.0000      -0.359121        -9.7722
  52   2.0000      -0.340733        -9.2718
  53   2.0000      -0.333382        -9.0718
  54   2.0000      -0.331236        -9.0134
  55   2.0000      -0.325306        -8.8520
  56   2.0000      -0.308260        -8.3882
  57   2.0000      -0.301426        -8.2022
  58   2.0000      -0.296369        -8.0646
  59   2.0000      -0.292278        -7.9533
  60   2.0000      -0.262978        -7.1560
  61   2.0000      -0.246892        -6.7183
  62   2.0000      -0.137499        -3.7415
  63   0.0000      -0.044553        -1.2123
  64   0.0000       0.023170         0.6305
  65   0.0000       0.035090         0.9548
  66   0.0000       0.048587         1.3221
  67   0.0000       0.051093         1.3903

MULLIKEN ATOMIC CHARGES
-----------------------
   0 C :   -0.192624
   1 C :   -0.395629
   2 C :   -0.169477
   3 C :   -0.186365
   4 H :    0.122176
   5 H :    0.137535
   6 C :    0.393841
   7 C :    0.317597
   8 N :   -0.468111
   9 N :   -0.470326
  10 H :    0.193436
  11 H :    0.235058
  12 H :    0.177565
  13 H :    0.225317
  14 H :    0.194941
  15 O :   -0.330278
  16 F :   -0.141235
  17 C :   -0.059937
  18 H :    0.067879
  19 H :    0.053689
  20 C :   -0.210453
  21 C :   -0.221654
  22 H :    0.119660
  23 H :    0.090104
  24 H :    0.104576
  25 H :    0.099846
  26 C :   -0.241303
  27 H :    0.058386
  28 H :    0.072555
  29 C :   -0.171632
  30 H :    0.069093
  31 H :    0.117449
  32 C :   -0.133206
  33 H :    0.082478
  34 H :    0.088979
  35 H :    0.083142
  36 H :    0.121495
  37 H :    0.084095
  38 H :    0.081341
Sum of atomic charges:   -0.0000000

LOEWDIN ATOMIC CHARGES
----------------------
   0 C :   -0.281285
   1 C :   -0.275597
   2 C :   -0.258339
   3 C :   -0.222489
   4 H :    0.149789
   5 H :    0.152951
   6 C :   -0.485304
   7 C :   -0.462705
   8 N :   -0.032471
   9 N :   -0.022451
  10 H :    0.153998
  11 H :    0.152068
  12 H :    0.113704
  13 H :    0.168033
  14 H :    0.153058
  15 O :    0.102296
  16 F :    0.339443
  17 C :   -0.255200
  18 H :    0.139529
  19 H :    0.120402
  20 C :   -0.265319
  21 C :   -0.261796
  22 H :    0.138505
  23 H :    0.137345
  24 H :    0.137084
  25 H :    0.139490
  26 C :   -0.263580
  27 H :    0.121246
  28 H :    0.133245
  29 C :   -0.268798
  30 H :    0.130617
  31 H :    0.139026
  32 C :   -0.262898
  33 H :    0.132031
  34 H :    0.130225
  35 H :    0.132439
  36 H :    0.136871
  37 H :    0.133947
  38 H :    0.130887

  Mayer bond orders larger than 0.100000
B(  0-C ,  1-C ) :   1.0266 B(  0-C , 17-C ) :   0.9240 B(  0-C , 18-H ) :   0.9786
B(  0-C , 19-H ) :   0.9834 B(  1-C ,  7-C ) :   1.6611 B(  1-C , 12-H ) :   0.9921
B(  2-C ,  3-C ) :   0.9379 B(  2-C , 21-C ) :   0.9553 B(  2-C , 24-H ) :   0.9741
B(  2-C , 25-H ) :   0.9618 B(  3-C ,  4-H ) :   0.9459 B(  3-C ,  5-H ) :   0.9788
B(  3-C ,  6-C ) :   0.9802 B(  6-C , 15-O ) :   1.9734 B(  6-C , 16-F ) :   1.0494
B(  7-C ,  8-N ) :   1.1146 B(  7-C ,  9-N ) :   1.1512 B(  8-N , 13-H ) :   0.9184
B(  8-N , 14-H ) :   0.9315 B(  9-N , 10-H ) :   0.9348 B(  9-N , 11-H ) :   0.8998
B( 17-C , 26-C ) :   0.9977 B( 17-C , 27-H ) :   0.9569 B( 17-C , 28-H ) :   0.9662
B( 20-C , 21-C ) :   0.9464 B( 20-C , 32-C ) :   0.9688 B( 20-C , 35-H ) :   0.9629
B( 20-C , 36-H ) :   0.9729 B( 21-C , 22-H ) :   0.9750 B( 21-C , 23-H ) :   0.9664
B( 26-C , 29-C ) :   0.9582 B( 26-C , 30-H ) :   0.9616 B( 26-C , 31-H ) :   0.9860
B( 29-C , 32-C ) :   0.9694 B( 29-C , 33-H ) :   0.9715 B( 29-C , 34-H ) :   0.9759
B( 32-C , 37-H ) :   0.9716 B( 32-C , 38-H ) :   0.9730

Dispersion correction           -0.072608800
FINAL SINGLE POINT ENERGY      -755.543663403774

DIPOLE MOMENT
-------------
                                X             Y             Z
Electronic contribution:     14.38445       8.74841       3.68498
Nuclear contribution   :    -13.61164      -8.17416      -5.14068
                        -----------------------------------------
Total Dipole Moment    :      0.77281       0.57425      -1.45570
                        -----------------------------------------
Magnitude (a.u.)       :      1.74530
Magnitude (Debye)      :      4.43619

Rotational constants in cm-1:     0.019858     0.013613     0.009401
Rotational constants in MHz :   595.331791   408.100423   281.843625

                             ****ORCA TERMINATED NORMALLY****
TOTAL RUN TIME: 0 days 0 hours 1 minutes 38 seconds 349 msec
