                         Program Version 5.0.0 -  RELEASE  -
|  1> !LC-PBE RIJCOSX def2-SVPD def2/J TightSCF
|  2> *xyz -1 1
|  3> C          1.36401        0.46874       -2.81376
|  4> C          0.96805        1.63064       -3.71575
|  5> C         -0.50835        1.72268       -4.12430
|  6> S         -1.32861        0.14674       -4.43578
|  7> H         -0.59151        2.29496       -5.04722
|  8> H         -1.11411        2.23561       -3.37436
|  9> O         -2.57135        0.47573       -5.06834
| 10> O         -1.51496       -0.40051       -3.06342
| 11> H          1.57869        1.52065       -4.61273
| 12> H          1.26665        2.57599       -3.25045
| 13> O         -0.37793       -0.62756       -5.20114
| 14> H          1.07115       -0.45339       -3.27071
| 15> H          0.87480        0.56905       -1.86745
| 16> H          2.42423        0.47442       -2.66954
| 17> *
| 18> %MaxCore 64000
| 19>
| 20> %pal nprocs 4
| 21> end
| 22>
| 23> %scf
| 24>   MaxIter 150
| 25> end
| 26>
| 27>
| 28>                          ****END OF INPUT****

CARTESIAN COORDINATES (ANGSTROEM)
---------------------------------
  C      1.364010    0.468740   -2.813760
  C      0.968050    1.630640   -3.715750
  C     -0.508350    1.722680   -4.124300
  S     -1.328610    0.146740   -4.435780
  H     -0.591510    2.294960   -5.047220
  H     -1.114110    2.235610   -3.374360
  O     -2.571350    0.475730   -5.068340
  O     -1.514960   -0.400510   -3.063420
  H      1.578690    1.520650   -4.612730
  H      1.266650    2.575990   -3.250450
  O     -0.377930   -0.627560   -5.201140
  H      1.071150   -0.453390   -3.270710
  H      0.874800    0.569050   -1.867450
  H      2.424230    0.474420   -2.669540

 Total Charge           Charge          ....   -1
 Multiplicity           Mult            ....    1
 Number of Electrons    NEL             ....   66
 Basis Dimension        Dim             ....  212

ORBITAL ENERGIES
----------------

  NO   OCC          E(Eh)            E(eV)
   0   2.0000     -88.318375     -2403.2652
   1   2.0000     -18.782153      -511.0884
   2   2.0000     -18.779835      -511.0253
   3   2.0000     -18.762387      -510.5505
   4   2.0000      -9.998277      -272.0669
   5   2.0000      -9.992012      -271.8965
   6   2.0000      -9.968050      -271.2444
   7   2.0000      -7.939992      -216.0582
   8   2.0000      -5.962383      -162.2447
   9   2.0000      -5.962143      -162.2382
  10   2.0000      -5.961959      -162.2332
  11   2.0000      -1.116163       -30.3723
  12   2.0000      -0.965256       -26.2660
  13   2.0000      -0.933841       -25.4111
  14   2.0000      -0.828321       -22.5398
  15   2.0000      -0.730598       -19.8806
  16   2.0000      -0.625795       -17.0288
  17   2.0000      -0.531440       -14.4612
  18   2.0000      -0.483748       -13.1635
  19   2.0000      -0.466700       -12.6996
  20   2.0000      -0.447285       -12.1712
  21   2.0000      -0.430373       -11.7110
  22   2.0000      -0.410170       -11.1613
  23   2.0000      -0.389067       -10.5870
  24   2.0000      -0.356847        -9.7103
  25   2.0000      -0.348846        -9.4926
  26   2.0000      -0.324845        -8.8395
  27   2.0000      -0.299795        -8.1578
  28   2.0000      -0.294197        -8.0055
  29   2.0000      -0.261012        -7.1025
  30   2.0000      -0.245196        -6.6721
  31   2.0000      -0.230554        -6.2737
  32   2.0000      -0.204270        -5.5585
  33   0.0000       0.202002         5.4968
  34   0.0000       0.220378         5.9968
  35   0.0000       0.224045         6.0966
  36   0.0000       0.229049         6.2327
  37   0.0000       0.247655         6.7390

MULLIKEN ATOMIC CHARGES
-----------------------
   0 C :    0.503030
   1 C :   -0.406415
   2 C :   -0.041404
   3 S :    1.153916
   4 H :    0.026262
   5 H :    0.101643
   6 O :   -0.768017
   7 O :   -0.791089
   8 H :    0.095832
   9 H :   -0.071723
  10 O :   -0.768118
  11 H :    0.005819
  12 H :    0.016282
  13 H :   -0.056018
Sum of atomic charges:   -1.0000000

LOEWDIN ATOMIC CHARGES
----------------------
   0 C :    0.076719
   1 C :   -0.113843
   2 C :   -0.111495
   3 S :    0.838546
   4 H :    0.011645
   5 H :    0.019908
   6 O :   -0.560962
   7 O :   -0.586340
   8 H :    0.025160
   9 H :    0.018363
  10 O :   -0.560820
  11 H :   -0.030007
  12 H :   -0.006259
  13 H :   -0.020616

  Mayer bond orders larger than 0.100000
B(  0-C ,  1-C ) :   1.3274 B(  0-C , 11-H ) :   0.8560 B(  0-C , 12-H ) :   0.8067
B(  0-C , 13-H ) :   0.7999 B(  1-C ,  2-C ) :   1.2665 B(  1-C ,  4-H ) :   0.1251
B(  1-C ,  5-H ) :   0.1158 B(  1-C ,  8-H ) :   0.9045 B(  1-C ,  9-H ) :   0.9262
B(  1-C , 11-H ) :   0.1654 B(  1-C , 12-H ) :   0.1677 B(  1-C , 13-H ) :   0.1844
B(  2-C ,  3-S ) :   0.9175 B(  2-C ,  4-H ) :   0.9326 B(  2-C ,  5-H ) :   0.9295
B(  3-S ,  6-O ) :   1.4363 B(  3-S ,  7-O ) :   1.2993 B(  3-S , 10-O ) :   1.3231

FINAL SINGLE POINT ENERGY      -740.723727095479

DIPOLE MOMENT
-------------
                                X             Y             Z
Electronic contribution:     -8.26451      -4.34806      -4.06224
Nuclear contribution   :      9.76868       5.90538       4.47074
                        -----------------------------------------
Total Dipole Moment    :      1.50417       1.55731       0.40850
                        -----------------------------------------
Magnitude (a.u.)       :      2.20333
Magnitude (Debye)      :      5.60041

Rotational constants in cm-1:     0.135183     0.058485     0.054837
Rotational constants in MHz :  4052.676901  1753.343161  1643.972690

                             ****ORCA TERMINATED NORMALLY****
TOTAL RUN TIME: 0 days 0 hours 0 minutes 25 seconds 644 msec
