                         Program Version 5.0.0 -  RELEASE  -
|  1> !LC-PBE RIJCOSX def2-SVPD def2/J TightSCF
|  2> *xyz 1 1
|  3> C          1.36401        0.46874       -2.81376
|  4> N          0.42884        0.32140       -1.65531
|  5> C          0.96805        1.63064       -3.71575
|  6> C         -0.50835        1.72268       -4.12430
|  7> H          0.74858       -0.40054       -1.00134
|  8> H         -0.46105        0.02333       -2.07773
|  9> H          0.31026        1.20137       -1.13495
| 10> H          1.29485       -0.46874       -3.36468
| 11> H          2.37622        0.59740       -2.43149
| 12> H          1.57869        1.52065       -4.61273
| 13> H          1.26665        2.57599       -3.25045
| 14> H         -0.65192        2.57663       -4.75283
| 15> H         -1.11549        1.81835       -3.24844
| 16> H         -0.78702        0.83723       -4.65648
| 17> *
| 18> %MaxCore 64000
| 19>
| 20> %pal nprocs 4
| 21> end
| 22>
| 23> %scf
| 24>   MaxIter 150
| 25> end
| 26>
| 27>
| 28>                          ****END OF INPUT****

CARTESIAN COORDINATES (ANGSTROEM)
---------------------------------
  C      1.364010    0.468740   -2.813760
  N      0.428840    0.321400   -1.655310
  C      0.968050    1.630640   -3.715750
  C     -0.508350    1.722680   -4.124300
  H      0.748580   -0.400540   -1.001340
  H     -0.461050    0.023330   -2.077730
  H      0.310260    1.201370   -1.134950
  H      1.294850   -0.468740   -3.364680
  H      2.376220    0.597400   -2.431490
  H      1.578690    1.520650   -4.612730
  H      1.266650    2.575990   -3.250450
  H     -0.651920    2.576630   -4.752830
  H     -1.115490    1.818350   -3.248440
  H     -0.787020    0.837230   -4.656480

 Total Charge           Charge          ....    1
 Multiplicity           Mult            ....    1
 Number of Electrons    NEL             ....   34
 Basis Dimension        Dim             ....  160

ORBITAL ENERGIES
----------------

  NO   OCC          E(Eh)            E(eV)
   0   2.0000     -14.559119      -396.1738
   1   2.0000     -10.376742      -282.3655
   2   2.0000     -10.306554      -280.4556
   3   2.0000     -10.277030      -279.6522
   4   2.0000      -1.376149       -37.4469
   5   2.0000      -1.144086       -31.1322
   6   2.0000      -1.049468       -28.5575
   7   2.0000      -0.956690       -26.0329
   8   2.0000      -0.941994       -25.6330
   9   2.0000      -0.922205       -25.0945
  10   2.0000      -0.827995       -22.5309
  11   2.0000      -0.780437       -21.2368
  12   2.0000      -0.749552       -20.3963
  13   2.0000      -0.723702       -19.6929
  14   2.0000      -0.664264       -18.0755
  15   2.0000      -0.653573       -17.7846
  16   2.0000      -0.639281       -17.3957
  17   0.0000      -0.104602        -2.8464
  18   0.0000      -0.048318        -1.3148
  19   0.0000      -0.044767        -1.2182
  20   0.0000      -0.039240        -1.0678
  21   0.0000      -0.011151        -0.3034

MULLIKEN ATOMIC CHARGES
-----------------------
   0 C :    0.344958
   1 N :   -0.703451
   2 C :   -0.478160
   3 C :    0.478074
   4 H :    0.326239
   5 H :    0.418608
   6 H :    0.401874
   7 H :    0.066908
   8 H :   -0.005738
   9 H :    0.090490
  10 H :    0.036480
  11 H :   -0.004372
  12 H :   -0.019630
  13 H :    0.047719
Sum of atomic charges:    1.0000000

LOEWDIN ATOMIC CHARGES
----------------------
   0 C :    0.065676
   1 N :    0.318590
   2 C :   -0.070698
   3 C :    0.114755
   4 H :    0.114043
   5 H :    0.097928
   6 H :    0.119531
   7 H :    0.064948
   8 H :    0.063284
   9 H :    0.054540
  10 H :    0.047207
  11 H :    0.017435
  12 H :   -0.015935
  13 H :    0.008696

  Mayer bond orders larger than 0.100000
B(  0-C ,  1-N ) :   0.8464 B(  0-C ,  2-C ) :   1.1946 B(  0-C ,  7-H ) :   0.8859
B(  0-C ,  8-H ) :   0.9668 B(  0-C ,  9-H ) :   0.1219 B(  1-N ,  4-H ) :   0.8211
B(  1-N ,  5-H ) :   0.7544 B(  1-N ,  6-H ) :   0.7806 B(  2-C ,  3-C ) :   1.3046
B(  2-C ,  9-H ) :   0.9134 B(  2-C , 10-H ) :   0.9766 B(  2-C , 11-H ) :   0.1688
B(  2-C , 12-H ) :   0.1345 B(  2-C , 13-H ) :   0.1496 B(  3-C , 11-H ) :   0.8648
B(  3-C , 12-H ) :   0.8646 B(  3-C , 13-H ) :   0.8451

FINAL SINGLE POINT ENERGY      -174.142373633469

DIPOLE MOMENT
-------------
                                X             Y             Z
Electronic contribution:      0.76587      -1.09406       1.97488
Nuclear contribution   :     -0.79558       0.15863      -0.24664
                        -----------------------------------------
Total Dipole Moment    :     -0.02971      -0.93543       1.72824
                        -----------------------------------------
Magnitude (a.u.)       :      1.96538
Magnitude (Debye)      :      4.99559

Rotational constants in cm-1:     0.425244     0.165801     0.135024
Rotational constants in MHz : 12748.492920  4970.589839  4047.903558

                             ****ORCA TERMINATED NORMALLY****
TOTAL RUN TIME: 0 days 0 hours 0 minutes 14 seconds 257 msec
