                         Program Version 5.0.0 -  RELEASE  -
|  1> !LC-PBE RIJCOSX def2-SVPD def2/J TightSCF
|  2> *xyz 0 1
|  3> C          1.36401        0.46874       -2.81376
|  4> C          0.96805        1.63064       -3.71575
|  5> C         -0.50835        1.72268       -4.12430
|  6> S         -1.32861        0.14674       -4.43578
|  7> H         -0.59151        2.29496       -5.04722
|  8> H         -1.11411        2.23561       -3.37436
|  9> F         -2.57135        0.47573       -5.06834
| 10> O         -1.51496       -0.40051       -3.06342
| 11> H          1.57869        1.52065       -4.61273
| 12> H          1.26665        2.57599       -3.25045
| 13> O         -0.37793       -0.62756       -5.20114
| 14> H          1.07115       -0.45339       -3.27071
| 15> H          0.87480        0.56905       -1.86745
| 16> H          2.42423        0.47442       -2.66954
| 17> *
| 18> %MaxCore 64000
| 19>
| 20> %pal nprocs 4
| 21> end
| 22>
| 23> %scf
| 24>   MaxIter 150
| 25> end
| 26>
| 27>
| 28>                          ****END OF INPUT****

CARTESIAN COORDINATES (ANGSTROEM)
---------------------------------
  C      1.364010    0.468740   -2.813760
  C      0.968050    1.630640   -3.715750
  C     -0.508350    1.722680   -4.124300
  S     -1.328610    0.146740   -4.435780
  H     -0.591510    2.294960   -5.047220
  H     -1.114110    2.235610   -3.374360
  F     -2.571350    0.475730   -5.068340
  O     -1.514960   -0.400510   -3.063420
  H      1.578690    1.520650   -4.612730
  H      1.266650    2.575990   -3.250450
  O     -0.377930   -0.627560   -5.201140
  H      1.071150   -0.453390   -3.270710
  H      0.874800    0.569050   -1.867450
  H      2.424230    0.474420   -2.669540

 Total Charge           Charge          ....    0
 Multiplicity           Mult            ....    1
 Number of Electrons    NEL             ....   66
 Basis Dimension        Dim             ....  212

ORBITAL ENERGIES
----------------

  NO   OCC          E(Eh)            E(eV)
   0   2.0000     -88.578016     -2410.3303
   1   2.0000     -24.639116      -670.4644
   2   2.0000     -19.012614      -517.3595
   3   2.0000     -18.995499      -516.8938
   4   2.0000     -10.192600      -277.3547
   5   2.0000     -10.156089      -276.3612
   6   2.0000     -10.111198      -275.1397
   7   2.0000      -8.200549      -223.1483
   8   2.0000      -6.227535      -169.4598
   9   2.0000      -6.220351      -169.2644
  10   2.0000      -6.219155      -169.2318
  11   2.0000      -1.553122       -42.2626
  12   2.0000      -1.283417       -34.9235
  13   2.0000      -1.168411       -31.7941
  14   2.0000      -1.004447       -27.3324
  15   2.0000      -0.926375       -25.2080
  16   2.0000      -0.873468       -23.7683
  17   2.0000      -0.800054       -21.7706
  18   2.0000      -0.756179       -20.5767
  19   2.0000      -0.738205       -20.0876
  20   2.0000      -0.707028       -19.2392
  21   2.0000      -0.645632       -17.5686
  22   2.0000      -0.633360       -17.2346
  23   2.0000      -0.603754       -16.4290
  24   2.0000      -0.596413       -16.2292
  25   2.0000      -0.560045       -15.2396
  26   2.0000      -0.533694       -14.5225
  27   2.0000      -0.511097       -13.9076
  28   2.0000      -0.498285       -13.5590
  29   2.0000      -0.483466       -13.1558
  30   2.0000      -0.466401       -12.6914
  31   2.0000      -0.450078       -12.2473
  32   2.0000      -0.444139       -12.0856
  33   0.0000       0.062019         1.6876
  34   0.0000       0.083880         2.2825
  35   0.0000       0.090132         2.4526
  36   0.0000       0.096248         2.6190
  37   0.0000       0.118260         3.2180

MULLIKEN ATOMIC CHARGES
-----------------------
   0 C :    0.508242
   1 C :   -0.416179
   2 C :   -0.091095
   3 S :    1.361004
   4 H :    0.089332
   5 H :    0.160298
   6 F :   -0.406713
   7 O :   -0.652009
   8 H :    0.122210
   9 H :   -0.031307
  10 O :   -0.629639
  11 H :   -0.016296
  12 H :    0.032043
  13 H :   -0.029889
Sum of atomic charges:   -0.0000000

LOEWDIN ATOMIC CHARGES
----------------------
   0 C :    0.098227
   1 C :   -0.083379
   2 C :   -0.074957
   3 S :    1.101504
   4 H :    0.027742
   5 H :    0.037310
   6 F :   -0.234911
   7 O :   -0.479230
   8 H :    0.039910
   9 H :    0.043462
  10 O :   -0.455912
  11 H :   -0.024631
  12 H :    0.004428
  13 H :    0.000439

  Mayer bond orders larger than 0.100000
B(  0-C ,  1-C ) :   1.3396 B(  0-C , 11-H ) :   0.8586 B(  0-C , 12-H ) :   0.8085
B(  0-C , 13-H ) :   0.8086 B(  1-C ,  2-C ) :   1.3166 B(  1-C ,  4-H ) :   0.1334
B(  1-C ,  5-H ) :   0.1073 B(  1-C ,  8-H ) :   0.8994 B(  1-C ,  9-H ) :   0.9289
B(  1-C , 11-H ) :   0.1512 B(  1-C , 12-H ) :   0.1614 B(  1-C , 13-H ) :   0.1767
B(  2-C ,  3-S ) :   0.9507 B(  2-C ,  4-H ) :   0.8905 B(  2-C ,  5-H ) :   0.9134
B(  3-S ,  6-F ) :   0.7563 B(  3-S ,  7-O ) :   1.5014 B(  3-S , 10-O ) :   1.5227

FINAL SINGLE POINT ENERGY      -765.171311401057

DIPOLE MOMENT
-------------
                                X             Y             Z
Electronic contribution:    -11.76777      -4.22542      -5.82969
Nuclear contribution   :     11.77809       5.83971       5.48704
                        -----------------------------------------
Total Dipole Moment    :      0.01031       1.61429      -0.34265
                        -----------------------------------------
Magnitude (a.u.)       :      1.65029
Magnitude (Debye)      :      4.19470

Rotational constants in cm-1:     0.133968     0.056186     0.052650
Rotational constants in MHz :  4016.256208  1684.422248  1578.415210

                             ****ORCA TERMINATED NORMALLY****
TOTAL RUN TIME: 0 days 0 hours 0 minutes 27 seconds 783 msec
