                         Program Version 5.0.0 -  RELEASE  -
|  1> !LC-PBE RIJCOSX def2-SVPD def2/J TightSCF
|  2> *xyz 0 1
|  3> C          1.36401        0.46874       -2.81376
|  4> C          0.42884        0.32140       -1.65531
|  5> C          0.96805        1.63064       -3.71575
|  6> C         -0.50835        1.72268       -4.12430
|  7> H          0.74858       -0.40054       -1.00134
|  8> H         -0.46105        0.02333       -2.07773
|  9> H          0.31026        1.20137       -1.13495
| 10> H          1.29485       -0.46874       -3.36468
| 11> H          2.37622        0.59740       -2.43149
| 12> H          1.57869        1.52065       -4.61273
| 13> H          1.26665        2.57599       -3.25045
| 14> H         -0.65192        2.57663       -4.75283
| 15> H         -1.11549        1.81835       -3.24844
| 16> H         -0.78702        0.83723       -4.65648
| 17> *
| 18> %MaxCore 64000
| 19>
| 20> %pal nprocs 4
| 21> end
| 22>
| 23> %scf
| 24>   MaxIter 150
| 25> end
| 26>
| 27>
| 28>                          ****END OF INPUT****

CARTESIAN COORDINATES (ANGSTROEM)
---------------------------------
  C      1.364010    0.468740   -2.813760
  C      0.428840    0.321400   -1.655310
  C      0.968050    1.630640   -3.715750
  C     -0.508350    1.722680   -4.124300
  H      0.748580   -0.400540   -1.001340
  H     -0.461050    0.023330   -2.077730
  H      0.310260    1.201370   -1.134950
  H      1.294850   -0.468740   -3.364680
  H      2.376220    0.597400   -2.431490
  H      1.578690    1.520650   -4.612730
  H      1.266650    2.575990   -3.250450
  H     -0.651920    2.576630   -4.752830
  H     -1.115490    1.818350   -3.248440
  H     -0.787020    0.837230   -4.656480

 Total Charge           Charge          ....    0
 Multiplicity           Mult            ....    1
 Number of Electrons    NEL             ....   34
 Basis Dimension        Dim             ....  160

ORBITAL ENERGIES
----------------

  NO   OCC          E(Eh)            E(eV)
   0   2.0000     -10.116802      -275.2922
   1   2.0000     -10.113149      -275.1928
   2   2.0000     -10.106428      -275.0099
   3   2.0000     -10.086581      -274.4698
   4   2.0000      -0.977603       -26.6019
   5   2.0000      -0.894297       -24.3351
   6   2.0000      -0.808133       -21.9904
   7   2.0000      -0.714131       -19.4325
   8   2.0000      -0.618245       -16.8233
   9   2.0000      -0.609610       -16.5883
  10   2.0000      -0.566088       -15.4040
  11   2.0000      -0.523602       -14.2479
  12   2.0000      -0.520040       -14.1510
  13   2.0000      -0.497929       -13.5493
  14   2.0000      -0.454764       -12.3748
  15   2.0000      -0.444278       -12.0894
  16   2.0000      -0.442827       -12.0499
  17   0.0000       0.093826         2.5531
  18   0.0000       0.119166         3.2427
  19   0.0000       0.119217         3.2440
  20   0.0000       0.134892         3.6706
  21   0.0000       0.168791         4.5930

MULLIKEN ATOMIC CHARGES
-----------------------
   0 C :   -0.398903
   1 C :    0.708466
   2 C :   -0.447317
   3 C :    0.419628
   4 H :   -0.227045
   5 H :   -0.018795
   6 H :   -0.101368
   7 H :    0.052435
   8 H :   -0.046406
   9 H :   -0.010435
  10 H :    0.055672
  11 H :   -0.044723
  12 H :    0.026938
  13 H :    0.031853
Sum of atomic charges:   -0.0000000

LOEWDIN ATOMIC CHARGES
----------------------
   0 C :   -0.103285
   1 C :    0.087261
   2 C :   -0.105640
   3 C :    0.090757
   4 H :   -0.023590
   5 H :   -0.028576
   6 H :   -0.012993
   7 H :    0.035318
   8 H :    0.032295
   9 H :    0.023913
  10 H :    0.032858
  11 H :   -0.008397
  12 H :   -0.016746
  13 H :   -0.003175

  Mayer bond orders larger than 0.100000
B(  0-C ,  1-C ) :   1.2969 B(  0-C ,  2-C ) :   1.1916 B(  0-C ,  4-H ) :   0.1813
B(  0-C ,  5-H ) :   0.2098 B(  0-C ,  6-H ) :   0.1903 B(  0-C ,  7-H ) :   0.8989
B(  0-C ,  8-H ) :   0.9804 B(  0-C ,  9-H ) :   0.1148 B(  0-C , 10-H ) :   0.1006
B(  1-C ,  4-H ) :   0.8141 B(  1-C ,  5-H ) :   0.7867 B(  1-C ,  6-H ) :   0.7808
B(  2-C ,  3-C ) :   1.3105 B(  2-C ,  7-H ) :   0.1071 B(  2-C ,  9-H ) :   0.9577
B(  2-C , 10-H ) :   0.9415 B(  2-C , 11-H ) :   0.1778 B(  2-C , 12-H ) :   0.1461
B(  2-C , 13-H ) :   0.1530 B(  3-C , 11-H ) :   0.8403 B(  3-C , 12-H ) :   0.8726
B(  3-C , 13-H ) :   0.8473

FINAL SINGLE POINT ENERGY      -157.760982639226

DIPOLE MOMENT
-------------
                                X             Y             Z
Electronic contribution:      0.84832       0.05366      -0.19227
Nuclear contribution   :     -0.83100      -0.05970       0.18742
                        -----------------------------------------
Total Dipole Moment    :      0.01732      -0.00603      -0.00485
                        -----------------------------------------
Magnitude (a.u.)       :      0.01897
Magnitude (Debye)      :      0.04822

Rotational constants in cm-1:     0.433656     0.172838     0.140497
Rotational constants in MHz : 13000.688694  5181.547473  4211.992439

                             ****ORCA TERMINATED NORMALLY****
TOTAL RUN TIME: 0 days 0 hours 0 minutes 13 seconds 175 msec
