                         Program Version 5.0.0 -  RELEASE  -
|  1> !LC-PBE RIJCOSX def2-SVPD def2/J TightSCF
|  2> *xyz 0 1
|  3> C          1.36401        0.46874       -2.81376
|  4> C          0.96805        1.63064       -3.71575
|  5> C         -0.50835        1.72268       -4.12430
|  6> S         -1.32861        0.14674       -4.43578
|  7> H         -0.59151        2.29496       -5.04722
|  8> H         -1.11411        2.23561       -3.37436
|  9> O         -2.57135        0.47573       -5.06834
| 10> F         -1.51496       -0.40051       -3.06342
| 11> H          1.57869        1.52065       -4.61273
| 12> H          1.26665        2.57599       -3.25045
| 13> O         -0.37793       -0.62756       -5.20114
| 14> H          1.07115       -0.45339       -3.27071
| 15> H          0.87480        0.56905       -1.86745
| 16> H          2.42423        0.47442       -2.66954
| 17> *
| 18> %MaxCore 64000
| 19>
| 20> %pal nprocs 4
| 21> end
| 22>
| 23> %scf
| 24>   MaxIter 150
| 25> end
| 26>
| 27>
| 28>                          ****END OF INPUT****

CARTESIAN COORDINATES (ANGSTROEM)
---------------------------------
  C      1.364010    0.468740   -2.813760
  C      0.968050    1.630640   -3.715750
  C     -0.508350    1.722680   -4.124300
  S     -1.328610    0.146740   -4.435780
  H     -0.591510    2.294960   -5.047220
  H     -1.114110    2.235610   -3.374360
  O     -2.571350    0.475730   -5.068340
  F     -1.514960   -0.400510   -3.063420
  H      1.578690    1.520650   -4.612730
  H      1.266650    2.575990   -3.250450
  O     -0.377930   -0.627560   -5.201140
  H      1.071150   -0.453390   -3.270710
  H      0.874800    0.569050   -1.867450
  H      2.424230    0.474420   -2.669540

 Total Charge           Charge          ....    0
 Multiplicity           Mult            ....    1
 Number of Electrons    NEL             ....   66
 Basis Dimension        Dim             ....  212

ORBITAL ENERGIES
----------------

  NO   OCC          E(Eh)            E(eV)
   0   2.0000     -88.575159     -2410.2526
   1   2.0000     -24.609361      -669.6548
   2   2.0000     -19.014859      -517.4206
   3   2.0000     -19.011043      -517.3168
   4   2.0000     -10.191470      -277.3240
   5   2.0000     -10.158231      -276.4195
   6   2.0000     -10.126334      -275.5515
   7   2.0000      -8.197432      -223.0635
   8   2.0000      -6.224367      -169.3736
   9   2.0000      -6.217464      -169.1858
  10   2.0000      -6.216205      -169.1515
  11   2.0000      -1.505673       -40.9714
  12   2.0000      -1.295886       -35.2628
  13   2.0000      -1.194378       -32.5007
  14   2.0000      -1.009461       -27.4688
  15   2.0000      -0.920139       -25.0382
  16   2.0000      -0.860602       -23.4182
  17   2.0000      -0.798034       -21.7156
  18   2.0000      -0.724900       -19.7255
  19   2.0000      -0.722117       -19.6498
  20   2.0000      -0.703383       -19.1400
  21   2.0000      -0.653440       -17.7810
  22   2.0000      -0.624983       -17.0067
  23   2.0000      -0.610480       -16.6120
  24   2.0000      -0.599614       -16.3163
  25   2.0000      -0.577243       -15.7076
  26   2.0000      -0.544448       -14.8152
  27   2.0000      -0.518262       -14.1026
  28   2.0000      -0.515455       -14.0262
  29   2.0000      -0.486332       -13.2338
  30   2.0000      -0.483178       -13.1479
  31   2.0000      -0.463658       -12.6168
  32   2.0000      -0.456969       -12.4348
  33   0.0000       0.067151         1.8273
  34   0.0000       0.085883         2.3370
  35   0.0000       0.092423         2.5149
  36   0.0000       0.094364         2.5678
  37   0.0000       0.121054         3.2941

MULLIKEN ATOMIC CHARGES
-----------------------
   0 C :    0.497848
   1 C :   -0.369474
   2 C :   -0.091107
   3 S :    1.309710
   4 H :    0.087890
   5 H :    0.154535
   6 O :   -0.631256
   7 F :   -0.369738
   8 H :    0.126811
   9 H :   -0.027775
  10 O :   -0.639660
  11 H :   -0.039772
  12 H :    0.015869
  13 H :   -0.023882
Sum of atomic charges:   -0.0000000

LOEWDIN ATOMIC CHARGES
----------------------
   0 C :    0.094031
   1 C :   -0.093027
   2 C :   -0.064191
   3 S :    1.089619
   4 H :    0.042279
   5 H :    0.036816
   6 O :   -0.450165
   7 F :   -0.259089
   8 H :    0.040864
   9 H :    0.041032
  10 O :   -0.453691
  11 H :   -0.028433
  12 H :    0.000941
  13 H :    0.003014

  Mayer bond orders larger than 0.100000
B(  0-C ,  1-C ) :   1.3356 B(  0-C , 11-H ) :   0.8678 B(  0-C , 12-H ) :   0.8116
B(  0-C , 13-H ) :   0.8194 B(  1-C ,  2-C ) :   1.3007 B(  1-C ,  4-H ) :   0.1158
B(  1-C ,  5-H ) :   0.1089 B(  1-C ,  8-H ) :   0.9044 B(  1-C ,  9-H ) :   0.9256
B(  1-C , 11-H ) :   0.1472 B(  1-C , 12-H ) :   0.1579 B(  1-C , 13-H ) :   0.1745
B(  2-C ,  3-S ) :   0.9818 B(  2-C ,  4-H ) :   0.9126 B(  2-C ,  5-H ) :   0.9183
B(  3-S ,  6-O ) :   1.6438 B(  3-S ,  7-F ) :   0.6611 B(  3-S , 10-O ) :   1.5557

FINAL SINGLE POINT ENERGY      -765.196774909428

DIPOLE MOMENT
-------------
                                X             Y             Z
Electronic contribution:     -9.87025      -5.73569      -2.31341
Nuclear contribution   :     10.64200       6.78206       3.33086
                        -----------------------------------------
Total Dipole Moment    :      0.77175       1.04637       1.01745
                        -----------------------------------------
Magnitude (a.u.)       :      1.65097
Magnitude (Debye)      :      4.19642

Rotational constants in cm-1:     0.128573     0.057881     0.053975
Rotational constants in MHz :  3854.523324  1735.233387  1618.120420

                             ****ORCA TERMINATED NORMALLY****
TOTAL RUN TIME: 0 days 0 hours 0 minutes 25 seconds 692 msec
