                         Program Version 5.0.0 -  RELEASE  -
|  1> !LC-PBE RIJCOSX def2-SVPD def2/J TightSCF
|  2> *xyz 0 1
|  3> C          1.36401        0.46874       -2.81376
|  4> C          0.96805        1.63064       -3.71575
|  5> C         -0.50835        1.72268       -4.12430
|  6> S         -1.32861        0.14674       -4.43578
|  7> H         -0.59151        2.29496       -5.04722
|  8> H         -1.11411        2.23561       -3.37436
|  9> O         -2.57135        0.47573       -5.06834
| 10> O         -1.51496       -0.40051       -3.06342
| 11> H          1.57869        1.52065       -4.61273
| 12> H          1.26665        2.57599       -3.25045
| 13> F         -0.37793       -0.62756       -5.20114
| 14> H          1.07115       -0.45339       -3.27071
| 15> H          0.87480        0.56905       -1.86745
| 16> H          2.42423        0.47442       -2.66954
| 17> *
| 18> %MaxCore 64000
| 19>
| 20> %pal nprocs 4
| 21> end
| 22>
| 23> %scf
| 24>   MaxIter 150
| 25> end
| 26>
| 27>
| 28>                          ****END OF INPUT****

CARTESIAN COORDINATES (ANGSTROEM)
---------------------------------
  C      1.364010    0.468740   -2.813760
  C      0.968050    1.630640   -3.715750
  C     -0.508350    1.722680   -4.124300
  S     -1.328610    0.146740   -4.435780
  H     -0.591510    2.294960   -5.047220
  H     -1.114110    2.235610   -3.374360
  O     -2.571350    0.475730   -5.068340
  O     -1.514960   -0.400510   -3.063420
  H      1.578690    1.520650   -4.612730
  H      1.266650    2.575990   -3.250450
  F     -0.377930   -0.627560   -5.201140
  H      1.071150   -0.453390   -3.270710
  H      0.874800    0.569050   -1.867450
  H      2.424230    0.474420   -2.669540

 Total Charge           Charge          ....    0
 Multiplicity           Mult            ....    1
 Number of Electrons    NEL             ....   66
 Basis Dimension        Dim             ....  212

ORBITAL ENERGIES
----------------

  NO   OCC          E(Eh)            E(eV)
   0   2.0000     -88.576623     -2410.2924
   1   2.0000     -24.633130      -670.3015
   2   2.0000     -19.014960      -517.4234
   3   2.0000     -18.993742      -516.8460
   4   2.0000     -10.191998      -277.3384
   5   2.0000     -10.161473      -276.5077
   6   2.0000     -10.125097      -275.5179
   7   2.0000      -8.199082      -223.1084
   8   2.0000      -6.226291      -169.4260
   9   2.0000      -6.218799      -169.2221
  10   2.0000      -6.217626      -169.1902
  11   2.0000      -1.542644       -41.9775
  12   2.0000      -1.287225       -35.0272
  13   2.0000      -1.170360       -31.8471
  14   2.0000      -1.010904       -27.5081
  15   2.0000      -0.922978       -25.1155
  16   2.0000      -0.876152       -23.8413
  17   2.0000      -0.802457       -21.8360
  18   2.0000      -0.750551       -20.4235
  19   2.0000      -0.748108       -20.3571
  20   2.0000      -0.696620       -18.9560
  21   2.0000      -0.646066       -17.5804
  22   2.0000      -0.630408       -17.1543
  23   2.0000      -0.614327       -16.7167
  24   2.0000      -0.593039       -16.1374
  25   2.0000      -0.571809       -15.5597
  26   2.0000      -0.537164       -14.6170
  27   2.0000      -0.522203       -14.2099
  28   2.0000      -0.514012       -13.9870
  29   2.0000      -0.487427       -13.2636
  30   2.0000      -0.469384       -12.7726
  31   2.0000      -0.452675       -12.3179
  32   2.0000      -0.442062       -12.0291
  33   0.0000       0.061755         1.6804
  34   0.0000       0.084857         2.3091
  35   0.0000       0.092846         2.5265
  36   0.0000       0.093968         2.5570
  37   0.0000       0.119976         3.2647

MULLIKEN ATOMIC CHARGES
-----------------------
   0 C :    0.531690
   1 C :   -0.390535
   2 C :   -0.079755
   3 S :    1.299839
   4 H :    0.079601
   5 H :    0.163725
   6 O :   -0.620942
   7 O :   -0.652916
   8 H :    0.098613
   9 H :   -0.035017
  10 F :   -0.363735
  11 H :   -0.036045
  12 H :    0.031482
  13 H :   -0.026004
Sum of atomic charges:   -0.0000000

LOEWDIN ATOMIC CHARGES
----------------------
   0 C :    0.093859
   1 C :   -0.097366
   2 C :   -0.062452
   3 S :    1.092967
   4 H :    0.031133
   5 H :    0.050093
   6 O :   -0.449921
   7 O :   -0.478060
   8 H :    0.034508
   9 H :    0.042431
  10 F :   -0.238588
  11 H :   -0.027550
  12 H :    0.007789
  13 H :    0.001157

  Mayer bond orders larger than 0.100000
B(  0-C ,  1-C ) :   1.3332 B(  0-C , 11-H ) :   0.8561 B(  0-C , 12-H ) :   0.8140
B(  0-C , 13-H ) :   0.8101 B(  1-C ,  2-C ) :   1.2687 B(  1-C ,  4-H ) :   0.1213
B(  1-C ,  5-H ) :   0.1132 B(  1-C ,  8-H ) :   0.9142 B(  1-C ,  9-H ) :   0.9305
B(  1-C , 11-H ) :   0.1504 B(  1-C , 12-H ) :   0.1684 B(  1-C , 13-H ) :   0.1771
B(  2-C ,  3-S ) :   0.9892 B(  2-C ,  4-H ) :   0.9299 B(  2-C ,  5-H ) :   0.9094
B(  3-S ,  6-O ) :   1.6422 B(  3-S ,  7-O ) :   1.5311 B(  3-S , 10-F ) :   0.7051

FINAL SINGLE POINT ENERGY      -765.175574465549

DIPOLE MOMENT
-------------
                                X             Y             Z
Electronic contribution:     -7.90652      -6.10653      -6.00333
Nuclear contribution   :      9.41919       7.02624       5.62986
                        -----------------------------------------
Total Dipole Moment    :      1.51267       0.91971      -0.37348
                        -----------------------------------------
Magnitude (a.u.)       :      1.80929
Magnitude (Debye)      :      4.59884

Rotational constants in cm-1:     0.128702     0.057313     0.054552
Rotational constants in MHz :  3858.395793  1718.208003  1635.420361

                             ****ORCA TERMINATED NORMALLY****
TOTAL RUN TIME: 0 days 0 hours 0 minutes 26 seconds 7 msec
