                         Program Version 5.0.0 -  RELEASE  -
|  1> !B3LYP D3BJ RIJCOSX def2-SVP def2/J TightSCF
|  2> *xyz -1 1
|  3> C         -0.91495        0.61511        2.50554
|  4> C         -0.05915        1.50352        3.41058
|  5> H          0.36536        2.34431        2.86116
|  6> H         -0.69226        1.92021        4.19898
|  7> C          1.08303        0.74964        4.08571
|  8> O          2.22817        1.26348        4.01983
|  9> O          0.81003       -0.34541        4.63627
| 10> H         -0.30401        0.20228        1.73015
| 11> H         -1.69811        1.19946        2.06954
| 12> H         -1.34124       -0.17772        3.08397
| 13> *
| 14>
| 15> %MaxCore 64000
| 16>
| 17> %pal nprocs 4
| 18> end
| 19>
| 20> %scf
| 21>   MaxIter 150
| 22> end
| 23>
| 24>
| 25>                          ****END OF INPUT****

CARTESIAN COORDINATES (ANGSTROEM)
---------------------------------
  C     -0.914950    0.615110    2.505540
  C     -0.059150    1.503520    3.410580
  H      0.365360    2.344310    2.861160
  H     -0.692260    1.920210    4.198980
  C      1.083030    0.749640    4.085710
  O      2.228170    1.263480    4.019830
  O      0.810030   -0.345410    4.636270
  H     -0.304010    0.202280    1.730150
  H     -1.698110    1.199460    2.069540
  H     -1.341240   -0.177720    3.083970

 Total Charge           Charge          ....   -1
 Multiplicity           Mult            ....    1
 Number of Electrons    NEL             ....   40
 Basis Dimension        Dim             ....   95

ORBITAL ENERGIES
----------------

  NO   OCC          E(Eh)            E(eV)
   0   2.0000     -18.831226      -512.4237
   1   2.0000     -18.829128      -512.3666
   2   2.0000     -10.031872      -272.9811
   3   2.0000     -10.010119      -272.3892
   4   2.0000      -9.989381      -271.8249
   5   2.0000      -0.771502       -20.9936
   6   2.0000      -0.678161       -18.4537
   7   2.0000      -0.582065       -15.8388
   8   2.0000      -0.451344       -12.2817
   9   2.0000      -0.296345        -8.0639
  10   2.0000      -0.277237        -7.5440
  11   2.0000      -0.234178        -6.3723
  12   2.0000      -0.207949        -5.6586
  13   2.0000      -0.193815        -5.2740
  14   2.0000      -0.179074        -4.8728
  15   2.0000      -0.147834        -4.0228
  16   2.0000      -0.132827        -3.6144
  17   2.0000      -0.009917        -0.2699
  18   2.0000      -0.006540        -0.1780
  19   2.0000       0.010386         0.2826
  20   0.0000       0.216499         5.8912
  21   0.0000       0.265986         7.2378
  22   0.0000       0.278381         7.5751
  23   0.0000       0.283714         7.7202
  24   0.0000       0.289307         7.8724

MULLIKEN ATOMIC CHARGES
-----------------------
   0 C :    0.055897
   1 C :    0.044294
   2 H :   -0.072597
   3 H :   -0.056508
   4 C :    0.005171
   5 O :   -0.426652
   6 O :   -0.431790
   7 H :   -0.028685
   8 H :   -0.067651
   9 H :   -0.021478
Sum of atomic charges:   -1.0000000

LOEWDIN ATOMIC CHARGES
----------------------
   0 C :   -0.055483
   1 C :   -0.084764
   2 H :   -0.009283
   3 H :    0.000154
   4 C :   -0.057600
   5 O :   -0.394096
   6 O :   -0.397438
   7 H :    0.005707
   8 H :   -0.012714
   9 H :    0.005517

  Mayer bond orders larger than 0.100000
B(  0-C ,  1-C ) :   1.0936 B(  0-C ,  7-H ) :   0.9710 B(  0-C ,  8-H ) :   0.9545
B(  0-C ,  9-H ) :   0.9566 B(  1-C ,  2-H ) :   0.9274 B(  1-C ,  3-H ) :   0.9255
B(  1-C ,  4-C ) :   0.9204 B(  4-C ,  5-O ) :   1.8743 B(  4-C ,  6-O ) :   1.8384
B(  5-O ,  6-O ) :   0.1173

Dispersion correction           -0.010966401
FINAL SINGLE POINT ENERGY      -267.479641234711

DIPOLE MOMENT
-------------
                                X             Y             Z
Electronic contribution:      4.94361      -1.10259       3.49256
Nuclear contribution   :     -6.38408       1.63097      -4.40540
                        -----------------------------------------
Total Dipole Moment    :     -1.44046       0.52837      -0.91284
                        -----------------------------------------
Magnitude (a.u.)       :      1.78533
Magnitude (Debye)      :      4.53794

Rotational constants in cm-1:     0.319732     0.134414     0.104753
Rotational constants in MHz :  9585.336550  4029.633034  3140.404334

                             ****ORCA TERMINATED NORMALLY****
TOTAL RUN TIME: 0 days 0 hours 0 minutes 10 seconds 993 msec
