                         Program Version 5.0.0 -  RELEASE  -
|  1> !B3LYP D3BJ RIJCOSX def2-SVP def2/J TightSCF
|  2> *xyz 1 1
|  3> C          4.60295       -2.44010        2.63478
|  4> C          3.86085       -1.59157        3.62289
|  5> N          2.75650       -2.04616        4.16633
|  6> N          4.25433       -0.36291        3.86046
|  7> H          3.56526        0.31099        4.16898
|  8> H          5.05429       -0.01606        3.33784
|  9> H          2.43970       -2.97389        3.89740
| 10> H          2.06687       -1.41253        4.54981
| 11> C          3.74469       -2.58056        1.36188
| 12> H          5.56156       -1.97135        2.40708
| 13> H          4.81050       -3.42255        3.06310
| 14> H          4.26314       -3.18477        0.64702
| 15> H          3.56325       -1.61180        0.94535
| 16> H          2.81197       -3.04259        1.60980
| 17> *
| 18>
| 19> %MaxCore 64000
| 20>
| 21> %pal nprocs 4
| 22> end
| 23>
| 24> %scf
| 25>   MaxIter 150
| 26> end
| 27>
| 28>
| 29>                          ****END OF INPUT****

CARTESIAN COORDINATES (ANGSTROEM)
---------------------------------
  C      4.602950   -2.440100    2.634780
  C      3.860850   -1.591570    3.622890
  N      2.756500   -2.046160    4.166330
  N      4.254330   -0.362910    3.860460
  H      3.565260    0.310990    4.168980
  H      5.054290   -0.016060    3.337840
  H      2.439700   -2.973890    3.897400
  H      2.066870   -1.412530    4.549810
  C      3.744690   -2.580560    1.361880
  H      5.561560   -1.971350    2.407080
  H      4.810500   -3.422550    3.063100
  H      4.263140   -3.184770    0.647020
  H      3.563250   -1.611800    0.945350
  H      2.811970   -3.042590    1.609800

 Total Charge           Charge          ....    1
 Multiplicity           Mult            ....    1
 Number of Electrons    NEL             ....   40
 Basis Dimension        Dim             ....  115

ORBITAL ENERGIES
----------------

  NO   OCC          E(Eh)            E(eV)
   0   2.0000     -14.575100      -396.6086
   1   2.0000     -14.574408      -396.5898
   2   2.0000     -10.503360      -285.8110
   3   2.0000     -10.384097      -282.5656
   4   2.0000     -10.345899      -281.5262
   5   2.0000      -1.199232       -32.6327
   6   2.0000      -1.101548       -29.9746
   7   2.0000      -0.964407       -26.2428
   8   2.0000      -0.855723       -23.2854
   9   2.0000      -0.813535       -22.1374
  10   2.0000      -0.773184       -21.0394
  11   2.0000      -0.750323       -20.4173
  12   2.0000      -0.699119       -19.0240
  13   2.0000      -0.662793       -18.0355
  14   2.0000      -0.625152       -17.0113
  15   2.0000      -0.601309       -16.3625
  16   2.0000      -0.549879       -14.9630
  17   2.0000      -0.543664       -14.7939
  18   2.0000      -0.531452       -14.4615
  19   2.0000      -0.494639       -13.4598
  20   0.0000      -0.211339        -5.7508
  21   0.0000      -0.146286        -3.9806
  22   0.0000      -0.101456        -2.7608
  23   0.0000      -0.100711        -2.7405
  24   0.0000      -0.070422        -1.9163

MULLIKEN ATOMIC CHARGES
-----------------------
   0 C :    0.038824
   1 C :   -0.109825
   2 N :    0.038085
   3 N :    0.044098
   4 H :    0.167658
   5 H :    0.179478
   6 H :    0.177145
   7 H :    0.169304
   8 C :    0.032817
   9 H :    0.046193
  10 H :    0.078608
  11 H :    0.073900
  12 H :    0.037440
  13 H :    0.026275
Sum of atomic charges:    1.0000000

LOEWDIN ATOMIC CHARGES
----------------------
   0 C :   -0.022727
   1 C :    0.145212
   2 N :    0.102408
   3 N :    0.103799
   4 H :    0.111254
   5 H :    0.120078
   6 H :    0.118517
   7 H :    0.111960
   8 C :   -0.013771
   9 H :    0.049801
  10 H :    0.060874
  11 H :    0.052433
  12 H :    0.034213
  13 H :    0.025949

  Mayer bond orders larger than 0.100000
B(  0-C ,  1-C ) :   1.0403 B(  0-C ,  8-C ) :   1.0732 B(  0-C ,  9-H ) :   0.9184
B(  0-C , 10-H ) :   0.9164 B(  1-C ,  2-N ) :   1.5107 B(  1-C ,  3-N ) :   1.5158
B(  2-N ,  6-H ) :   0.9242 B(  2-N ,  7-H ) :   0.9305 B(  3-N ,  4-H ) :   0.9301
B(  3-N ,  5-H ) :   0.9202 B(  8-C , 11-H ) :   0.9597 B(  8-C , 12-H ) :   0.9663
B(  8-C , 13-H ) :   0.9722

Dispersion correction           -0.016931780
FINAL SINGLE POINT ENERGY      -228.730367065423

DIPOLE MOMENT
-------------
                                X             Y             Z
Electronic contribution:     -0.26710       1.82943       3.76355
Nuclear contribution   :     -0.22400      -1.16268      -3.30447
                        -----------------------------------------
Total Dipole Moment    :     -0.49110       0.66675       0.45908
                        -----------------------------------------
Magnitude (a.u.)       :      0.94683
Magnitude (Debye)      :      2.40665

Rotational constants in cm-1:     0.258103     0.130571     0.102508
Rotational constants in MHz :  7737.732062  3914.431392  3073.119154

                             ****ORCA TERMINATED NORMALLY****
TOTAL RUN TIME: 0 days 0 hours 0 minutes 13 seconds 643 msec
