                         Program Version 5.0.0 -  RELEASE  -
|  1> !B3LYP D3BJ RIJCOSX def2-TZVP def2/J TightSCF xyzfile
|  2>
|  3> *xyzfile 0 1 B.xyz
|  4>
|  5> %MaxCore 64000
|  6>
|  7> %pal nprocs 18
|  8> end
|  9>
| 10> %scf
| 11>   MaxIter 150
| 12> end
| 13>
| 14>
| 15>                          ****END OF INPUT****

CARTESIAN COORDINATES (ANGSTROEM)
---------------------------------
  C      4.602954   -2.440100    2.634780
  C     -0.914947    0.615112    2.505538
  C     -0.059146    1.503524    3.410578
  H      0.365364    2.344315    2.861161
  H     -0.692261    1.920207    4.198985
  C      1.083027    0.749640    4.085705
  C      3.860851   -1.591565    3.622893
  N      2.756502   -2.046159    4.166333
  N      4.254325   -0.362905    3.860455
  H      3.565256    0.310994    4.168983
  H      5.054292   -0.016059    3.337838
  H      2.439696   -2.973894    3.897395
  H      2.066869   -1.412532    4.549813
  O      2.228167    1.263475    4.019826
  O      0.810034   -0.345411    4.636269
  C      3.744685   -2.580557    1.361882
  C      0.772139    0.636882    0.562129
  C     -0.130740   -0.193985    1.470763
  H     -0.840563   -0.760165    0.856377
  H      0.466691   -0.938942    2.006959
  H     -1.647961    1.245963    1.991076
  H     -1.478180   -0.081046    3.130424
  C      3.203721   -1.256004    0.826211
  H      2.898939   -3.239289    1.583074
  H      4.334962   -3.095523    0.600188
  C      2.107815   -1.442385   -0.216865
  H      2.786775   -0.672760    1.650711
  H      4.021008   -0.652993    0.414046
  C      1.390662   -0.145912   -0.602422
  H      1.372179   -2.152184    0.176151
  H      2.523302   -1.906787   -1.117115
  H      1.561361    1.100094    1.161831
  H      0.195516    1.468325    0.142758
  H      0.602893   -0.398214   -1.319716
  H      2.087247    0.508272   -1.137335
  H      5.561557   -1.971347    2.407084
  H      4.810498   -3.422552    3.063099

 Total Charge           Charge          ....    0
 Multiplicity           Mult            ....    1
 Number of Electrons    NEL             ....  118
 Basis Dimension        Dim             ....  597

ORBITAL ENERGIES
----------------

  NO   OCC          E(Eh)            E(eV)
   0   2.0000     -19.045565      -518.2562
   1   2.0000     -19.043711      -518.2057
   2   2.0000     -14.355109      -390.6224
   3   2.0000     -14.355074      -390.6214
   4   2.0000     -10.303283      -280.3666
   5   2.0000     -10.229075      -278.3473
   6   2.0000     -10.218979      -278.0726
   7   2.0000     -10.200002      -277.5562
   8   2.0000     -10.176194      -276.9083
   9   2.0000     -10.167388      -276.6687
  10   2.0000     -10.159432      -276.4522
  11   2.0000     -10.148695      -276.1600
  12   2.0000     -10.145316      -276.0681
  13   2.0000     -10.141179      -275.9555
  14   2.0000     -10.132481      -275.7188
  15   2.0000      -1.019949       -27.7542
  16   2.0000      -1.005230       -27.3537
  17   2.0000      -0.925595       -25.1867
  18   2.0000      -0.909595       -24.7513
  19   2.0000      -0.836330       -22.7577
  20   2.0000      -0.801874       -21.8201
  21   2.0000      -0.771934       -21.0054
  22   2.0000      -0.732434       -19.9305
  23   2.0000      -0.694585       -18.9006
  24   2.0000      -0.658319       -17.9138
  25   2.0000      -0.641395       -17.4532
  26   2.0000      -0.618529       -16.8310
  27   2.0000      -0.584457       -15.9039
  28   2.0000      -0.578262       -15.7353
  29   2.0000      -0.569870       -15.5070
  30   2.0000      -0.545000       -14.8302
  31   2.0000      -0.511857       -13.9283
  32   2.0000      -0.507236       -13.8026
  33   2.0000      -0.483765       -13.1639
  34   2.0000      -0.472443       -12.8558
  35   2.0000      -0.461478       -12.5575
  36   2.0000      -0.455270       -12.3885
  37   2.0000      -0.441207       -12.0058
  38   2.0000      -0.429659       -11.6916
  39   2.0000      -0.418686       -11.3930
  40   2.0000      -0.412390       -11.2217
  41   2.0000      -0.404026       -10.9941
  42   2.0000      -0.399849       -10.8805
  43   2.0000      -0.394330       -10.7303
  44   2.0000      -0.374501       -10.1907
  45   2.0000      -0.372161       -10.1270
  46   2.0000      -0.366444        -9.9714
  47   2.0000      -0.360489        -9.8094
  48   2.0000      -0.350649        -9.5416
  49   2.0000      -0.334317        -9.0972
  50   2.0000      -0.331307        -9.0153
  51   2.0000      -0.323008        -8.7895
  52   2.0000      -0.308539        -8.3958
  53   2.0000      -0.303468        -8.2578
  54   2.0000      -0.301661        -8.2086
  55   2.0000      -0.295073        -8.0293
  56   2.0000      -0.235494        -6.4081
  57   2.0000      -0.224816        -6.1176
  58   2.0000      -0.218651        -5.9498
  59   0.0000      -0.034556        -0.9403
  60   0.0000       0.000057         0.0016
  61   0.0000       0.021198         0.5768
  62   0.0000       0.036674         0.9979
  63   0.0000       0.048466         1.3188

MULLIKEN ATOMIC CHARGES
-----------------------
   0 C :   -0.195418
   1 C :   -0.119666
   2 C :   -0.144373
   3 H :    0.085266
   4 H :    0.088028
   5 C :    0.313335
   6 C :    0.221644
   7 N :   -0.299361
   8 N :   -0.295817
   9 H :    0.277296
  10 H :    0.231540
  11 H :    0.232353
  12 H :    0.281064
  13 O :   -0.537105
  14 O :   -0.525335
  15 C :   -0.205246
  16 C :   -0.240082
  17 C :   -0.197450
  18 H :    0.074979
  19 H :    0.091762
  20 H :    0.074038
  21 H :    0.080135
  22 C :   -0.255601
  23 H :    0.105410
  24 H :    0.108243
  25 C :   -0.149835
  26 H :    0.153545
  27 H :    0.079152
  28 C :   -0.140254
  29 H :    0.094645
  30 H :    0.085891
  31 H :    0.130629
  32 H :    0.083817
  33 H :    0.088307
  34 H :    0.081117
  35 H :    0.106452
  36 H :    0.136894
Sum of atomic charges:   -0.0000000

LOEWDIN ATOMIC CHARGES
----------------------
   0 C :   -0.208270
   1 C :   -0.261020
   2 C :   -0.236501
   3 H :    0.134638
   4 H :    0.142243
   5 C :   -0.630769
   6 C :   -0.333600
   7 N :    0.107629
   8 N :    0.102702
   9 H :    0.155010
  10 H :    0.183114
  11 H :    0.184468
  12 H :    0.155745
  13 O :   -0.058110
  14 O :   -0.052179
  15 C :   -0.246322
  16 C :   -0.266507
  17 C :   -0.267848
  18 H :    0.130799
  19 H :    0.131551
  20 H :    0.129408
  21 H :    0.137004
  22 C :   -0.260759
  23 H :    0.135444
  24 H :    0.139110
  25 C :   -0.263895
  26 H :    0.146557
  27 H :    0.133473
  28 C :   -0.262310
  29 H :    0.134848
  30 H :    0.131730
  31 H :    0.137307
  32 H :    0.134627
  33 H :    0.134077
  34 H :    0.131888
  35 H :    0.144720
  36 H :    0.149998

  Mayer bond orders larger than 0.100000
B(  0-C ,  6-C ) :   0.9775 B(  0-C , 15-C ) :   0.9336 B(  0-C , 35-H ) :   0.9708
B(  0-C , 36-H ) :   0.9709 B(  1-C ,  2-C ) :   0.9577 B(  1-C , 17-C ) :   0.9882
B(  1-C , 20-H ) :   0.9648 B(  1-C , 21-H ) :   0.9564 B(  2-C ,  3-H ) :   0.9691
B(  2-C ,  4-H ) :   0.9479 B(  2-C ,  5-C ) :   0.9582 B(  5-C , 13-O ) :   1.6619
B(  5-C , 14-O ) :   1.6787 B(  6-C ,  7-N ) :   1.4795 B(  6-C ,  8-N ) :   1.4844
B(  7-N , 11-H ) :   0.9179 B(  7-N , 12-H ) :   0.7541 B(  8-N ,  9-H ) :   0.7616
B(  8-N , 10-H ) :   0.9140 B(  9-H , 13-O ) :   0.2023 B( 12-H , 14-O ) :   0.2086
B( 15-C , 22-C ) :   0.9202 B( 15-C , 23-H ) :   0.9830 B( 15-C , 24-H ) :   0.9662
B( 16-C , 17-C ) :   0.9364 B( 16-C , 28-C ) :   0.9701 B( 16-C , 31-H ) :   0.9741
B( 16-C , 32-H ) :   0.9669 B( 17-C , 18-H ) :   0.9661 B( 17-C , 19-H ) :   0.9712
B( 22-C , 25-C ) :   0.9663 B( 22-C , 26-H ) :   0.9728 B( 22-C , 27-H ) :   0.9595
B( 25-C , 28-C ) :   0.9712 B( 25-C , 29-H ) :   0.9683 B( 25-C , 30-H ) :   0.9693
B( 28-C , 33-H ) :   0.9689 B( 28-C , 34-H ) :   0.9750

Dispersion correction           -0.069885919
FINAL SINGLE POINT ENERGY      -692.323112546464

DIPOLE MOMENT
-------------
                                X             Y             Z
Electronic contribution:      3.44358       1.61960      13.03046
Nuclear contribution   :     -1.50655      -3.48027     -14.35034
                        -----------------------------------------
Total Dipole Moment    :      1.93703      -1.86067      -1.31988
                        -----------------------------------------
Magnitude (a.u.)       :      2.99270
Magnitude (Debye)      :      7.60684

Rotational constants in cm-1:     0.021781     0.017296     0.011403
Rotational constants in MHz :   652.971749   518.510612   341.853154

                             ****ORCA TERMINATED NORMALLY****
TOTAL RUN TIME: 0 days 0 hours 1 minutes 34 seconds 880 msec
