                         Program Version 5.0.0 -  RELEASE  -
|  1> !B3LYP D3BJ RIJCOSX def2-SVP def2/J TightSCF
|  2> *xyz 0 1
|  3> C         -0.91495        0.61511        2.50554
|  4> C         -0.05915        1.50352        3.41058
|  5> H          0.36536        2.34431        2.86116
|  6> H         -0.69226        1.92021        4.19898
|  7> C          1.08303        0.74964        4.08571
|  8> F          2.22817        1.26348        4.01983
|  9> O          0.81003       -0.34541        4.63627
| 10> H         -0.30401        0.20228        1.73015
| 11> H         -1.69811        1.19946        2.06954
| 12> H         -1.34124       -0.17772        3.08397
| 13> *
| 14>
| 15> %MaxCore 64000
| 16>
| 17> %pal nprocs 4
| 18> end
| 19>
| 20> %scf
| 21>   MaxIter 150
| 22> end
| 23>
| 24>
| 25>                          ****END OF INPUT****

CARTESIAN COORDINATES (ANGSTROEM)
---------------------------------
  C     -0.914950    0.615110    2.505540
  C     -0.059150    1.503520    3.410580
  H      0.365360    2.344310    2.861160
  H     -0.692260    1.920210    4.198980
  C      1.083030    0.749640    4.085710
  F      2.228170    1.263480    4.019830
  O      0.810030   -0.345410    4.636270
  H     -0.304010    0.202280    1.730150
  H     -1.698110    1.199460    2.069540
  H     -1.341240   -0.177720    3.083970

 Total Charge           Charge          ....    0
 Multiplicity           Mult            ....    1
 Number of Electrons    NEL             ....   40
 Basis Dimension        Dim             ....   95

ORBITAL ENERGIES
----------------

  NO   OCC          E(Eh)            E(eV)
   0   2.0000     -24.749606      -673.4710
   1   2.0000     -19.132191      -520.6134
   2   2.0000     -10.352466      -281.7049
   3   2.0000     -10.210345      -277.8376
   4   2.0000     -10.186005      -277.1753
   5   2.0000      -1.292447       -35.1693
   6   2.0000      -1.013670       -27.5834
   7   2.0000      -0.788693       -21.4614
   8   2.0000      -0.678762       -18.4700
   9   2.0000      -0.627377       -17.0718
  10   2.0000      -0.540425       -14.7057
  11   2.0000      -0.526456       -14.3256
  12   2.0000      -0.497047       -13.5253
  13   2.0000      -0.460867       -12.5408
  14   2.0000      -0.427018       -11.6198
  15   2.0000      -0.393860       -10.7175
  16   2.0000      -0.373234       -10.1562
  17   2.0000      -0.371046       -10.0967
  18   2.0000      -0.340328        -9.2608
  19   2.0000      -0.284780        -7.7493
  20   0.0000      -0.022111        -0.6017
  21   0.0000       0.061133         1.6635
  22   0.0000       0.103919         2.8278
  23   0.0000       0.110335         3.0024
  24   0.0000       0.127424         3.4674

MULLIKEN ATOMIC CHARGES
-----------------------
   0 C :    0.037129
   1 C :   -0.044553
   2 H :    0.011023
   3 H :    0.046518
   4 C :    0.216592
   5 F :   -0.070992
   6 O :   -0.253733
   7 H :    0.013405
   8 H :    0.011003
   9 H :    0.033607
Sum of atomic charges:    0.0000000

LOEWDIN ATOMIC CHARGES
----------------------
   0 C :   -0.030227
   1 C :   -0.065885
   2 H :    0.024143
   3 H :    0.048224
   4 C :    0.099702
   5 F :    0.043232
   6 O :   -0.195689
   7 H :    0.023284
   8 H :    0.024305
   9 H :    0.028911

  Mayer bond orders larger than 0.100000
B(  0-C ,  1-C ) :   1.1013 B(  0-C ,  7-H ) :   0.9771 B(  0-C ,  8-H ) :   0.9646
B(  0-C ,  9-H ) :   0.9678 B(  1-C ,  2-H ) :   0.9353 B(  1-C ,  3-H ) :   0.9239
B(  1-C ,  4-C ) :   1.0008 B(  4-C ,  5-F ) :   1.2062 B(  4-C ,  6-O ) :   2.0747

Dispersion correction           -0.010404920
FINAL SINGLE POINT ENERGY      -292.035184589793

DIPOLE MOMENT
-------------
                                X             Y             Z
Electronic contribution:      7.78230      -0.22497       4.15346
Nuclear contribution   :     -8.12386       1.06915      -4.71960
                        -----------------------------------------
Total Dipole Moment    :     -0.34156       0.84418      -0.56613
                        -----------------------------------------
Magnitude (a.u.)       :      1.07229
Magnitude (Debye)      :      2.72554

Rotational constants in cm-1:     0.309513     0.127560     0.099675
Rotational constants in MHz :  9278.979128  3824.146597  2988.174827

                             ****ORCA TERMINATED NORMALLY****
TOTAL RUN TIME: 0 days 0 hours 0 minutes 10 seconds 826 msec
