                         Program Version 5.0.0 -  RELEASE  -
|  1> !B3LYP D3BJ RIJCOSX def2-SVP def2/J TightSCF
|  2> *xyz 0 1
|  3> C          4.60295       -2.44010        2.63478
|  4> C          3.86085       -1.59157        3.62289
|  5> C          2.75650       -2.04616        4.16633
|  6> N          4.25433       -0.36291        3.86046
|  7> H          3.56526        0.31099        4.16898
|  8> H          5.05429       -0.01606        3.33784
|  9> H          2.43970       -2.97389        3.89740
| 10> H          2.06687       -1.41253        4.54981
| 11> C          3.74469       -2.58056        1.36188
| 12> H          5.56156       -1.97135        2.40708
| 13> H          4.81050       -3.42255        3.06310
| 14> H          4.26314       -3.18477        0.64702
| 15> H          3.56325       -1.61180        0.94535
| 16> H          2.81197       -3.04259        1.60980
| 17> *
| 18>
| 19> %MaxCore 64000
| 20>
| 21> %pal nprocs 4
| 22> end
| 23>
| 24> %scf
| 25>   MaxIter 150
| 26> end
| 27>
| 28>
| 29>                          ****END OF INPUT****

CARTESIAN COORDINATES (ANGSTROEM)
---------------------------------
  C      4.602950   -2.440100    2.634780
  C      3.860850   -1.591570    3.622890
  C      2.756500   -2.046160    4.166330
  N      4.254330   -0.362910    3.860460
  H      3.565260    0.310990    4.168980
  H      5.054290   -0.016060    3.337840
  H      2.439700   -2.973890    3.897400
  H      2.066870   -1.412530    4.549810
  C      3.744690   -2.580560    1.361880
  H      5.561560   -1.971350    2.407080
  H      4.810500   -3.422550    3.063100
  H      4.263140   -3.184770    0.647020
  H      3.563250   -1.611800    0.945350
  H      2.811970   -3.042590    1.609800

 Total Charge           Charge          ....    0
 Multiplicity           Mult            ....    1
 Number of Electrons    NEL             ....   40
 Basis Dimension        Dim             ....  115

ORBITAL ENERGIES
----------------

  NO   OCC          E(Eh)            E(eV)
   0   2.0000     -14.322624      -389.7384
   1   2.0000     -10.192774      -277.3595
   2   2.0000     -10.181454      -277.0514
   3   2.0000     -10.167887      -276.6823
   4   2.0000     -10.107008      -275.0257
   5   2.0000      -0.916628       -24.9427
   6   2.0000      -0.769461       -20.9381
   7   2.0000      -0.698602       -19.0099
   8   2.0000      -0.629528       -17.1303
   9   2.0000      -0.553650       -15.0656
  10   2.0000      -0.517030       -14.0691
  11   2.0000      -0.474985       -12.9250
  12   2.0000      -0.442825       -12.0499
  13   2.0000      -0.407588       -11.0910
  14   2.0000      -0.383276       -10.4295
  15   2.0000      -0.372945       -10.1483
  16   2.0000      -0.349760        -9.5175
  17   2.0000      -0.338841        -9.2203
  18   2.0000      -0.321400        -8.7457
  19   2.0000      -0.179993        -4.8979
  20   0.0000       0.049087         1.3357
  21   0.0000       0.055426         1.5082
  22   0.0000       0.096161         2.6167
  23   0.0000       0.101207         2.7540
  24   0.0000       0.120031         3.2662

MULLIKEN ATOMIC CHARGES
-----------------------
   0 C :    0.082802
   1 C :   -0.160956
   2 C :   -0.021273
   3 N :   -0.037827
   4 H :    0.107340
   5 H :    0.097388
   6 H :   -0.048974
   7 H :   -0.061682
   8 C :    0.054396
   9 H :   -0.027971
  10 H :    0.012798
  11 H :   -0.002832
  12 H :   -0.002626
  13 H :    0.009416
Sum of atomic charges:   -0.0000000

LOEWDIN ATOMIC CHARGES
----------------------
   0 C :   -0.021565
   1 C :    0.001006
   2 C :   -0.171772
   3 N :    0.001720
   4 H :    0.075030
   5 H :    0.066098
   6 H :   -0.005048
   7 H :   -0.009898
   8 C :   -0.032873
   9 H :    0.012292
  10 H :    0.031983
  11 H :    0.014934
  12 H :    0.017217
  13 H :    0.020877

  Mayer bond orders larger than 0.100000
B(  0-C ,  1-C ) :   1.0239 B(  0-C ,  8-C ) :   1.1037 B(  0-C ,  9-H ) :   0.9251
B(  0-C , 10-H ) :   0.9288 B(  1-C ,  2-C ) :   1.8685 B(  1-C ,  3-N ) :   1.2752
B(  2-C ,  6-H ) :   0.9377 B(  2-C ,  7-H ) :   0.9500 B(  3-N ,  4-H ) :   0.9478
B(  3-N ,  5-H ) :   0.9481 B(  8-C , 11-H ) :   0.9619 B(  8-C , 12-H ) :   0.9662
B(  8-C , 13-H ) :   0.9730

Dispersion correction           -0.017702680
FINAL SINGLE POINT ENERGY      -212.268588256967

DIPOLE MOMENT
-------------
                                X             Y             Z
Electronic contribution:      0.84595       1.84317       2.57234
Nuclear contribution   :     -0.47010      -1.22282      -3.06417
                        -----------------------------------------
Total Dipole Moment    :      0.37585       0.62035      -0.49183
                        -----------------------------------------
Magnitude (a.u.)       :      0.87635
Magnitude (Debye)      :      2.22751

Rotational constants in cm-1:     0.271862     0.131962     0.105499
Rotational constants in MHz :  8150.219120  3956.123671  3162.785522

                             ****ORCA TERMINATED NORMALLY****
TOTAL RUN TIME: 0 days 0 hours 0 minutes 13 seconds 566 msec
