                         Program Version 5.0.0 -  RELEASE  -
|  1> !B3LYP D3BJ RIJCOSX def2-SVP def2/J TightSCF
|  2> *xyz 0 1
|  3> C         -0.91495        0.61511        2.50554
|  4> C         -0.05915        1.50352        3.41058
|  5> H          0.36536        2.34431        2.86116
|  6> H         -0.69226        1.92021        4.19898
|  7> C          1.08303        0.74964        4.08571
|  8> O          2.22817        1.26348        4.01983
|  9> F          0.81003       -0.34541        4.63627
| 10> H         -0.30401        0.20228        1.73015
| 11> H         -1.69811        1.19946        2.06954
| 12> H         -1.34124       -0.17772        3.08397
| 13> *
| 14>
| 15> %MaxCore 64000
| 16>
| 17> %pal nprocs 4
| 18> end
| 19>
| 20> %scf
| 21>   MaxIter 150
| 22> end
| 23>
| 24>
| 25>                          ****END OF INPUT****

CARTESIAN COORDINATES (ANGSTROEM)
---------------------------------
  C     -0.914950    0.615110    2.505540
  C     -0.059150    1.503520    3.410580
  H      0.365360    2.344310    2.861160
  H     -0.692260    1.920210    4.198980
  C      1.083030    0.749640    4.085710
  O      2.228170    1.263480    4.019830
  F      0.810030   -0.345410    4.636270
  H     -0.304010    0.202280    1.730150
  H     -1.698110    1.199460    2.069540
  H     -1.341240   -0.177720    3.083970

 Total Charge           Charge          ....    0
 Multiplicity           Mult            ....    1
 Number of Electrons    NEL             ....   40
 Basis Dimension        Dim             ....   95

ORBITAL ENERGIES
----------------

  NO   OCC          E(Eh)            E(eV)
   0   2.0000     -24.751534      -673.5235
   1   2.0000     -19.130347      -520.5632
   2   2.0000     -10.351397      -281.6758
   3   2.0000     -10.209406      -277.8121
   4   2.0000     -10.191291      -277.3191
   5   2.0000      -1.294455       -35.2239
   6   2.0000      -1.011013       -27.5111
   7   2.0000      -0.792842       -21.5743
   8   2.0000      -0.674733       -18.3604
   9   2.0000      -0.634049       -17.2533
  10   2.0000      -0.543370       -14.7858
  11   2.0000      -0.533107       -14.5066
  12   2.0000      -0.488667       -13.2973
  13   2.0000      -0.461180       -12.5493
  14   2.0000      -0.429347       -11.6831
  15   2.0000      -0.397413       -10.8141
  16   2.0000      -0.379121       -10.3164
  17   2.0000      -0.374785       -10.1984
  18   2.0000      -0.341510        -9.2930
  19   2.0000      -0.279248        -7.5987
  20   0.0000      -0.018867        -0.5134
  21   0.0000       0.055988         1.5235
  22   0.0000       0.101555         2.7635
  23   0.0000       0.111547         3.0353
  24   0.0000       0.128864         3.5066

MULLIKEN ATOMIC CHARGES
-----------------------
   0 C :    0.013465
   1 C :   -0.036595
   2 H :    0.037468
   3 H :    0.035394
   4 C :    0.213828
   5 O :   -0.247719
   6 F :   -0.073913
   7 H :    0.021601
   8 H :    0.017772
   9 H :    0.018699
Sum of atomic charges:    0.0000000

LOEWDIN ATOMIC CHARGES
----------------------
   0 C :   -0.041100
   1 C :   -0.061630
   2 H :    0.040949
   3 H :    0.040498
   4 C :    0.097877
   5 O :   -0.193115
   6 F :    0.043164
   7 H :    0.024403
   8 H :    0.027207
   9 H :    0.021748

  Mayer bond orders larger than 0.100000
B(  0-C ,  1-C ) :   1.0793 B(  0-C ,  7-H ) :   0.9773 B(  0-C ,  8-H ) :   0.9645
B(  0-C ,  9-H ) :   0.9710 B(  1-C ,  2-H ) :   0.9471 B(  1-C ,  3-H ) :   0.9244
B(  1-C ,  4-C ) :   1.0111 B(  4-C ,  5-O ) :   2.0918 B(  4-C ,  6-F ) :   1.1946

Dispersion correction           -0.010322680
FINAL SINGLE POINT ENERGY      -292.033901413890

DIPOLE MOMENT
-------------
                                X             Y             Z
Electronic contribution:      5.44399      -2.85855       5.14811
Nuclear contribution   :     -6.57765       2.82334      -5.39171
                        -----------------------------------------
Total Dipole Moment    :     -1.13365      -0.03521      -0.24360
                        -----------------------------------------
Magnitude (a.u.)       :      1.16006
Magnitude (Debye)      :      2.94865

Rotational constants in cm-1:     0.294245     0.132994     0.101060
Rotational constants in MHz :  8821.228602  3987.049251  3029.696815

                             ****ORCA TERMINATED NORMALLY****
TOTAL RUN TIME: 0 days 0 hours 0 minutes 11 seconds 227 msec
