                         Program Version 5.0.0 -  RELEASE  -
|  1> !B3LYP D3BJ RIJCOSX def2-SVP def2/J TightSCF
|  2> *xyz 0 1
|  3> C          4.60295       -2.44010        2.63478
|  4> C          3.86085       -1.59157        3.62289
|  5> N          2.75650       -2.04616        4.16633
|  6> C          4.25433       -0.36291        3.86046
|  7> H          3.56526        0.31099        4.16898
|  8> H          5.05429       -0.01606        3.33784
|  9> H          2.43970       -2.97389        3.89740
| 10> H          2.06687       -1.41253        4.54981
| 11> C          3.74469       -2.58056        1.36188
| 12> H          5.56156       -1.97135        2.40708
| 13> H          4.81050       -3.42255        3.06310
| 14> H          4.26314       -3.18477        0.64702
| 15> H          3.56325       -1.61180        0.94535
| 16> H          2.81197       -3.04259        1.60980
| 17> *
| 18>
| 19> %MaxCore 64000
| 20>
| 21> %pal nprocs 4
| 22> end
| 23>
| 24> %scf
| 25>   MaxIter 150
| 26> end
| 27>
| 28>
| 29>                          ****END OF INPUT****

CARTESIAN COORDINATES (ANGSTROEM)
---------------------------------
  C      4.602950   -2.440100    2.634780
  C      3.860850   -1.591570    3.622890
  N      2.756500   -2.046160    4.166330
  C      4.254330   -0.362910    3.860460
  H      3.565260    0.310990    4.168980
  H      5.054290   -0.016060    3.337840
  H      2.439700   -2.973890    3.897400
  H      2.066870   -1.412530    4.549810
  C      3.744690   -2.580560    1.361880
  H      5.561560   -1.971350    2.407080
  H      4.810500   -3.422550    3.063100
  H      4.263140   -3.184770    0.647020
  H      3.563250   -1.611800    0.945350
  H      2.811970   -3.042590    1.609800

 Total Charge           Charge          ....    0
 Multiplicity           Mult            ....    1
 Number of Electrons    NEL             ....   40
 Basis Dimension        Dim             ....  115

ORBITAL ENERGIES
----------------

  NO   OCC          E(Eh)            E(eV)
   0   2.0000     -14.323278      -389.7562
   1   2.0000     -10.193895      -277.3900
   2   2.0000     -10.180851      -277.0350
   3   2.0000     -10.172184      -276.7992
   4   2.0000     -10.108607      -275.0692
   5   2.0000      -0.916716       -24.9451
   6   2.0000      -0.767865       -20.8947
   7   2.0000      -0.706765       -19.2321
   8   2.0000      -0.625021       -17.0077
   9   2.0000      -0.560911       -15.2632
  10   2.0000      -0.518603       -14.1119
  11   2.0000      -0.470469       -12.8021
  12   2.0000      -0.434889       -11.8339
  13   2.0000      -0.423656       -11.5283
  14   2.0000      -0.382738       -10.4148
  15   2.0000      -0.376050       -10.2328
  16   2.0000      -0.353878        -9.6295
  17   2.0000      -0.335663        -9.1339
  18   2.0000      -0.318669        -8.6714
  19   2.0000      -0.183015        -4.9801
  20   0.0000       0.046456         1.2641
  21   0.0000       0.057648         1.5687
  22   0.0000       0.099087         2.6963
  23   0.0000       0.100765         2.7420
  24   0.0000       0.115324         3.1381

MULLIKEN ATOMIC CHARGES
-----------------------
   0 C :    0.083928
   1 C :   -0.156386
   2 N :   -0.040158
   3 C :   -0.014622
   4 H :   -0.061734
   5 H :   -0.051639
   6 H :    0.097723
   7 H :    0.108045
   8 C :    0.052338
   9 H :   -0.003660
  10 H :   -0.008749
  11 H :    0.004655
  12 H :    0.005017
  13 H :   -0.014757
Sum of atomic charges:    0.0000000

LOEWDIN ATOMIC CHARGES
----------------------
   0 C :   -0.020179
   1 C :    0.003658
   2 N :    0.001901
   3 C :   -0.172842
   4 H :   -0.009991
   5 H :   -0.004277
   6 H :    0.066136
   7 H :    0.075380
   8 C :   -0.037907
   9 H :    0.030214
  10 H :    0.016346
  11 H :    0.019405
  12 H :    0.022178
  13 H :    0.009978

  Mayer bond orders larger than 0.100000
B(  0-C ,  1-C ) :   1.0485 B(  0-C ,  8-C ) :   1.0957 B(  0-C ,  9-H ) :   0.9241
B(  0-C , 10-H ) :   0.9222 B(  1-C ,  2-N ) :   1.2757 B(  1-C ,  3-C ) :   1.8676
B(  2-N ,  6-H ) :   0.9524 B(  2-N ,  7-H ) :   0.9476 B(  3-C ,  4-H ) :   0.9495
B(  3-C ,  5-H ) :   0.9318 B(  8-C , 11-H ) :   0.9647 B(  8-C , 12-H ) :   0.9661
B(  8-C , 13-H ) :   0.9688

Dispersion correction           -0.017664961
FINAL SINGLE POINT ENERGY      -212.269578002781

DIPOLE MOMENT
-------------
                                X             Y             Z
Electronic contribution:     -0.54650       0.27967       2.87297
Nuclear contribution   :     -0.12319      -0.83296      -3.13501
                        -----------------------------------------
Total Dipole Moment    :     -0.66969      -0.55329      -0.26203
                        -----------------------------------------
Magnitude (a.u.)       :      0.90735
Magnitude (Debye)      :      2.30630

Rotational constants in cm-1:     0.266453     0.134423     0.106086
Rotational constants in MHz :  7988.053142  4029.892766  3180.375228

                             ****ORCA TERMINATED NORMALLY****
TOTAL RUN TIME: 0 days 0 hours 0 minutes 13 seconds 351 msec
