                         Program Version 5.0.0 -  RELEASE  -
|  1> !wB97X-D3 RIJCOSX def2-TZVPD def2/J TightSCF
|  2> *xyz -1 1
|  3> C         -0.96015       -0.52236       -0.48987
|  4> O          0.26170       -0.58031        0.13861
|  5> H         -0.85050       -0.82220       -1.51113
|  6> H         -1.33436        0.47929       -0.45044
|  7> H         -1.64624       -1.17908        0.00297
|  8> *
|  9>
| 10> %MaxCore 64000
| 11>
| 12> %pal nprocs 18
| 13> end
| 14>
| 15> %scf
| 16>   MaxIter 150
| 17> end
| 18>
| 19>
| 20>                          ****END OF INPUT****

CARTESIAN COORDINATES (ANGSTROEM)
---------------------------------
  C     -0.960150   -0.522360   -0.489870
  O      0.261700   -0.580310    0.138610
  H     -0.850500   -0.822200   -1.511130
  H     -1.334360    0.479290   -0.450440
  H     -1.646240   -1.179080    0.002970

 Total Charge           Charge          ....   -1
 Multiplicity           Mult            ....    1
 Number of Electrons    NEL             ....   18
 Basis Dimension        Dim             ....  104

ORBITAL ENERGIES
----------------

  NO   OCC          E(Eh)            E(eV)
   0   2.0000     -18.874472      -513.6005
   1   2.0000     -10.056302      -273.6459
   2   2.0000      -0.771020       -20.9805
   3   2.0000      -0.509532       -13.8651
   4   2.0000      -0.295021        -8.0279
   5   2.0000      -0.294979        -8.0268
   6   2.0000      -0.194073        -5.2810
   7   2.0000      -0.041790        -1.1372
   8   2.0000      -0.041785        -1.1370
   9   0.0000       0.226124         6.1532
  10   0.0000       0.274874         7.4797
  11   0.0000       0.280298         7.6273
  12   0.0000       0.280303         7.6274
  13   0.0000       0.329670         8.9708

MULLIKEN ATOMIC CHARGES
-----------------------
   0 C :   -0.550246
   1 O :   -0.944734
   2 H :    0.165117
   3 H :    0.164881
   4 H :    0.164982
Sum of atomic charges:   -1.0000000

LOEWDIN ATOMIC CHARGES
----------------------
   0 C :   -0.507339
   1 O :   -0.521281
   2 H :    0.009545
   3 H :    0.009525
   4 H :    0.009550

  Mayer bond orders larger than 0.100000
B(  0-C ,  1-O ) :   1.0519 B(  0-C ,  2-H ) :   0.9583 B(  0-C ,  3-H ) :   0.9586
B(  0-C ,  4-H ) :   0.9583

Dispersion correction           -0.000091947
FINAL SINGLE POINT ENERGY      -115.107490176409

DIPOLE MOMENT
-------------
                                X             Y             Z
Electronic contribution:      1.64207      -0.07790       0.84469
Nuclear contribution   :     -2.56864       0.12183      -1.32123
                        -----------------------------------------
Total Dipole Moment    :     -0.92657       0.04393      -0.47654
                        -----------------------------------------
Magnitude (a.u.)       :      1.04286
Magnitude (Debye)      :      2.65073

Rotational constants in cm-1:     5.477744     0.932677     0.932677
Rotational constants in MHz : 164218.635293 27960.967920 27960.945417

                             ****ORCA TERMINATED NORMALLY****
TOTAL RUN TIME: 0 days 0 hours 0 minutes 4 seconds 111 msec
