                         Program Version 5.0.0 -  RELEASE  -
|  1> !wB97X-D3 RIJCOSX def2-TZVPD def2/J TightSCF
|  2> *xyz 1 1
|  3> C          4.36645       -0.13321       -1.41606
|  4> C          3.05650       -0.32080       -0.70738
|  5> N          2.38983        0.71129       -0.24391
|  6> N          2.51600       -1.50772       -0.55023
|  7> H          2.96768       -2.32291       -0.95631
|  8> H          1.54987       -1.49063       -0.24988
|  9> H          2.74307        1.64947       -0.41280
| 10> H          1.44036        0.50278        0.03703
| 11> H          4.74975       -1.08632       -1.71533
| 12> H          5.06373        0.34075       -0.75722
| 13> H          4.21960        0.47966       -2.28077
| 14> *
| 15>
| 16> %MaxCore 64000
| 17>
| 18> %pal nprocs 18
| 19> end
| 20>
| 21> %scf
| 22>   MaxIter 150
| 23> end
| 24>
| 25>
| 26>                          ****END OF INPUT****

CARTESIAN COORDINATES (ANGSTROEM)
---------------------------------
  C      4.366450   -0.133210   -1.416060
  C      3.056500   -0.320800   -0.707380
  N      2.389830    0.711290   -0.243910
  N      2.516000   -1.507720   -0.550230
  H      2.967680   -2.322910   -0.956310
  H      1.549870   -1.490630   -0.249880
  H      2.743070    1.649470   -0.412800
  H      1.440360    0.502780    0.037030
  H      4.749750   -1.086320   -1.715330
  H      5.063730    0.340750   -0.757220
  H      4.219600    0.479660   -2.280770

 Total Charge           Charge          ....    1
 Multiplicity           Mult            ....    1
 Number of Electrons    NEL             ....   32
 Basis Dimension        Dim             ....  211

ORBITAL ENERGIES
----------------

  NO   OCC          E(Eh)            E(eV)
   0   2.0000     -14.674274      -399.3073
   1   2.0000     -14.671801      -399.2400
   2   2.0000     -10.609382      -288.6960
   3   2.0000     -10.474998      -285.0392
   4   2.0000      -1.336974       -36.3809
   5   2.0000      -1.228386       -33.4261
   6   2.0000      -1.073339       -29.2070
   7   2.0000      -0.947183       -25.7742
   8   2.0000      -0.888640       -24.1811
   9   2.0000      -0.873081       -23.7577
  10   2.0000      -0.807389       -21.9702
  11   2.0000      -0.767680       -20.8896
  12   2.0000      -0.718137       -19.5415
  13   2.0000      -0.702729       -19.1222
  14   2.0000      -0.677735       -18.4421
  15   2.0000      -0.592774       -16.1302
  16   0.0000      -0.136324        -3.7096
  17   0.0000      -0.100406        -2.7322
  18   0.0000      -0.056767        -1.5447
  19   0.0000      -0.053162        -1.4466
  20   0.0000      -0.030698        -0.8353

MULLIKEN ATOMIC CHARGES
-----------------------
   0 C :   -1.150475
   1 C :    0.920789
   2 N :   -0.400420
   3 N :   -0.394740
   4 H :    0.253626
   5 H :    0.206830
   6 H :    0.259724
   7 H :    0.213035
   8 H :    0.358131
   9 H :    0.367788
  10 H :    0.365710
Sum of atomic charges:    1.0000000

LOEWDIN ATOMIC CHARGES
----------------------
   0 C :    0.038378
   1 C :   -0.377581
   2 N :    0.211667
   3 N :    0.216564
   4 H :    0.156319
   5 H :    0.146117
   6 H :    0.159509
   7 H :    0.145705
   8 H :    0.092375
   9 H :    0.105071
  10 H :    0.105877

  Mayer bond orders larger than 0.100000
B(  0-C ,  1-C ) :   0.7127 B(  0-C ,  8-H ) :   0.8921 B(  0-C ,  9-H ) :   0.9165
B(  0-C , 10-H ) :   0.8847 B(  1-C ,  2-N ) :   1.2158 B(  1-C ,  3-N ) :   1.1808
B(  2-N ,  3-N ) :   0.1114 B(  2-N ,  6-H ) :   0.9465 B(  2-N ,  7-H ) :   1.0064
B(  3-N ,  4-H ) :   0.9480 B(  3-N ,  5-H ) :   1.0181

Dispersion correction           -0.001655572
FINAL SINGLE POINT ENERGY      -189.732953140516

DIPOLE MOMENT
-------------
                                X             Y             Z
Electronic contribution:     -1.72875      -0.26434       1.09659
Nuclear contribution   :      1.22976       0.25273      -1.15956
                        -----------------------------------------
Total Dipole Moment    :     -0.49899      -0.01161      -0.06297
                        -----------------------------------------
Magnitude (a.u.)       :      0.50308
Magnitude (Debye)      :      1.27874

Rotational constants in cm-1:     0.347067     0.291236     0.163306
Rotational constants in MHz : 10404.811357  8731.035118  4895.793931

                             ****ORCA TERMINATED NORMALLY****
TOTAL RUN TIME: 0 days 0 hours 0 minutes 14 seconds 825 msec
