                         Program Version 5.0.0 -  RELEASE  -
|  1> !wB97X-D3 RIJCOSX def2-TZVPD def2/J TightSCF xyzfile
|  2>
|  3> *xyzfile 0 1 B.xyz
|  4>
|  5> %MaxCore 64000
|  6>
|  7> %pal nprocs 18
|  8> end
|  9>
| 10> %scf
| 11>   MaxIter 150
| 12> end
| 13>
| 14>
| 15>                          ****END OF INPUT****

CARTESIAN COORDINATES (ANGSTROEM)
---------------------------------
  C      4.366454   -0.133215   -1.416062
  C      4.508292   -0.931872   -2.724249
  H      4.753716   -1.972051   -2.488408
  C      3.294164   -0.918214   -3.656570
  H      5.385637   -0.536236   -3.242640
  H      2.483463   -1.477378   -3.185764
  H      3.553092   -1.478495   -4.560331
  C      2.772335    0.460100   -4.051448
  H      2.608762    1.065107   -3.155194
  C      1.465354    0.410537   -4.853644
  H      3.532940    0.988848   -4.635671
  C      0.326171   -0.375613   -4.192580
  H      1.666704   -0.022269   -5.839323
  H      1.138198    1.439246   -5.035449
  C     -0.017405    0.080588   -2.778406
  H      0.585573   -1.439385   -4.168057
  H     -0.560005   -0.311425   -4.831461
  H      0.902090    0.201296   -2.206729
  C     -0.903495   -0.873945   -1.987388
  H     -0.479549    1.074657   -2.811915
  H     -0.502554   -1.892096   -2.081204
  H     -1.917039   -0.895427   -2.406277
  C     -0.960148   -0.522365   -0.489867
  H     -1.690392   -1.208130   -0.021677
  H     -1.414490    0.486329   -0.406677
  O      0.261703   -0.580307    0.138611
  C      3.056503   -0.320797   -0.707384
  N      2.389825    0.711285   -0.243909
  N      2.515999   -1.507721   -0.550229
  H      2.967683   -2.322915   -0.956305
  H      1.549872   -1.490634   -0.249876
  H      2.743071    1.649471   -0.412802
  H      1.440364    0.502778    0.037031
  H      4.487835    0.932997   -1.611569
  H      5.169672   -0.414432   -0.729817

 Total Charge           Charge          ....    0
 Multiplicity           Mult            ....    1
 Number of Electrons    NEL             ....  104
 Basis Dimension        Dim             ....  682

ORBITAL ENERGIES
----------------

  NO   OCC          E(Eh)            E(eV)
   0   2.0000     -19.098737      -519.7031
   1   2.0000     -14.449993      -393.2043
   2   2.0000     -14.449657      -393.1952
   3   2.0000     -10.403169      -283.0846
   4   2.0000     -10.321753      -280.8692
   5   2.0000     -10.306226      -280.4467
   6   2.0000     -10.284547      -279.8568
   7   2.0000     -10.278078      -279.6807
   8   2.0000     -10.269153      -279.4378
   9   2.0000     -10.258151      -279.1385
  10   2.0000     -10.254262      -279.0327
  11   2.0000     -10.244361      -278.7632
  12   2.0000     -10.230835      -278.3952
  13   2.0000      -1.126567       -30.6554
  14   2.0000      -1.016882       -27.6708
  15   2.0000      -1.001635       -27.2559
  16   2.0000      -0.953346       -25.9419
  17   2.0000      -0.916326       -24.9345
  18   2.0000      -0.875639       -23.8273
  19   2.0000      -0.835051       -22.7229
  20   2.0000      -0.795574       -21.6487
  21   2.0000      -0.749999       -20.4085
  22   2.0000      -0.732956       -19.9447
  23   2.0000      -0.719583       -19.5809
  24   2.0000      -0.675563       -18.3830
  25   2.0000      -0.660996       -17.9866
  26   2.0000      -0.654789       -17.8177
  27   2.0000      -0.633173       -17.2295
  28   2.0000      -0.607397       -16.5281
  29   2.0000      -0.601604       -16.3705
  30   2.0000      -0.586590       -15.9619
  31   2.0000      -0.564970       -15.3736
  32   2.0000      -0.548697       -14.9308
  33   2.0000      -0.529091       -14.3973
  34   2.0000      -0.518794       -14.1171
  35   2.0000      -0.512061       -13.9339
  36   2.0000      -0.505948       -13.7675
  37   2.0000      -0.501193       -13.6381
  38   2.0000      -0.477428       -12.9915
  39   2.0000      -0.467353       -12.7173
  40   2.0000      -0.457231       -12.4419
  41   2.0000      -0.448010       -12.1910
  42   2.0000      -0.437176       -11.8962
  43   2.0000      -0.432232       -11.7616
  44   2.0000      -0.412882       -11.2351
  45   2.0000      -0.405660       -11.0386
  46   2.0000      -0.395705       -10.7677
  47   2.0000      -0.391593       -10.6558
  48   2.0000      -0.387154       -10.5350
  49   2.0000      -0.376727       -10.2513
  50   2.0000      -0.272484        -7.4147
  51   2.0000      -0.267501        -7.2791
  52   0.0000       0.045767         1.2454
  53   0.0000       0.055618         1.5134
  54   0.0000       0.062991         1.7141
  55   0.0000       0.075286         2.0486
  56   0.0000       0.081514         2.2181

MULLIKEN ATOMIC CHARGES
-----------------------
   0 C :   -0.453948
   1 C :   -0.810287
   2 H :    0.385256
   3 C :   -0.359425
   4 H :    0.286711
   5 H :    0.211908
   6 H :    0.327399
   7 C :   -0.546983
   8 H :    0.311487
   9 C :   -0.791073
  10 H :    0.296806
  11 C :   -0.481113
  12 H :    0.321078
  13 H :    0.312464
  14 C :    0.451563
  15 H :    0.273403
  16 H :    0.350954
  17 H :   -0.804186
  18 C :   -0.434249
  19 H :    0.410192
  20 H :    0.243135
  21 H :    0.332484
  22 C :   -0.685163
  23 H :    0.241193
  24 H :    0.256540
  25 O :   -1.024240
  26 C :    0.031216
  27 N :   -0.218102
  28 N :   -0.184439
  29 H :    0.239852
  30 H :    0.321356
  31 H :    0.220750
  32 H :    0.351101
  33 H :    0.389662
  34 H :    0.226697
Sum of atomic charges:   -0.0000000

LOEWDIN ATOMIC CHARGES
----------------------
   0 C :   -0.113458
   1 C :   -0.191952
   2 H :    0.108057
   3 C :   -0.211335
   4 H :    0.114576
   5 H :    0.091829
   6 H :    0.122240
   7 C :   -0.212857
   8 H :    0.094115
   9 C :   -0.207156
  10 H :    0.116001
  11 C :   -0.220225
  12 H :    0.108841
  13 H :    0.110359
  14 C :   -0.223721
  15 H :    0.102237
  16 H :    0.112876
  17 H :    0.070895
  18 C :   -0.205787
  19 H :    0.124750
  20 H :    0.107125
  21 H :    0.108423
  22 C :   -0.396303
  23 H :    0.095637
  24 H :    0.100610
  25 O :   -0.341494
  26 C :   -0.386955
  27 N :    0.193388
  28 N :    0.209476
  29 H :    0.135267
  30 H :    0.055446
  31 H :    0.136430
  32 H :    0.049302
  33 H :    0.115216
  34 H :    0.128148

  Mayer bond orders larger than 0.100000
B(  0-C ,  1-C ) :   0.8954 B(  0-C ,  7-C ) :   0.1325 B(  0-C , 26-C ) :   0.9156
B(  0-C , 33-H ) :   0.8666 B(  0-C , 34-H ) :   0.9654 B(  1-C ,  2-H ) :   0.8620
B(  1-C ,  3-C ) :   0.9420 B(  1-C ,  4-H ) :   0.9087 B(  1-C ,  7-C ) :   0.3656
B(  1-C , 26-C ) :   0.1568 B(  3-C ,  5-H ) :   1.0545 B(  3-C ,  6-H ) :   0.8460
B(  3-C ,  7-C ) :   0.4915 B(  3-C ,  9-C ) :   0.2835 B(  3-C , 11-C ) :   0.2287
B(  3-C , 26-C ) :   0.1051 B(  7-C ,  8-H ) :   0.9760 B(  7-C ,  9-C ) :   0.9163
B(  7-C , 10-H ) :   0.8937 B(  9-C , 11-C ) :   0.8402 B(  9-C , 12-H ) :   0.9022
B(  9-C , 13-H ) :   0.9378 B(  9-C , 14-C ) :   0.3347 B( 11-C , 14-C ) :   0.5140
B( 11-C , 15-H ) :   0.9364 B( 11-C , 16-H ) :   0.8792 B( 11-C , 17-H ) :  -0.1892
B( 11-C , 18-C ) :   0.4630 B( 14-C , 17-H ) :   1.7786 B( 14-C , 18-C ) :   0.5846
B( 14-C , 19-H ) :   0.8408 B( 14-C , 22-C ) :   0.3280 B( 14-C , 25-O ) :   0.1975
B( 17-H , 18-C ) :   0.2433 B( 17-H , 25-O ) :  -0.1524 B( 18-C , 19-H ) :  -0.1201
B( 18-C , 20-H ) :   0.9222 B( 18-C , 21-H ) :   0.9284 B( 18-C , 22-C ) :   0.7199
B( 22-C , 23-H ) :   0.9799 B( 22-C , 24-H ) :   0.9720 B( 22-C , 25-O ) :   1.0796
B( 25-O , 26-C ) :  -0.1487 B( 25-O , 30-H ) :   0.2546 B( 25-O , 32-H ) :   0.1884
B( 26-C , 27-N ) :   1.6095 B( 26-C , 28-N ) :   1.4697 B( 27-N , 31-H ) :   0.9260
B( 27-N , 32-H ) :   0.7128 B( 28-N , 29-H ) :   0.8885 B( 28-N , 30-H ) :   0.7191

Dispersion correction           -0.017913791
FINAL SINGLE POINT ENERGY      -579.100173818694

DIPOLE MOMENT
-------------
                                X             Y             Z
Electronic contribution:      2.83611      -0.26265       7.51358
Nuclear contribution   :     -0.17996       0.53390      -8.68067
                        -----------------------------------------
Total Dipole Moment    :      2.65615       0.27125      -1.16709
                        -----------------------------------------
Magnitude (a.u.)       :      2.91390
Magnitude (Debye)      :      7.40654

Rotational constants in cm-1:     0.028240     0.022734     0.014600
Rotational constants in MHz :   846.611263   681.554306   437.693928

                             ****ORCA TERMINATED NORMALLY****
TOTAL RUN TIME: 0 days 0 hours 2 minutes 28 seconds 297 msec
