                         Program Version 5.0.0 -  RELEASE  -
|  1> !wB97X-D3 RIJCOSX def2-TZVPD def2/J TightSCF
|  2> *xyz 0 1
|  3> C         -0.96015       -0.52236       -0.48987
|  4> F          0.26170       -0.58031        0.13861
|  5> H         -0.85050       -0.82220       -1.51113
|  6> H         -1.33436        0.47929       -0.45044
|  7> H         -1.64624       -1.17908        0.00297
|  8> *
|  9>
| 10> %MaxCore 64000
| 11>
| 12> %pal nprocs 18
| 13> end
| 14>
| 15> %scf
| 16>   MaxIter 150
| 17> end
| 18>
| 19>
| 20>                          ****END OF INPUT****

CARTESIAN COORDINATES (ANGSTROEM)
---------------------------------
  C     -0.960150   -0.522360   -0.489870
  F      0.261700   -0.580310    0.138610
  H     -0.850500   -0.822200   -1.511130
  H     -1.334360    0.479290   -0.450440
  H     -1.646240   -1.179080    0.002970

 Total Charge           Charge          ....    0
 Multiplicity           Mult            ....    1
 Number of Electrons    NEL             ....   18
 Basis Dimension        Dim             ....  104

ORBITAL ENERGIES
----------------

  NO   OCC          E(Eh)            E(eV)
   0   2.0000     -24.767683      -673.9629
   1   2.0000     -10.340222      -281.3717
   2   2.0000      -1.309749       -35.6401
   3   2.0000      -0.821572       -22.3561
   4   2.0000      -0.594464       -16.1762
   5   2.0000      -0.591253       -16.0888
   6   2.0000      -0.591240       -16.0885
   7   2.0000      -0.448445       -12.2028
   8   2.0000      -0.448437       -12.2026
   9   0.0000       0.074079         2.0158
  10   0.0000       0.115880         3.1532
  11   0.0000       0.134576         3.6620
  12   0.0000       0.134577         3.6620
  13   0.0000       0.160979         4.3805

MULLIKEN ATOMIC CHARGES
-----------------------
   0 C :   -0.335765
   1 F :   -0.288433
   2 H :    0.208126
   3 H :    0.207891
   4 H :    0.208181
Sum of atomic charges:    0.0000000

LOEWDIN ATOMIC CHARGES
----------------------
   0 C :   -0.110570
   1 F :   -0.103238
   2 H :    0.071272
   3 H :    0.071252
   4 H :    0.071284

  Mayer bond orders larger than 0.100000
B(  0-C ,  1-F ) :   0.8300 B(  0-C ,  2-H ) :   0.9496 B(  0-C ,  3-H ) :   0.9498
B(  0-C ,  4-H ) :   0.9496

Dispersion correction           -0.000132016
FINAL SINGLE POINT ENERGY      -139.766333474276

DIPOLE MOMENT
-------------
                                X             Y             Z
Electronic contribution:      2.61997      -0.12431       1.34768
Nuclear contribution   :     -3.25854       0.15455      -1.67609
                        -----------------------------------------
Total Dipole Moment    :     -0.63857       0.03024      -0.32841
                        -----------------------------------------
Magnitude (a.u.)       :      0.71870
Magnitude (Debye)      :      1.82680

Rotational constants in cm-1:     5.477744     0.868130     0.868129
Rotational constants in MHz : 164218.635293 26025.869915 26025.850419

                             ****ORCA TERMINATED NORMALLY****
TOTAL RUN TIME: 0 days 0 hours 0 minutes 5 seconds 75 msec
