                         Program Version 5.0.0 -  RELEASE  -
|  1> !wB97X-D3 RIJCOSX def2-TZVPD def2/J TightSCF
|  2> *xyz 0 1
|  3> C          4.36645       -0.13321       -1.41606
|  4> C          3.05650       -0.32080       -0.70738
|  5> C          2.38983        0.71129       -0.24391
|  6> N          2.51600       -1.50772       -0.55023
|  7> H          2.96768       -2.32291       -0.95631
|  8> H          1.54987       -1.49063       -0.24988
|  9> H          2.74307        1.64947       -0.41280
| 10> H          1.44036        0.50278        0.03703
| 11> H          4.74975       -1.08632       -1.71533
| 12> H          5.06373        0.34075       -0.75722
| 13> H          4.21960        0.47966       -2.28077
| 14> *
| 15>
| 16> %MaxCore 64000
| 17>
| 18> %pal nprocs 18
| 19> end
| 20>
| 21> %scf
| 22>   MaxIter 150
| 23> end
| 24>
| 25>
| 26>                          ****END OF INPUT****

CARTESIAN COORDINATES (ANGSTROEM)
---------------------------------
  C      4.366450   -0.133210   -1.416060
  C      3.056500   -0.320800   -0.707380
  C      2.389830    0.711290   -0.243910
  N      2.516000   -1.507720   -0.550230
  H      2.967680   -2.322910   -0.956310
  H      1.549870   -1.490630   -0.249880
  H      2.743070    1.649470   -0.412800
  H      1.440360    0.502780    0.037030
  H      4.749750   -1.086320   -1.715330
  H      5.063730    0.340750   -0.757220
  H      4.219600    0.479660   -2.280770

 Total Charge           Charge          ....    0
 Multiplicity           Mult            ....    1
 Number of Electrons    NEL             ....   32
 Basis Dimension        Dim             ....  211

ORBITAL ENERGIES
----------------

  NO   OCC          E(Eh)            E(eV)
   0   2.0000     -14.421437      -392.4273
   1   2.0000     -10.295781      -280.1624
   2   2.0000     -10.266086      -279.3544
   3   2.0000     -10.199161      -277.5333
   4   2.0000      -1.050881       -28.5959
   5   2.0000      -0.871868       -23.7247
   6   2.0000      -0.806432       -21.9441
   7   2.0000      -0.670305       -18.2399
   8   2.0000      -0.635472       -17.2921
   9   2.0000      -0.570126       -15.5139
  10   2.0000      -0.533446       -14.5158
  11   2.0000      -0.497938       -13.5496
  12   2.0000      -0.487120       -13.2552
  13   2.0000      -0.453569       -12.3423
  14   2.0000      -0.433924       -11.8077
  15   2.0000      -0.274913        -7.4808
  16   0.0000       0.068793         1.8720
  17   0.0000       0.097405         2.6505
  18   0.0000       0.100135         2.7248
  19   0.0000       0.113468         3.0876
  20   0.0000       0.132858         3.6153

MULLIKEN ATOMIC CHARGES
-----------------------
   0 C :   -1.108706
   1 C :    1.039277
   2 C :   -1.461832
   3 N :   -0.445946
   4 H :    0.207005
   5 H :    0.173843
   6 H :    0.351843
   7 H :    0.318358
   8 H :    0.346159
   9 H :    0.296479
  10 H :    0.283522
Sum of atomic charges:   -0.0000000

LOEWDIN ATOMIC CHARGES
----------------------
   0 C :   -0.034650
   1 C :   -0.530824
   2 C :   -0.007159
   3 N :    0.080748
   4 H :    0.109975
   5 H :    0.110238
   6 H :    0.028789
   7 H :    0.020856
   8 H :    0.064017
   9 H :    0.078920
  10 H :    0.079090

  Mayer bond orders larger than 0.100000
B(  0-C ,  1-C ) :   0.5849 B(  0-C ,  2-C ) :   0.1014 B(  0-C ,  8-H ) :   0.9390
B(  0-C ,  9-H ) :   0.9668 B(  0-C , 10-H ) :   0.9467 B(  1-C ,  2-C ) :   1.0352
B(  1-C ,  3-N ) :   1.0736 B(  1-C ,  7-H ) :  -0.1544 B(  2-C ,  3-N ) :   0.1152
B(  2-C ,  6-H ) :   0.9290 B(  2-C ,  7-H ) :   1.0054 B(  3-N ,  4-H ) :   1.0029
B(  3-N ,  5-H ) :   0.9941

Dispersion correction           -0.001655156
FINAL SINGLE POINT ENERGY      -173.260511964772

DIPOLE MOMENT
-------------
                                X             Y             Z
Electronic contribution:     -0.99314      -1.15535       0.65630
Nuclear contribution   :      1.07959       0.48266      -1.05101
                        -----------------------------------------
Total Dipole Moment    :      0.08645      -0.67269      -0.39471
                        -----------------------------------------
Magnitude (a.u.)       :      0.78471
Magnitude (Debye)      :      1.99458

Rotational constants in cm-1:     0.369235     0.294626     0.169175
Rotational constants in MHz : 11069.394850  8832.653024  5071.734673

                             ****ORCA TERMINATED NORMALLY****
TOTAL RUN TIME: 0 days 0 hours 0 minutes 15 seconds 960 msec
