                         Program Version 5.0.0 -  RELEASE  -
|  1> !wB97X-D3 RIJCOSX def2-TZVPD def2/J TightSCF
|  2> *xyz 0 1
|  3> C          4.36645       -0.13321       -1.41606
|  4> C          3.05650       -0.32080       -0.70738
|  5> N          2.38983        0.71129       -0.24391
|  6> C          2.51600       -1.50772       -0.55023
|  7> H          2.96768       -2.32291       -0.95631
|  8> H          1.54987       -1.49063       -0.24988
|  9> H          2.74307        1.64947       -0.41280
| 10> H          1.44036        0.50278        0.03703
| 11> H          4.74975       -1.08632       -1.71533
| 12> H          5.06373        0.34075       -0.75722
| 13> H          4.21960        0.47966       -2.28077
| 14> *
| 15>
| 16> %MaxCore 64000
| 17>
| 18> %pal nprocs 18
| 19> end
| 20>
| 21> %scf
| 22>   MaxIter 150
| 23> end
| 24>
| 25>
| 26>                          ****END OF INPUT****

CARTESIAN COORDINATES (ANGSTROEM)
---------------------------------
  C      4.366450   -0.133210   -1.416060
  C      3.056500   -0.320800   -0.707380
  N      2.389830    0.711290   -0.243910
  C      2.516000   -1.507720   -0.550230
  H      2.967680   -2.322910   -0.956310
  H      1.549870   -1.490630   -0.249880
  H      2.743070    1.649470   -0.412800
  H      1.440360    0.502780    0.037030
  H      4.749750   -1.086320   -1.715330
  H      5.063730    0.340750   -0.757220
  H      4.219600    0.479660   -2.280770

 Total Charge           Charge          ....    0
 Multiplicity           Mult            ....    1
 Number of Electrons    NEL             ....   32
 Basis Dimension        Dim             ....  211

ORBITAL ENERGIES
----------------

  NO   OCC          E(Eh)            E(eV)
   0   2.0000     -14.420048      -392.3895
   1   2.0000     -10.296419      -280.1798
   2   2.0000     -10.265794      -279.3464
   3   2.0000     -10.203319      -277.6464
   4   2.0000      -1.050941       -28.5976
   5   2.0000      -0.870950       -23.6998
   6   2.0000      -0.807958       -21.9857
   7   2.0000      -0.670478       -18.2446
   8   2.0000      -0.635588       -17.2952
   9   2.0000      -0.570363       -15.5204
  10   2.0000      -0.535245       -14.5648
  11   2.0000      -0.495866       -13.4932
  12   2.0000      -0.489564       -13.3217
  13   2.0000      -0.453613       -12.3434
  14   2.0000      -0.432436       -11.7672
  15   2.0000      -0.278311        -7.5732
  16   0.0000       0.068457         1.8628
  17   0.0000       0.097703         2.6586
  18   0.0000       0.101122         2.7517
  19   0.0000       0.115921         3.1544
  20   0.0000       0.131952         3.5906

MULLIKEN ATOMIC CHARGES
-----------------------
   0 C :   -1.199181
   1 C :    1.058344
   2 N :   -0.463770
   3 C :   -1.385247
   4 H :    0.321284
   5 H :    0.317511
   6 H :    0.212598
   7 H :    0.171600
   8 H :    0.289125
   9 H :    0.335663
  10 H :    0.342073
Sum of atomic charges:   -0.0000000

LOEWDIN ATOMIC CHARGES
----------------------
   0 C :   -0.037840
   1 C :   -0.535570
   2 N :    0.078351
   3 C :    0.002800
   4 H :    0.024637
   5 H :    0.022242
   6 H :    0.113508
   7 H :    0.109889
   8 H :    0.072525
   9 H :    0.073705
  10 H :    0.075754

  Mayer bond orders larger than 0.100000
B(  0-C ,  1-C ) :   0.5163 B(  0-C ,  8-H ) :   0.9722 B(  0-C ,  9-H ) :   0.9349
B(  0-C , 10-H ) :   0.9190 B(  1-C ,  2-N ) :   1.1200 B(  1-C ,  3-C ) :   1.0769
B(  1-C ,  5-H ) :  -0.1448 B(  2-N ,  3-C ) :   0.1038 B(  2-N ,  6-H ) :   0.9980
B(  2-N ,  7-H ) :   0.9899 B(  3-C ,  4-H ) :   0.9618 B(  3-C ,  5-H ) :   0.9957

Dispersion correction           -0.001666998
FINAL SINGLE POINT ENERGY      -173.263589237682

DIPOLE MOMENT
-------------
                                X             Y             Z
Electronic contribution:     -1.12671       0.76714       0.93744
Nuclear contribution   :      1.10788      -0.01499      -1.11971
                        -----------------------------------------
Total Dipole Moment    :     -0.01883       0.75214      -0.18227
                        -----------------------------------------
Magnitude (a.u.)       :      0.77414
Magnitude (Debye)      :      1.96771

Rotational constants in cm-1:     0.367851     0.295709     0.169239
Rotational constants in MHz : 11027.892768  8865.123922  5073.656136

                             ****ORCA TERMINATED NORMALLY****
TOTAL RUN TIME: 0 days 0 hours 0 minutes 13 seconds 64 msec
