                         Program Version 5.0.0 -  RELEASE  -
|  1> !wB97X-D3 RIJCOSX def2-TZVPD def2/J TightSCF xyzfile
|  2>
|  3> *xyzfile 0 1 D1.xyz
|  4>
|  5> %MaxCore 64000
|  6>
|  7> %pal nprocs 18
|  8> end
|  9>
| 10> %scf
| 11>   MaxIter 150
| 12> end
| 13>
| 14>
| 15>                          ****END OF INPUT****

CARTESIAN COORDINATES (ANGSTROEM)
---------------------------------
  C      4.366454   -0.133215   -1.416062
  C      4.508292   -0.931872   -2.724249
  H      4.753716   -1.972051   -2.488408
  C      3.294164   -0.918214   -3.656570
  H      5.385637   -0.536236   -3.242640
  H      2.483463   -1.477378   -3.185764
  H      3.553092   -1.478495   -4.560331
  C      2.772335    0.460100   -4.051448
  H      2.608762    1.065107   -3.155194
  C      1.465354    0.410537   -4.853644
  H      3.532940    0.988848   -4.635671
  C      0.326171   -0.375613   -4.192580
  H      1.666704   -0.022269   -5.839323
  H      1.138198    1.439246   -5.035449
  C     -0.017405    0.080588   -2.778406
  H      0.585573   -1.439385   -4.168057
  H     -0.560005   -0.311425   -4.831461
  H      0.902090    0.201296   -2.206729
  C     -0.903495   -0.873945   -1.987388
  H     -0.479549    1.074657   -2.811915
  H     -0.502554   -1.892096   -2.081204
  H     -1.917039   -0.895427   -2.406277
  C     -0.960148   -0.522365   -0.489867
  H     -1.690392   -1.208130   -0.021677
  H     -1.414490    0.486329   -0.406677
  F      0.261703   -0.580307    0.138611
  C      3.056503   -0.320797   -0.707384
  C      2.389825    0.711285   -0.243909
  N      2.515999   -1.507721   -0.550229
  H      2.967683   -2.322915   -0.956305
  H      1.549872   -1.490634   -0.249876
  H      2.743071    1.649471   -0.412802
  H      1.440364    0.502778    0.037031
  H      4.487835    0.932997   -1.611569
  H      5.169672   -0.414432   -0.729817

 Total Charge           Charge          ....    0
 Multiplicity           Mult            ....    1
 Number of Electrons    NEL             ....  104
 Basis Dimension        Dim             ....  682

ORBITAL ENERGIES
----------------

  NO   OCC          E(Eh)            E(eV)
   0   2.0000     -24.802414      -674.9080
   1   2.0000     -14.395059      -391.7095
   2   2.0000     -10.367039      -282.1015
   3   2.0000     -10.287312      -279.9320
   4   2.0000     -10.276480      -279.6372
   5   2.0000     -10.268206      -279.4121
   6   2.0000     -10.267610      -279.3959
   7   2.0000     -10.265350      -279.3344
   8   2.0000     -10.265201      -279.3303
   9   2.0000     -10.263280      -279.2781
  10   2.0000     -10.261152      -279.2201
  11   2.0000     -10.259011      -279.1619
  12   2.0000     -10.177138      -276.9340
  13   2.0000      -1.353159       -36.8213
  14   2.0000      -1.033095       -28.1119
  15   2.0000      -0.936903       -25.4944
  16   2.0000      -0.914243       -24.8778
  17   2.0000      -0.887129       -24.1400
  18   2.0000      -0.848314       -23.0838
  19   2.0000      -0.820367       -22.3233
  20   2.0000      -0.798673       -21.7330
  21   2.0000      -0.750223       -20.4146
  22   2.0000      -0.726126       -19.7589
  23   2.0000      -0.696074       -18.9411
  24   2.0000      -0.664229       -18.0746
  25   2.0000      -0.648045       -17.6342
  26   2.0000      -0.638647       -17.3785
  27   2.0000      -0.631063       -17.1721
  28   2.0000      -0.618712       -16.8360
  29   2.0000      -0.589674       -16.0458
  30   2.0000      -0.573809       -15.6141
  31   2.0000      -0.561712       -15.2850
  32   2.0000      -0.543932       -14.8011
  33   2.0000      -0.538221       -14.6457
  34   2.0000      -0.527443       -14.3525
  35   2.0000      -0.521634       -14.1944
  36   2.0000      -0.495693       -13.4885
  37   2.0000      -0.486649       -13.2424
  38   2.0000      -0.476830       -12.9752
  39   2.0000      -0.468583       -12.7508
  40   2.0000      -0.461022       -12.5450
  41   2.0000      -0.452040       -12.3006
  42   2.0000      -0.444840       -12.1047
  43   2.0000      -0.435971       -11.8634
  44   2.0000      -0.432892       -11.7796
  45   2.0000      -0.424313       -11.5462
  46   2.0000      -0.405219       -11.0266
  47   2.0000      -0.404996       -11.0205
  48   2.0000      -0.396712       -10.7951
  49   2.0000      -0.393563       -10.7094
  50   2.0000      -0.390103       -10.6152
  51   2.0000      -0.258777        -7.0417
  52   0.0000       0.065432         1.7805
  53   0.0000       0.073154         1.9906
  54   0.0000       0.077846         2.1183
  55   0.0000       0.080425         2.1885
  56   0.0000       0.095605         2.6016

MULLIKEN ATOMIC CHARGES
-----------------------
   0 C :   -0.514368
   1 C :   -0.777690
   2 H :    0.366067
   3 C :   -0.318348
   4 H :    0.272054
   5 H :    0.191276
   6 H :    0.293836
   7 C :   -0.546980
   8 H :    0.283229
   9 C :   -0.784170
  10 H :    0.300198
  11 C :   -0.549754
  12 H :    0.327733
  13 H :    0.315100
  14 C :    0.440911
  15 H :    0.316107
  16 H :    0.347619
  17 H :   -0.757136
  18 C :   -0.631181
  19 H :    0.372311
  20 H :    0.291179
  21 H :    0.351016
  22 C :   -0.427668
  23 H :    0.266510
  24 H :    0.308526
  25 F :   -0.440332
  26 C :    0.417325
  27 C :   -1.652291
  28 N :   -0.289287
  29 H :    0.230870
  30 H :    0.352708
  31 H :    0.371887
  32 H :    0.676538
  33 H :    0.349283
  34 H :    0.246924
Sum of atomic charges:    0.0000000

LOEWDIN ATOMIC CHARGES
----------------------
   0 C :   -0.142472
   1 C :   -0.199412
   2 H :    0.102977
   3 C :   -0.214005
   4 H :    0.108403
   5 H :    0.087965
   6 H :    0.116899
   7 C :   -0.209019
   8 H :    0.099152
   9 C :   -0.206134
  10 H :    0.116028
  11 C :   -0.216868
  12 H :    0.108885
  13 H :    0.109696
  14 C :   -0.217008
  15 H :    0.103978
  16 H :    0.111662
  17 H :    0.075441
  18 C :   -0.180778
  19 H :    0.127925
  20 H :    0.115906
  21 H :    0.120723
  22 C :   -0.184164
  23 H :    0.121293
  24 H :    0.130160
  25 F :   -0.090283
  26 C :   -0.486510
  27 C :    0.012515
  28 N :    0.116786
  29 H :    0.115416
  30 H :    0.076086
  31 H :    0.037042
  32 H :    0.002796
  33 H :    0.111415
  34 H :    0.117502

  Mayer bond orders larger than 0.100000
B(  0-C ,  1-C ) :   0.8984 B(  0-C ,  7-C ) :   0.1865 B(  0-C , 26-C ) :   0.9567
B(  0-C , 33-H ) :   0.8726 B(  0-C , 34-H ) :   0.9304 B(  1-C ,  2-H ) :   0.8720
B(  1-C ,  3-C ) :   0.9352 B(  1-C ,  4-H ) :   0.9173 B(  1-C ,  7-C ) :   0.3685
B(  3-C ,  5-H ) :   1.0377 B(  3-C ,  6-H ) :   0.8685 B(  3-C ,  7-C ) :   0.5133
B(  3-C ,  9-C ) :   0.2770 B(  3-C , 11-C ) :   0.2583 B(  7-C ,  8-H ) :   1.0482
B(  7-C ,  9-C ) :   0.8600 B(  7-C , 10-H ) :   0.8674 B(  9-C , 11-C ) :   0.8993
B(  9-C , 12-H ) :   0.8975 B(  9-C , 13-H ) :   0.9275 B(  9-C , 14-C ) :   0.3225
B( 11-C , 14-C ) :   0.5064 B( 11-C , 15-H ) :   0.9096 B( 11-C , 16-H ) :   0.8764
B( 11-C , 18-C ) :   0.4845 B( 14-C , 17-H ) :   1.7031 B( 14-C , 18-C ) :   0.5415
B( 14-C , 19-H ) :   0.7940 B( 14-C , 22-C ) :   0.3053 B( 14-C , 26-C ) :  -0.1558
B( 14-C , 27-C ) :   0.1699 B( 17-H , 18-C ) :   0.2034 B( 18-C , 19-H ) :  -0.1267
B( 18-C , 20-H ) :   0.9064 B( 18-C , 21-H ) :   0.8944 B( 18-C , 22-C ) :   0.8288
B( 22-C , 23-H ) :   0.9465 B( 22-C , 24-H ) :   0.9136 B( 22-C , 25-F ) :   0.8258
B( 25-F , 27-C ) :   0.1210 B( 26-C , 27-C ) :   1.4889 B( 26-C , 28-N ) :   1.0626
B( 26-C , 32-H ) :  -0.1074 B( 27-C , 31-H ) :   0.9191 B( 27-C , 32-H ) :   0.6973
B( 28-N , 29-H ) :   0.8663 B( 28-N , 30-H ) :   0.7983

Dispersion correction           -0.017828120
FINAL SINGLE POINT ENERGY      -587.031669539588

DIPOLE MOMENT
-------------
                                X             Y             Z
Electronic contribution:     -2.70191      -1.60075      10.43998
Nuclear contribution   :      1.82572       1.04089     -11.09065
                        -----------------------------------------
Total Dipole Moment    :     -0.87619      -0.55985      -0.65066
                        -----------------------------------------
Magnitude (a.u.)       :      1.22658
Magnitude (Debye)      :      3.11773

Rotational constants in cm-1:     0.028436     0.022359     0.014416
Rotational constants in MHz :   852.496561   670.291843   432.183951

                             ****ORCA TERMINATED NORMALLY****
TOTAL RUN TIME: 0 days 0 hours 3 minutes 1 seconds 309 msec
