                         Program Version 5.0.0 -  RELEASE  -
|  1> !wB97X-D3 RIJCOSX def2-SVPD def2/J TightSCF CPCM(Water)
|  2> *xyz -1 1
|  3> C          3.80351        1.37472       -3.26081
|  4> C          3.93993        0.32036       -4.36773
|  5> H          4.10504       -0.65508       -3.90773
|  6> H          3.02280        0.28052       -4.95712
|  7> C          5.10585        0.66802       -5.30546
|  8> O          4.80913        1.15019       -6.41436
|  9> O          6.26737        0.56500       -4.81948
| 10> H          3.64113        2.33595       -3.70189
| 11> H          4.69995        1.39701       -2.67703
| 12> H          2.97435        1.12625       -2.63180
| 13> *
| 14>
| 15> %MaxCore 64000
| 16>
| 17> %pal nprocs 18
| 18> end
| 19>
| 20> %scf
| 21>   MaxIter 150
| 22> end
| 23>
| 24>
| 25>                          ****END OF INPUT****

CARTESIAN COORDINATES (ANGSTROEM)
---------------------------------
  C      3.803510    1.374720   -3.260810
  C      3.939930    0.320360   -4.367730
  H      4.105040   -0.655080   -3.907730
  H      3.022800    0.280520   -4.957120
  C      5.105850    0.668020   -5.305460
  O      4.809130    1.150190   -6.414360
  O      6.267370    0.565000   -4.819480
  H      3.641130    2.335950   -3.701890
  H      4.699950    1.397010   -2.677030
  H      2.974350    1.126250   -2.631800

 Total Charge           Charge          ....   -1
 Multiplicity           Mult            ....    1
 Number of Electrons    NEL             ....   40
 Basis Dimension        Dim             ....  146

ORBITAL ENERGIES
----------------

  NO   OCC          E(Eh)            E(eV)
   0   2.0000     -19.180408      -521.9254
   1   2.0000     -19.176819      -521.8278
   2   2.0000     -10.366209      -282.0789
   3   2.0000     -10.269253      -279.4406
   4   2.0000     -10.266505      -279.3658
   5   2.0000      -1.125105       -30.6157
   6   2.0000      -1.030606       -28.0442
   7   2.0000      -0.864669       -23.5288
   8   2.0000      -0.729814       -19.8592
   9   2.0000      -0.591354       -16.0916
  10   2.0000      -0.544818       -14.8253
  11   2.0000      -0.537960       -14.6386
  12   2.0000      -0.507942       -13.8218
  13   2.0000      -0.495678       -13.4881
  14   2.0000      -0.466505       -12.6943
  15   2.0000      -0.435567       -11.8524
  16   2.0000      -0.429434       -11.6855
  17   2.0000      -0.344689        -9.3795
  18   2.0000      -0.326975        -8.8974
  19   2.0000      -0.325331        -8.8527
  20   0.0000       0.095335         2.5942
  21   0.0000       0.120370         3.2754
  22   0.0000       0.131176         3.5695
  23   0.0000       0.143241         3.8978
  24   0.0000       0.148865         4.0508

MULLIKEN ATOMIC CHARGES
-----------------------
   0 C :    0.466807
   1 C :   -0.297041
   2 H :    0.006042
   3 H :   -0.015985
   4 C :    0.401750
   5 O :   -0.694372
   6 O :   -0.745521
   7 H :   -0.048134
   8 H :   -0.043969
   9 H :   -0.029576
Sum of atomic charges:   -1.0000000

LOEWDIN ATOMIC CHARGES
----------------------
   0 C :    0.118047
   1 C :   -0.036260
   2 H :    0.018049
   3 H :    0.010089
   4 C :   -0.327233
   5 O :   -0.356014
   6 O :   -0.372065
   7 H :   -0.013645
   8 H :   -0.021854
   9 H :   -0.019115

  Mayer bond orders larger than 0.100000
B(  0-C ,  1-C ) :   1.2940 B(  0-C ,  7-H ) :   0.8679 B(  0-C ,  8-H ) :   0.8549
B(  0-C ,  9-H ) :   0.8727 B(  1-C ,  2-H ) :   0.9193 B(  1-C ,  3-H ) :   0.9525
B(  1-C ,  4-C ) :   1.0414 B(  1-C ,  7-H ) :   0.1553 B(  1-C ,  8-H ) :   0.1611
B(  1-C ,  9-H ) :   0.1300 B(  3-H ,  4-C ) :   0.1268 B(  4-C ,  5-O ) :   1.5104
B(  4-C ,  6-O ) :   1.4836 B(  5-O ,  6-O ) :   0.1331

Dispersion correction           -0.001990616
FINAL SINGLE POINT ENERGY      -267.691918168941

DIPOLE MOMENT
-------------
                                X             Y             Z
Electronic contribution:      3.13863      -0.58674      -3.97680
Nuclear contribution   :     -5.15232       0.33441       5.87398
                        -----------------------------------------
Total Dipole Moment    :     -2.01369      -0.25233       1.89718
                        -----------------------------------------
Magnitude (a.u.)       :      2.77812
Magnitude (Debye)      :      7.06141

Rotational constants in cm-1:     0.295355     0.137164     0.110193
Rotational constants in MHz :  8854.523706  4112.077980  3303.490503

                             ****ORCA TERMINATED NORMALLY****
TOTAL RUN TIME: 0 days 0 hours 0 minutes 8 seconds 160 msec
