                         Program Version 5.0.0 -  RELEASE  -
|  1> !wB97X-D3 RIJCOSX def2-SVPD def2/J TightSCF CPCM(Water)
|  2> *xyz 1 1
|  3> C          3.90595        2.81985       -3.75292
|  4> N          5.29562        3.13151       -4.10533
|  5> C          3.80351        1.37472       -3.26081
|  6> C          5.70862        3.46889       -5.32419
|  7> N          6.90470        3.03895       -5.71708
|  8> N          4.98188        4.29357       -6.09746
|  9> H          5.00055        4.10131       -7.08776
| 10> H          4.08469        4.59690       -5.73965
| 11> H          5.96336        2.52611       -3.64239
| 12> H          7.04716        2.06686       -5.47360
| 13> H          7.19815        3.30799       -6.64523
| 14> H          3.28202        2.94919       -4.64026
| 15> H          3.56525        3.51457       -2.98252
| 16> H          4.14157        0.71142       -4.02935
| 17> H          2.78528        1.15146       -3.01944
| 18> H          4.41205        1.25066       -2.38949
| 19> *
| 20>
| 21> %MaxCore 64000
| 22>
| 23> %pal nprocs 18
| 24> end
| 25>
| 26> %scf
| 27>   MaxIter 150
| 28> end
| 29>
| 30>
| 31>                          ****END OF INPUT****

CARTESIAN COORDINATES (ANGSTROEM)
---------------------------------
  C      3.905950    2.819850   -3.752920
  N      5.295620    3.131510   -4.105330
  C      3.803510    1.374720   -3.260810
  C      5.708620    3.468890   -5.324190
  N      6.904700    3.038950   -5.717080
  N      4.981880    4.293570   -6.097460
  H      5.000550    4.101310   -7.087760
  H      4.084690    4.596900   -5.739650
  H      5.963360    2.526110   -3.642390
  H      7.047160    2.066860   -5.473600
  H      7.198150    3.307990   -6.645230
  H      3.282020    2.949190   -4.640260
  H      3.565250    3.514570   -2.982520
  H      4.141570    0.711420   -4.029350
  H      2.785280    1.151460   -3.019440
  H      4.412050    1.250660   -2.389490

 Total Charge           Charge          ....    1
 Multiplicity           Mult            ....    1
 Number of Electrons    NEL             ....   48
 Basis Dimension        Dim             ....  200

ORBITAL ENERGIES
----------------

  NO   OCC          E(Eh)            E(eV)
   0   2.0000     -14.493489      -394.3879
   1   2.0000     -14.488513      -394.2525
   2   2.0000     -14.485875      -394.1807
   3   2.0000     -10.458402      -284.5876
   4   2.0000     -10.341160      -281.3973
   5   2.0000     -10.284057      -279.8434
   6   2.0000      -1.159212       -31.5438
   7   2.0000      -1.045912       -28.4607
   8   2.0000      -1.031817       -28.0772
   9   2.0000      -0.885248       -24.0888
  10   2.0000      -0.775069       -21.0907
  11   2.0000      -0.747183       -20.3319
  12   2.0000      -0.707584       -19.2543
  13   2.0000      -0.676884       -18.4190
  14   2.0000      -0.629388       -17.1265
  15   2.0000      -0.613075       -16.6826
  16   2.0000      -0.587661       -15.9911
  17   2.0000      -0.564049       -15.3486
  18   2.0000      -0.531127       -14.4527
  19   2.0000      -0.504827       -13.7370
  20   2.0000      -0.478998       -13.0342
  21   2.0000      -0.462021       -12.5722
  22   2.0000      -0.412315       -11.2197
  23   2.0000      -0.386221       -10.5096
  24   0.0000       0.059289         1.6133
  25   0.0000       0.085985         2.3398
  26   0.0000       0.114418         3.1135
  27   0.0000       0.120726         3.2851
  28   0.0000       0.144517         3.9325

MULLIKEN ATOMIC CHARGES
-----------------------
   0 C :    0.258999
   1 N :   -0.478638
   2 C :    0.518897
   3 C :    0.881344
   4 N :   -0.099503
   5 N :   -0.090948
   6 H :    0.049011
   7 H :    0.065599
   8 H :   -0.013742
   9 H :    0.076197
  10 H :    0.082548
  11 H :   -0.037824
  12 H :   -0.197011
  13 H :   -0.017428
  14 H :   -0.014160
  15 H :    0.016659
Sum of atomic charges:    1.0000000

LOEWDIN ATOMIC CHARGES
----------------------
   0 C :    0.042614
   1 N :    0.045679
   2 C :    0.144155
   3 C :   -0.042071
   4 N :    0.265798
   5 N :    0.277676
   6 H :    0.047404
   7 H :    0.028705
   8 H :    0.053754
   9 H :    0.047287
  10 H :    0.043561
  11 H :    0.029888
  12 H :    0.032318
  13 H :   -0.005422
  14 H :   -0.004775
  15 H :   -0.006572

  Mayer bond orders larger than 0.100000
B(  0-C ,  1-N ) :   0.8066 B(  0-C ,  2-C ) :   1.2966 B(  0-C , 11-H ) :   0.8568
B(  0-C , 12-H ) :   0.9533 B(  0-C , 13-H ) :   0.2019 B(  0-C , 14-H ) :   0.2137
B(  0-C , 15-H ) :   0.1301 B(  1-N ,  3-C ) :   1.1349 B(  1-N ,  4-N ) :   0.1896
B(  1-N ,  8-H ) :   1.1327 B(  1-N , 11-H ) :   0.1131 B(  1-N , 12-H ) :   0.1536
B(  2-C , 13-H ) :   0.8329 B(  2-C , 14-H ) :   0.8229 B(  2-C , 15-H ) :   0.8461
B(  3-C ,  4-N ) :   1.0306 B(  3-C ,  5-N ) :   0.9921 B(  3-C ,  8-H ) :  -0.1383
B(  4-N ,  5-N ) :   0.1078 B(  4-N ,  9-H ) :   1.0040 B(  4-N , 10-H ) :   0.9456
B(  5-N ,  6-H ) :   1.1115 B(  5-N ,  7-H ) :   0.9288 B(  6-H ,  7-H ) :  -0.1038

Dispersion correction           -0.003685608
FINAL SINGLE POINT ENERGY      -284.225829532170

DIPOLE MOMENT
-------------
                                X             Y             Z
Electronic contribution:      3.62842       3.35303      -2.99227
Nuclear contribution   :     -3.31456      -3.64300       1.57303
                        -----------------------------------------
Total Dipole Moment    :      0.31386      -0.28997      -1.41924
                        -----------------------------------------
Magnitude (a.u.)       :      1.48217
Magnitude (Debye)      :      3.76738

Rotational constants in cm-1:     0.229487     0.071000     0.059428
Rotational constants in MHz :  6879.840828  2128.520047  1781.605314

                             ****ORCA TERMINATED NORMALLY****
TOTAL RUN TIME: 0 days 0 hours 0 minutes 13 seconds 518 msec
