                         Program Version 5.0.0 -  RELEASE  -
|  1> !wB97X-D3 RIJCOSX def2-SVPD def2/J TightSCF CPCM(Water)
|  2> *xyz 0 1
|  3> C          3.80351        1.37472       -3.26081
|  4> C          3.93993        0.32036       -4.36773
|  5> H          4.10504       -0.65508       -3.90773
|  6> H          3.02280        0.28052       -4.95712
|  7> C          5.10585        0.66802       -5.30546
|  8> F          4.80913        1.15019       -6.41436
|  9> O          6.26737        0.56500       -4.81948
| 10> H          3.64113        2.33595       -3.70189
| 11> H          4.69995        1.39701       -2.67703
| 12> H          2.97435        1.12625       -2.63180
| 13> *
| 14>
| 15> %MaxCore 64000
| 16>
| 17> %pal nprocs 18
| 18> end
| 19>
| 20> %scf
| 21>   MaxIter 150
| 22> end
| 23>
| 24>
| 25>                          ****END OF INPUT****

CARTESIAN COORDINATES (ANGSTROEM)
---------------------------------
  C      3.803510    1.374720   -3.260810
  C      3.939930    0.320360   -4.367730
  H      4.105040   -0.655080   -3.907730
  H      3.022800    0.280520   -4.957120
  C      5.105850    0.668020   -5.305460
  F      4.809130    1.150190   -6.414360
  O      6.267370    0.565000   -4.819480
  H      3.641130    2.335950   -3.701890
  H      4.699950    1.397010   -2.677030
  H      2.974350    1.126250   -2.631800

 Total Charge           Charge          ....    0
 Multiplicity           Mult            ....    1
 Number of Electrons    NEL             ....   40
 Basis Dimension        Dim             ....  146

ORBITAL ENERGIES
----------------

  NO   OCC          E(Eh)            E(eV)
   0   2.0000     -24.881179      -677.0513
   1   2.0000     -19.262766      -524.1665
   2   2.0000     -10.482101      -285.2325
   3   2.0000     -10.310627      -280.5664
   4   2.0000     -10.284331      -279.8509
   5   2.0000      -1.434538       -39.0358
   6   2.0000      -1.147079       -31.2136
   7   2.0000      -0.902553       -24.5597
   8   2.0000      -0.794764       -21.6266
   9   2.0000      -0.746152       -20.3038
  10   2.0000      -0.663268       -18.0484
  11   2.0000      -0.646460       -17.5911
  12   2.0000      -0.614847       -16.7308
  13   2.0000      -0.556510       -15.1434
  14   2.0000      -0.534880       -14.5548
  15   2.0000      -0.494584       -13.4583
  16   2.0000      -0.471272       -12.8240
  17   2.0000      -0.459956       -12.5160
  18   2.0000      -0.446273       -12.1437
  19   2.0000      -0.398693       -10.8490
  20   0.0000       0.047879         1.3028
  21   0.0000       0.090083         2.4513
  22   0.0000       0.124942         3.3998
  23   0.0000       0.134301         3.6545
  24   0.0000       0.147094         4.0026

MULLIKEN ATOMIC CHARGES
-----------------------
   0 C :    0.433459
   1 C :   -0.429614
   2 H :    0.083649
   3 H :    0.070672
   4 C :    0.797210
   5 F :   -0.367221
   6 O :   -0.565396
   7 H :   -0.015565
   8 H :   -0.012521
   9 H :    0.005328
Sum of atomic charges:    0.0000000

LOEWDIN ATOMIC CHARGES
----------------------
   0 C :    0.141223
   1 C :    0.012563
   2 H :    0.042676
   3 H :    0.031766
   4 C :    0.004321
   5 F :   -0.022069
   6 O :   -0.190219
   7 H :   -0.004307
   8 H :   -0.010147
   9 H :   -0.005807

  Mayer bond orders larger than 0.100000
B(  0-C ,  1-C ) :   1.2985 B(  0-C ,  7-H ) :   0.8742 B(  0-C ,  8-H ) :   0.8619
B(  0-C ,  9-H ) :   0.8805 B(  1-C ,  2-H ) :   0.9255 B(  1-C ,  3-H ) :   0.9517
B(  1-C ,  4-C ) :   1.0895 B(  1-C ,  7-H ) :   0.1418 B(  1-C ,  8-H ) :   0.1454
B(  1-C ,  9-H ) :   0.1221 B(  4-C ,  5-F ) :   0.7617 B(  4-C ,  6-O ) :   1.7754

Dispersion correction           -0.001944521
FINAL SINGLE POINT ENERGY      -292.120138357514

DIPOLE MOMENT
-------------
                                X             Y             Z
Electronic contribution:      3.61100      -0.02677      -7.46173
Nuclear contribution   :     -5.17129      -0.01923       7.59895
                        -----------------------------------------
Total Dipole Moment    :     -1.56029      -0.04601       0.13721
                        -----------------------------------------
Magnitude (a.u.)       :      1.56699
Magnitude (Debye)      :      3.98298

Rotational constants in cm-1:     0.282073     0.131822     0.105134
Rotational constants in MHz :  8456.328792  3951.925810  3151.840112

                             ****ORCA TERMINATED NORMALLY****
TOTAL RUN TIME: 0 days 0 hours 0 minutes 9 seconds 464 msec
