                         Program Version 5.0.0 -  RELEASE  -
|  1> !wB97X-D3 RIJCOSX def2-SVPD def2/J TightSCF CPCM(Water)
|  2> *xyz 0 1
|  3> C          3.90595        2.81985       -3.75292
|  4> C          5.29562        3.13151       -4.10533
|  5> C          3.80351        1.37472       -3.26081
|  6> C          5.70862        3.46889       -5.32419
|  7> N          6.90470        3.03895       -5.71708
|  8> N          4.98188        4.29357       -6.09746
|  9> H          5.00055        4.10131       -7.08776
| 10> H          4.08469        4.59690       -5.73965
| 11> H          5.96336        2.52611       -3.64239
| 12> H          7.04716        2.06686       -5.47360
| 13> H          7.19815        3.30799       -6.64523
| 14> H          3.28202        2.94919       -4.64026
| 15> H          3.56525        3.51457       -2.98252
| 16> H          4.14157        0.71142       -4.02935
| 17> H          2.78528        1.15146       -3.01944
| 18> H          4.41205        1.25066       -2.38949
| 19> *
| 20>
| 21> %MaxCore 64000
| 22>
| 23> %pal nprocs 18
| 24> end
| 25>
| 26> %scf
| 27>   MaxIter 150
| 28> end
| 29>
| 30>
| 31>                          ****END OF INPUT****

CARTESIAN COORDINATES (ANGSTROEM)
---------------------------------
  C      3.905950    2.819850   -3.752920
  C      5.295620    3.131510   -4.105330
  C      3.803510    1.374720   -3.260810
  C      5.708620    3.468890   -5.324190
  N      6.904700    3.038950   -5.717080
  N      4.981880    4.293570   -6.097460
  H      5.000550    4.101310   -7.087760
  H      4.084690    4.596900   -5.739650
  H      5.963360    2.526110   -3.642390
  H      7.047160    2.066860   -5.473600
  H      7.198150    3.307990   -6.645230
  H      3.282020    2.949190   -4.640260
  H      3.565250    3.514570   -2.982520
  H      4.141570    0.711420   -4.029350
  H      2.785280    1.151460   -3.019440
  H      4.412050    1.250660   -2.389490

 Total Charge           Charge          ....    0
 Multiplicity           Mult            ....    1
 Number of Electrons    NEL             ....   48
 Basis Dimension        Dim             ....  200

ORBITAL ENERGIES
----------------

  NO   OCC          E(Eh)            E(eV)
   0   2.0000     -14.434947      -392.7949
   1   2.0000     -14.431559      -392.7027
   2   2.0000     -10.337087      -281.2864
   3   2.0000     -10.269987      -279.4605
   4   2.0000     -10.262324      -279.2520
   5   2.0000     -10.216821      -278.0138
   6   2.0000      -1.072480       -29.1837
   7   2.0000      -0.978400       -26.6236
   8   2.0000      -0.890469       -24.2309
   9   2.0000      -0.804802       -21.8998
  10   2.0000      -0.718585       -19.5537
  11   2.0000      -0.677897       -18.4465
  12   2.0000      -0.632796       -17.2192
  13   2.0000      -0.609857       -16.5951
  14   2.0000      -0.572835       -15.5876
  15   2.0000      -0.548722       -14.9315
  16   2.0000      -0.522006       -14.2045
  17   2.0000      -0.490066       -13.3354
  18   2.0000      -0.469441       -12.7741
  19   2.0000      -0.449945       -12.2436
  20   2.0000      -0.423428       -11.5221
  21   2.0000      -0.420313       -11.4373
  22   2.0000      -0.368229       -10.0200
  23   2.0000      -0.261660        -7.1201
  24   0.0000       0.096106         2.6152
  25   0.0000       0.115362         3.1392
  26   0.0000       0.120047         3.2666
  27   0.0000       0.128038         3.4841
  28   0.0000       0.152749         4.1565

MULLIKEN ATOMIC CHARGES
-----------------------
   0 C :   -0.119816
   1 C :   -0.064224
   2 C :    0.678117
   3 C :    0.174995
   4 N :   -0.022759
   5 N :   -0.054665
   6 H :   -0.011144
   7 H :    0.056440
   8 H :   -0.247542
   9 H :    0.071434
  10 H :   -0.032664
  11 H :   -0.141600
  12 H :   -0.152705
  13 H :   -0.031886
  14 H :   -0.084599
  15 H :   -0.017383
Sum of atomic charges:    0.0000000

LOEWDIN ATOMIC CHARGES
----------------------
   0 C :   -0.111756
   1 C :   -0.053233
   2 C :    0.107929
   3 C :   -0.249951
   4 N :    0.181716
   5 N :    0.196632
   6 H :    0.008838
   7 H :    0.002027
   8 H :   -0.063549
   9 H :    0.015357
  10 H :    0.005431
  11 H :    0.007703
  12 H :    0.005105
  13 H :   -0.013637
  14 H :   -0.022491
  15 H :   -0.016118

  Mayer bond orders larger than 0.100000
B(  0-C ,  1-C ) :   1.0032 B(  0-C ,  2-C ) :   1.2579 B(  0-C ,  8-H ) :   0.1924
B(  0-C , 11-H ) :   0.8893 B(  0-C , 12-H ) :   0.8570 B(  0-C , 13-H ) :   0.2135
B(  0-C , 14-H ) :   0.2493 B(  0-C , 15-H ) :   0.1698 B(  1-C ,  3-C ) :   1.9403
B(  1-C ,  4-N ) :   0.2651 B(  1-C ,  5-N ) :   0.1574 B(  1-C ,  8-H ) :   0.6186
B(  1-C , 11-H ) :   0.1083 B(  1-C , 12-H ) :   0.1597 B(  2-C , 13-H ) :   0.8043
B(  2-C , 14-H ) :   0.8062 B(  2-C , 15-H ) :   0.8241 B(  3-C ,  4-N ) :   1.0385
B(  3-C ,  5-N ) :   1.0205 B(  3-C ,  8-H ) :   0.3196 B(  4-N ,  9-H ) :   0.9839
B(  4-N , 10-H ) :   0.9103 B(  5-N ,  6-H ) :   1.0572 B(  5-N ,  7-H ) :   0.9300

Dispersion correction           -0.003676899
FINAL SINGLE POINT ENERGY      -267.674353596180

DIPOLE MOMENT
-------------
                                X             Y             Z
Electronic contribution:      3.06429       3.05884      -3.31209
Nuclear contribution   :     -3.27358      -3.61654       1.70633
                        -----------------------------------------
Total Dipole Moment    :     -0.20929      -0.55770      -1.60576
                        -----------------------------------------
Magnitude (a.u.)       :      1.71269
Magnitude (Debye)      :      4.35330

Rotational constants in cm-1:     0.231961     0.071249     0.059473
Rotational constants in MHz :  6954.024434  2135.976855  1782.962814

                             ****ORCA TERMINATED NORMALLY****
TOTAL RUN TIME: 0 days 0 hours 0 minutes 14 seconds 625 msec
