                         Program Version 5.0.0 -  RELEASE  -
|  1> !wB97X-D3 RIJCOSX def2-SVPD def2/J TightSCF CPCM(Water)
|  2> *xyz 0 1
|  3> C          3.80351        1.37472       -3.26081
|  4> C          3.93993        0.32036       -4.36773
|  5> H          4.10504       -0.65508       -3.90773
|  6> H          3.02280        0.28052       -4.95712
|  7> C          5.10585        0.66802       -5.30546
|  8> O          4.80913        1.15019       -6.41436
|  9> F          6.26737        0.56500       -4.81948
| 10> H          3.64113        2.33595       -3.70189
| 11> H          4.69995        1.39701       -2.67703
| 12> H          2.97435        1.12625       -2.63180
| 13> *
| 14>
| 15> %MaxCore 64000
| 16>
| 17> %pal nprocs 18
| 18> end
| 19>
| 20> %scf
| 21>   MaxIter 150
| 22> end
| 23>
| 24>
| 25>                          ****END OF INPUT****

CARTESIAN COORDINATES (ANGSTROEM)
---------------------------------
  C      3.803510    1.374720   -3.260810
  C      3.939930    0.320360   -4.367730
  H      4.105040   -0.655080   -3.907730
  H      3.022800    0.280520   -4.957120
  C      5.105850    0.668020   -5.305460
  O      4.809130    1.150190   -6.414360
  F      6.267370    0.565000   -4.819480
  H      3.641130    2.335950   -3.701890
  H      4.699950    1.397010   -2.677030
  H      2.974350    1.126250   -2.631800

 Total Charge           Charge          ....    0
 Multiplicity           Mult            ....    1
 Number of Electrons    NEL             ....   40
 Basis Dimension        Dim             ....  146

ORBITAL ENERGIES
----------------

  NO   OCC          E(Eh)            E(eV)
   0   2.0000     -24.875035      -676.8841
   1   2.0000     -19.265616      -524.2441
   2   2.0000     -10.480196      -285.1806
   3   2.0000     -10.310368      -280.5594
   4   2.0000     -10.284769      -279.8628
   5   2.0000      -1.421406       -38.6784
   6   2.0000      -1.158064       -31.5125
   7   2.0000      -0.903576       -24.5875
   8   2.0000      -0.787812       -21.4375
   9   2.0000      -0.744807       -20.2672
  10   2.0000      -0.657098       -17.8805
  11   2.0000      -0.643181       -17.5018
  12   2.0000      -0.612181       -16.6583
  13   2.0000      -0.557314       -15.1653
  14   2.0000      -0.532029       -14.4772
  15   2.0000      -0.500053       -13.6071
  16   2.0000      -0.477358       -12.9896
  17   2.0000      -0.457260       -12.4427
  18   2.0000      -0.455017       -12.3816
  19   2.0000      -0.397965       -10.8292
  20   0.0000       0.051661         1.4058
  21   0.0000       0.089589         2.4378
  22   0.0000       0.124394         3.3849
  23   0.0000       0.133769         3.6400
  24   0.0000       0.147543         4.0148

MULLIKEN ATOMIC CHARGES
-----------------------
   0 C :    0.410806
   1 C :   -0.416118
   2 H :    0.086959
   3 H :    0.048031
   4 C :    0.805209
   5 O :   -0.525432
   6 F :   -0.403969
   7 H :   -0.016340
   8 H :   -0.000037
   9 H :    0.010890
Sum of atomic charges:   -0.0000000

LOEWDIN ATOMIC CHARGES
----------------------
   0 C :    0.140252
   1 C :    0.012998
   2 H :    0.039515
   3 H :    0.035745
   4 C :    0.001779
   5 O :   -0.176033
   6 F :   -0.035855
   7 H :   -0.004684
   8 H :   -0.008101
   9 H :   -0.005614

  Mayer bond orders larger than 0.100000
B(  0-C ,  1-C ) :   1.2887 B(  0-C ,  7-H ) :   0.8828 B(  0-C ,  8-H ) :   0.8559
B(  0-C ,  9-H ) :   0.8830 B(  1-C ,  2-H ) :   0.9192 B(  1-C ,  3-H ) :   0.9792
B(  1-C ,  4-C ) :   1.0643 B(  1-C ,  7-H ) :   0.1418 B(  1-C ,  8-H ) :   0.1413
B(  1-C ,  9-H ) :   0.1215 B(  4-C ,  5-O ) :   1.8062 B(  4-C ,  6-F ) :   0.7195

Dispersion correction           -0.001942473
FINAL SINGLE POINT ENERGY      -292.125061278720

DIPOLE MOMENT
-------------
                                X             Y             Z
Electronic contribution:      6.35662      -1.13313      -4.44928
Nuclear contribution   :     -6.76123       0.61881       5.86003
                        -----------------------------------------
Total Dipole Moment    :     -0.40461      -0.51433       1.41075
                        -----------------------------------------
Magnitude (a.u.)       :      1.55514
Magnitude (Debye)      :      3.95285

Rotational constants in cm-1:     0.275298     0.134631     0.105723
Rotational constants in MHz :  8253.224169  4036.137572  3169.487264

                             ****ORCA TERMINATED NORMALLY****
TOTAL RUN TIME: 0 days 0 hours 0 minutes 8 seconds 490 msec
