                         Program Version 5.0.0 -  RELEASE  -
|  1> !wB97X-D3 RIJCOSX def2-SVPD def2/J TightSCF CPCM(Water)
|  2> *xyz 0 1
|  3> C          3.90595        2.81985       -3.75292
|  4> N          5.29562        3.13151       -4.10533
|  5> C          3.80351        1.37472       -3.26081
|  6> C          5.70862        3.46889       -5.32419
|  7> C          6.90470        3.03895       -5.71708
|  8> N          4.98188        4.29357       -6.09746
|  9> H          5.00055        4.10131       -7.08776
| 10> H          4.08469        4.59690       -5.73965
| 11> H          5.96336        2.52611       -3.64239
| 12> H          7.04716        2.06686       -5.47360
| 13> H          7.19815        3.30799       -6.64523
| 14> H          3.28202        2.94919       -4.64026
| 15> H          3.56525        3.51457       -2.98252
| 16> H          4.14157        0.71142       -4.02935
| 17> H          2.78528        1.15146       -3.01944
| 18> H          4.41205        1.25066       -2.38949
| 19> *
| 20>
| 21> %MaxCore 64000
| 22>
| 23> %pal nprocs 18
| 24> end
| 25>
| 26> %scf
| 27>   MaxIter 150
| 28> end
| 29>
| 30>
| 31>                          ****END OF INPUT****

CARTESIAN COORDINATES (ANGSTROEM)
---------------------------------
  C      3.905950    2.819850   -3.752920
  N      5.295620    3.131510   -4.105330
  C      3.803510    1.374720   -3.260810
  C      5.708620    3.468890   -5.324190
  C      6.904700    3.038950   -5.717080
  N      4.981880    4.293570   -6.097460
  H      5.000550    4.101310   -7.087760
  H      4.084690    4.596900   -5.739650
  H      5.963360    2.526110   -3.642390
  H      7.047160    2.066860   -5.473600
  H      7.198150    3.307990   -6.645230
  H      3.282020    2.949190   -4.640260
  H      3.565250    3.514570   -2.982520
  H      4.141570    0.711420   -4.029350
  H      2.785280    1.151460   -3.019440
  H      4.412050    1.250660   -2.389490

 Total Charge           Charge          ....    0
 Multiplicity           Mult            ....    1
 Number of Electrons    NEL             ....   48
 Basis Dimension        Dim             ....  200

ORBITAL ENERGIES
----------------

  NO   OCC          E(Eh)            E(eV)
   0   2.0000     -14.439294      -392.9132
   1   2.0000     -14.438732      -392.8979
   2   2.0000     -10.348826      -281.6059
   3   2.0000     -10.318837      -280.7898
   4   2.0000     -10.273962      -279.5687
   5   2.0000     -10.209365      -277.8109
   6   2.0000      -1.082380       -29.4530
   7   2.0000      -0.994453       -27.0604
   8   2.0000      -0.877462       -23.8769
   9   2.0000      -0.816986       -22.2313
  10   2.0000      -0.728730       -19.8297
  11   2.0000      -0.700255       -19.0549
  12   2.0000      -0.636204       -17.3120
  13   2.0000      -0.593909       -16.1611
  14   2.0000      -0.581016       -15.8102
  15   2.0000      -0.545688       -14.8489
  16   2.0000      -0.517944       -14.0940
  17   2.0000      -0.501508       -13.6467
  18   2.0000      -0.474987       -12.9251
  19   2.0000      -0.468000       -12.7349
  20   2.0000      -0.456591       -12.4245
  21   2.0000      -0.434240       -11.8163
  22   2.0000      -0.355734        -9.6800
  23   2.0000      -0.273928        -7.4540
  24   0.0000       0.093375         2.5409
  25   0.0000       0.113846         3.0979
  26   0.0000       0.120535         3.2799
  27   0.0000       0.125413         3.4127
  28   0.0000       0.154275         4.1980

MULLIKEN ATOMIC CHARGES
-----------------------
   0 C :    0.258208
   1 N :   -0.474219
   2 C :    0.557948
   3 C :    0.198504
   4 C :    0.465045
   5 N :   -0.032842
   6 H :    0.030762
   7 H :   -0.028253
   8 H :    0.003045
   9 H :   -0.236468
  10 H :   -0.353969
  11 H :   -0.056492
  12 H :   -0.242611
  13 H :   -0.044365
  14 H :   -0.053321
  15 H :    0.009029
Sum of atomic charges:   -0.0000000

LOEWDIN ATOMIC CHARGES
----------------------
   0 C :    0.017529
   1 N :   -0.015930
   2 C :    0.130794
   3 C :   -0.253428
   4 C :    0.098418
   5 N :    0.204276
   6 H :    0.018623
   7 H :   -0.002722
   8 H :    0.025118
   9 H :   -0.109873
  10 H :   -0.114741
  11 H :    0.019363
  12 H :    0.017555
  13 H :   -0.010234
  14 H :   -0.012714
  15 H :   -0.012033

  Mayer bond orders larger than 0.100000
B(  0-C ,  1-N ) :   0.8347 B(  0-C ,  2-C ) :   1.2858 B(  0-C , 11-H ) :   0.8370
B(  0-C , 12-H ) :   0.9339 B(  0-C , 13-H ) :   0.2145 B(  0-C , 14-H ) :   0.2188
B(  0-C , 15-H ) :   0.1369 B(  1-N ,  3-C ) :   1.1588 B(  1-N ,  4-C ) :   0.2110
B(  1-N ,  8-H ) :   1.0755 B(  1-N , 11-H ) :   0.1193 B(  1-N , 12-H ) :   0.1542
B(  2-C , 13-H ) :   0.8254 B(  2-C , 14-H ) :   0.8320 B(  2-C , 15-H ) :   0.8370
B(  3-C ,  4-C ) :   1.8689 B(  3-C ,  5-N ) :   0.9742 B(  3-C ,  8-H ) :  -0.1146
B(  3-C ,  9-H ) :   0.2324 B(  3-C , 10-H ) :   0.3288 B(  4-C ,  5-N ) :   0.1958
B(  4-C ,  9-H ) :   0.8447 B(  4-C , 10-H ) :   0.5995 B(  5-N ,  6-H ) :   1.0703
B(  5-N ,  7-H ) :   0.9127 B(  6-H ,  7-H ) :  -0.1018 B(  9-H , 10-H ) :   0.1666

Dispersion correction           -0.003710801
FINAL SINGLE POINT ENERGY      -267.662895201632

DIPOLE MOMENT
-------------
                                X             Y             Z
Electronic contribution:      0.93486       3.10963      -1.28013
Nuclear contribution   :     -2.93222      -3.63618       1.36440
                        -----------------------------------------
Total Dipole Moment    :     -1.99736      -0.52654       0.08428
                        -----------------------------------------
Magnitude (a.u.)       :      2.06732
Magnitude (Debye)      :      5.25471

Rotational constants in cm-1:     0.237993     0.072843     0.061284
Rotational constants in MHz :  7134.860770  2183.763760  1837.240960

                             ****ORCA TERMINATED NORMALLY****
TOTAL RUN TIME: 0 days 0 hours 0 minutes 14 seconds 972 msec
