                         Program Version 5.0.0 -  RELEASE  -
|  1> !wB97X-D3 RIJCOSX def2-SVPD def2/J TightSCF CPCM(Water)
|  2> *xyz 0 1
|  3> C          3.90595        2.81985       -3.75292
|  4> N          5.29562        3.13151       -4.10533
|  5> C          3.80351        1.37472       -3.26081
|  6> C          5.70862        3.46889       -5.32419
|  7> N          6.90470        3.03895       -5.71708
|  8> C          4.98188        4.29357       -6.09746
|  9> H          5.00055        4.10131       -7.08776
| 10> H          4.08469        4.59690       -5.73965
| 11> H          5.96336        2.52611       -3.64239
| 12> H          7.04716        2.06686       -5.47360
| 13> H          7.19815        3.30799       -6.64523
| 14> H          3.28202        2.94919       -4.64026
| 15> H          3.56525        3.51457       -2.98252
| 16> H          4.14157        0.71142       -4.02935
| 17> H          2.78528        1.15146       -3.01944
| 18> H          4.41205        1.25066       -2.38949
| 19> *
| 20>
| 21> %MaxCore 64000
| 22>
| 23> %pal nprocs 18
| 24> end
| 25>
| 26> %scf
| 27>   MaxIter 150
| 28> end
| 29>
| 30>
| 31>                          ****END OF INPUT****

CARTESIAN COORDINATES (ANGSTROEM)
---------------------------------
  C      3.905950    2.819850   -3.752920
  N      5.295620    3.131510   -4.105330
  C      3.803510    1.374720   -3.260810
  C      5.708620    3.468890   -5.324190
  N      6.904700    3.038950   -5.717080
  C      4.981880    4.293570   -6.097460
  H      5.000550    4.101310   -7.087760
  H      4.084690    4.596900   -5.739650
  H      5.963360    2.526110   -3.642390
  H      7.047160    2.066860   -5.473600
  H      7.198150    3.307990   -6.645230
  H      3.282020    2.949190   -4.640260
  H      3.565250    3.514570   -2.982520
  H      4.141570    0.711420   -4.029350
  H      2.785280    1.151460   -3.019440
  H      4.412050    1.250660   -2.389490

 Total Charge           Charge          ....    0
 Multiplicity           Mult            ....    1
 Number of Electrons    NEL             ....   48
 Basis Dimension        Dim             ....  200

ORBITAL ENERGIES
----------------

  NO   OCC          E(Eh)            E(eV)
   0   2.0000     -14.439915      -392.9301
   1   2.0000     -14.436438      -392.8355
   2   2.0000     -10.346919      -281.5540
   3   2.0000     -10.318159      -280.7714
   4   2.0000     -10.273242      -279.5491
   5   2.0000     -10.213823      -277.9323
   6   2.0000      -1.086334       -29.5607
   7   2.0000      -0.996011       -27.1028
   8   2.0000      -0.865145       -23.5418
   9   2.0000      -0.822398       -22.3786
  10   2.0000      -0.743409       -20.2292
  11   2.0000      -0.669453       -18.2167
  12   2.0000      -0.639053       -17.3895
  13   2.0000      -0.617394       -16.8001
  14   2.0000      -0.569857       -15.5066
  15   2.0000      -0.551148       -14.9975
  16   2.0000      -0.506534       -13.7835
  17   2.0000      -0.494886       -13.4665
  18   2.0000      -0.489571       -13.3219
  19   2.0000      -0.465699       -12.6723
  20   2.0000      -0.454521       -12.3682
  21   2.0000      -0.435214       -11.8428
  22   2.0000      -0.352790        -9.5999
  23   2.0000      -0.275935        -7.5086
  24   0.0000       0.094936         2.5833
  25   0.0000       0.114041         3.1032
  26   0.0000       0.125425         3.4130
  27   0.0000       0.126690         3.4474
  28   0.0000       0.147296         4.0081

MULLIKEN ATOMIC CHARGES
-----------------------
   0 C :    0.290825
   1 N :   -0.375375
   2 C :    0.581428
   3 C :    0.061618
   4 N :   -0.083080
   5 C :    0.432371
   6 H :   -0.395542
   7 H :   -0.117925
   8 H :   -0.115427
   9 H :    0.047453
  10 H :    0.081403
  11 H :   -0.044118
  12 H :   -0.272556
  13 H :   -0.043451
  14 H :   -0.033374
  15 H :   -0.014250
Sum of atomic charges:    0.0000000

LOEWDIN ATOMIC CHARGES
----------------------
   0 C :    0.021727
   1 N :   -0.013609
   2 C :    0.130131
   3 C :   -0.263151
   4 N :    0.189645
   5 C :    0.118885
   6 H :   -0.112158
   7 H :   -0.120401
   8 H :    0.024363
   9 H :    0.013260
  10 H :    0.013304
  11 H :    0.015523
  12 H :    0.019583
  13 H :   -0.011195
  14 H :   -0.012583
  15 H :   -0.013324

  Mayer bond orders larger than 0.100000
B(  0-C ,  1-N ) :   0.8600 B(  0-C ,  2-C ) :   1.2648 B(  0-C , 11-H ) :   0.8604
B(  0-C , 12-H ) :   0.9406 B(  0-C , 13-H ) :   0.1899 B(  0-C , 14-H ) :   0.2232
B(  0-C , 15-H ) :   0.1448 B(  1-N ,  3-C ) :   1.1293 B(  1-N ,  4-N ) :   0.1616
B(  1-N ,  5-C ) :   0.1962 B(  1-N ,  8-H ) :   1.0544 B(  1-N , 11-H ) :   0.1165
B(  1-N , 12-H ) :   0.1448 B(  2-C , 13-H ) :   0.8428 B(  2-C , 14-H ) :   0.8139
B(  2-C , 15-H ) :   0.8321 B(  3-C ,  4-N ) :   1.0787 B(  3-C ,  5-C ) :   1.9367
B(  3-C ,  6-H ) :   0.2290 B(  3-C ,  7-H ) :   0.2892 B(  4-N ,  5-C ) :   0.1309
B(  4-N ,  9-H ) :   0.9178 B(  4-N , 10-H ) :   0.9460 B(  5-C ,  6-H ) :   0.8258
B(  5-C ,  7-H ) :   0.5447 B(  6-H ,  7-H ) :   0.2879

Dispersion correction           -0.003688026
FINAL SINGLE POINT ENERGY      -267.667127742318

DIPOLE MOMENT
-------------
                                X             Y             Z
Electronic contribution:      3.46977       1.47711      -0.83784
Nuclear contribution   :     -3.34013      -3.37002       1.28371
                        -----------------------------------------
Total Dipole Moment    :      0.12964      -1.89291       0.44587
                        -----------------------------------------
Magnitude (a.u.)       :      1.94903
Magnitude (Debye)      :      4.95403

Rotational constants in cm-1:     0.239537     0.072280     0.060961
Rotational constants in MHz :  7181.153552  2166.902802  1827.551447

                             ****ORCA TERMINATED NORMALLY****
TOTAL RUN TIME: 0 days 0 hours 0 minutes 15 seconds 508 msec
