                         Program Version 5.0.0 -  RELEASE  -
|  1> !wB97X-D3 RIJCOSX def2-SVPD def2/J TightSCF CPCM(Water) xyzfile
|  2>
|  3> *xyzfile 0 1 D1.xyz
|  4>
|  5> %MaxCore 64000
|  6>
|  7> %pal nprocs 18
|  8> end
|  9>
| 10> %scf
| 11>   MaxIter 150
| 12> end
| 13>
| 14>
| 15>                          ****END OF INPUT****

CARTESIAN COORDINATES (ANGSTROEM)
---------------------------------
  C      3.905947    2.819855   -3.752920
  C      5.295615    3.131515   -4.105334
  C      3.803511    1.374716   -3.260807
  C      3.939934    0.320362   -4.367729
  H      4.105043   -0.655085   -3.907733
  H      3.022801    0.280517   -4.957117
  C      5.105846    0.668022   -5.305463
  C      5.708619    3.468885   -5.324190
  N      6.904696    3.038954   -5.717084
  N      4.981884    4.293570   -6.097457
  H      5.000546    4.101311   -7.087761
  H      4.084693    4.596899   -5.739652
  H      5.963358    2.526112   -3.642391
  H      7.047164    2.066861   -5.473604
  H      7.198145    3.307994   -6.645225
  H      3.282025    2.949187   -4.640259
  H      3.565254    3.514574   -2.982523
  H      4.574833    1.215157   -2.500443
  H      2.843514    1.260845   -2.751465
  F      4.809132    1.150187   -6.414361
  O      6.267366    0.564999   -4.819481

 Total Charge           Charge          ....    0
 Multiplicity           Mult            ....    1
 Number of Electrons    NEL             ....   78
 Basis Dimension        Dim             ....  294

ORBITAL ENERGIES
----------------

  NO   OCC          E(Eh)            E(eV)
   0   2.0000     -24.881927      -677.0717
   1   2.0000     -19.261225      -524.1246
   2   2.0000     -14.434958      -392.7952
   3   2.0000     -14.421916      -392.4403
   4   2.0000     -10.484754      -285.3047
   5   2.0000     -10.337417      -281.2954
   6   2.0000     -10.308648      -280.5126
   7   2.0000     -10.291146      -280.0363
   8   2.0000     -10.275640      -279.6144
   9   2.0000     -10.218436      -278.0578
  10   2.0000      -1.435576       -39.0640
  11   2.0000      -1.152444       -31.3596
  12   2.0000      -1.070802       -29.1380
  13   2.0000      -0.976277       -26.5659
  14   2.0000      -0.925189       -25.1757
  15   2.0000      -0.859616       -23.3913
  16   2.0000      -0.801816       -21.8185
  17   2.0000      -0.766680       -20.8624
  18   2.0000      -0.712343       -19.3838
  19   2.0000      -0.684585       -18.6285
  20   2.0000      -0.665635       -18.1128
  21   2.0000      -0.646456       -17.5910
  22   2.0000      -0.636976       -17.3330
  23   2.0000      -0.620423       -16.8826
  24   2.0000      -0.604036       -16.4367
  25   2.0000      -0.568751       -15.4765
  26   2.0000      -0.556969       -15.1559
  27   2.0000      -0.540727       -14.7139
  28   2.0000      -0.527033       -14.3413
  29   2.0000      -0.499039       -13.5795
  30   2.0000      -0.487024       -13.2526
  31   2.0000      -0.466007       -12.6807
  32   2.0000      -0.460589       -12.5333
  33   2.0000      -0.440701       -11.9921
  34   2.0000      -0.426687       -11.6107
  35   2.0000      -0.416506       -11.3337
  36   2.0000      -0.400236       -10.8910
  37   2.0000      -0.362968        -9.8769
  38   2.0000      -0.263565        -7.1720
  39   0.0000       0.044803         1.2192
  40   0.0000       0.092692         2.5223
  41   0.0000       0.110421         3.0047
  42   0.0000       0.114181         3.1070
  43   0.0000       0.119399         3.2490

MULLIKEN ATOMIC CHARGES
-----------------------
   0 C :    0.281806
   1 C :    0.038028
   2 C :    0.148655
   3 C :    0.156017
   4 H :   -0.001585
   5 H :    0.062974
   6 C :    0.819959
   7 C :    0.076109
   8 N :    0.158143
   9 N :   -0.078504
  10 H :    0.023081
  11 H :    0.066732
  12 H :   -0.273557
  13 H :   -0.100246
  14 H :    0.035056
  15 H :   -0.119076
  16 H :   -0.203437
  17 H :    0.060870
  18 H :   -0.119713
  19 F :   -0.398316
  20 O :   -0.632995
Sum of atomic charges:   -0.0000000

LOEWDIN ATOMIC CHARGES
----------------------
   0 C :   -0.050090
   1 C :   -0.043290
   2 C :   -0.013239
   3 C :    0.072729
   4 H :    0.044210
   5 H :    0.035953
   6 C :    0.026352
   7 C :   -0.260838
   8 N :    0.207459
   9 N :    0.206556
  10 H :    0.009116
  11 H :    0.004265
  12 H :   -0.066355
  13 H :   -0.078488
  14 H :    0.012618
  15 H :    0.016007
  16 H :    0.010911
  17 H :    0.031743
  18 H :    0.027121
  19 F :   -0.010246
  20 O :   -0.182493

  Mayer bond orders larger than 0.100000
B(  0-C ,  1-C ) :   1.0359 B(  0-C ,  2-C ) :   1.1927 B(  0-C , 12-H ) :   0.2183
B(  0-C , 15-H ) :   0.8057 B(  0-C , 16-H ) :   0.8517 B(  0-C , 18-H ) :   0.1983
B(  1-C ,  2-C ) :   0.1065 B(  1-C ,  7-C ) :   1.8022 B(  1-C ,  8-N ) :   0.2907
B(  1-C ,  9-N ) :   0.1503 B(  1-C , 12-H ) :   0.4592 B(  1-C , 15-H ) :   0.1223
B(  1-C , 16-H ) :   0.1499 B(  2-C ,  3-C ) :   1.1995 B(  2-C ,  4-H ) :   0.1702
B(  2-C ,  5-H ) :   0.1079 B(  2-C , 17-H ) :   0.8414 B(  2-C , 18-H ) :   0.8978
B(  3-C ,  4-H ) :   0.8347 B(  3-C ,  5-H ) :   0.8862 B(  3-C ,  6-C ) :   1.1219
B(  4-H ,  6-C ) :   0.1160 B(  5-H ,  6-C ) :   0.1093 B(  6-C , 19-F ) :   0.6586
B(  6-C , 20-O ) :   1.6180 B(  7-C ,  8-N ) :   0.9481 B(  7-C ,  9-N ) :   0.9904
B(  7-C , 12-H ) :   0.2950 B(  7-C , 14-H ) :   0.1843 B(  8-N ,  9-N ) :   0.1177
B(  8-N , 13-H ) :   0.8849 B(  8-N , 14-H ) :   0.8107 B(  9-N , 10-H ) :   1.0177
B(  9-N , 11-H ) :   0.9283 B( 13-H , 20-O ) :   0.1277

Dispersion correction           -0.008897222
FINAL SINGLE POINT ENERGY      -519.318615463675

DIPOLE MOMENT
-------------
                                X             Y             Z
Electronic contribution:      2.84029      -3.84723      -6.94774
Nuclear contribution   :     -4.60158       3.22721       5.56005
                        -----------------------------------------
Total Dipole Moment    :     -1.76130      -0.62001      -1.38769
                        -----------------------------------------
Magnitude (a.u.)       :      2.32643
Magnitude (Debye)      :      5.91331

Rotational constants in cm-1:     0.061224     0.042534     0.033552
Rotational constants in MHz :  1835.464095  1275.135177  1005.856966

                             ****ORCA TERMINATED NORMALLY****
TOTAL RUN TIME: 0 days 0 hours 0 minutes 33 seconds 81 msec
