                         Program Version 5.0.0 -  RELEASE  -
|  1> !wB97X-D3 RIJCOSX def2-SVPD def2/J TightSCF CPCM(Water) xyzfile
|  2>
|  3> *xyzfile 0 1 D4.xyz
|  4>
|  5> %MaxCore 64000
|  6>
|  7> %pal nprocs 18
|  8> end
|  9>
| 10> %scf
| 11>   MaxIter 150
| 12> end
| 13>
| 14>
| 15>                          ****END OF INPUT****

CARTESIAN COORDINATES (ANGSTROEM)
---------------------------------
  C      3.905947    2.819855   -3.752920
  C      5.295615    3.131515   -4.105334
  C      3.803511    1.374716   -3.260807
  C      3.939934    0.320362   -4.367729
  H      4.105043   -0.655085   -3.907733
  H      3.022801    0.280517   -4.957117
  C      5.105846    0.668022   -5.305463
  C      5.708619    3.468885   -5.324190
  N      6.904696    3.038954   -5.717084
  N      4.981884    4.293570   -6.097457
  H      5.000546    4.101311   -7.087761
  H      4.084693    4.596899   -5.739652
  H      5.963358    2.526112   -3.642391
  H      7.047164    2.066861   -5.473604
  H      7.198145    3.307994   -6.645225
  H      3.282025    2.949187   -4.640259
  H      3.565254    3.514574   -2.982523
  H      4.574833    1.215157   -2.500443
  H      2.843514    1.260845   -2.751465
  O      4.809132    1.150187   -6.414361
  F      6.267366    0.564999   -4.819481

 Total Charge           Charge          ....    0
 Multiplicity           Mult            ....    1
 Number of Electrons    NEL             ....   78
 Basis Dimension        Dim             ....  294

ORBITAL ENERGIES
----------------

  NO   OCC          E(Eh)            E(eV)
   0   2.0000     -24.880278      -677.0268
   1   2.0000     -19.260204      -524.0968
   2   2.0000     -14.436382      -392.8339
   3   2.0000     -14.428853      -392.6290
   4   2.0000     -10.479337      -285.1573
   5   2.0000     -10.340636      -281.3830
   6   2.0000     -10.307464      -280.4804
   7   2.0000     -10.290860      -280.0285
   8   2.0000     -10.274919      -279.5948
   9   2.0000     -10.219328      -278.0821
  10   2.0000      -1.428901       -38.8824
  11   2.0000      -1.156092       -31.4589
  12   2.0000      -1.073440       -29.2098
  13   2.0000      -0.979584       -26.6558
  14   2.0000      -0.925516       -25.1846
  15   2.0000      -0.859524       -23.3888
  16   2.0000      -0.801446       -21.8085
  17   2.0000      -0.765550       -20.8317
  18   2.0000      -0.712442       -19.3865
  19   2.0000      -0.695457       -18.9244
  20   2.0000      -0.661854       -18.0100
  21   2.0000      -0.648834       -17.6557
  22   2.0000      -0.630014       -17.1435
  23   2.0000      -0.611156       -16.6304
  24   2.0000      -0.606491       -16.5034
  25   2.0000      -0.569080       -15.4855
  26   2.0000      -0.563063       -15.3217
  27   2.0000      -0.539463       -14.6795
  28   2.0000      -0.529474       -14.4077
  29   2.0000      -0.499270       -13.5858
  30   2.0000      -0.485939       -13.2231
  31   2.0000      -0.471182       -12.8215
  32   2.0000      -0.458484       -12.4760
  33   2.0000      -0.439698       -11.9648
  34   2.0000      -0.433855       -11.8058
  35   2.0000      -0.420077       -11.4309
  36   2.0000      -0.391878       -10.6636
  37   2.0000      -0.364944        -9.9306
  38   2.0000      -0.266102        -7.2410
  39   0.0000       0.051513         1.4017
  40   0.0000       0.092614         2.5202
  41   0.0000       0.109353         2.9756
  42   0.0000       0.115314         3.1379
  43   0.0000       0.120471         3.2782

MULLIKEN ATOMIC CHARGES
-----------------------
   0 C :    0.343727
   1 C :   -0.044381
   2 C :    0.113944
   3 C :    0.196761
   4 H :    0.003545
   5 H :    0.057147
   6 C :    0.701354
   7 C :    0.142870
   8 N :    0.137516
   9 N :   -0.082666
  10 H :    0.012706
  11 H :    0.071137
  12 H :   -0.245601
  13 H :   -0.081344
  14 H :    0.062568
  15 H :   -0.121840
  16 H :   -0.209093
  17 H :    0.037904
  18 H :   -0.121671
  19 O :   -0.504118
  20 F :   -0.470466
Sum of atomic charges:    0.0000000

LOEWDIN ATOMIC CHARGES
----------------------
   0 C :   -0.049638
   1 C :   -0.048967
   2 C :   -0.016437
   3 C :    0.071900
   4 H :    0.040309
   5 H :    0.039533
   6 C :    0.004974
   7 C :   -0.262165
   8 N :    0.210319
   9 N :    0.214691
  10 H :    0.009658
  11 H :    0.006324
  12 H :   -0.064047
  13 H :   -0.047430
  14 H :    0.016150
  15 H :    0.015607
  16 H :    0.010632
  17 H :    0.030747
  18 H :    0.026792
  19 O :   -0.166931
  20 F :   -0.042021

  Mayer bond orders larger than 0.100000
B(  0-C ,  1-C ) :   1.0313 B(  0-C ,  2-C ) :   1.1861 B(  0-C , 12-H ) :   0.1954
B(  0-C , 15-H ) :   0.8024 B(  0-C , 16-H ) :   0.8367 B(  0-C , 18-H ) :   0.1894
B(  1-C ,  2-C ) :   0.1298 B(  1-C ,  7-C ) :   1.8102 B(  1-C ,  8-N ) :   0.3166
B(  1-C ,  9-N ) :   0.1444 B(  1-C , 12-H ) :   0.4871 B(  1-C , 15-H ) :   0.1174
B(  1-C , 16-H ) :   0.1550 B(  2-C ,  3-C ) :   1.1725 B(  2-C ,  4-H ) :   0.1718
B(  2-C ,  5-H ) :   0.1050 B(  2-C , 17-H ) :   0.8517 B(  2-C , 18-H ) :   0.9047
B(  3-C ,  4-H ) :   0.8386 B(  3-C ,  5-H ) :   0.8701 B(  3-C ,  6-C ) :   1.1224
B(  4-H ,  6-C ) :   0.1047 B(  5-H ,  6-C ) :   0.1781 B(  6-C , 19-O ) :   1.7615
B(  6-C , 20-F ) :   0.5870 B(  7-C ,  8-N ) :   0.9356 B(  7-C ,  9-N ) :   1.0025
B(  7-C , 12-H ) :   0.2718 B(  7-C , 14-H ) :   0.1925 B(  8-N ,  9-N ) :   0.1188
B(  8-N , 13-H ) :   0.8875 B(  8-N , 14-H ) :   0.8004 B(  9-N , 10-H ) :   1.0302
B(  9-N , 11-H ) :   0.9251

Dispersion correction           -0.008974818
FINAL SINGLE POINT ENERGY      -519.319980556917

DIPOLE MOMENT
-------------
                                X             Y             Z
Electronic contribution:      5.63766      -4.86461      -3.98712
Nuclear contribution   :     -6.25608       3.89116       3.75052
                        -----------------------------------------
Total Dipole Moment    :     -0.61841      -0.97346      -0.23660
                        -----------------------------------------
Magnitude (a.u.)       :      1.17730
Magnitude (Debye)      :      2.99245

Rotational constants in cm-1:     0.061229     0.042568     0.033282
Rotational constants in MHz :  1835.590871  1276.154029   997.769927

                             ****ORCA TERMINATED NORMALLY****
TOTAL RUN TIME: 0 days 0 hours 0 minutes 32 seconds 838 msec
