                         Program Version 5.0.0 -  RELEASE  -
|  1> !B3LYP D3BJ RIJCOSX def2-SVP def2/J TightSCF
|  2> *xyz -1 1
|  3> C          0.84888        2.66797       -4.30235
|  4> C          2.09343        1.86104       -4.65684
|  5> H          2.44481        2.04157       -5.67499
|  6> H          2.90175        2.13786       -3.98034
|  7> S          1.87964        0.07859       -4.46297
|  8> O          3.20757       -0.46611       -4.42026
|  9> O          1.07506       -0.05616       -3.26876
| 10> O          1.13166       -0.31996       -5.67903
| 11> H          0.05064        2.40112       -4.96303
| 12> H          1.06043        3.71210       -4.40203
| 13> H          0.56237        2.45684       -3.29327
| 14> *
| 15>
| 16> %MaxCore 64000
| 17>
| 18> %pal nprocs 4
| 19> end
| 20>
| 21> %scf
| 22>   MaxIter 150
| 23> end
| 24>
| 25>
| 26>                          ****END OF INPUT****

CARTESIAN COORDINATES (ANGSTROEM)
---------------------------------
  C      0.848880    2.667970   -4.302350
  C      2.093430    1.861040   -4.656840
  H      2.444810    2.041570   -5.674990
  H      2.901750    2.137860   -3.980340
  S      1.879640    0.078590   -4.462970
  O      3.207570   -0.466110   -4.420260
  O      1.075060   -0.056160   -3.268760
  O      1.131660   -0.319960   -5.679030
  H      0.050640    2.401120   -4.963030
  H      1.060430    3.712100   -4.402030
  H      0.562370    2.456840   -3.293270

 Total Charge           Charge          ....   -1
 Multiplicity           Mult            ....    1
 Number of Electrons    NEL             ....   58
 Basis Dimension        Dim             ....  113

ORBITAL ENERGIES
----------------

  NO   OCC          E(Eh)            E(eV)
   0   2.0000     -88.838417     -2417.4162
   1   2.0000     -18.882374      -513.8155
   2   2.0000     -18.879911      -513.7485
   3   2.0000     -18.864231      -513.3218
   4   2.0000     -10.028435      -272.8876
   5   2.0000     -10.022786      -272.7339
   6   2.0000      -7.899130      -214.9462
   7   2.0000      -5.867552      -159.6642
   8   2.0000      -5.867302      -159.6574
   9   2.0000      -5.867152      -159.6533
  10   2.0000      -0.900674       -24.5086
  11   2.0000      -0.762885       -20.7592
  12   2.0000      -0.734629       -19.9903
  13   2.0000      -0.610043       -16.6001
  14   2.0000      -0.483786       -13.1645
  15   2.0000      -0.356020        -9.6878
  16   2.0000      -0.302298        -8.2260
  17   2.0000      -0.293227        -7.9791
  18   2.0000      -0.254912        -6.9365
  19   2.0000      -0.236336        -6.4310
  20   2.0000      -0.232283        -6.3207
  21   2.0000      -0.212089        -5.7712
  22   2.0000      -0.198069        -5.3897
  23   2.0000      -0.118729        -3.2308
  24   2.0000      -0.118654        -3.2288
  25   2.0000      -0.087005        -2.3675
  26   2.0000      -0.079346        -2.1591
  27   2.0000      -0.066206        -1.8015
  28   2.0000      -0.032817        -0.8930
  29   0.0000       0.206588         5.6216
  30   0.0000       0.256623         6.9831
  31   0.0000       0.263194         7.1619
  32   0.0000       0.270917         7.3720
  33   0.0000       0.299516         8.1502

MULLIKEN ATOMIC CHARGES
-----------------------
   0 C :    0.062514
   1 C :   -0.069013
   2 H :   -0.016675
   3 H :   -0.026985
   4 S :    0.873272
   5 O :   -0.565323
   6 O :   -0.575872
   7 O :   -0.619259
   8 H :   -0.009150
   9 H :   -0.051008
  10 H :   -0.002501
Sum of atomic charges:   -1.0000000

LOEWDIN ATOMIC CHARGES
----------------------
   0 C :   -0.066732
   1 C :   -0.183454
   2 H :    0.002254
   3 H :   -0.002622
   4 S :    1.099846
   5 O :   -0.602781
   6 O :   -0.610336
   7 O :   -0.656300
   8 H :    0.011721
   9 H :   -0.004330
  10 H :    0.012735

  Mayer bond orders larger than 0.100000
B(  0-C ,  1-C ) :   1.0726 B(  0-C ,  8-H ) :   0.9650 B(  0-C ,  9-H ) :   0.9541
B(  0-C , 10-H ) :   0.9618 B(  1-C ,  2-H ) :   0.9406 B(  1-C ,  3-H ) :   0.9352
B(  1-C ,  4-S ) :   0.8889 B(  4-S ,  5-O ) :   1.6452 B(  4-S ,  6-O ) :   1.6165
B(  4-S ,  7-O ) :   1.5830

Dispersion correction           -0.016784693
FINAL SINGLE POINT ENERGY      -702.525951871292

DIPOLE MOMENT
-------------
                                X             Y             Z
Electronic contribution:      1.62571      -7.89487       0.06754
Nuclear contribution   :     -1.55288       9.51857       0.00420
                        -----------------------------------------
Total Dipole Moment    :      0.07283       1.62371       0.07174
                        -----------------------------------------
Magnitude (a.u.)       :      1.62692
Magnitude (Debye)      :      4.13531

Rotational constants in cm-1:     0.163401     0.083833     0.082462
Rotational constants in MHz :  4898.624208  2513.264548  2472.149188

                             ****ORCA TERMINATED NORMALLY****
TOTAL RUN TIME: 0 days 0 hours 0 minutes 12 seconds 612 msec
