                         Program Version 5.0.0 -  RELEASE  -
|  1> !B3LYP D3BJ RIJCOSX def2-SVP def2/J TightSCF
|  2> *xyz 1 1
|  3> C         -0.46129        2.23469       -4.98962
|  4> C          0.84888        2.66797       -4.30235
|  5> C         -0.42384        2.39877       -6.47432
|  6> N         -0.95947        3.49265       -7.00740
|  7> N          0.14558        1.48689       -7.20399
|  8> H          0.56537        0.69681       -6.72386
|  9> H          0.22068        1.58177       -8.20752
| 10> H         -1.40624        4.18151       -6.40326
| 11> H         -0.93421        3.68160       -7.99947
| 12> H         -1.28888        2.82674       -4.59500
| 13> H         -0.65170        1.18634       -4.75655
| 14> H          1.66208        2.08894       -4.68750
| 15> H          0.76716        2.51042       -3.24717
| 16> H          1.02677        3.70527       -4.49537
| 17> *
| 18>
| 19> %MaxCore 64000
| 20>
| 21> %pal nprocs 4
| 22> end
| 23>
| 24> %scf
| 25>   MaxIter 150
| 26> end
| 27>
| 28>
| 29>                          ****END OF INPUT****

CARTESIAN COORDINATES (ANGSTROEM)
---------------------------------
  C     -0.461290    2.234690   -4.989620
  C      0.848880    2.667970   -4.302350
  C     -0.423840    2.398770   -6.474320
  N     -0.959470    3.492650   -7.007400
  N      0.145580    1.486890   -7.203990
  H      0.565370    0.696810   -6.723860
  H      0.220680    1.581770   -8.207520
  H     -1.406240    4.181510   -6.403260
  H     -0.934210    3.681600   -7.999470
  H     -1.288880    2.826740   -4.595000
  H     -0.651700    1.186340   -4.756550
  H      1.662080    2.088940   -4.687500
  H      0.767160    2.510420   -3.247170
  H      1.026770    3.705270   -4.495370

 Total Charge           Charge          ....    1
 Multiplicity           Mult            ....    1
 Number of Electrons    NEL             ....   40
 Basis Dimension        Dim             ....  115

ORBITAL ENERGIES
----------------

  NO   OCC          E(Eh)            E(eV)
   0   2.0000     -14.577009      -396.6606
   1   2.0000     -14.572682      -396.5428
   2   2.0000     -10.502656      -285.7918
   3   2.0000     -10.380186      -282.4592
   4   2.0000     -10.339592      -281.3546
   5   2.0000      -1.194292       -32.4983
   6   2.0000      -1.099176       -29.9101
   7   2.0000      -0.960605       -26.1394
   8   2.0000      -0.854618       -23.2553
   9   2.0000      -0.811844       -22.0914
  10   2.0000      -0.777388       -21.1538
  11   2.0000      -0.747386       -20.3374
  12   2.0000      -0.701715       -19.0946
  13   2.0000      -0.647650       -17.6235
  14   2.0000      -0.621821       -16.9206
  15   2.0000      -0.613302       -16.6888
  16   2.0000      -0.544114       -14.8061
  17   2.0000      -0.534425       -14.5424
  18   2.0000      -0.527902       -14.3649
  19   2.0000      -0.491082       -13.3630
  20   0.0000      -0.202823        -5.5191
  21   0.0000      -0.145757        -3.9663
  22   0.0000      -0.099696        -2.7129
  23   0.0000      -0.099139        -2.6977
  24   0.0000      -0.072985        -1.9860

MULLIKEN ATOMIC CHARGES
-----------------------
   0 C :    0.007398
   1 C :    0.047486
   2 C :   -0.091923
   3 N :    0.017893
   4 N :    0.065500
   5 H :    0.180037
   6 H :    0.169956
   7 H :    0.181793
   8 H :    0.165690
   9 H :    0.051879
  10 H :    0.065778
  11 H :    0.029742
  12 H :    0.071933
  13 H :    0.036838
Sum of atomic charges:    1.0000000

LOEWDIN ATOMIC CHARGES
----------------------
   0 C :   -0.027121
   1 C :   -0.012886
   2 C :    0.146620
   3 N :    0.091895
   4 N :    0.113247
   5 H :    0.122887
   6 H :    0.113616
   7 H :    0.122199
   8 H :    0.108932
   9 H :    0.051520
  10 H :    0.055645
  11 H :    0.029135
  12 H :    0.050664
  13 H :    0.033649

  Mayer bond orders larger than 0.100000
B(  0-C ,  1-C ) :   1.0801 B(  0-C ,  2-C ) :   1.0349 B(  0-C ,  9-H ) :   0.9200
B(  0-C , 10-H ) :   0.9202 B(  1-C , 11-H ) :   0.9708 B(  1-C , 12-H ) :   0.9623
B(  1-C , 13-H ) :   0.9686 B(  2-C ,  3-N ) :   1.5016 B(  2-C ,  4-N ) :   1.5364
B(  3-N ,  7-H ) :   0.9204 B(  3-N ,  8-H ) :   0.9308 B(  4-N ,  5-H ) :   0.9168
B(  4-N ,  6-H ) :   0.9266

Dispersion correction           -0.016636179
FINAL SINGLE POINT ENERGY      -228.735956045508

DIPOLE MOMENT
-------------
                                X             Y             Z
Electronic contribution:     -1.55940      -0.26166      -3.93424
Nuclear contribution   :      1.33202       0.27544       2.83701
                        -----------------------------------------
Total Dipole Moment    :     -0.22737       0.01378      -1.09723
                        -----------------------------------------
Magnitude (a.u.)       :      1.12063
Magnitude (Debye)      :      2.84841

Rotational constants in cm-1:     0.258570     0.126296     0.098869
Rotational constants in MHz :  7751.748523  3786.267300  2964.011691

                             ****ORCA TERMINATED NORMALLY****
TOTAL RUN TIME: 0 days 0 hours 0 minutes 13 seconds 6 msec
