                         Program Version 5.0.0 -  RELEASE  -
|  1> !B3LYP D3BJ RIJCOSX def2-SVP def2/J TightSCF
|  2> *xyz 0 1
|  3> C          0.84888        2.66797       -4.30235
|  4> C          2.09343        1.86104       -4.65684
|  5> H          2.44481        2.04157       -5.67499
|  6> H          2.90175        2.13786       -3.98034
|  7> S          1.87964        0.07859       -4.46297
|  8> F          3.20757       -0.46611       -4.42026
|  9> O          1.07506       -0.05616       -3.26876
| 10> O          1.13166       -0.31996       -5.67903
| 11> H          0.05064        2.40112       -4.96303
| 12> H          1.06043        3.71210       -4.40203
| 13> H          0.56237        2.45684       -3.29327
| 14> *
| 15>
| 16> %MaxCore 64000
| 17>
| 18> %pal nprocs 4
| 19> end
| 20>
| 21> %scf
| 22>   MaxIter 150
| 23> end
| 24>
| 25>
| 26>                          ****END OF INPUT****

CARTESIAN COORDINATES (ANGSTROEM)
---------------------------------
  C      0.848880    2.667970   -4.302350
  C      2.093430    1.861040   -4.656840
  H      2.444810    2.041570   -5.674990
  H      2.901750    2.137860   -3.980340
  S      1.879640    0.078590   -4.462970
  F      3.207570   -0.466110   -4.420260
  O      1.075060   -0.056160   -3.268760
  O      1.131660   -0.319960   -5.679030
  H      0.050640    2.401120   -4.963030
  H      1.060430    3.712100   -4.402030
  H      0.562370    2.456840   -3.293270

 Total Charge           Charge          ....    0
 Multiplicity           Mult            ....    1
 Number of Electrons    NEL             ....   58
 Basis Dimension        Dim             ....  113

ORBITAL ENERGIES
----------------

  NO   OCC          E(Eh)            E(eV)
   0   2.0000     -89.112748     -2424.8811
   1   2.0000     -24.801455      -674.8819
   2   2.0000     -19.131793      -520.6026
   3   2.0000     -19.117705      -520.2192
   4   2.0000     -10.236003      -278.5358
   5   2.0000     -10.198344      -277.5111
   6   2.0000      -8.175901      -222.4776
   7   2.0000      -6.148302      -167.3038
   8   2.0000      -6.141815      -167.1273
   9   2.0000      -6.140518      -167.0920
  10   2.0000      -1.372676       -37.3524
  11   2.0000      -1.093800       -29.7638
  12   2.0000      -0.987542       -26.8724
  13   2.0000      -0.809712       -22.0334
  14   2.0000      -0.728847       -19.8329
  15   2.0000      -0.667519       -18.1641
  16   2.0000      -0.583832       -15.8869
  17   2.0000      -0.583245       -15.8709
  18   2.0000      -0.544731       -14.8229
  19   2.0000      -0.488192       -13.2844
  20   2.0000      -0.474264       -12.9054
  21   2.0000      -0.430566       -11.7163
  22   2.0000      -0.424281       -11.5453
  23   2.0000      -0.403286       -10.9740
  24   2.0000      -0.383580       -10.4377
  25   2.0000      -0.371828       -10.1179
  26   2.0000      -0.321221        -8.7409
  27   2.0000      -0.306358        -8.3364
  28   2.0000      -0.290814        -7.9135
  29   0.0000       0.037746         1.0271
  30   0.0000       0.050190         1.3657
  31   0.0000       0.077294         2.1033
  32   0.0000       0.088767         2.4155
  33   0.0000       0.098634         2.6840

MULLIKEN ATOMIC CHARGES
-----------------------
   0 C :    0.044527
   1 C :   -0.107916
   2 H :    0.057444
   3 H :    0.039015
   4 S :    0.946568
   5 F :   -0.165194
   6 O :   -0.439897
   7 O :   -0.478514
   8 H :    0.038700
   9 H :    0.025117
  10 H :    0.040151
Sum of atomic charges:   -0.0000000

LOEWDIN ATOMIC CHARGES
----------------------
   0 C :   -0.041095
   1 C :   -0.146707
   2 H :    0.033325
   3 H :    0.024260
   4 S :    1.155180
   5 F :   -0.112613
   6 O :   -0.483166
   7 O :   -0.525143
   8 H :    0.032336
   9 H :    0.032315
  10 H :    0.031308

  Mayer bond orders larger than 0.100000
B(  0-C ,  1-C ) :   1.0845 B(  0-C ,  8-H ) :   0.9715 B(  0-C ,  9-H ) :   0.9597
B(  0-C , 10-H ) :   0.9657 B(  1-C ,  2-H ) :   0.9333 B(  1-C ,  3-H ) :   0.9289
B(  1-C ,  4-S ) :   0.9201 B(  4-S ,  5-F ) :   1.0287 B(  4-S ,  6-O ) :   1.7681
B(  4-S ,  7-O ) :   1.7358

Dispersion correction           -0.016042197
FINAL SINGLE POINT ENERGY      -727.025877533006

DIPOLE MOMENT
-------------
                                X             Y             Z
Electronic contribution:      4.17925      -9.41242       0.11193
Nuclear contribution   :     -3.08754      10.54185      -0.04092
                        -----------------------------------------
Total Dipole Moment    :      1.09171       1.12943       0.07101
                        -----------------------------------------
Magnitude (a.u.)       :      1.57242
Magnitude (Debye)      :      3.99677

Rotational constants in cm-1:     0.158925     0.081210     0.079022
Rotational constants in MHz :  4764.450166  2434.603461  2369.014434

                             ****ORCA TERMINATED NORMALLY****
TOTAL RUN TIME: 0 days 0 hours 0 minutes 12 seconds 49 msec
