                         Program Version 5.0.0 -  RELEASE  -
|  1> !B3LYP D3BJ RIJCOSX def2-SVP def2/J TightSCF
|  2> *xyz 0 1
|  3> C         -0.46129        2.23469       -4.98962
|  4> C          0.84888        2.66797       -4.30235
|  5> C         -0.42384        2.39877       -6.47432
|  6> C         -0.95947        3.49265       -7.00740
|  7> N          0.14558        1.48689       -7.20399
|  8> H          0.56537        0.69681       -6.72386
|  9> H          0.22068        1.58177       -8.20752
| 10> H         -1.40624        4.18151       -6.40326
| 11> H         -0.93421        3.68160       -7.99947
| 12> H         -1.28888        2.82674       -4.59500
| 13> H         -0.65170        1.18634       -4.75655
| 14> H          1.66208        2.08894       -4.68750
| 15> H          0.76716        2.51042       -3.24717
| 16> H          1.02677        3.70527       -4.49537
| 17> *
| 18>
| 19> %MaxCore 64000
| 20>
| 21> %pal nprocs 4
| 22> end
| 23>
| 24> %scf
| 25>   MaxIter 150
| 26> end
| 27>
| 28>
| 29>                          ****END OF INPUT****

CARTESIAN COORDINATES (ANGSTROEM)
---------------------------------
  C     -0.461290    2.234690   -4.989620
  C      0.848880    2.667970   -4.302350
  C     -0.423840    2.398770   -6.474320
  C     -0.959470    3.492650   -7.007400
  N      0.145580    1.486890   -7.203990
  H      0.565370    0.696810   -6.723860
  H      0.220680    1.581770   -8.207520
  H     -1.406240    4.181510   -6.403260
  H     -0.934210    3.681600   -7.999470
  H     -1.288880    2.826740   -4.595000
  H     -0.651700    1.186340   -4.756550
  H      1.662080    2.088940   -4.687500
  H      0.767160    2.510420   -3.247170
  H      1.026770    3.705270   -4.495370

 Total Charge           Charge          ....    0
 Multiplicity           Mult            ....    1
 Number of Electrons    NEL             ....   40
 Basis Dimension        Dim             ....  115

ORBITAL ENERGIES
----------------

  NO   OCC          E(Eh)            E(eV)
   0   2.0000     -14.324923      -389.8010
   1   2.0000     -10.193855      -277.3889
   2   2.0000     -10.178120      -276.9607
   3   2.0000     -10.168086      -276.6877
   4   2.0000     -10.109021      -275.0805
   5   2.0000      -0.918851       -25.0032
   6   2.0000      -0.765648       -20.8343
   7   2.0000      -0.699339       -19.0300
   8   2.0000      -0.625020       -17.0076
   9   2.0000      -0.561114       -15.2687
  10   2.0000      -0.522726       -14.2241
  11   2.0000      -0.472808       -12.8658
  12   2.0000      -0.433448       -11.7947
  13   2.0000      -0.414146       -11.2695
  14   2.0000      -0.385917       -10.5013
  15   2.0000      -0.375862       -10.2277
  16   2.0000      -0.349445        -9.5089
  17   2.0000      -0.331165        -9.0114
  18   2.0000      -0.324823        -8.8389
  19   2.0000      -0.177100        -4.8191
  20   0.0000       0.045674         1.2428
  21   0.0000       0.067273         1.8306
  22   0.0000       0.094906         2.5825
  23   0.0000       0.103658         2.8207
  24   0.0000       0.118082         3.2132

MULLIKEN ATOMIC CHARGES
-----------------------
   0 C :    0.061170
   1 C :    0.064741
   2 C :   -0.152550
   3 C :   -0.024601
   4 N :   -0.017442
   5 H :    0.100722
   6 H :    0.108432
   7 H :   -0.050865
   8 H :   -0.069099
   9 H :    0.001276
  10 H :   -0.018589
  11 H :   -0.011178
  12 H :    0.003179
  13 H :    0.004804
Sum of atomic charges:   -0.0000000

LOEWDIN ATOMIC CHARGES
----------------------
   0 C :   -0.021536
   1 C :   -0.037548
   2 C :   -0.000769
   3 C :   -0.178344
   4 N :    0.009754
   5 H :    0.070049
   6 H :    0.077531
   7 H :   -0.003210
   8 H :   -0.013020
   9 H :    0.031177
  10 H :    0.013698
  11 H :    0.012649
  12 H :    0.018224
  13 H :    0.021344

  Mayer bond orders larger than 0.100000
B(  0-C ,  1-C ) :   1.1000 B(  0-C ,  2-C ) :   1.0372 B(  0-C ,  9-H ) :   0.9282
B(  0-C , 10-H ) :   0.9226 B(  1-C , 11-H ) :   0.9678 B(  1-C , 12-H ) :   0.9656
B(  1-C , 13-H ) :   0.9682 B(  2-C ,  3-C ) :   1.8509 B(  2-C ,  4-N ) :   1.2958
B(  3-C ,  7-H ) :   0.9319 B(  3-C ,  8-H ) :   0.9447 B(  4-N ,  5-H ) :   0.9460
B(  4-N ,  6-H ) :   0.9445

Dispersion correction           -0.017373533
FINAL SINGLE POINT ENERGY      -212.275912294731

DIPOLE MOMENT
-------------
                                X             Y             Z
Electronic contribution:     -0.68538      -1.23262      -2.62424
Nuclear contribution   :      1.14741       0.51394       2.60761
                        -----------------------------------------
Total Dipole Moment    :      0.46204      -0.71868      -0.01663
                        -----------------------------------------
Magnitude (a.u.)       :      0.85455
Magnitude (Debye)      :      2.17209

Rotational constants in cm-1:     0.269157     0.129188     0.102123
Rotational constants in MHz :  8069.118715  3872.945231  3061.580645

                             ****ORCA TERMINATED NORMALLY****
TOTAL RUN TIME: 0 days 0 hours 0 minutes 12 seconds 731 msec
