                         Program Version 5.0.0 -  RELEASE  -
|  1> !B3LYP D3BJ RIJCOSX def2-SVP def2/J TightSCF
|  2> *xyz 0 1
|  3> C          0.84888        2.66797       -4.30235
|  4> C          2.09343        1.86104       -4.65684
|  5> H          2.44481        2.04157       -5.67499
|  6> H          2.90175        2.13786       -3.98034
|  7> S          1.87964        0.07859       -4.46297
|  8> O          3.20757       -0.46611       -4.42026
|  9> F          1.07506       -0.05616       -3.26876
| 10> O          1.13166       -0.31996       -5.67903
| 11> H          0.05064        2.40112       -4.96303
| 12> H          1.06043        3.71210       -4.40203
| 13> H          0.56237        2.45684       -3.29327
| 14> *
| 15>
| 16> %MaxCore 64000
| 17>
| 18> %pal nprocs 4
| 19> end
| 20>
| 21> %scf
| 22>   MaxIter 150
| 23> end
| 24>
| 25>
| 26>                          ****END OF INPUT****

CARTESIAN COORDINATES (ANGSTROEM)
---------------------------------
  C      0.848880    2.667970   -4.302350
  C      2.093430    1.861040   -4.656840
  H      2.444810    2.041570   -5.674990
  H      2.901750    2.137860   -3.980340
  S      1.879640    0.078590   -4.462970
  O      3.207570   -0.466110   -4.420260
  F      1.075060   -0.056160   -3.268760
  O      1.131660   -0.319960   -5.679030
  H      0.050640    2.401120   -4.963030
  H      1.060430    3.712100   -4.402030
  H      0.562370    2.456840   -3.293270

 Total Charge           Charge          ....    0
 Multiplicity           Mult            ....    1
 Number of Electrons    NEL             ....   58
 Basis Dimension        Dim             ....  113

ORBITAL ENERGIES
----------------

  NO   OCC          E(Eh)            E(eV)
   0   2.0000     -89.112113     -2424.8639
   1   2.0000     -24.796453      -674.7458
   2   2.0000     -19.135176      -520.6946
   3   2.0000     -19.117960      -520.2261
   4   2.0000     -10.235736      -278.5285
   5   2.0000     -10.205524      -277.7064
   6   2.0000      -8.175250      -222.4599
   7   2.0000      -6.147748      -167.2887
   8   2.0000      -6.141141      -167.1089
   9   2.0000      -6.139862      -167.0741
  10   2.0000      -1.364014       -37.1167
  11   2.0000      -1.097889       -29.8751
  12   2.0000      -0.990802       -26.9611
  13   2.0000      -0.815247       -22.1840
  14   2.0000      -0.722436       -19.6585
  15   2.0000      -0.670344       -18.2410
  16   2.0000      -0.592023       -16.1098
  17   2.0000      -0.576542       -15.6885
  18   2.0000      -0.535080       -14.5603
  19   2.0000      -0.490232       -13.3399
  20   2.0000      -0.469913       -12.7870
  21   2.0000      -0.443779       -12.0758
  22   2.0000      -0.428922       -11.6716
  23   2.0000      -0.409030       -11.1303
  24   2.0000      -0.391944       -10.6653
  25   2.0000      -0.373255       -10.1568
  26   2.0000      -0.323183        -8.7943
  27   2.0000      -0.307066        -8.3557
  28   2.0000      -0.293913        -7.9978
  29   0.0000       0.027062         0.7364
  30   0.0000       0.062390         1.6977
  31   0.0000       0.074818         2.0359
  32   0.0000       0.092417         2.5148
  33   0.0000       0.098987         2.6936

MULLIKEN ATOMIC CHARGES
-----------------------
   0 C :    0.023733
   1 C :   -0.108483
   2 H :    0.080872
   3 H :    0.050339
   4 S :    0.947137
   5 O :   -0.423497
   6 F :   -0.178105
   7 O :   -0.479121
   8 H :    0.037133
   9 H :    0.030636
  10 H :    0.019356
Sum of atomic charges:   -0.0000000

LOEWDIN ATOMIC CHARGES
----------------------
   0 C :   -0.056645
   1 C :   -0.142794
   2 H :    0.048661
   3 H :    0.029443
   4 S :    1.157765
   5 O :   -0.472446
   6 F :   -0.122164
   7 O :   -0.526192
   8 H :    0.029062
   9 H :    0.034020
  10 H :    0.021290

  Mayer bond orders larger than 0.100000
B(  0-C ,  1-C ) :   1.0610 B(  0-C ,  8-H ) :   0.9705 B(  0-C ,  9-H ) :   0.9601
B(  0-C , 10-H ) :   0.9714 B(  1-C ,  2-H ) :   0.9387 B(  1-C ,  3-H ) :   0.9343
B(  1-C ,  4-S ) :   0.9243 B(  4-S ,  5-O ) :   1.7930 B(  4-S ,  6-F ) :   1.0080
B(  4-S ,  7-O ) :   1.7362

Dispersion correction           -0.015930520
FINAL SINGLE POINT ENERGY      -727.030501788378

DIPOLE MOMENT
-------------
                                X             Y             Z
Electronic contribution:      0.57401      -8.69580       2.03843
Nuclear contribution   :     -0.86540      10.11467      -1.24082
                        -----------------------------------------
Total Dipole Moment    :     -0.29139       1.41887       0.79761
                        -----------------------------------------
Magnitude (a.u.)       :      1.65357
Magnitude (Debye)      :      4.20304

Rotational constants in cm-1:     0.154065     0.083345     0.080357
Rotational constants in MHz :  4618.752213  2498.631937  2409.037217

                             ****ORCA TERMINATED NORMALLY****
TOTAL RUN TIME: 0 days 0 hours 0 minutes 12 seconds 390 msec
