                         Program Version 5.0.0 -  RELEASE  -
|  1> !B3LYP D3BJ RIJCOSX def2-SVP def2/J TightSCF
|  2> *xyz 0 1
|  3> C         -0.46129        2.23469       -4.98962
|  4> C          0.84888        2.66797       -4.30235
|  5> C         -0.42384        2.39877       -6.47432
|  6> N         -0.95947        3.49265       -7.00740
|  7> C          0.14558        1.48689       -7.20399
|  8> H          0.56537        0.69681       -6.72386
|  9> H          0.22068        1.58177       -8.20752
| 10> H         -1.40624        4.18151       -6.40326
| 11> H         -0.93421        3.68160       -7.99947
| 12> H         -1.28888        2.82674       -4.59500
| 13> H         -0.65170        1.18634       -4.75655
| 14> H          1.66208        2.08894       -4.68750
| 15> H          0.76716        2.51042       -3.24717
| 16> H          1.02677        3.70527       -4.49537
| 17> *
| 18>
| 19> %MaxCore 64000
| 20>
| 21> %pal nprocs 4
| 22> end
| 23>
| 24> %scf
| 25>   MaxIter 150
| 26> end
| 27>
| 28>
| 29>                          ****END OF INPUT****

CARTESIAN COORDINATES (ANGSTROEM)
---------------------------------
  C     -0.461290    2.234690   -4.989620
  C      0.848880    2.667970   -4.302350
  C     -0.423840    2.398770   -6.474320
  N     -0.959470    3.492650   -7.007400
  C      0.145580    1.486890   -7.203990
  H      0.565370    0.696810   -6.723860
  H      0.220680    1.581770   -8.207520
  H     -1.406240    4.181510   -6.403260
  H     -0.934210    3.681600   -7.999470
  H     -1.288880    2.826740   -4.595000
  H     -0.651700    1.186340   -4.756550
  H      1.662080    2.088940   -4.687500
  H      0.767160    2.510420   -3.247170
  H      1.026770    3.705270   -4.495370

 Total Charge           Charge          ....    0
 Multiplicity           Mult            ....    1
 Number of Electrons    NEL             ....   40
 Basis Dimension        Dim             ....  115

ORBITAL ENERGIES
----------------

  NO   OCC          E(Eh)            E(eV)
   0   2.0000     -14.320793      -389.6886
   1   2.0000     -10.191813      -277.3333
   2   2.0000     -10.177949      -276.9561
   3   2.0000     -10.166573      -276.6465
   4   2.0000     -10.108009      -275.0529
   5   2.0000      -0.905947       -24.6521
   6   2.0000      -0.766998       -20.8711
   7   2.0000      -0.703297       -19.1377
   8   2.0000      -0.625954       -17.0331
   9   2.0000      -0.555212       -15.1081
  10   2.0000      -0.512641       -13.9497
  11   2.0000      -0.474895       -12.9225
  12   2.0000      -0.434567       -11.8252
  13   2.0000      -0.409667       -11.1476
  14   2.0000      -0.386847       -10.5266
  15   2.0000      -0.376908       -10.2562
  16   2.0000      -0.347037        -9.4434
  17   2.0000      -0.334016        -9.0890
  18   2.0000      -0.320201        -8.7131
  19   2.0000      -0.180955        -4.9240
  20   0.0000       0.048084         1.3084
  21   0.0000       0.068014         1.8507
  22   0.0000       0.095882         2.6091
  23   0.0000       0.101476         2.7613
  24   0.0000       0.121334         3.3017

MULLIKEN ATOMIC CHARGES
-----------------------
   0 C :    0.063176
   1 C :    0.062957
   2 C :   -0.120116
   3 N :   -0.064423
   4 C :   -0.007088
   5 H :   -0.052808
   6 H :   -0.068279
   7 H :    0.100621
   8 H :    0.103563
   9 H :   -0.026323
  10 H :    0.007158
  11 H :    0.005109
  12 H :    0.000974
  13 H :   -0.004518
Sum of atomic charges:   -0.0000000

LOEWDIN ATOMIC CHARGES
----------------------
   0 C :   -0.021493
   1 C :   -0.035179
   2 C :    0.005416
   3 N :   -0.010416
   4 C :   -0.165147
   5 H :   -0.001804
   6 H :   -0.009448
   7 H :    0.068442
   8 H :    0.072497
   9 H :    0.012851
  10 H :    0.030751
  11 H :    0.020309
  12 H :    0.016927
  13 H :    0.016296

  Mayer bond orders larger than 0.100000
B(  0-C ,  1-C ) :   1.1051 B(  0-C ,  2-C ) :   1.0237 B(  0-C ,  9-H ) :   0.9243
B(  0-C , 10-H ) :   0.9306 B(  1-C , 11-H ) :   0.9710 B(  1-C , 12-H ) :   0.9652
B(  1-C , 13-H ) :   0.9667 B(  2-C ,  3-N ) :   1.2599 B(  2-C ,  4-C ) :   1.8881
B(  3-N ,  7-H ) :   0.9490 B(  3-N ,  8-H ) :   0.9496 B(  4-C ,  5-H ) :   0.9234
B(  4-C ,  6-H ) :   0.9427

Dispersion correction           -0.017388539
FINAL SINGLE POINT ENERGY      -212.275574704581

DIPOLE MOMENT
-------------
                                X             Y             Z
Electronic contribution:     -1.74115       0.64995      -2.43177
Nuclear contribution   :      1.40335       0.04939       2.56207
                        -----------------------------------------
Total Dipole Moment    :     -0.33780       0.69934       0.13031
                        -----------------------------------------
Magnitude (a.u.)       :      0.78751
Magnitude (Debye)      :      2.00168

Rotational constants in cm-1:     0.271383     0.128194     0.101873
Rotational constants in MHz :  8135.853259  3843.152748  3054.074278

                             ****ORCA TERMINATED NORMALLY****
TOTAL RUN TIME: 0 days 0 hours 0 minutes 12 seconds 625 msec
