                         Program Version 5.0.0 -  RELEASE  -
|  1> !B3LYP D3BJ RIJCOSX def2-SVP def2/J TightSCF
|  2> *xyz 0 1
|  3> C          0.84888        2.66797       -4.30235
|  4> C          2.09343        1.86104       -4.65684
|  5> H          2.44481        2.04157       -5.67499
|  6> H          2.90175        2.13786       -3.98034
|  7> S          1.87964        0.07859       -4.46297
|  8> O          3.20757       -0.46611       -4.42026
|  9> O          1.07506       -0.05616       -3.26876
| 10> F          1.13166       -0.31996       -5.67903
| 11> H          0.05064        2.40112       -4.96303
| 12> H          1.06043        3.71210       -4.40203
| 13> H          0.56237        2.45684       -3.29327
| 14> *
| 15>
| 16> %MaxCore 64000
| 17>
| 18> %pal nprocs 4
| 19> end
| 20>
| 21> %scf
| 22>   MaxIter 150
| 23> end
| 24>
| 25>
| 26>                          ****END OF INPUT****

CARTESIAN COORDINATES (ANGSTROEM)
---------------------------------
  C      0.848880    2.667970   -4.302350
  C      2.093430    1.861040   -4.656840
  H      2.444810    2.041570   -5.674990
  H      2.901750    2.137860   -3.980340
  S      1.879640    0.078590   -4.462970
  O      3.207570   -0.466110   -4.420260
  O      1.075060   -0.056160   -3.268760
  F      1.131660   -0.319960   -5.679030
  H      0.050640    2.401120   -4.963030
  H      1.060430    3.712100   -4.402030
  H      0.562370    2.456840   -3.293270

 Total Charge           Charge          ....    0
 Multiplicity           Mult            ....    1
 Number of Electrons    NEL             ....   58
 Basis Dimension        Dim             ....  113

ORBITAL ENERGIES
----------------

  NO   OCC          E(Eh)            E(eV)
   0   2.0000     -89.111477     -2424.8466
   1   2.0000     -24.777177      -674.2213
   2   2.0000     -19.135441      -520.7018
   3   2.0000     -19.132778      -520.6294
   4   2.0000     -10.235024      -278.5092
   5   2.0000     -10.199780      -277.5501
   6   2.0000      -8.174459      -222.4383
   7   2.0000      -6.146663      -167.2592
   8   2.0000      -6.140655      -167.0957
   9   2.0000      -6.139294      -167.0587
  10   2.0000      -1.332337       -36.2547
  11   2.0000      -1.107147       -30.1270
  12   2.0000      -1.011880       -27.5347
  13   2.0000      -0.811189       -22.0736
  14   2.0000      -0.711194       -19.3526
  15   2.0000      -0.661459       -17.9992
  16   2.0000      -0.572540       -15.5796
  17   2.0000      -0.554194       -15.0804
  18   2.0000      -0.536852       -14.6085
  19   2.0000      -0.488193       -13.2844
  20   2.0000      -0.472946       -12.8695
  21   2.0000      -0.446706       -12.1555
  22   2.0000      -0.425955       -11.5908
  23   2.0000      -0.400852       -10.9077
  24   2.0000      -0.395443       -10.7606
  25   2.0000      -0.375249       -10.2111
  26   2.0000      -0.329342        -8.9619
  27   2.0000      -0.320887        -8.7318
  28   2.0000      -0.309212        -8.4141
  29   0.0000       0.032483         0.8839
  30   0.0000       0.058840         1.6011
  31   0.0000       0.078490         2.1358
  32   0.0000       0.090321         2.4578
  33   0.0000       0.098253         2.6736

MULLIKEN ATOMIC CHARGES
-----------------------
   0 C :    0.035542
   1 C :   -0.118577
   2 H :    0.051357
   3 H :    0.072936
   4 S :    0.957588
   5 O :   -0.429130
   6 O :   -0.444290
   7 F :   -0.213550
   8 H :    0.019161
   9 H :    0.023837
  10 H :    0.045126
Sum of atomic charges:   -0.0000000

LOEWDIN ATOMIC CHARGES
----------------------
   0 C :   -0.052673
   1 C :   -0.147838
   2 H :    0.029548
   3 H :    0.045173
   4 S :    1.162966
   5 O :   -0.476402
   6 O :   -0.485925
   7 F :   -0.161314
   8 H :    0.023593
   9 H :    0.031220
  10 H :    0.031651

  Mayer bond orders larger than 0.100000
B(  0-C ,  1-C ) :   1.0654 B(  0-C ,  8-H ) :   0.9731 B(  0-C ,  9-H ) :   0.9582
B(  0-C , 10-H ) :   0.9664 B(  1-C ,  2-H ) :   0.9354 B(  1-C ,  3-H ) :   0.9379
B(  1-C ,  4-S ) :   0.9167 B(  4-S ,  5-O ) :   1.7974 B(  4-S ,  6-O ) :   1.7735
B(  4-S ,  7-F ) :   0.9722

Dispersion correction           -0.015980707
FINAL SINGLE POINT ENERGY      -727.047555261572

DIPOLE MOMENT
-------------
                                X             Y             Z
Electronic contribution:      0.66359      -9.16987      -2.03689
Nuclear contribution   :     -0.92438      10.38956       1.27076
                        -----------------------------------------
Total Dipole Moment    :     -0.26079       1.21969      -0.76613
                        -----------------------------------------
Magnitude (a.u.)       :      1.46376
Magnitude (Debye)      :      3.72059

Rotational constants in cm-1:     0.154243     0.082247     0.080562
Rotational constants in MHz :  4624.087322  2465.703680  2415.175852

                             ****ORCA TERMINATED NORMALLY****
TOTAL RUN TIME: 0 days 0 hours 0 minutes 13 seconds 912 msec
