                         Program Version 5.0.0 -  RELEASE  -
|  1> !B3LYP D3BJ RIJCOSX def2-TZVP def2/J TightSCF xyzfile
|  2>
|  3> *xyzfile 0 1 D1.xyz
|  4>
|  5> %MaxCore 64000
|  6>
|  7> %pal nprocs 18
|  8> end
|  9>
| 10> %scf
| 11>   MaxIter 150
| 12> end
| 13>
| 14>
| 15>                          ****END OF INPUT****

CARTESIAN COORDINATES (ANGSTROEM)
---------------------------------
  C     -0.461293    2.234686   -4.989619
  C      0.848883    2.667967   -4.302351
  C      2.093434    1.861037   -4.656845
  H      2.444814    2.041567   -5.674990
  H      2.901748    2.137864   -3.980338
  S      1.879644    0.078594   -4.462965
  C     -0.423841    2.398772   -6.474317
  C     -0.959467    3.492647   -7.007401
  N      0.145585    1.486891   -7.203987
  H      0.565371    0.696807   -6.723858
  H      0.220682    1.581768   -8.207520
  H     -1.406243    4.181507   -6.403261
  H     -0.934215    3.681601   -7.999468
  F      3.207574   -0.466111   -4.420259
  O      1.075064   -0.056160   -3.268758
  O      1.131661   -0.319960   -5.679031
  H      0.668432    2.559427   -3.232850
  H      1.034074    3.729426   -4.497081
  H     -1.288884    2.826737   -4.594997
  H     -0.651696    1.186343   -4.756552

 Total Charge           Charge          ....    0
 Multiplicity           Mult            ....    1
 Number of Electrons    NEL             ....   88
 Basis Dimension        Dim             ....  376

ORBITAL ENERGIES
----------------

  NO   OCC          E(Eh)            E(eV)
   0   2.0000     -89.117168     -2425.0014
   1   2.0000     -24.821414      -675.4250
   2   2.0000     -19.153166      -521.1841
   3   2.0000     -19.149683      -521.0894
   4   2.0000     -14.287018      -388.7695
   5   2.0000     -10.233048      -278.4554
   6   2.0000     -10.195249      -277.4268
   7   2.0000     -10.178368      -276.9675
   8   2.0000     -10.168244      -276.6920
   9   2.0000     -10.089749      -274.5560
  10   2.0000      -8.161171      -222.0767
  11   2.0000      -6.127730      -166.7440
  12   2.0000      -6.121724      -166.5806
  13   2.0000      -6.121261      -166.5680
  14   2.0000      -1.405958       -38.2581
  15   2.0000      -1.125317       -30.6214
  16   2.0000      -1.031564       -28.0703
  17   2.0000      -0.918764       -25.0008
  18   2.0000      -0.832943       -22.6655
  19   2.0000      -0.769367       -20.9355
  20   2.0000      -0.737689       -20.0735
  21   2.0000      -0.693061       -18.8592
  22   2.0000      -0.644470       -17.5369
  23   2.0000      -0.609575       -16.5874
  24   2.0000      -0.598893       -16.2967
  25   2.0000      -0.578589       -15.7442
  26   2.0000      -0.557072       -15.1587
  27   2.0000      -0.524757       -14.2794
  28   2.0000      -0.500976       -13.6323
  29   2.0000      -0.490131       -13.3371
  30   2.0000      -0.472132       -12.8474
  31   2.0000      -0.456525       -12.4227
  32   2.0000      -0.446512       -12.1502
  33   2.0000      -0.413337       -11.2475
  34   2.0000      -0.398419       -10.8415
  35   2.0000      -0.391908       -10.6643
  36   2.0000      -0.380629       -10.3574
  37   2.0000      -0.365342        -9.9415
  38   2.0000      -0.350928        -9.5492
  39   2.0000      -0.344607        -9.3772
  40   2.0000      -0.331029        -9.0078
  41   2.0000      -0.327848        -8.9212
  42   2.0000      -0.318419        -8.6646
  43   2.0000      -0.175504        -4.7757
  44   0.0000       0.003364         0.0915
  45   0.0000       0.026102         0.7103
  46   0.0000       0.045786         1.2459
  47   0.0000       0.048098         1.3088
  48   0.0000       0.055664         1.5147

MULLIKEN ATOMIC CHARGES
-----------------------
   0 C :   -0.263102
   1 C :   -0.135886
   2 C :   -0.290062
   3 H :    0.152322
   4 H :    0.135507
   5 S :    0.894496
   6 C :    0.213565
   7 C :   -0.431124
   8 N :   -0.435073
   9 H :    0.266039
  10 H :    0.203156
  11 H :    0.078760
  12 H :    0.077851
  13 F :   -0.096447
  14 O :   -0.398024
  15 O :   -0.461195
  16 H :    0.111155
  17 H :    0.115265
  18 H :    0.111780
  19 H :    0.151018
Sum of atomic charges:   -0.0000000

LOEWDIN ATOMIC CHARGES
----------------------
   0 C :   -0.210705
   1 C :   -0.260127
   2 C :   -0.364918
   3 H :    0.140973
   4 H :    0.136300
   5 S :    0.556177
   6 C :   -0.374945
   7 C :   -0.293081
   8 N :    0.015837
   9 H :    0.136873
  10 H :    0.166326
  11 H :    0.100941
  12 H :    0.091732
  13 F :    0.109391
  14 O :   -0.249265
  15 O :   -0.287008
  16 H :    0.143726
  17 H :    0.147566
  18 H :    0.150758
  19 H :    0.143449

  Mayer bond orders larger than 0.100000
B(  0-C ,  1-C ) :   0.9454 B(  0-C ,  6-C ) :   0.9266 B(  0-C , 18-H ) :   0.9762
B(  0-C , 19-H ) :   0.9861 B(  1-C ,  2-C ) :   0.9815 B(  1-C , 16-H ) :   0.9579
B(  1-C , 17-H ) :   0.9422 B(  2-C ,  3-H ) :   0.9276 B(  2-C ,  4-H ) :   0.9390
B(  2-C ,  5-S ) :   0.9319 B(  5-S , 13-F ) :   1.1504 B(  5-S , 14-O ) :   1.9174
B(  5-S , 15-O ) :   1.7463 B(  6-C ,  7-C ) :   1.7024 B(  6-C ,  8-N ) :   1.2317
B(  7-C , 11-H ) :   0.9931 B(  7-C , 12-H ) :   0.9922 B(  8-N ,  9-H ) :   0.8440
B(  8-N , 10-H ) :   0.9258 B(  9-H , 15-O ) :   0.1092

Dispersion correction           -0.038454533
FINAL SINGLE POINT ENERGY      -899.655873479197

DIPOLE MOMENT
-------------
                                X             Y             Z
Electronic contribution:     10.17781     -13.97221       5.45590
Nuclear contribution   :     -8.53047      14.15581      -5.17613
                        -----------------------------------------
Total Dipole Moment    :      1.64735       0.18360       0.27977
                        -----------------------------------------
Magnitude (a.u.)       :      1.68099
Magnitude (Debye)      :      4.27274

Rotational constants in cm-1:     0.081196     0.024861     0.022477
Rotational constants in MHz :  2434.181666   745.320670   673.846846

                             ****ORCA TERMINATED NORMALLY****
TOTAL RUN TIME: 0 days 0 hours 0 minutes 26 seconds 14 msec
