                         Program Version 5.0.0 -  RELEASE  -
|  1> !B3LYP D3BJ RIJCOSX def2-TZVP def2/J TightSCF xyzfile
|  2>
|  3> *xyzfile 0 1 D3.xyz
|  4>
|  5> %MaxCore 64000
|  6>
|  7> %pal nprocs 18
|  8> end
|  9>
| 10> %scf
| 11>   MaxIter 150
| 12> end
| 13>
| 14>
| 15>                          ****END OF INPUT****

CARTESIAN COORDINATES (ANGSTROEM)
---------------------------------
  C     -0.461293    2.234686   -4.989619
  C      0.848883    2.667967   -4.302351
  C      2.093434    1.861037   -4.656845
  H      2.444814    2.041567   -5.674990
  H      2.901748    2.137864   -3.980338
  S      1.879644    0.078594   -4.462965
  C     -0.423841    2.398772   -6.474317
  C     -0.959467    3.492647   -7.007401
  N      0.145585    1.486891   -7.203987
  H      0.565371    0.696807   -6.723858
  H      0.220682    1.581768   -8.207520
  H     -1.406243    4.181507   -6.403261
  H     -0.934215    3.681601   -7.999468
  O      3.207574   -0.466111   -4.420259
  F      1.075064   -0.056160   -3.268758
  O      1.131661   -0.319960   -5.679031
  H      0.668432    2.559427   -3.232850
  H      1.034074    3.729426   -4.497081
  H     -1.288884    2.826737   -4.594997
  H     -0.651696    1.186343   -4.756552

 Total Charge           Charge          ....    0
 Multiplicity           Mult            ....    1
 Number of Electrons    NEL             ....   88
 Basis Dimension        Dim             ....  376

ORBITAL ENERGIES
----------------

  NO   OCC          E(Eh)            E(eV)
   0   2.0000     -89.116397     -2424.9805
   1   2.0000     -24.815577      -675.2662
   2   2.0000     -19.156195      -521.2666
   3   2.0000     -19.148664      -521.0616
   4   2.0000     -14.289849      -388.8466
   5   2.0000     -10.232704      -278.4460
   6   2.0000     -10.200842      -277.5790
   7   2.0000     -10.184064      -277.1225
   8   2.0000     -10.178965      -276.9837
   9   2.0000     -10.094685      -274.6904
  10   2.0000      -8.160372      -222.0550
  11   2.0000      -6.127197      -166.7295
  12   2.0000      -6.120975      -166.5602
  13   2.0000      -6.120190      -166.5388
  14   2.0000      -1.397211       -38.0201
  15   2.0000      -1.127988       -30.6941
  16   2.0000      -1.034733       -28.1565
  17   2.0000      -0.922613       -25.1056
  18   2.0000      -0.838991       -22.8301
  19   2.0000      -0.768186       -20.9034
  20   2.0000      -0.737327       -20.0637
  21   2.0000      -0.697740       -18.9865
  22   2.0000      -0.645806       -17.5733
  23   2.0000      -0.607536       -16.5319
  24   2.0000      -0.604190       -16.4409
  25   2.0000      -0.574113       -15.6224
  26   2.0000      -0.562515       -15.3068
  27   2.0000      -0.519573       -14.1383
  28   2.0000      -0.500575       -13.6213
  29   2.0000      -0.493363       -13.4251
  30   2.0000      -0.474398       -12.9090
  31   2.0000      -0.459884       -12.5141
  32   2.0000      -0.453036       -12.3277
  33   2.0000      -0.421095       -11.4586
  34   2.0000      -0.404599       -11.0097
  35   2.0000      -0.398504       -10.8438
  36   2.0000      -0.383798       -10.4437
  37   2.0000      -0.379942       -10.3387
  38   2.0000      -0.348149        -9.4736
  39   2.0000      -0.346259        -9.4222
  40   2.0000      -0.340285        -9.2596
  41   2.0000      -0.328319        -8.9340
  42   2.0000      -0.322038        -8.7631
  43   2.0000      -0.179668        -4.8890
  44   0.0000      -0.000389        -0.0106
  45   0.0000       0.030826         0.8388
  46   0.0000       0.040972         1.1149
  47   0.0000       0.043349         1.1796
  48   0.0000       0.056300         1.5320

MULLIKEN ATOMIC CHARGES
-----------------------
   0 C :   -0.257468
   1 C :   -0.173272
   2 C :   -0.278670
   3 H :    0.164378
   4 H :    0.146055
   5 S :    0.902961
   6 C :    0.223475
   7 C :   -0.429703
   8 N :   -0.434378
   9 H :    0.271712
  10 H :    0.205373
  11 H :    0.079075
  12 H :    0.081096
  13 O :   -0.397567
  14 F :   -0.101278
  15 O :   -0.463290
  16 H :    0.105733
  17 H :    0.117077
  18 H :    0.115660
  19 H :    0.123029
Sum of atomic charges:    0.0000000

LOEWDIN ATOMIC CHARGES
----------------------
   0 C :   -0.216230
   1 C :   -0.272892
   2 C :   -0.355943
   3 H :    0.150589
   4 H :    0.140891
   5 S :    0.560284
   6 C :   -0.375019
   7 C :   -0.289988
   8 N :    0.018170
   9 H :    0.137537
  10 H :    0.167530
  11 H :    0.101088
  12 H :    0.092947
  13 O :   -0.244935
  14 F :    0.103688
  15 O :   -0.286978
  16 H :    0.136083
  17 H :    0.147391
  18 H :    0.151126
  19 H :    0.134661

  Mayer bond orders larger than 0.100000
B(  0-C ,  1-C ) :   0.9259 B(  0-C ,  6-C ) :   0.9150 B(  0-C , 18-H ) :   0.9765
B(  0-C , 19-H ) :   0.9986 B(  1-C ,  2-C ) :   0.9701 B(  1-C , 16-H ) :   0.9688
B(  1-C , 17-H ) :   0.9435 B(  2-C ,  3-H ) :   0.9308 B(  2-C ,  4-H ) :   0.9472
B(  2-C ,  5-S ) :   0.9276 B(  5-S , 13-O ) :   1.9745 B(  5-S , 14-F ) :   1.1253
B(  5-S , 15-O ) :   1.7329 B(  6-C ,  7-C ) :   1.7056 B(  6-C ,  8-N ) :   1.2391
B(  7-C , 11-H ) :   0.9914 B(  7-C , 12-H ) :   0.9949 B(  8-N ,  9-H ) :   0.8434
B(  8-N , 10-H ) :   0.9249 B(  9-H , 15-O ) :   0.1057

Dispersion correction           -0.038226232
FINAL SINGLE POINT ENERGY      -899.660022971499

DIPOLE MOMENT
-------------
                                X             Y             Z
Electronic contribution:      6.48634     -13.20205       7.36711
Nuclear contribution   :     -6.19944      13.70770      -6.43483
                        -----------------------------------------
Total Dipole Moment    :      0.28691       0.50564       0.93228
                        -----------------------------------------
Magnitude (a.u.)       :      1.09869
Magnitude (Debye)      :      2.79266

Rotational constants in cm-1:     0.079903     0.025241     0.022805
Rotational constants in MHz :  2395.439281   756.708181   683.680583

                             ****ORCA TERMINATED NORMALLY****
TOTAL RUN TIME: 0 days 0 hours 0 minutes 26 seconds 219 msec
