                         Program Version 5.0.0 -  RELEASE  -
|  1> !B3LYP D3BJ RIJCOSX def2-TZVP def2/J TightSCF xyzfile
|  2>
|  3> *xyzfile 0 1 D4.xyz
|  4>
|  5> %MaxCore 64000
|  6>
|  7> %pal nprocs 18
|  8> end
|  9>
| 10> %scf
| 11>   MaxIter 150
| 12> end
| 13>
| 14>
| 15>                          ****END OF INPUT****

CARTESIAN COORDINATES (ANGSTROEM)
---------------------------------
  C     -0.461293    2.234686   -4.989619
  C      0.848883    2.667967   -4.302351
  C      2.093434    1.861037   -4.656845
  H      2.444814    2.041567   -5.674990
  H      2.901748    2.137864   -3.980338
  S      1.879644    0.078594   -4.462965
  C     -0.423841    2.398772   -6.474317
  N     -0.959467    3.492647   -7.007401
  C      0.145585    1.486891   -7.203987
  H      0.565371    0.696807   -6.723858
  H      0.220682    1.581768   -8.207520
  H     -1.406243    4.181507   -6.403261
  H     -0.934215    3.681601   -7.999468
  O      3.207574   -0.466111   -4.420259
  F      1.075064   -0.056160   -3.268758
  O      1.131661   -0.319960   -5.679031
  H      0.668432    2.559427   -3.232850
  H      1.034074    3.729426   -4.497081
  H     -1.288884    2.826737   -4.594997
  H     -0.651696    1.186343   -4.756552

 Total Charge           Charge          ....    0
 Multiplicity           Mult            ....    1
 Number of Electrons    NEL             ....   88
 Basis Dimension        Dim             ....  376

ORBITAL ENERGIES
----------------

  NO   OCC          E(Eh)            E(eV)
   0   2.0000     -89.097734     -2424.4726
   1   2.0000     -24.800835      -674.8650
   2   2.0000     -19.139475      -520.8116
   3   2.0000     -19.125337      -520.4269
   4   2.0000     -14.310120      -389.3982
   5   2.0000     -10.221393      -278.1383
   6   2.0000     -10.198223      -277.5077
   7   2.0000     -10.179605      -277.0011
   8   2.0000     -10.178842      -276.9804
   9   2.0000     -10.076775      -274.2030
  10   2.0000      -8.141809      -221.5499
  11   2.0000      -6.108786      -166.2285
  12   2.0000      -6.102119      -166.0471
  13   2.0000      -6.101753      -166.0371
  14   2.0000      -1.382689       -37.6249
  15   2.0000      -1.109559       -30.1926
  16   2.0000      -1.013828       -27.5877
  17   2.0000      -0.921222       -25.0677
  18   2.0000      -0.832048       -22.6412
  19   2.0000      -0.766034       -20.8448
  20   2.0000      -0.723262       -19.6810
  21   2.0000      -0.702971       -19.1288
  22   2.0000      -0.638504       -17.3746
  23   2.0000      -0.597474       -16.2581
  24   2.0000      -0.588524       -16.0145
  25   2.0000      -0.565802       -15.3962
  26   2.0000      -0.552736       -15.0407
  27   2.0000      -0.515555       -14.0290
  28   2.0000      -0.494760       -13.4631
  29   2.0000      -0.479066       -13.0360
  30   2.0000      -0.475598       -12.9417
  31   2.0000      -0.460935       -12.5427
  32   2.0000      -0.442873       -12.0512
  33   2.0000      -0.411577       -11.1996
  34   2.0000      -0.400914       -10.9094
  35   2.0000      -0.392705       -10.6861
  36   2.0000      -0.377888       -10.2829
  37   2.0000      -0.373332       -10.1589
  38   2.0000      -0.343464        -9.3461
  39   2.0000      -0.332023        -9.0348
  40   2.0000      -0.326005        -8.8710
  41   2.0000      -0.320111        -8.7107
  42   2.0000      -0.291091        -7.9210
  43   2.0000      -0.184802        -5.0287
  44   0.0000       0.010330         0.2811
  45   0.0000       0.027929         0.7600
  46   0.0000       0.041910         1.1404
  47   0.0000       0.048000         1.3062
  48   0.0000       0.056650         1.5415

MULLIKEN ATOMIC CHARGES
-----------------------
   0 C :   -0.251829
   1 C :   -0.173922
   2 C :   -0.268775
   3 H :    0.167765
   4 H :    0.139712
   5 S :    0.875197
   6 C :    0.244926
   7 N :   -0.459137
   8 C :   -0.464874
   9 H :    0.188137
  10 H :    0.071484
  11 H :    0.209351
  12 H :    0.218876
  13 O :   -0.407349
  14 F :   -0.108126
  15 O :   -0.425792
  16 H :    0.107042
  17 H :    0.107577
  18 H :    0.089294
  19 H :    0.140441
Sum of atomic charges:   -0.0000000

LOEWDIN ATOMIC CHARGES
----------------------
   0 C :   -0.217208
   1 C :   -0.274216
   2 C :   -0.354998
   3 H :    0.151689
   4 H :    0.138505
   5 S :    0.548389
   6 C :   -0.375420
   7 N :   -0.014613
   8 C :   -0.253500
   9 H :    0.091354
  10 H :    0.094913
  11 H :    0.163105
  12 H :    0.166591
  13 O :   -0.254062
  14 F :    0.096512
  15 O :   -0.267816
  16 H :    0.135733
  17 H :    0.143087
  18 H :    0.136200
  19 H :    0.145753

  Mayer bond orders larger than 0.100000
B(  0-C ,  1-C ) :   0.9227 B(  0-C ,  6-C ) :   0.9148 B(  0-C , 18-H ) :   0.9755
B(  0-C , 19-H ) :   1.0043 B(  1-C ,  2-C ) :   0.9718 B(  1-C , 16-H ) :   0.9731
B(  1-C , 17-H ) :   0.9445 B(  2-C ,  3-H ) :   0.9332 B(  2-C ,  4-H ) :   0.9497
B(  2-C ,  5-S ) :   0.9248 B(  5-S , 13-O ) :   1.9639 B(  5-S , 14-F ) :   1.1092
B(  5-S , 15-O ) :   1.7899 B(  6-C ,  7-N ) :   1.1178 B(  6-C ,  8-C ) :   1.7440
B(  7-N , 11-H ) :   0.9272 B(  7-N , 12-H ) :   0.9233 B(  8-C ,  9-H ) :   0.9636
B(  8-C , 10-H ) :   0.9929

Dispersion correction           -0.038519391
FINAL SINGLE POINT ENERGY      -899.639246418278

DIPOLE MOMENT
-------------
                                X             Y             Z
Electronic contribution:      5.54309     -11.69389       7.30995
Nuclear contribution   :     -6.09390      13.51614      -6.45360
                        -----------------------------------------
Total Dipole Moment    :     -0.55081       1.82225       0.85635
                        -----------------------------------------
Magnitude (a.u.)       :      2.08742
Magnitude (Debye)      :      5.30579

Rotational constants in cm-1:     0.081469     0.024519     0.022336
Rotational constants in MHz :  2442.393231   735.066768   669.628729

                             ****ORCA TERMINATED NORMALLY****
TOTAL RUN TIME: 0 days 0 hours 0 minutes 25 seconds 81 msec
