                         Program Version 5.0.0 -  RELEASE  -
|  1> !B3LYP D3BJ RIJCOSX def2-TZVP def2/J TightSCF xyzfile
|  2>
|  3> *xyzfile 0 1 D5.xyz
|  4>
|  5> %MaxCore 64000
|  6>
|  7> %pal nprocs 18
|  8> end
|  9>
| 10> %scf
| 11>   MaxIter 150
| 12> end
| 13>
| 14>
| 15>                          ****END OF INPUT****

CARTESIAN COORDINATES (ANGSTROEM)
---------------------------------
  C     -0.461293    2.234686   -4.989619
  C      0.848883    2.667967   -4.302351
  C      2.093434    1.861037   -4.656845
  H      2.444814    2.041567   -5.674990
  H      2.901748    2.137864   -3.980338
  S      1.879644    0.078594   -4.462965
  C     -0.423841    2.398772   -6.474317
  C     -0.959467    3.492647   -7.007401
  N      0.145585    1.486891   -7.203987
  H      0.565371    0.696807   -6.723858
  H      0.220682    1.581768   -8.207520
  H     -1.406243    4.181507   -6.403261
  H     -0.934215    3.681601   -7.999468
  O      3.207574   -0.466111   -4.420259
  O      1.075064   -0.056160   -3.268758
  F      1.131661   -0.319960   -5.679031
  H      0.668432    2.559427   -3.232850
  H      1.034074    3.729426   -4.497081
  H     -1.288884    2.826737   -4.594997
  H     -0.651696    1.186343   -4.756552

 Total Charge           Charge          ....    0
 Multiplicity           Mult            ....    1
 Number of Electrons    NEL             ....   88
 Basis Dimension        Dim             ....  376

ORBITAL ENERGIES
----------------

  NO   OCC          E(Eh)            E(eV)
   0   2.0000     -89.107066     -2424.7265
   1   2.0000     -24.807193      -675.0380
   2   2.0000     -19.151088      -521.1276
   3   2.0000     -19.147348      -521.0258
   4   2.0000     -14.317696      -389.6043
   5   2.0000     -10.229722      -278.3649
   6   2.0000     -10.195881      -277.4440
   7   2.0000     -10.195820      -277.4424
   8   2.0000     -10.182211      -277.0720
   9   2.0000     -10.106892      -275.0225
  10   2.0000      -8.151487      -221.8132
  11   2.0000      -6.118701      -166.4983
  12   2.0000      -6.111670      -166.3070
  13   2.0000      -6.111228      -166.2950
  14   2.0000      -1.381297       -37.5870
  15   2.0000      -1.128885       -30.7185
  16   2.0000      -1.037434       -28.2300
  17   2.0000      -0.945100       -25.7175
  18   2.0000      -0.835203       -22.7270
  19   2.0000      -0.770424       -20.9643
  20   2.0000      -0.747338       -20.3361
  21   2.0000      -0.699185       -19.0258
  22   2.0000      -0.656001       -17.8507
  23   2.0000      -0.605688       -16.4816
  24   2.0000      -0.591396       -16.0927
  25   2.0000      -0.574449       -15.6316
  26   2.0000      -0.556426       -15.1411
  27   2.0000      -0.534174       -14.5356
  28   2.0000      -0.502571       -13.6756
  29   2.0000      -0.488114       -13.2822
  30   2.0000      -0.474812       -12.9203
  31   2.0000      -0.468733       -12.7549
  32   2.0000      -0.449153       -12.2221
  33   2.0000      -0.423358       -11.5202
  34   2.0000      -0.405695       -11.0395
  35   2.0000      -0.397291       -10.8108
  36   2.0000      -0.389364       -10.5951
  37   2.0000      -0.379133       -10.3167
  38   2.0000      -0.352684        -9.5970
  39   2.0000      -0.351203        -9.5567
  40   2.0000      -0.341954        -9.3050
  41   2.0000      -0.335782        -9.1371
  42   2.0000      -0.330750        -9.0002
  43   2.0000      -0.195037        -5.3072
  44   0.0000       0.004562         0.1241
  45   0.0000       0.033034         0.8989
  46   0.0000       0.033703         0.9171
  47   0.0000       0.042241         1.1494
  48   0.0000       0.050647         1.3782

MULLIKEN ATOMIC CHARGES
-----------------------
   0 C :   -0.289183
   1 C :   -0.110932
   2 C :   -0.312419
   3 H :    0.149698
   4 H :    0.156747
   5 S :    0.884664
   6 C :    0.224521
   7 C :   -0.415698
   8 N :   -0.436131
   9 H :    0.238366
  10 H :    0.217099
  11 H :    0.086203
  12 H :    0.083934
  13 O :   -0.408338
  14 O :   -0.409212
  15 F :   -0.144229
  16 H :    0.116223
  17 H :    0.111651
  18 H :    0.119462
  19 H :    0.137574
Sum of atomic charges:   -0.0000000

LOEWDIN ATOMIC CHARGES
----------------------
   0 C :   -0.214142
   1 C :   -0.266401
   2 C :   -0.361275
   3 H :    0.137529
   4 H :    0.149668
   5 S :    0.549985
   6 C :   -0.376032
   7 C :   -0.275303
   8 N :    0.009909
   9 H :    0.140696
  10 H :    0.172216
  11 H :    0.104209
  12 H :    0.093789
  13 O :   -0.251729
  14 O :   -0.255942
  15 F :    0.062459
  16 H :    0.144824
  17 H :    0.145291
  18 H :    0.153522
  19 H :    0.136727

  Mayer bond orders larger than 0.100000
B(  0-C ,  1-C ) :   0.9350 B(  0-C ,  6-C ) :   0.9174 B(  0-C , 18-H ) :   0.9767
B(  0-C , 19-H ) :   0.9947 B(  1-C ,  2-C ) :   0.9652 B(  1-C , 16-H ) :   0.9580
B(  1-C , 17-H ) :   0.9411 B(  2-C ,  3-H ) :   0.9363 B(  2-C ,  4-H ) :   0.9451
B(  2-C ,  5-S ) :   0.9186 B(  5-S , 13-O ) :   1.9640 B(  5-S , 14-O ) :   1.8985
B(  5-S , 15-F ) :   1.0141 B(  6-C ,  7-C ) :   1.7220 B(  6-C ,  8-N ) :   1.1950
B(  7-C , 11-H ) :   0.9926 B(  7-C , 12-H ) :   0.9920 B(  8-N ,  9-H ) :   0.8920
B(  8-N , 10-H ) :   0.9202

Dispersion correction           -0.038033739
FINAL SINGLE POINT ENERGY      -899.663096407471

DIPOLE MOMENT
-------------
                                X             Y             Z
Electronic contribution:      6.43835     -13.46947       3.15170
Nuclear contribution   :     -6.26130      13.99605      -3.80018
                        -----------------------------------------
Total Dipole Moment    :      0.17705       0.52659      -0.64848
                        -----------------------------------------
Magnitude (a.u.)       :      0.85391
Magnitude (Debye)      :      2.17047

Rotational constants in cm-1:     0.079895     0.025630     0.022948
Rotational constants in MHz :  2395.188639   768.373696   687.955250

                             ****ORCA TERMINATED NORMALLY****
TOTAL RUN TIME: 0 days 0 hours 0 minutes 24 seconds 679 msec
