                         Program Version 5.0.0 -  RELEASE  -
|  1> !BLYP D3BJ RIJCOSX def2-SVPD def2/J TightSCF
|  2> *xyz 1 1
|  3> C          4.36645       -0.13321       -1.41606
|  4> C          4.50829       -0.93187       -2.72425
|  5> C          3.05650       -0.32080       -0.70738
|  6> N          2.38983        0.71129       -0.24391
|  7> N          2.51600       -1.50772       -0.55023
|  8> H          2.96768       -2.32291       -0.95631
|  9> H          1.54987       -1.49063       -0.24988
| 10> H          2.74307        1.64947       -0.41280
| 11> H          1.44036        0.50278        0.03703
| 12> H          4.48784        0.93300       -1.61157
| 13> H          5.16967       -0.41443       -0.72982
| 14> H          5.46700       -0.73824       -3.15818
| 15> H          3.74074       -0.63528       -3.40821
| 16> H          4.41574       -1.97727       -2.51573
| 17> *
| 18>
| 19> %MaxCore 64000
| 20>
| 21> %pal nprocs 4
| 22> end
| 23>
| 24> %scf
| 25>   MaxIter 150
| 26> end
| 27>
| 28>
| 29>                          ****END OF INPUT****

CARTESIAN COORDINATES (ANGSTROEM)
---------------------------------
  C      4.366450   -0.133210   -1.416060
  C      4.508290   -0.931870   -2.724250
  C      3.056500   -0.320800   -0.707380
  N      2.389830    0.711290   -0.243910
  N      2.516000   -1.507720   -0.550230
  H      2.967680   -2.322910   -0.956310
  H      1.549870   -1.490630   -0.249880
  H      2.743070    1.649470   -0.412800
  H      1.440360    0.502780    0.037030
  H      4.487840    0.933000   -1.611570
  H      5.169670   -0.414430   -0.729820
  H      5.467000   -0.738240   -3.158180
  H      3.740740   -0.635280   -3.408210
  H      4.415740   -1.977270   -2.515730

 Total Charge           Charge          ....    1
 Multiplicity           Mult            ....    1
 Number of Electrons    NEL             ....   40
 Basis Dimension        Dim             ....  172

ORBITAL ENERGIES
----------------

  NO   OCC          E(Eh)            E(eV)
   0   2.0000     -14.271186      -388.3387
   1   2.0000     -14.270013      -388.3068
   2   2.0000     -10.236375      -278.5459
   3   2.0000     -10.124092      -275.4905
   4   2.0000     -10.083414      -274.3836
   5   2.0000      -1.115035       -30.3416
   6   2.0000      -1.016563       -27.6621
   7   2.0000      -0.887499       -24.1501
   8   2.0000      -0.788779       -21.4638
   9   2.0000      -0.755971       -20.5710
  10   2.0000      -0.712865       -19.3980
  11   2.0000      -0.696963       -18.9653
  12   2.0000      -0.654406       -17.8073
  13   2.0000      -0.608146       -16.5485
  14   2.0000      -0.578441       -15.7402
  15   2.0000      -0.553085       -15.0502
  16   2.0000      -0.509823       -13.8730
  17   2.0000      -0.496349       -13.5063
  18   2.0000      -0.483134       -13.1467
  19   2.0000      -0.452767       -12.3204
  20   0.0000      -0.245969        -6.6932
  21   0.0000      -0.189715        -5.1624
  22   0.0000      -0.144761        -3.9391
  23   0.0000      -0.143086        -3.8936
  24   0.0000      -0.110966        -3.0195

MULLIKEN ATOMIC CHARGES
-----------------------
   0 C :   -0.008200
   1 C :    1.156553
   2 C :    0.306464
   3 N :    0.331383
   4 N :    0.390393
   5 H :   -0.072597
   6 H :   -0.172453
   7 H :   -0.042675
   8 H :   -0.130727
   9 H :   -0.078339
  10 H :   -0.096433
  11 H :   -0.154810
  12 H :   -0.179253
  13 H :   -0.249307
Sum of atomic charges:    1.0000000

LOEWDIN ATOMIC CHARGES
----------------------
   0 C :    0.028036
   1 C :    0.184383
   2 C :   -0.063161
   3 N :    0.300838
   4 N :    0.307390
   5 H :    0.044042
   6 H :    0.040029
   7 H :    0.054430
   8 H :    0.039145
   9 H :    0.032088
  10 H :    0.052275
  11 H :    0.005378
  12 H :   -0.002126
  13 H :   -0.022746

  Mayer bond orders larger than 0.100000
B(  0-C ,  1-C ) :   1.2923 B(  0-C ,  2-C ) :   1.1750 B(  0-C ,  9-H ) :   0.8196
B(  0-C , 10-H ) :   0.7536 B(  0-C , 11-H ) :   0.2335 B(  0-C , 12-H ) :   0.2529
B(  0-C , 13-H ) :   0.2440 B(  1-C ,  9-H ) :   0.1459 B(  1-C , 11-H ) :   0.7329
B(  1-C , 12-H ) :   0.6516 B(  1-C , 13-H ) :   0.7156 B(  2-C ,  3-N ) :   1.2034
B(  2-C ,  4-N ) :   1.2259 B(  2-C ,  6-H ) :  -0.1528 B(  2-C ,  9-H ) :   0.2079
B(  2-C , 10-H ) :   0.1663 B(  3-N ,  4-N ) :   0.2207 B(  3-N ,  7-H ) :   1.1224
B(  3-N ,  8-H ) :   1.1881 B(  4-N ,  5-H ) :   1.0903 B(  4-N ,  6-H ) :   1.2463
B(  5-H ,  6-H ) :  -0.1891 B(  7-H ,  8-H ) :  -0.1507

Dispersion correction           -0.020577477
FINAL SINGLE POINT ENERGY      -228.782077697896

DIPOLE MOMENT
-------------
                                X             Y             Z
Electronic contribution:     -2.67216       0.62226       3.12632
Nuclear contribution   :      1.78847      -0.48174      -2.67127
                        -----------------------------------------
Total Dipole Moment    :     -0.88369       0.14052       0.45505
                        -----------------------------------------
Magnitude (a.u.)       :      1.00385
Magnitude (Debye)      :      2.55160

Rotational constants in cm-1:     0.286883     0.123210     0.094446
Rotational constants in MHz :  8600.540572  3693.747366  2831.415242

                             ****ORCA TERMINATED NORMALLY****
TOTAL RUN TIME: 0 days 0 hours 0 minutes 10 seconds 515 msec
