                         Program Version 5.0.0 -  RELEASE  -
|  1> !BLYP D3BJ RIJCOSX def2-SVPD def2/J TightSCF
|  2> *xyz 0 1
|  3> C         -0.90349       -0.87394       -1.98739
|  4> C         -0.96015       -0.52236       -0.48987
|  5> H         -1.69039       -1.20813       -0.02168
|  6> H         -1.41449        0.48633       -0.40668
|  7> F          0.26170       -0.58031        0.13861
|  8> H         -1.88568       -0.80774       -2.40670
|  9> H         -0.53143       -1.87013       -2.10605
| 10> H         -0.25399       -0.18836       -2.49039
| 11> *
| 12>
| 13> %MaxCore 64000
| 14>
| 15> %pal nprocs 4
| 16> end
| 17>
| 18> %scf
| 19>   MaxIter 150
| 20> end
| 21>
| 22>
| 23>                          ****END OF INPUT****

CARTESIAN COORDINATES (ANGSTROEM)
---------------------------------
  C     -0.903490   -0.873940   -1.987390
  C     -0.960150   -0.522360   -0.489870
  H     -1.690390   -1.208130   -0.021680
  H     -1.414490    0.486330   -0.406680
  F      0.261700   -0.580310    0.138610
  H     -1.885680   -0.807740   -2.406700
  H     -0.531430   -1.870130   -2.106050
  H     -0.253990   -0.188360   -2.490390

 Total Charge           Charge          ....    0
 Multiplicity           Mult            ....    1
 Number of Electrons    NEL             ....   26
 Basis Dimension        Dim             ....  103

ORBITAL ENERGIES
----------------

  NO   OCC          E(Eh)            E(eV)
   0   2.0000     -24.294143      -661.0772
   1   2.0000     -10.002156      -272.1725
   2   2.0000      -9.921972      -269.9906
   3   2.0000      -1.076135       -29.2831
   4   2.0000      -0.682487       -18.5714
   5   2.0000      -0.560114       -15.2415
   6   2.0000      -0.452348       -12.3090
   7   2.0000      -0.437920       -11.9164
   8   2.0000      -0.400808       -10.9065
   9   2.0000      -0.354792        -9.6544
  10   2.0000      -0.353206        -9.6112
  11   2.0000      -0.288242        -7.8435
  12   2.0000      -0.283724        -7.7205
  13   0.0000       0.003358         0.0914
  14   0.0000       0.034981         0.9519
  15   0.0000       0.049017         1.3338
  16   0.0000       0.058916         1.6032
  17   0.0000       0.081836         2.2269

MULLIKEN ATOMIC CHARGES
-----------------------
   0 C :    0.742197
   1 C :    0.623537
   2 H :   -0.210165
   3 H :   -0.200597
   4 F :   -0.394612
   5 H :   -0.167962
   6 H :   -0.195925
   7 H :   -0.196471
Sum of atomic charges:   -0.0000000

LOEWDIN ATOMIC CHARGES
----------------------
   0 C :    0.152374
   1 C :    0.057597
   2 H :    0.022104
   3 H :    0.024192
   4 F :   -0.196329
   5 H :   -0.018452
   6 H :   -0.020716
   7 H :   -0.020771

  Mayer bond orders larger than 0.100000
B(  0-C ,  1-C ) :   1.3304 B(  0-C ,  2-H ) :   0.1206 B(  0-C ,  3-H ) :   0.1186
B(  0-C ,  5-H ) :   0.7782 B(  0-C ,  6-H ) :   0.8078 B(  0-C ,  7-H ) :   0.8076
B(  1-C ,  2-H ) :   0.8678 B(  1-C ,  3-H ) :   0.8704 B(  1-C ,  4-F ) :   0.8191
B(  1-C ,  5-H ) :   0.1652 B(  1-C ,  6-H ) :   0.1879 B(  1-C ,  7-H ) :   0.1881

Dispersion correction           -0.007126479
FINAL SINGLE POINT ENERGY      -178.880879217222

DIPOLE MOMENT
-------------
                                X             Y             Z
Electronic contribution:      3.23532       0.37475       3.98532
Nuclear contribution   :     -3.84149      -0.36812      -4.38946
                        -----------------------------------------
Total Dipole Moment    :     -0.60617       0.00663      -0.40414
                        -----------------------------------------
Magnitude (a.u.)       :      0.72857
Magnitude (Debye)      :      1.85188

Rotational constants in cm-1:     1.270659     0.299196     0.265842
Rotational constants in MHz : 38093.410361  8969.665806  7969.741481

                             ****ORCA TERMINATED NORMALLY****
TOTAL RUN TIME: 0 days 0 hours 0 minutes 7 seconds 433 msec
