                         Program Version 5.0.0 -  RELEASE  -
|  1> !BLYP D3BJ RIJCOSX def2-SVPD def2/J TightSCF
|  2> *xyz 0 1
|  3> C          4.36645       -0.13321       -1.41606
|  4> C          4.50829       -0.93187       -2.72425
|  5> C          3.05650       -0.32080       -0.70738
|  6> C          2.38983        0.71129       -0.24391
|  7> N          2.51600       -1.50772       -0.55023
|  8> H          2.96768       -2.32291       -0.95631
|  9> H          1.54987       -1.49063       -0.24988
| 10> H          2.74307        1.64947       -0.41280
| 11> H          1.44036        0.50278        0.03703
| 12> H          4.48784        0.93300       -1.61157
| 13> H          5.16967       -0.41443       -0.72982
| 14> H          5.46700       -0.73824       -3.15818
| 15> H          3.74074       -0.63528       -3.40821
| 16> H          4.41574       -1.97727       -2.51573
| 17> *
| 18>
| 19> %MaxCore 64000
| 20>
| 21> %pal nprocs 4
| 22> end
| 23>
| 24> %scf
| 25>   MaxIter 150
| 26> end
| 27>
| 28>
| 29>                          ****END OF INPUT****

CARTESIAN COORDINATES (ANGSTROEM)
---------------------------------
  C      4.366450   -0.133210   -1.416060
  C      4.508290   -0.931870   -2.724250
  C      3.056500   -0.320800   -0.707380
  C      2.389830    0.711290   -0.243910
  N      2.516000   -1.507720   -0.550230
  H      2.967680   -2.322910   -0.956310
  H      1.549870   -1.490630   -0.249880
  H      2.743070    1.649470   -0.412800
  H      1.440360    0.502780    0.037030
  H      4.487840    0.933000   -1.611570
  H      5.169670   -0.414430   -0.729820
  H      5.467000   -0.738240   -3.158180
  H      3.740740   -0.635280   -3.408210
  H      4.415740   -1.977270   -2.515730

 Total Charge           Charge          ....    0
 Multiplicity           Mult            ....    1
 Number of Electrons    NEL             ....   40
 Basis Dimension        Dim             ....  172

ORBITAL ENERGIES
----------------

  NO   OCC          E(Eh)            E(eV)
   0   2.0000     -14.024466      -381.6251
   1   2.0000      -9.935211      -270.3508
   2   2.0000      -9.923190      -270.0237
   3   2.0000      -9.915741      -269.8210
   4   2.0000      -9.854749      -268.1613
   5   2.0000      -0.838313       -22.8117
   6   2.0000      -0.693242       -18.8641
   7   2.0000      -0.640984       -17.4421
   8   2.0000      -0.563646       -15.3376
   9   2.0000      -0.500920       -13.6307
  10   2.0000      -0.477838       -13.0026
  11   2.0000      -0.415526       -11.3070
  12   2.0000      -0.389597       -10.6015
  13   2.0000      -0.379011       -10.3134
  14   2.0000      -0.344370        -9.3708
  15   2.0000      -0.332903        -9.0587
  16   2.0000      -0.313084        -8.5195
  17   2.0000      -0.299340        -8.1454
  18   2.0000      -0.280654        -7.6370
  19   2.0000      -0.154171        -4.1952
  20   0.0000      -0.005098        -0.1387
  21   0.0000       0.012754         0.3470
  22   0.0000       0.032068         0.8726
  23   0.0000       0.036237         0.9861
  24   0.0000       0.053554         1.4573

MULLIKEN ATOMIC CHARGES
-----------------------
   0 C :    0.164035
   1 C :    1.173480
   2 C :   -0.408673
   3 C :    0.694003
   4 N :    0.586717
   5 H :   -0.256475
   6 H :   -0.197700
   7 H :   -0.282245
   8 H :   -0.562124
   9 H :   -0.024083
  10 H :   -0.199600
  11 H :   -0.219961
  12 H :   -0.179162
  13 H :   -0.288212
Sum of atomic charges:    0.0000000

LOEWDIN ATOMIC CHARGES
----------------------
   0 C :   -0.014667
   1 C :    0.144457
   2 C :   -0.268880
   3 C :    0.182138
   4 N :    0.192698
   5 H :   -0.011242
   6 H :   -0.000672
   7 H :   -0.084953
   8 H :   -0.092560
   9 H :    0.015920
  10 H :    0.019454
  11 H :   -0.023421
  12 H :   -0.017342
  13 H :   -0.040930

  Mayer bond orders larger than 0.100000
B(  0-C ,  1-C ) :   1.2289 B(  0-C ,  2-C ) :   1.1954 B(  0-C ,  9-H ) :   0.8325
B(  0-C , 10-H ) :   0.6882 B(  0-C , 11-H ) :   0.2888 B(  0-C , 12-H ) :   0.2535
B(  0-C , 13-H ) :   0.2672 B(  1-C ,  9-H ) :   0.1398 B(  1-C , 11-H ) :   0.6706
B(  1-C , 12-H ) :   0.6599 B(  1-C , 13-H ) :   0.6926 B(  2-C ,  3-C ) :   1.6298
B(  2-C ,  4-N ) :   1.3797 B(  2-C ,  8-H ) :   0.3500 B(  2-C ,  9-H ) :   0.1122
B(  2-C , 10-H ) :   0.2755 B(  3-C ,  4-N ) :   0.3067 B(  3-C ,  7-H ) :   0.9224
B(  3-C ,  8-H ) :   0.4628 B(  4-N ,  5-H ) :   1.0752 B(  4-N ,  6-H ) :   1.1211
B(  4-N ,  8-H ) :   0.1007 B(  5-H ,  6-H ) :  -0.1488

Dispersion correction           -0.021424965
FINAL SINGLE POINT ENERGY      -212.313998250039

DIPOLE MOMENT
-------------
                                X             Y             Z
Electronic contribution:     -1.50764      -0.43321       2.09067
Nuclear contribution   :      1.56827      -0.21459      -2.46657
                        -----------------------------------------
Total Dipole Moment    :      0.06062      -0.64780      -0.37591
                        -----------------------------------------
Magnitude (a.u.)       :      0.75142
Magnitude (Debye)      :      1.90995

Rotational constants in cm-1:     0.294070     0.127722     0.097792
Rotational constants in MHz :  8815.983970  3829.010547  2931.715816

                             ****ORCA TERMINATED NORMALLY****
TOTAL RUN TIME: 0 days 0 hours 0 minutes 10 seconds 440 msec
