                         Program Version 5.0.0 -  RELEASE  -
|  1> !BLYP D3BJ RIJCOSX def2-SVPD def2/J TightSCF
|  2> *xyz 0 1
|  3> C          4.36645       -0.13321       -1.41606
|  4> C          4.50829       -0.93187       -2.72425
|  5> C          3.05650       -0.32080       -0.70738
|  6> N          2.38983        0.71129       -0.24391
|  7> C          2.51600       -1.50772       -0.55023
|  8> H          2.96768       -2.32291       -0.95631
|  9> H          1.54987       -1.49063       -0.24988
| 10> H          2.74307        1.64947       -0.41280
| 11> H          1.44036        0.50278        0.03703
| 12> H          4.48784        0.93300       -1.61157
| 13> H          5.16967       -0.41443       -0.72982
| 14> H          5.46700       -0.73824       -3.15818
| 15> H          3.74074       -0.63528       -3.40821
| 16> H          4.41574       -1.97727       -2.51573
| 17> *
| 18>
| 19> %MaxCore 64000
| 20>
| 21> %pal nprocs 4
| 22> end
| 23>
| 24> %scf
| 25>   MaxIter 150
| 26> end
| 27>
| 28>
| 29>                          ****END OF INPUT****

CARTESIAN COORDINATES (ANGSTROEM)
---------------------------------
  C      4.366450   -0.133210   -1.416060
  C      4.508290   -0.931870   -2.724250
  C      3.056500   -0.320800   -0.707380
  N      2.389830    0.711290   -0.243910
  C      2.516000   -1.507720   -0.550230
  H      2.967680   -2.322910   -0.956310
  H      1.549870   -1.490630   -0.249880
  H      2.743070    1.649470   -0.412800
  H      1.440360    0.502780    0.037030
  H      4.487840    0.933000   -1.611570
  H      5.169670   -0.414430   -0.729820
  H      5.467000   -0.738240   -3.158180
  H      3.740740   -0.635280   -3.408210
  H      4.415740   -1.977270   -2.515730

 Total Charge           Charge          ....    0
 Multiplicity           Mult            ....    1
 Number of Electrons    NEL             ....   40
 Basis Dimension        Dim             ....  172

ORBITAL ENERGIES
----------------

  NO   OCC          E(Eh)            E(eV)
   0   2.0000     -14.025096      -381.6423
   1   2.0000      -9.935412      -270.3563
   2   2.0000      -9.924721      -270.0654
   3   2.0000      -9.909510      -269.6515
   4   2.0000      -9.853410      -268.1249
   5   2.0000      -0.838605       -22.8196
   6   2.0000      -0.694555       -18.8998
   7   2.0000      -0.630853       -17.1664
   8   2.0000      -0.572719       -15.5845
   9   2.0000      -0.492102       -13.3908
  10   2.0000      -0.475544       -12.9402
  11   2.0000      -0.422859       -11.5066
  12   2.0000      -0.398287       -10.8379
  13   2.0000      -0.357640        -9.7319
  14   2.0000      -0.342384        -9.3167
  15   2.0000      -0.332886        -9.0583
  16   2.0000      -0.312908        -8.5147
  17   2.0000      -0.298066        -8.1108
  18   2.0000      -0.281927        -7.6716
  19   2.0000      -0.152671        -4.1544
  20   0.0000      -0.001088        -0.0296
  21   0.0000       0.009874         0.2687
  22   0.0000       0.029718         0.8087
  23   0.0000       0.035931         0.9777
  24   0.0000       0.056088         1.5262

MULLIKEN ATOMIC CHARGES
-----------------------
   0 C :    0.269240
   1 C :    1.147784
   2 C :   -0.252084
   3 N :    0.482593
   4 C :    0.685221
   5 H :   -0.354708
   6 H :   -0.584600
   7 H :   -0.205442
   8 H :   -0.137612
   9 H :   -0.199597
  10 H :   -0.194957
  11 H :   -0.182589
  12 H :   -0.206777
  13 H :   -0.266473
Sum of atomic charges:    0.0000000

LOEWDIN ATOMIC CHARGES
----------------------
   0 C :   -0.016123
   1 C :    0.148495
   2 C :   -0.262801
   3 N :    0.185323
   4 C :    0.185631
   5 H :   -0.091028
   6 H :   -0.092107
   7 H :   -0.004834
   8 H :   -0.001443
   9 H :    0.003478
  10 H :    0.022020
  11 H :   -0.025407
  12 H :   -0.017932
  13 H :   -0.033271

  Mayer bond orders larger than 0.100000
B(  0-C ,  1-C ) :   1.2753 B(  0-C ,  2-C ) :   1.1178 B(  0-C ,  3-N ) :   0.1109
B(  0-C ,  9-H ) :   0.6593 B(  0-C , 10-H ) :   0.7467 B(  0-C , 11-H ) :   0.2498
B(  0-C , 12-H ) :   0.2608 B(  0-C , 13-H ) :   0.2361 B(  1-C ,  9-H ) :   0.1240
B(  1-C , 10-H ) :   0.1221 B(  1-C , 11-H ) :   0.6919 B(  1-C , 12-H ) :   0.6698
B(  1-C , 13-H ) :   0.7281 B(  2-C ,  3-N ) :   1.2651 B(  2-C ,  4-C ) :   1.6435
B(  2-C ,  5-H ) :   0.1205 B(  2-C ,  6-H ) :   0.3148 B(  2-C ,  9-H ) :   0.2971
B(  2-C , 10-H ) :   0.1894 B(  3-N ,  4-C ) :   0.3209 B(  3-N ,  6-H ) :   0.1013
B(  3-N ,  7-H ) :   1.0972 B(  3-N ,  8-H ) :   1.0939 B(  4-C ,  5-H ) :   0.7263
B(  4-C ,  6-H ) :   0.5935 B(  5-H ,  6-H ) :  -0.1203 B(  7-H ,  8-H ) :  -0.1229

Dispersion correction           -0.021511839
FINAL SINGLE POINT ENERGY      -212.312901668618

DIPOLE MOMENT
-------------
                                X             Y             Z
Electronic contribution:     -1.61989       1.45669       2.37053
Nuclear contribution   :      1.59749      -0.72853      -2.53752
                        -----------------------------------------
Total Dipole Moment    :     -0.02240       0.72816      -0.16699
                        -----------------------------------------
Magnitude (a.u.)       :      0.74740
Magnitude (Debye)      :      1.89973

Rotational constants in cm-1:     0.304597     0.124127     0.096828
Rotational constants in MHz :  9131.600925  3721.227051  2902.830760

                             ****ORCA TERMINATED NORMALLY****
TOTAL RUN TIME: 0 days 0 hours 0 minutes 10 seconds 557 msec
