                         Program Version 5.0.0 -  RELEASE  -
|  1> !BLYP D3BJ RIJCOSX def2-SVPD def2/J TightSCF xyzfile
|  2>
|  3> *xyzfile 0 1 D2.xyz
|  4>
|  5> %MaxCore 64000
|  6>
|  7> %pal nprocs 4
|  8> end
|  9>
| 10> %scf
| 11>   MaxIter 150
| 12> end
| 13>
| 14>
| 15>                          ****END OF INPUT****

CARTESIAN COORDINATES (ANGSTROEM)
---------------------------------
  C      4.366454   -0.133215   -1.416062
  C      4.508292   -0.931872   -2.724249
  H      4.753716   -1.972051   -2.488408
  C      3.294164   -0.918214   -3.656570
  H      5.385637   -0.536236   -3.242640
  H      2.483463   -1.477378   -3.185764
  H      3.553092   -1.478495   -4.560331
  C      2.772335    0.460100   -4.051448
  H      2.608762    1.065107   -3.155194
  C      1.465354    0.410537   -4.853644
  H      3.532940    0.988848   -4.635671
  C      0.326171   -0.375613   -4.192580
  H      1.666704   -0.022269   -5.839323
  H      1.138198    1.439246   -5.035449
  C     -0.017405    0.080588   -2.778406
  H      0.585573   -1.439385   -4.168057
  H     -0.560005   -0.311425   -4.831461
  H      0.902090    0.201296   -2.206729
  C     -0.903495   -0.873945   -1.987388
  H     -0.479549    1.074657   -2.811915
  H     -0.502554   -1.892096   -2.081204
  H     -1.917039   -0.895427   -2.406277
  C     -0.960148   -0.522365   -0.489867
  H     -1.690392   -1.208130   -0.021677
  H     -1.414490    0.486329   -0.406677
  F      0.261703   -0.580307    0.138611
  C      3.056503   -0.320797   -0.707384
  N      2.389825    0.711285   -0.243909
  C      2.515999   -1.507721   -0.550229
  H      2.967683   -2.322915   -0.956305
  H      1.549872   -1.490634   -0.249876
  H      2.743071    1.649471   -0.412802
  H      1.440364    0.502778    0.037031
  H      4.487835    0.932997   -1.611569
  H      5.169672   -0.414432   -0.729817

 Total Charge           Charge          ....    0
 Multiplicity           Mult            ....    1
 Number of Electrons    NEL             ....  104
 Basis Dimension        Dim             ....  439

ORBITAL ENERGIES
----------------

  NO   OCC          E(Eh)            E(eV)
   0   2.0000     -24.324206      -661.8953
   1   2.0000     -14.000985      -380.9862
   2   2.0000     -10.012972      -272.4668
   3   2.0000      -9.932645      -270.2810
   4   2.0000      -9.918351      -269.8921
   5   2.0000      -9.914943      -269.7993
   6   2.0000      -9.914096      -269.7763
   7   2.0000      -9.912344      -269.7286
   8   2.0000      -9.910442      -269.6768
   9   2.0000      -9.909429      -269.6493
  10   2.0000      -9.907454      -269.5955
  11   2.0000      -9.901591      -269.4360
  12   2.0000      -9.828804      -267.4553
  13   2.0000      -1.115333       -30.3498
  14   2.0000      -0.821507       -22.3544
  15   2.0000      -0.731064       -19.8933
  16   2.0000      -0.709827       -19.3154
  17   2.0000      -0.686769       -18.6879
  18   2.0000      -0.647931       -17.6311
  19   2.0000      -0.619195       -16.8492
  20   2.0000      -0.609325       -16.5806
  21   2.0000      -0.567651       -15.4466
  22   2.0000      -0.547830       -14.9072
  23   2.0000      -0.519667       -14.1408
  24   2.0000      -0.492930       -13.4133
  25   2.0000      -0.481350       -13.0982
  26   2.0000      -0.471604       -12.8330
  27   2.0000      -0.463330       -12.6079
  28   2.0000      -0.449345       -12.2273
  29   2.0000      -0.428259       -11.6535
  30   2.0000      -0.420167       -11.4333
  31   2.0000      -0.408612       -11.1189
  32   2.0000      -0.394744       -10.7415
  33   2.0000      -0.384804       -10.4710
  34   2.0000      -0.377062       -10.2604
  35   2.0000      -0.364174        -9.9097
  36   2.0000      -0.347143        -9.4462
  37   2.0000      -0.339370        -9.2347
  38   2.0000      -0.332952        -9.0601
  39   2.0000      -0.320803        -8.7295
  40   2.0000      -0.317499        -8.6396
  41   2.0000      -0.311063        -8.4645
  42   2.0000      -0.306316        -8.3353
  43   2.0000      -0.301486        -8.2038
  44   2.0000      -0.288784        -7.8582
  45   2.0000      -0.283614        -7.7175
  46   2.0000      -0.273034        -7.4296
  47   2.0000      -0.266392        -7.2489
  48   2.0000      -0.264936        -7.2093
  49   2.0000      -0.258857        -7.0438
  50   2.0000      -0.257073        -6.9953
  51   2.0000      -0.136628        -3.7178
  52   0.0000      -0.001723        -0.0469
  53   0.0000       0.007078         0.1926
  54   0.0000       0.013027         0.3545
  55   0.0000       0.015768         0.4291
  56   0.0000       0.023752         0.6463

MULLIKEN ATOMIC CHARGES
-----------------------
   0 C :    0.924593
   1 C :    0.757589
   2 H :   -0.028745
   3 C :    0.214070
   4 H :   -0.374364
   5 H :   -0.194928
   6 H :   -0.349986
   7 C :    0.287897
   8 H :   -0.079276
   9 C :    1.058411
  10 H :   -0.560629
  11 C :    0.351346
  12 H :   -0.180992
  13 H :   -0.145316
  14 C :    1.041315
  15 H :    0.039257
  16 H :   -0.628656
  17 H :   -1.199392
  18 C :    0.336028
  19 H :   -0.103033
  20 H :   -0.098686
  21 H :   -0.341373
  22 C :    1.366825
  23 H :   -0.279482
  24 H :   -0.174100
  25 F :   -0.754297
  26 C :   -0.802487
  27 N :    0.815731
  28 C :    1.103231
  29 H :   -0.322292
  30 H :   -0.802459
  31 H :   -0.177323
  32 H :   -0.289051
  33 H :    0.074421
  34 H :   -0.483848
Sum of atomic charges:   -0.0000000

LOEWDIN ATOMIC CHARGES
----------------------
   0 C :    0.027049
   1 C :   -0.008824
   2 H :    0.014080
   3 C :   -0.020199
   4 H :    0.012178
   5 H :   -0.014959
   6 H :    0.021516
   7 C :   -0.020947
   8 H :   -0.004575
   9 C :   -0.016184
  10 H :    0.018691
  11 C :   -0.023306
  12 H :    0.016201
  13 H :    0.015059
  14 C :   -0.021882
  15 H :    0.009190
  16 H :    0.015737
  17 H :   -0.029664
  18 C :   -0.001902
  19 H :    0.030277
  20 H :    0.026830
  21 H :    0.028684
  22 C :    0.160281
  23 H :    0.030399
  24 H :    0.034502
  25 F :   -0.197114
  26 C :   -0.242126
  27 N :    0.209382
  28 C :    0.200820
  29 H :   -0.077832
  30 H :   -0.139359
  31 H :   -0.001791
  32 H :   -0.073132
  33 H :    0.002625
  34 H :    0.020296

  Mayer bond orders larger than 0.100000
B(  0-C ,  1-C ) :   1.0868 B(  0-C ,  2-H ) :   0.1139 B(  0-C ,  3-C ) :   0.2028
B(  0-C ,  4-H ) :   0.2426 B(  0-C , 26-C ) :   1.2218 B(  0-C , 27-N ) :   0.1353
B(  0-C , 29-H ) :  -0.1424 B(  0-C , 33-H ) :   0.4207 B(  0-C , 34-H ) :   0.5286
B(  1-C ,  2-H ) :   0.5043 B(  1-C ,  3-C ) :   1.2073 B(  1-C ,  4-H ) :   0.6041
B(  1-C ,  5-H ) :   0.2219 B(  1-C ,  6-H ) :   0.1253 B(  1-C , 26-C ) :   0.1911
B(  1-C , 28-C ) :   0.1170 B(  1-C , 30-H ) :  -0.1241 B(  1-C , 33-H ) :   0.1858
B(  1-C , 34-H ) :   0.1526 B(  2-H ,  3-C ) :   0.3484 B(  2-H ,  4-H ) :  -0.2611
B(  3-C ,  4-H ) :   0.2774 B(  3-C ,  5-H ) :   0.7257 B(  3-C ,  6-H ) :   0.6709
B(  3-C ,  7-C ) :   1.2312 B(  3-C ,  8-H ) :   0.1754 B(  3-C , 10-H ) :   0.2047
B(  3-C , 14-C ) :  -0.1081 B(  3-C , 30-H ) :   0.1071 B(  4-H , 29-H ) :  -0.1652
B(  5-H ,  7-C ) :   0.1849 B(  5-H , 14-C ) :   0.1126 B(  5-H , 15-H ) :   0.1946
B(  5-H , 16-H ) :  -0.1088 B(  5-H , 29-H ) :   0.1737 B(  5-H , 30-H ) :  -0.1370
B(  6-H ,  7-C ) :   0.2019 B(  6-H , 30-H ) :   0.1067 B(  7-C ,  8-H ) :   0.7675
B(  7-C ,  9-C ) :   1.0699 B(  7-C , 10-H ) :   0.7516 B(  7-C , 11-C ) :   0.2689
B(  7-C , 12-H ) :   0.1450 B(  7-C , 13-H ) :   0.3642 B(  8-H , 17-H ) :   0.2604
B(  9-C , 11-C ) :   1.0958 B(  9-C , 12-H ) :   0.5440 B(  9-C , 13-H ) :   0.4931
B( 10-H , 17-H ) :  -0.1054 B( 11-C , 12-H ) :   0.2620 B( 11-C , 13-H ) :   0.1694
B( 11-C , 14-C ) :   1.0690 B( 11-C , 15-H ) :   0.7600 B( 11-C , 16-H ) :   0.7677
B( 11-C , 17-H ) :   0.3178 B( 11-C , 18-C ) :   0.1165 B( 11-C , 19-H ) :   0.1352
B( 12-H , 13-H ) :  -0.1853 B( 14-C , 15-H ) :   0.2020 B( 14-C , 16-H ) :   0.2543
B( 14-C , 17-H ) :  -0.5683 B( 14-C , 18-C ) :   1.0828 B( 14-C , 19-H ) :   0.4679
B( 14-C , 20-H ) :   0.1818 B( 14-C , 21-H ) :   0.2638 B( 14-C , 22-C ) :   0.1930
B( 14-C , 29-H ) :  -0.1219 B( 15-H , 16-H ) :  -0.1307 B( 17-H , 18-C ) :   0.2745
B( 17-H , 19-H ) :   0.3078 B( 17-H , 29-H ) :   0.1312 B( 18-C , 19-H ) :   0.1267
B( 18-C , 20-H ) :   0.8158 B( 18-C , 21-H ) :   0.6917 B( 18-C , 22-C ) :   1.0862
B( 18-C , 23-H ) :   0.2817 B( 18-C , 24-H ) :   0.1563 B( 18-C , 25-F ) :   0.1233
B( 20-H , 22-C ) :   0.1200 B( 22-C , 23-H ) :   0.5593 B( 22-C , 24-H ) :   0.6741
B( 22-C , 25-F ) :   0.6886 B( 23-H , 24-H ) :  -0.1115 B( 23-H , 25-F ) :   0.1129
B( 24-H , 25-F ) :   0.1998 B( 25-F , 26-C ) :   0.1506 B( 25-F , 28-C ) :  -0.1392
B( 25-F , 30-H ) :   0.2551 B( 25-F , 32-H ) :   0.1035 B( 26-C , 27-N ) :   1.0770
B( 26-C , 28-C ) :   1.9118 B( 26-C , 29-H ) :   0.1181 B( 26-C , 30-H ) :   0.6677
B( 26-C , 33-H ) :   0.3789 B( 26-C , 34-H ) :   0.3565 B( 27-N , 28-C ) :   0.4135
B( 27-N , 29-H ) :   0.2053 B( 27-N , 30-H ) :  -0.1243 B( 27-N , 31-H ) :   1.0299
B( 27-N , 32-H ) :   0.9573 B( 28-C , 29-H ) :   0.6223 B( 28-C , 30-H ) :  -0.2488
B( 29-H , 30-H ) :  -0.3304 B( 30-H , 31-H ) :  -0.1061 B( 31-H , 32-H ) :  -0.1701
B( 33-H , 34-H ) :  -0.1619

Dispersion correction           -0.078505244
FINAL SINGLE POINT ENERGY      -586.320271306318

DIPOLE MOMENT
-------------
                                X             Y             Z
Electronic contribution:     -2.79135       0.00412      10.71497
Nuclear contribution   :      1.85154       0.58682     -11.15333
                        -----------------------------------------
Total Dipole Moment    :     -0.93981       0.59094      -0.43836
                        -----------------------------------------
Magnitude (a.u.)       :      1.19357
Magnitude (Debye)      :      3.03382

Rotational constants in cm-1:     0.028379     0.022321     0.014415
Rotational constants in MHz :   850.785777   669.176075   432.155504

                             ****ORCA TERMINATED NORMALLY****
TOTAL RUN TIME: 0 days 0 hours 0 minutes 45 seconds 659 msec
