                         Program Version 5.0.0 -  RELEASE  -
|  1> !wB97X-D3 RIJCOSX def2-TZVP def2/J TightSCF
|  2> *xyz -1 1
|  3> C         -5.57236       -5.80780       -0.81644
|  4> S         -6.90318       -4.61903       -0.52846
|  5> O         -8.11485       -5.25093       -0.95701
|  6> O         -6.53271       -3.42684       -1.31485
|  7> O         -6.86563       -4.29496        0.91412
|  8> C         -3.82708       -4.66110        0.78617
|  9> C         -4.45780       -5.94187        0.22919
| 10> H         -5.17735       -5.54257       -1.79771
| 11> H         -6.07420       -6.76889       -0.92127
| 12> H         -3.68106       -6.56224       -0.22988
| 13> H         -4.84394       -6.51273        1.07581
| 14> H         -3.43706       -4.07576       -0.02016
| 15> H         -3.03403       -4.91680        1.45744
| 16> H         -4.56975       -4.09647        1.31013
| 17> *
| 18> %MaxCore 64000
| 19>
| 20> %pal nprocs 18
| 21> end
| 22>
| 23> %scf
| 24>   MaxIter 150
| 25> end
| 26>
| 27>                          ****END OF INPUT****

CARTESIAN COORDINATES (ANGSTROEM)
---------------------------------
  C     -5.572360   -5.807800   -0.816440
  S     -6.903180   -4.619030   -0.528460
  O     -8.114850   -5.250930   -0.957010
  O     -6.532710   -3.426840   -1.314850
  O     -6.865630   -4.294960    0.914120
  C     -3.827080   -4.661100    0.786170
  C     -4.457800   -5.941870    0.229190
  H     -5.177350   -5.542570   -1.797710
  H     -6.074200   -6.768890   -0.921270
  H     -3.681060   -6.562240   -0.229880
  H     -4.843940   -6.512730    1.075810
  H     -3.437060   -4.075760   -0.020160
  H     -3.034030   -4.916800    1.457440
  H     -4.569750   -4.096470    1.310130

 Total Charge           Charge          ....   -1
 Multiplicity           Mult            ....    1
 Number of Electrons    NEL             ....   66
 Basis Dimension        Dim             ....  265

ORBITAL ENERGIES
----------------

  NO   OCC          E(Eh)            E(eV)
   0   2.0000     -88.932387     -2419.9733
   1   2.0000     -19.009507      -517.2750
   2   2.0000     -18.996509      -516.9213
   3   2.0000     -18.994319      -516.8617
   4   2.0000     -10.146198      -276.0921
   5   2.0000     -10.136229      -275.8208
   6   2.0000     -10.120518      -275.3933
   7   2.0000      -7.994918      -217.5528
   8   2.0000      -5.949255      -161.8875
   9   2.0000      -5.947913      -161.8509
  10   2.0000      -5.947572      -161.8417
  11   2.0000      -1.034672       -28.1549
  12   2.0000      -0.901820       -24.5398
  13   2.0000      -0.878902       -23.9161
  14   2.0000      -0.769722       -20.9452
  15   2.0000      -0.679239       -18.4830
  16   2.0000      -0.580710       -15.8019
  17   2.0000      -0.482731       -13.1358
  18   2.0000      -0.432362       -11.7652
  19   2.0000      -0.415444       -11.3048
  20   2.0000      -0.389545       -10.6001
  21   2.0000      -0.374985       -10.2039
  22   2.0000      -0.357076        -9.7165
  23   2.0000      -0.344672        -9.3790
  24   2.0000      -0.315734        -8.5916
  25   2.0000      -0.308660        -8.3991
  26   2.0000      -0.295242        -8.0340
  27   2.0000      -0.244323        -6.6484
  28   2.0000      -0.241791        -6.5795
  29   2.0000      -0.207392        -5.6434
  30   2.0000      -0.193568        -5.2673
  31   2.0000      -0.191293        -5.2053
  32   2.0000      -0.153442        -4.1754
  33   0.0000       0.238679         6.4948
  34   0.0000       0.279519         7.6061
  35   0.0000       0.287824         7.8321
  36   0.0000       0.305496         8.3130
  37   0.0000       0.315641         8.5890

MULLIKEN ATOMIC CHARGES
-----------------------
   0 C :   -0.267763
   1 S :    0.869994
   2 O :   -0.555586
   3 O :   -0.596321
   4 O :   -0.598231
   5 C :   -0.328749
   6 C :   -0.143094
   7 H :    0.092870
   8 H :    0.093983
   9 H :    0.050647
  10 H :    0.076602
  11 H :    0.086871
  12 H :    0.061751
  13 H :    0.157025
Sum of atomic charges:   -1.0000000

LOEWDIN ATOMIC CHARGES
----------------------
   0 C :   -0.402193
   1 S :    0.430279
   2 O :   -0.367537
   3 O :   -0.425169
   4 O :   -0.417812
   5 C :   -0.319199
   6 C :   -0.319703
   7 H :    0.121590
   8 H :    0.121824
   9 H :    0.118911
  10 H :    0.128958
  11 H :    0.109434
  12 H :    0.097782
  13 H :    0.122836

  Mayer bond orders larger than 0.100000
B(  0-C ,  1-S ) :   0.8833 B(  0-C ,  6-C ) :   0.9773 B(  0-C ,  7-H ) :   0.9643
B(  0-C ,  8-H ) :   0.9594 B(  1-S ,  2-O ) :   1.8263 B(  1-S ,  3-O ) :   1.7493
B(  1-S ,  4-O ) :   1.7166 B(  5-C ,  6-C ) :   0.9817 B(  5-C , 11-H ) :   0.9801
B(  5-C , 12-H ) :   0.9726 B(  5-C , 13-H ) :   0.9656 B(  6-C ,  9-H ) :   0.9685
B(  6-C , 10-H ) :   0.9784

Dispersion correction           -0.004498576
FINAL SINGLE POINT ENERGY      -742.530313534238

DIPOLE MOMENT
-------------
                                X             Y             Z
Electronic contribution:     -9.91804       3.24593      -2.59117
Nuclear contribution   :     11.75544      -4.53524       2.70749
                        -----------------------------------------
Total Dipole Moment    :      1.83740      -1.28931       0.11633
                        -----------------------------------------
Magnitude (a.u.)       :      2.24764
Magnitude (Debye)      :      5.71304

Rotational constants in cm-1:     0.134586     0.054907     0.051455
Rotational constants in MHz :  4034.798577  1646.069534  1542.570153

                             ****ORCA TERMINATED NORMALLY****
TOTAL RUN TIME: 0 days 0 hours 0 minutes 25 seconds 6 msec
