                         Program Version 5.0.0 -  RELEASE  -
|  1> !wB97X-D3 RIJCOSX def2-TZVP def2/J TightSCF
|  2> *xyz 1 1
|  3> C         -4.38262       -1.67089        1.21620
|  4> N         -5.76354       -1.91517        0.70501
|  5> C         -3.28173       -2.19127        0.29436
|  6> H         -5.84081       -2.11520       -0.30065
|  7> H         -6.40882       -1.14866        0.93612
|  8> H         -6.17478       -2.79061        1.05143
|  9> H         -4.32862       -2.13922        2.19810
| 10> H         -4.26158       -0.59740        1.35725
| 11> C         -3.47464       -3.60590       -0.25961
| 12> H         -2.35455       -2.12760        0.87143
| 13> H         -3.16661       -1.49969       -0.54504
| 14> H         -2.64612       -3.85908       -0.88759
| 15> H         -4.37934       -3.64545       -0.82956
| 16> H         -3.53324       -4.30157        0.55126
| 17> *
| 18> %MaxCore 64000
| 19>
| 20> %pal nprocs 18
| 21> end
| 22>
| 23> %scf
| 24>   MaxIter 150
| 25> end
| 26>
| 27>                          ****END OF INPUT****

CARTESIAN COORDINATES (ANGSTROEM)
---------------------------------
  C     -4.382620   -1.670890    1.216200
  N     -5.763540   -1.915170    0.705010
  C     -3.281730   -2.191270    0.294360
  H     -5.840810   -2.115200   -0.300650
  H     -6.408820   -1.148660    0.936120
  H     -6.174780   -2.790610    1.051430
  H     -4.328620   -2.139220    2.198100
  H     -4.261580   -0.597400    1.357250
  C     -3.474640   -3.605900   -0.259610
  H     -2.354550   -2.127600    0.871430
  H     -3.166610   -1.499690   -0.545040
  H     -2.646120   -3.859080   -0.887590
  H     -4.379340   -3.645450   -0.829560
  H     -3.533240   -4.301570    0.551260

 Total Charge           Charge          ....    1
 Multiplicity           Mult            ....    1
 Number of Electrons    NEL             ....   34
 Basis Dimension        Dim             ....  184

ORBITAL ENERGIES
----------------

  NO   OCC          E(Eh)            E(eV)
   0   2.0000     -14.752314      -401.4309
   1   2.0000     -10.522441      -286.3302
   2   2.0000     -10.451423      -284.3977
   3   2.0000     -10.421174      -283.5746
   4   2.0000      -1.327299       -36.1176
   5   2.0000      -1.089315       -29.6418
   6   2.0000      -1.002388       -27.2764
   7   2.0000      -0.903023       -24.5725
   8   2.0000      -0.893184       -24.3048
   9   2.0000      -0.870000       -23.6739
  10   2.0000      -0.789287       -21.4776
  11   2.0000      -0.735410       -20.0115
  12   2.0000      -0.705138       -19.1878
  13   2.0000      -0.681185       -18.5360
  14   2.0000      -0.622164       -16.9300
  15   2.0000      -0.619080       -16.8460
  16   2.0000      -0.600958       -16.3529
  17   0.0000      -0.105475        -2.8701
  18   0.0000      -0.049948        -1.3591
  19   0.0000      -0.046788        -1.2732
  20   0.0000      -0.022933        -0.6240
  21   0.0000       0.007174         0.1952

MULLIKEN ATOMIC CHARGES
-----------------------
   0 C :   -0.196071
   1 N :   -0.336555
   2 C :   -0.254607
   3 H :    0.326499
   4 H :    0.347441
   5 H :    0.337856
   6 H :    0.198071
   7 H :    0.200109
   8 C :   -0.349834
   9 H :    0.165827
  10 H :    0.157146
  11 H :    0.179002
  12 H :    0.074321
  13 H :    0.150795
Sum of atomic charges:    1.0000000

LOEWDIN ATOMIC CHARGES
----------------------
   0 C :   -0.252808
   1 N :    0.165465
   2 C :   -0.286115
   3 H :    0.219169
   4 H :    0.224825
   5 H :    0.223421
   6 H :    0.153140
   7 H :    0.155165
   8 C :   -0.286965
   9 H :    0.162717
  10 H :    0.149580
  11 H :    0.139647
  12 H :    0.106384
  13 H :    0.126375

  Mayer bond orders larger than 0.100000
B(  0-C ,  1-N ) :   0.8262 B(  0-C ,  2-C ) :   0.9739 B(  0-C ,  6-H ) :   0.9650
B(  0-C ,  7-H ) :   0.9611 B(  1-N ,  3-H ) :   0.8760 B(  1-N ,  4-H ) :   0.8705
B(  1-N ,  5-H ) :   0.8781 B(  2-C ,  8-C ) :   0.9672 B(  2-C ,  9-H ) :   0.9567
B(  2-C , 10-H ) :   0.9585 B(  8-C , 11-H ) :   0.9677 B(  8-C , 12-H ) :   0.9652
B(  8-C , 13-H ) :   0.9743

Dispersion correction           -0.002896416
FINAL SINGLE POINT ENERGY      -174.864937725692

DIPOLE MOMENT
-------------
                                X             Y             Z
Electronic contribution:     -1.74536       1.32510       0.79117
Nuclear contribution   :     -0.18358      -0.73024      -0.44649
                        -----------------------------------------
Total Dipole Moment    :     -1.92894       0.59486       0.34468
                        -----------------------------------------
Magnitude (a.u.)       :      2.04779
Magnitude (Debye)      :      5.20508

Rotational constants in cm-1:     0.423641     0.164544     0.133152
Rotational constants in MHz : 12700.438743  4932.897948  3991.802402

                             ****ORCA TERMINATED NORMALLY****
TOTAL RUN TIME: 0 days 0 hours 0 minutes 12 seconds 695 msec
