                         Program Version 5.0.0 -  RELEASE  -
|  1> !wB97X-D3 RIJCOSX def2-TZVP def2/J TightSCF
|  2> *xyz 0 1
|  3> C         -5.57236       -5.80780       -0.81644
|  4> S         -6.90318       -4.61903       -0.52846
|  5> F         -8.11485       -5.25093       -0.95701
|  6> O         -6.53271       -3.42684       -1.31485
|  7> O         -6.86563       -4.29496        0.91412
|  8> C         -3.82708       -4.66110        0.78617
|  9> C         -4.45780       -5.94187        0.22919
| 10> H         -5.17735       -5.54257       -1.79771
| 11> H         -6.07420       -6.76889       -0.92127
| 12> H         -3.68106       -6.56224       -0.22988
| 13> H         -4.84394       -6.51273        1.07581
| 14> H         -3.43706       -4.07576       -0.02016
| 15> H         -3.03403       -4.91680        1.45744
| 16> H         -4.56975       -4.09647        1.31013
| 17> *
| 18> %MaxCore 64000
| 19>
| 20> %pal nprocs 18
| 21> end
| 22>
| 23> %scf
| 24>   MaxIter 150
| 25> end
| 26>
| 27>                          ****END OF INPUT****

CARTESIAN COORDINATES (ANGSTROEM)
---------------------------------
  C     -5.572360   -5.807800   -0.816440
  S     -6.903180   -4.619030   -0.528460
  F     -8.114850   -5.250930   -0.957010
  O     -6.532710   -3.426840   -1.314850
  O     -6.865630   -4.294960    0.914120
  C     -3.827080   -4.661100    0.786170
  C     -4.457800   -5.941870    0.229190
  H     -5.177350   -5.542570   -1.797710
  H     -6.074200   -6.768890   -0.921270
  H     -3.681060   -6.562240   -0.229880
  H     -4.843940   -6.512730    1.075810
  H     -3.437060   -4.075760   -0.020160
  H     -3.034030   -4.916800    1.457440
  H     -4.569750   -4.096470    1.310130

 Total Charge           Charge          ....    0
 Multiplicity           Mult            ....    1
 Number of Electrons    NEL             ....   66
 Basis Dimension        Dim             ....  265

ORBITAL ENERGIES
----------------

  NO   OCC          E(Eh)            E(eV)
   0   2.0000     -89.196564     -2427.1619
   1   2.0000     -24.912582      -677.9058
   2   2.0000     -19.232822      -523.3517
   3   2.0000     -19.232307      -523.3377
   4   2.0000     -10.337611      -281.3007
   5   2.0000     -10.303974      -280.3854
   6   2.0000     -10.261110      -279.2190
   7   2.0000      -8.259772      -224.7598
   8   2.0000      -6.217038      -169.1742
   9   2.0000      -6.210829      -169.0052
  10   2.0000      -6.210357      -168.9924
  11   2.0000      -1.509748       -41.0823
  12   2.0000      -1.208698       -32.8903
  13   2.0000      -1.110163       -30.2091
  14   2.0000      -0.944760       -25.7082
  15   2.0000      -0.871068       -23.7030
  16   2.0000      -0.820676       -22.3317
  17   2.0000      -0.747215       -20.3327
  18   2.0000      -0.699074       -19.0228
  19   2.0000      -0.689828       -18.7712
  20   2.0000      -0.654953       -17.8222
  21   2.0000      -0.594785       -16.1849
  22   2.0000      -0.580789       -15.8041
  23   2.0000      -0.555420       -15.1138
  24   2.0000      -0.541195       -14.7267
  25   2.0000      -0.515771       -14.0348
  26   2.0000      -0.482325       -13.1247
  27   2.0000      -0.469435       -12.7740
  28   2.0000      -0.464166       -12.6306
  29   2.0000      -0.449637       -12.2353
  30   2.0000      -0.415469       -11.3055
  31   2.0000      -0.412904       -11.2357
  32   2.0000      -0.394735       -10.7413
  33   0.0000       0.097081         2.6417
  34   0.0000       0.109248         2.9728
  35   0.0000       0.135723         3.6932
  36   0.0000       0.147248         4.0068
  37   0.0000       0.153402         4.1743

MULLIKEN ATOMIC CHARGES
-----------------------
   0 C :   -0.279192
   1 S :    0.889427
   2 F :   -0.092414
   3 O :   -0.445375
   4 O :   -0.456985
   5 C :   -0.353156
   6 C :   -0.187409
   7 H :    0.162910
   8 H :    0.141018
   9 H :    0.116420
  10 H :    0.116323
  11 H :    0.114392
  12 H :    0.115841
  13 H :    0.158201
Sum of atomic charges:    0.0000000

LOEWDIN ATOMIC CHARGES
----------------------
   0 C :   -0.371782
   1 S :    0.549711
   2 F :    0.110016
   3 O :   -0.306206
   4 O :   -0.304899
   5 C :   -0.301347
   6 C :   -0.299026
   7 H :    0.144864
   8 H :    0.135825
   9 H :    0.143282
  10 H :    0.141391
  11 H :    0.117580
  12 H :    0.117267
  13 H :    0.123323

  Mayer bond orders larger than 0.100000
B(  0-C ,  1-S ) :   0.9095 B(  0-C ,  6-C ) :   0.9770 B(  0-C ,  7-H ) :   0.9404
B(  0-C ,  8-H ) :   0.9454 B(  1-S ,  2-F ) :   1.1576 B(  1-S ,  3-O ) :   1.8889
B(  1-S ,  4-O ) :   1.8621 B(  5-C ,  6-C ) :   0.9805 B(  5-C , 11-H ) :   0.9746
B(  5-C , 12-H ) :   0.9711 B(  5-C , 13-H ) :   0.9719 B(  6-C ,  9-H ) :   0.9588
B(  6-C , 10-H ) :   0.9736

Dispersion correction           -0.004490134
FINAL SINGLE POINT ENERGY      -767.044606362039

DIPOLE MOMENT
-------------
                                X             Y             Z
Electronic contribution:    -13.44388       2.43713      -3.90272
Nuclear contribution   :     13.81909      -4.05404       3.42760
                        -----------------------------------------
Total Dipole Moment    :      0.37520      -1.61691      -0.47512
                        -----------------------------------------
Magnitude (a.u.)       :      1.72653
Magnitude (Debye)      :      4.38849

Rotational constants in cm-1:     0.132500     0.053014     0.049575
Rotational constants in MHz :  3972.256497  1589.318970  1486.215991

                             ****ORCA TERMINATED NORMALLY****
TOTAL RUN TIME: 0 days 0 hours 0 minutes 22 seconds 138 msec
