                         Program Version 5.0.0 -  RELEASE  -
|  1> !wB97X-D3 RIJCOSX def2-TZVP def2/J TightSCF
|  2> *xyz 0 1
|  3> C         -4.38262       -1.67089        1.21620
|  4> C         -5.76354       -1.91517        0.70501
|  5> C         -3.28173       -2.19127        0.29436
|  6> H         -5.84081       -2.11520       -0.30065
|  7> H         -6.40882       -1.14866        0.93612
|  8> H         -6.17478       -2.79061        1.05143
|  9> H         -4.32862       -2.13922        2.19810
| 10> H         -4.26158       -0.59740        1.35725
| 11> C         -3.47464       -3.60590       -0.25961
| 12> H         -2.35455       -2.12760        0.87143
| 13> H         -3.16661       -1.49969       -0.54504
| 14> H         -2.64612       -3.85908       -0.88759
| 15> H         -4.37934       -3.64545       -0.82956
| 16> H         -3.53324       -4.30157        0.55126
| 17> *
| 18> %MaxCore 64000
| 19>
| 20> %pal nprocs 18
| 21> end
| 22>
| 23> %scf
| 24>   MaxIter 150
| 25> end
| 26>
| 27>                          ****END OF INPUT****

CARTESIAN COORDINATES (ANGSTROEM)
---------------------------------
  C     -4.382620   -1.670890    1.216200
  C     -5.763540   -1.915170    0.705010
  C     -3.281730   -2.191270    0.294360
  H     -5.840810   -2.115200   -0.300650
  H     -6.408820   -1.148660    0.936120
  H     -6.174780   -2.790610    1.051430
  H     -4.328620   -2.139220    2.198100
  H     -4.261580   -0.597400    1.357250
  C     -3.474640   -3.605900   -0.259610
  H     -2.354550   -2.127600    0.871430
  H     -3.166610   -1.499690   -0.545040
  H     -2.646120   -3.859080   -0.887590
  H     -4.379340   -3.645450   -0.829560
  H     -3.533240   -4.301570    0.551260

 Total Charge           Charge          ....    0
 Multiplicity           Mult            ....    1
 Number of Electrons    NEL             ....   34
 Basis Dimension        Dim             ....  184

ORBITAL ENERGIES
----------------

  NO   OCC          E(Eh)            E(eV)
   0   2.0000     -10.263461      -279.2830
   1   2.0000     -10.259854      -279.1848
   2   2.0000     -10.252081      -278.9733
   3   2.0000     -10.230864      -278.3960
   4   2.0000      -0.916628       -24.9427
   5   2.0000      -0.842577       -22.9277
   6   2.0000      -0.763113       -20.7654
   7   2.0000      -0.674499       -18.3540
   8   2.0000      -0.567384       -15.4393
   9   2.0000      -0.562393       -15.3035
  10   2.0000      -0.516598       -14.0573
  11   2.0000      -0.492542       -13.4028
  12   2.0000      -0.479964       -13.0605
  13   2.0000      -0.454401       -12.3649
  14   2.0000      -0.420126       -11.4322
  15   2.0000      -0.412894       -11.2354
  16   2.0000      -0.404298       -11.0015
  17   0.0000       0.117363         3.1936
  18   0.0000       0.148974         4.0538
  19   0.0000       0.162041         4.4094
  20   0.0000       0.167445         4.5564
  21   0.0000       0.185000         5.0341

MULLIKEN ATOMIC CHARGES
-----------------------
   0 C :   -0.139372
   1 C :   -0.382488
   2 C :   -0.206623
   3 H :    0.111968
   4 H :    0.118642
   5 H :    0.119889
   6 H :    0.090705
   7 H :    0.093290
   8 C :   -0.319433
   9 H :    0.093232
  10 H :    0.096566
  11 H :    0.116688
  12 H :    0.099705
  13 H :    0.107230
Sum of atomic charges:   -0.0000000

LOEWDIN ATOMIC CHARGES
----------------------
   0 C :   -0.296514
   1 C :   -0.307524
   2 C :   -0.294845
   3 H :    0.108351
   4 H :    0.108217
   5 H :    0.109959
   6 H :    0.133456
   7 H :    0.134507
   8 C :   -0.302024
   9 H :    0.131729
  10 H :    0.132111
  11 H :    0.115128
  12 H :    0.112708
  13 H :    0.114740

  Mayer bond orders larger than 0.100000
B(  0-C ,  1-C ) :   0.9353 B(  0-C ,  2-C ) :   0.9866 B(  0-C ,  6-H ) :   0.9761
B(  0-C ,  7-H ) :   0.9809 B(  1-C ,  3-H ) :   0.9935 B(  1-C ,  4-H ) :   0.9801
B(  1-C ,  5-H ) :   0.9825 B(  2-C ,  8-C ) :   0.9764 B(  2-C ,  9-H ) :   0.9834
B(  2-C , 10-H ) :   0.9770 B(  8-C , 11-H ) :   0.9806 B(  8-C , 12-H ) :   0.9745
B(  8-C , 13-H ) :   0.9818

Dispersion correction           -0.002801691
FINAL SINGLE POINT ENERGY      -158.450762336051

DIPOLE MOMENT
-------------
                                X             Y             Z
Electronic contribution:      0.64048       0.59680       0.37962
Nuclear contribution   :     -0.64996      -0.59433      -0.37777
                        -----------------------------------------
Total Dipole Moment    :     -0.00948       0.00247       0.00184
                        -----------------------------------------
Magnitude (a.u.)       :      0.00997
Magnitude (Debye)      :      0.02534

Rotational constants in cm-1:     0.431358     0.171688     0.138554
Rotational constants in MHz : 12931.797515  5147.084397  4153.759343

                             ****ORCA TERMINATED NORMALLY****
TOTAL RUN TIME: 0 days 0 hours 0 minutes 12 seconds 731 msec
