                         Program Version 5.0.0 -  RELEASE  -
|  1> !wB97X-D3 RIJCOSX def2-TZVP def2/J TightSCF
|  2> *xyz 0 1
|  3> C         -5.57236       -5.80780       -0.81644
|  4> S         -6.90318       -4.61903       -0.52846
|  5> O         -8.11485       -5.25093       -0.95701
|  6> F         -6.53271       -3.42684       -1.31485
|  7> O         -6.86563       -4.29496        0.91412
|  8> C         -3.82708       -4.66110        0.78617
|  9> C         -4.45780       -5.94187        0.22919
| 10> H         -5.17735       -5.54257       -1.79771
| 11> H         -6.07420       -6.76889       -0.92127
| 12> H         -3.68106       -6.56224       -0.22988
| 13> H         -4.84394       -6.51273        1.07581
| 14> H         -3.43706       -4.07576       -0.02016
| 15> H         -3.03403       -4.91680        1.45744
| 16> H         -4.56975       -4.09647        1.31013
| 17> *
| 18> %MaxCore 64000
| 19>
| 20> %pal nprocs 18
| 21> end
| 22>
| 23> %scf
| 24>   MaxIter 150
| 25> end
| 26>
| 27>                          ****END OF INPUT****

CARTESIAN COORDINATES (ANGSTROEM)
---------------------------------
  C     -5.572360   -5.807800   -0.816440
  S     -6.903180   -4.619030   -0.528460
  O     -8.114850   -5.250930   -0.957010
  F     -6.532710   -3.426840   -1.314850
  O     -6.865630   -4.294960    0.914120
  C     -3.827080   -4.661100    0.786170
  C     -4.457800   -5.941870    0.229190
  H     -5.177350   -5.542570   -1.797710
  H     -6.074200   -6.768890   -0.921270
  H     -3.681060   -6.562240   -0.229880
  H     -4.843940   -6.512730    1.075810
  H     -3.437060   -4.075760   -0.020160
  H     -3.034030   -4.916800    1.457440
  H     -4.569750   -4.096470    1.310130

 Total Charge           Charge          ....    0
 Multiplicity           Mult            ....    1
 Number of Electrons    NEL             ....   66
 Basis Dimension        Dim             ....  265

ORBITAL ENERGIES
----------------

  NO   OCC          E(Eh)            E(eV)
   0   2.0000     -89.194568     -2427.1076
   1   2.0000     -24.889977      -677.2907
   2   2.0000     -19.246904      -523.7349
   3   2.0000     -19.232468      -523.3421
   4   2.0000     -10.337255      -281.2910
   5   2.0000     -10.303769      -280.3798
   6   2.0000     -10.267618      -279.3961
   7   2.0000      -8.257761      -224.7051
   8   2.0000      -6.215204      -169.1243
   9   2.0000      -6.208951      -168.9541
  10   2.0000      -6.208183      -168.9332
  11   2.0000      -1.472997       -40.0823
  12   2.0000      -1.225702       -33.3531
  13   2.0000      -1.126036       -30.6410
  14   2.0000      -0.946043       -25.7431
  15   2.0000      -0.865978       -23.5645
  16   2.0000      -0.810258       -22.0482
  17   2.0000      -0.743725       -20.2378
  18   2.0000      -0.675160       -18.3720
  19   2.0000      -0.670590       -18.2477
  20   2.0000      -0.655246       -17.8302
  21   2.0000      -0.599268       -16.3069
  22   2.0000      -0.579848       -15.7785
  23   2.0000      -0.553221       -15.0539
  24   2.0000      -0.544858       -14.8263
  25   2.0000      -0.532514       -14.4904
  26   2.0000      -0.490124       -13.3369
  27   2.0000      -0.474381       -12.9086
  28   2.0000      -0.470883       -12.8134
  29   2.0000      -0.452178       -12.3044
  30   2.0000      -0.429167       -11.6782
  31   2.0000      -0.417611       -11.3638
  32   2.0000      -0.404601       -11.0097
  33   0.0000       0.097186         2.6446
  34   0.0000       0.110972         3.0197
  35   0.0000       0.132725         3.6116
  36   0.0000       0.145940         3.9712
  37   0.0000       0.161309         4.3894

MULLIKEN ATOMIC CHARGES
-----------------------
   0 C :   -0.293488
   1 S :    0.900365
   2 O :   -0.415201
   3 F :   -0.122195
   4 O :   -0.463422
   5 C :   -0.376362
   6 C :   -0.170859
   7 H :    0.144480
   8 H :    0.173872
   9 H :    0.113711
  10 H :    0.123933
  11 H :    0.104312
  12 H :    0.120836
  13 H :    0.160017
Sum of atomic charges:   -0.0000000

LOEWDIN ATOMIC CHARGES
----------------------
   0 C :   -0.368606
   1 S :    0.557582
   2 O :   -0.255830
   3 F :    0.057191
   4 O :   -0.306493
   5 C :   -0.307863
   6 C :   -0.302106
   7 H :    0.136562
   8 H :    0.150894
   9 H :    0.141831
  10 H :    0.143474
  11 H :    0.113077
  12 H :    0.118956
  13 H :    0.121330

  Mayer bond orders larger than 0.100000
B(  0-C ,  1-S ) :   0.9068 B(  0-C ,  6-C ) :   0.9701 B(  0-C ,  7-H ) :   0.9460
B(  0-C ,  8-H ) :   0.9440 B(  1-S ,  2-O ) :   1.9501 B(  1-S ,  3-F ) :   1.1115
B(  1-S ,  4-O ) :   1.8546 B(  5-C ,  6-C ) :   0.9692 B(  5-C , 11-H ) :   0.9771
B(  5-C , 12-H ) :   0.9718 B(  5-C , 13-H ) :   0.9713 B(  6-C ,  9-H ) :   0.9586
B(  6-C , 10-H ) :   0.9712

Dispersion correction           -0.004434251
FINAL SINGLE POINT ENERGY      -767.063116845461

DIPOLE MOMENT
-------------
                                X             Y             Z
Electronic contribution:    -10.68520       5.60200      -4.52531
Nuclear contribution   :     12.11759      -6.01574       3.81244
                        -----------------------------------------
Total Dipole Moment    :      1.43239      -0.41374      -0.71287
                        -----------------------------------------
Magnitude (a.u.)       :      1.65261
Magnitude (Debye)      :      4.20059

Rotational constants in cm-1:     0.128152     0.053825     0.050608
Rotational constants in MHz :  3841.897096  1613.621976  1517.196867

                             ****ORCA TERMINATED NORMALLY****
TOTAL RUN TIME: 0 days 0 hours 0 minutes 16 seconds 409 msec
