                         Program Version 5.0.0 -  RELEASE  -
|  1> !wB97X-D3 RIJCOSX def2-TZVP def2/J TightSCF
|  2> *xyz 0 1
|  3> C         -5.57236       -5.80780       -0.81644
|  4> S         -6.90318       -4.61903       -0.52846
|  5> O         -8.11485       -5.25093       -0.95701
|  6> O         -6.53271       -3.42684       -1.31485
|  7> F         -6.86563       -4.29496        0.91412
|  8> C         -3.82708       -4.66110        0.78617
|  9> C         -4.45780       -5.94187        0.22919
| 10> H         -5.17735       -5.54257       -1.79771
| 11> H         -6.07420       -6.76889       -0.92127
| 12> H         -3.68106       -6.56224       -0.22988
| 13> H         -4.84394       -6.51273        1.07581
| 14> H         -3.43706       -4.07576       -0.02016
| 15> H         -3.03403       -4.91680        1.45744
| 16> H         -4.56975       -4.09647        1.31013
| 17> *
| 18> %MaxCore 64000
| 19>
| 20> %pal nprocs 18
| 21> end
| 22>
| 23> %scf
| 24>   MaxIter 150
| 25> end
| 26>
| 27>                          ****END OF INPUT****

CARTESIAN COORDINATES (ANGSTROEM)
---------------------------------
  C     -5.572360   -5.807800   -0.816440
  S     -6.903180   -4.619030   -0.528460
  O     -8.114850   -5.250930   -0.957010
  O     -6.532710   -3.426840   -1.314850
  F     -6.865630   -4.294960    0.914120
  C     -3.827080   -4.661100    0.786170
  C     -4.457800   -5.941870    0.229190
  H     -5.177350   -5.542570   -1.797710
  H     -6.074200   -6.768890   -0.921270
  H     -3.681060   -6.562240   -0.229880
  H     -4.843940   -6.512730    1.075810
  H     -3.437060   -4.075760   -0.020160
  H     -3.034030   -4.916800    1.457440
  H     -4.569750   -4.096470    1.310130

 Total Charge           Charge          ....    0
 Multiplicity           Mult            ....    1
 Number of Electrons    NEL             ....   66
 Basis Dimension        Dim             ....  265

ORBITAL ENERGIES
----------------

  NO   OCC          E(Eh)            E(eV)
   0   2.0000     -89.193048     -2427.0662
   1   2.0000     -24.888838      -677.2597
   2   2.0000     -19.245872      -523.7068
   3   2.0000     -19.230657      -523.2928
   4   2.0000     -10.336107      -281.2598
   5   2.0000     -10.310436      -280.5612
   6   2.0000     -10.278078      -279.6807
   7   2.0000      -8.256327      -224.6661
   8   2.0000      -6.213874      -169.0881
   9   2.0000      -6.207320      -168.9098
  10   2.0000      -6.206828      -168.8964
  11   2.0000      -1.470675       -40.0191
  12   2.0000      -1.225324       -33.3428
  13   2.0000      -1.125019       -30.6133
  14   2.0000      -0.950569       -25.8663
  15   2.0000      -0.867251       -23.5991
  16   2.0000      -0.811146       -22.0724
  17   2.0000      -0.750538       -20.4232
  18   2.0000      -0.682584       -18.5741
  19   2.0000      -0.671577       -18.2745
  20   2.0000      -0.644203       -17.5297
  21   2.0000      -0.598674       -16.2908
  22   2.0000      -0.575126       -15.6500
  23   2.0000      -0.566769       -15.4226
  24   2.0000      -0.547566       -14.9000
  25   2.0000      -0.530937       -14.4475
  26   2.0000      -0.492998       -13.4152
  27   2.0000      -0.483718       -13.1626
  28   2.0000      -0.474250       -12.9050
  29   2.0000      -0.459055       -12.4915
  30   2.0000      -0.427764       -11.6400
  31   2.0000      -0.415663       -11.3108
  32   2.0000      -0.405763       -11.0414
  33   0.0000       0.086478         2.3532
  34   0.0000       0.124587         3.3902
  35   0.0000       0.136195         3.7061
  36   0.0000       0.144285         3.9262
  37   0.0000       0.152508         4.1500

MULLIKEN ATOMIC CHARGES
-----------------------
   0 C :   -0.272874
   1 S :    0.896096
   2 O :   -0.416579
   3 O :   -0.457082
   4 F :   -0.128400
   5 C :   -0.347253
   6 C :   -0.217026
   7 H :    0.167400
   8 H :    0.163355
   9 H :    0.119404
  10 H :    0.120014
  11 H :    0.128159
  12 H :    0.125033
  13 H :    0.119753
Sum of atomic charges:   -0.0000000

LOEWDIN ATOMIC CHARGES
----------------------
   0 C :   -0.362868
   1 S :    0.555917
   2 O :   -0.256424
   3 O :   -0.311480
   4 F :    0.057340
   5 C :   -0.303973
   6 C :   -0.309865
   7 H :    0.149933
   8 H :    0.144744
   9 H :    0.143995
  10 H :    0.138649
  11 H :    0.121089
  12 H :    0.119934
  13 H :    0.113009

  Mayer bond orders larger than 0.100000
B(  0-C ,  1-S ) :   0.9111 B(  0-C ,  6-C ) :   0.9779 B(  0-C ,  7-H ) :   0.9412
B(  0-C ,  8-H ) :   0.9463 B(  1-S ,  2-O ) :   1.9489 B(  1-S ,  3-O ) :   1.8773
B(  1-S ,  4-F ) :   1.0990 B(  5-C ,  6-C ) :   0.9717 B(  5-C , 11-H ) :   0.9727
B(  5-C , 12-H ) :   0.9714 B(  5-C , 13-H ) :   0.9793 B(  6-C ,  9-H ) :   0.9602
B(  6-C , 10-H ) :   0.9755

Dispersion correction           -0.004470388
FINAL SINGLE POINT ENERGY      -767.062816786691

DIPOLE MOMENT
-------------
                                X             Y             Z
Electronic contribution:    -11.18743       4.06123      -0.66546
Nuclear contribution   :     12.47562      -5.08213       1.41531
                        -----------------------------------------
Total Dipole Moment    :      1.28819      -1.02089       0.74985
                        -----------------------------------------
Magnitude (a.u.)       :      1.80664
Magnitude (Debye)      :      4.59211

Rotational constants in cm-1:     0.128398     0.054249     0.051014
Rotational constants in MHz :  3849.278549  1626.338413  1529.351405

                             ****ORCA TERMINATED NORMALLY****
TOTAL RUN TIME: 0 days 0 hours 0 minutes 18 seconds 239 msec
