                         Program Version 5.0.0 -  RELEASE  -
|  1> !PBE0 D3BJ RIJCOSX def2-SVP def2/J TightSCF
|  2> *xyz 1 1
|  3> C          4.60295       -2.44010        2.63478
|  4> C          3.86085       -1.59157        3.62289
|  5> N          2.75650       -2.04616        4.16633
|  6> N          4.25433       -0.36291        3.86046
|  7> H          3.56526        0.31099        4.16898
|  8> H          5.05429       -0.01606        3.33784
|  9> H          2.43970       -2.97389        3.89740
| 10> H          2.06687       -1.41253        4.54981
| 11> C          3.74469       -2.58056        1.36188
| 12> H          5.56156       -1.97135        2.40708
| 13> H          4.81050       -3.42255        3.06310
| 14> H          4.26314       -3.18477        0.64702
| 15> H          3.56325       -1.61180        0.94535
| 16> H          2.81197       -3.04259        1.60980
| 17> *
| 18>
| 19> %MaxCore 64000
| 20>
| 21> %pal nprocs 4
| 22> end
| 23>
| 24> %scf
| 25>   MaxIter 150
| 26> end
| 27>
| 28>
| 29>                          ****END OF INPUT****

CARTESIAN COORDINATES (ANGSTROEM)
---------------------------------
  C      4.602950   -2.440100    2.634780
  C      3.860850   -1.591570    3.622890
  N      2.756500   -2.046160    4.166330
  N      4.254330   -0.362910    3.860460
  H      3.565260    0.310990    4.168980
  H      5.054290   -0.016060    3.337840
  H      2.439700   -2.973890    3.897400
  H      2.066870   -1.412530    4.549810
  C      3.744690   -2.580560    1.361880
  H      5.561560   -1.971350    2.407080
  H      4.810500   -3.422550    3.063100
  H      4.263140   -3.184770    0.647020
  H      3.563250   -1.611800    0.945350
  H      2.811970   -3.042590    1.609800

 Total Charge           Charge          ....    1
 Multiplicity           Mult            ....    1
 Number of Electrons    NEL             ....   40
 Basis Dimension        Dim             ....  115

ORBITAL ENERGIES
----------------

  NO   OCC          E(Eh)            E(eV)
   0   2.0000     -14.641558      -398.4170
   1   2.0000     -14.640923      -398.3998
   2   2.0000     -10.554174      -287.1937
   3   2.0000     -10.434521      -283.9377
   4   2.0000     -10.394865      -282.8587
   5   2.0000      -1.229102       -33.4456
   6   2.0000      -1.128566       -30.7098
   7   2.0000      -0.990091       -26.9418
   8   2.0000      -0.877265       -23.8716
   9   2.0000      -0.833513       -22.6810
  10   2.0000      -0.791027       -21.5249
  11   2.0000      -0.768263       -20.9055
  12   2.0000      -0.714351       -19.4385
  13   2.0000      -0.679940       -18.5021
  14   2.0000      -0.640414       -17.4266
  15   2.0000      -0.616761       -16.7829
  16   2.0000      -0.564187       -15.3523
  17   2.0000      -0.556414       -15.1408
  18   2.0000      -0.543494       -14.7892
  19   2.0000      -0.508441       -13.8354
  20   0.0000      -0.206571        -5.6211
  21   0.0000      -0.134602        -3.6627
  22   0.0000      -0.089923        -2.4469
  23   0.0000      -0.088584        -2.4105
  24   0.0000      -0.059598        -1.6218

MULLIKEN ATOMIC CHARGES
-----------------------
   0 C :   -0.055407
   1 C :   -0.031328
   2 N :   -0.026328
   3 N :   -0.022572
   4 H :    0.183330
   5 H :    0.195369
   6 H :    0.193604
   7 H :    0.185119
   8 C :   -0.052979
   9 H :    0.083677
  10 H :    0.115326
  11 H :    0.105147
  12 H :    0.069346
  13 H :    0.057696
Sum of atomic charges:    1.0000000

LOEWDIN ATOMIC CHARGES
----------------------
   0 C :   -0.037835
   1 C :    0.146306
   2 N :    0.095924
   3 N :    0.097178
   4 H :    0.114336
   5 H :    0.123003
   6 H :    0.121510
   7 H :    0.114967
   8 C :   -0.029616
   9 H :    0.056360
  10 H :    0.067639
  11 H :    0.058182
  12 H :    0.040301
  13 H :    0.031748

  Mayer bond orders larger than 0.100000
B(  0-C ,  1-C ) :   1.0286 B(  0-C ,  8-C ) :   1.0547 B(  0-C ,  9-H ) :   0.9253
B(  0-C , 10-H ) :   0.9204 B(  1-C ,  2-N ) :   1.4984 B(  1-C ,  3-N ) :   1.5068
B(  2-N ,  6-H ) :   0.9220 B(  2-N ,  7-H ) :   0.9292 B(  3-N ,  4-H ) :   0.9289
B(  3-N ,  5-H ) :   0.9183 B(  8-C , 11-H ) :   0.9606 B(  8-C , 12-H ) :   0.9668
B(  8-C , 13-H ) :   0.9729

Dispersion correction           -0.008630278
FINAL SINGLE POINT ENERGY      -228.600293577270

DIPOLE MOMENT
-------------
                                X             Y             Z
Electronic contribution:     -0.26873       1.82744       3.74918
Nuclear contribution   :     -0.22400      -1.16268      -3.30447
                        -----------------------------------------
Total Dipole Moment    :     -0.49273       0.66476       0.44471
                        -----------------------------------------
Magnitude (a.u.)       :      0.93939
Magnitude (Debye)      :      2.38775

Rotational constants in cm-1:     0.258103     0.130571     0.102508
Rotational constants in MHz :  7737.732062  3914.431392  3073.119154

                             ****ORCA TERMINATED NORMALLY****
TOTAL RUN TIME: 0 days 0 hours 0 minutes 12 seconds 984 msec
