                         Program Version 5.0.0 -  RELEASE  -
|  1> !PBE0 D3BJ RIJCOSX def2-TZVP def2/J TightSCF xyzfile
|  2>
|  3> *xyzfile 0 1 B.xyz
|  4>
|  5> %MaxCore 64000
|  6>
|  7> %pal nprocs 18
|  8> end
|  9>
| 10> %scf
| 11>   MaxIter 150
| 12> end
| 13>
| 14>
| 15>                          ****END OF INPUT****

CARTESIAN COORDINATES (ANGSTROEM)
---------------------------------
  C      4.602954   -2.440100    2.634780
  C     -0.914947    0.615112    2.505538
  C     -0.059146    1.503524    3.410578
  H      0.365364    2.344315    2.861161
  H     -0.692261    1.920207    4.198985
  C      1.083027    0.749640    4.085705
  C      3.860851   -1.591565    3.622893
  N      2.756502   -2.046159    4.166333
  N      4.254325   -0.362905    3.860455
  H      3.565256    0.310994    4.168983
  H      5.054292   -0.016059    3.337838
  H      2.439696   -2.973894    3.897395
  H      2.066869   -1.412532    4.549813
  O      2.228167    1.263475    4.019826
  O      0.810034   -0.345411    4.636269
  C      3.744685   -2.580557    1.361882
  C      0.772139    0.636882    0.562129
  C     -0.130740   -0.193985    1.470763
  H     -0.840563   -0.760165    0.856377
  H      0.466691   -0.938942    2.006959
  H     -1.647961    1.245963    1.991076
  H     -1.478180   -0.081046    3.130424
  C      3.203721   -1.256004    0.826211
  H      2.898939   -3.239289    1.583074
  H      4.334962   -3.095523    0.600188
  C      2.107815   -1.442385   -0.216865
  H      2.786775   -0.672760    1.650711
  H      4.021008   -0.652993    0.414046
  C      1.390662   -0.145912   -0.602422
  H      1.372179   -2.152184    0.176151
  H      2.523302   -1.906787   -1.117115
  H      1.561361    1.100094    1.161831
  H      0.195516    1.468325    0.142758
  H      0.602893   -0.398214   -1.319716
  H      2.087247    0.508272   -1.137335
  H      5.561557   -1.971347    2.407084
  H      4.810498   -3.422552    3.063099

 Total Charge           Charge          ....    0
 Multiplicity           Mult            ....    1
 Number of Electrons    NEL             ....  118
 Basis Dimension        Dim             ....  597

ORBITAL ENERGIES
----------------

  NO   OCC          E(Eh)            E(eV)
   0   2.0000     -19.126251      -520.4517
   1   2.0000     -19.124358      -520.4002
   2   2.0000     -14.424199      -392.5024
   3   2.0000     -14.424170      -392.5016
   4   2.0000     -10.356967      -281.8274
   5   2.0000     -10.279860      -279.7292
   6   2.0000     -10.272516      -279.5294
   7   2.0000     -10.254001      -279.0255
   8   2.0000     -10.229679      -278.3637
   9   2.0000     -10.220999      -278.1275
  10   2.0000     -10.213049      -277.9112
  11   2.0000     -10.202156      -277.6148
  12   2.0000     -10.198758      -277.5223
  13   2.0000     -10.194817      -277.4151
  14   2.0000     -10.185309      -277.1564
  15   2.0000      -1.048632       -28.5347
  16   2.0000      -1.034149       -28.1406
  17   2.0000      -0.952181       -25.9102
  18   2.0000      -0.935763       -25.4634
  19   2.0000      -0.861799       -23.4507
  20   2.0000      -0.827019       -22.5043
  21   2.0000      -0.796443       -21.6723
  22   2.0000      -0.755747       -20.5649
  23   2.0000      -0.716753       -19.5038
  24   2.0000      -0.678669       -18.4675
  25   2.0000      -0.661267       -17.9940
  26   2.0000      -0.637313       -17.3422
  27   2.0000      -0.602837       -16.4040
  28   2.0000      -0.595400       -16.2016
  29   2.0000      -0.586719       -15.9654
  30   2.0000      -0.562615       -15.3095
  31   2.0000      -0.526843       -14.3361
  32   2.0000      -0.521923       -14.2023
  33   2.0000      -0.498777       -13.5724
  34   2.0000      -0.489284       -13.3141
  35   2.0000      -0.476720       -12.9722
  36   2.0000      -0.470345       -12.7987
  37   2.0000      -0.456090       -12.4108
  38   2.0000      -0.444303       -12.0901
  39   2.0000      -0.432559       -11.7705
  40   2.0000      -0.427077       -11.6214
  41   2.0000      -0.418133       -11.3780
  42   2.0000      -0.414246       -11.2722
  43   2.0000      -0.408549       -11.1172
  44   2.0000      -0.387511       -10.5447
  45   2.0000      -0.384413       -10.4604
  46   2.0000      -0.378402       -10.2968
  47   2.0000      -0.372870       -10.1463
  48   2.0000      -0.361879        -9.8472
  49   2.0000      -0.345585        -9.4039
  50   2.0000      -0.341913        -9.3039
  51   2.0000      -0.334069        -9.0905
  52   2.0000      -0.319236        -8.6868
  53   2.0000      -0.314721        -8.5640
  54   2.0000      -0.312372        -8.5001
  55   2.0000      -0.305101        -8.3022
  56   2.0000      -0.247739        -6.7413
  57   2.0000      -0.236520        -6.4360
  58   2.0000      -0.231670        -6.3041
  59   0.0000      -0.028648        -0.7796
  60   0.0000       0.009128         0.2484
  61   0.0000       0.030552         0.8314
  62   0.0000       0.045680         1.2430
  63   0.0000       0.057799         1.5728

MULLIKEN ATOMIC CHARGES
-----------------------
   0 C :   -0.196961
   1 C :   -0.153979
   2 C :   -0.160751
   3 H :    0.102672
   4 H :    0.104925
   5 C :    0.299660
   6 C :    0.186312
   7 N :   -0.304739
   8 N :   -0.305177
   9 H :    0.279969
  10 H :    0.246177
  11 H :    0.246924
  12 H :    0.281429
  13 O :   -0.541877
  14 O :   -0.528349
  15 C :   -0.234502
  16 C :   -0.290406
  17 C :   -0.219902
  18 H :    0.092845
  19 H :    0.102020
  20 H :    0.089954
  21 H :    0.098324
  22 C :   -0.280335
  23 H :    0.120593
  24 H :    0.122462
  25 C :   -0.184622
  26 H :    0.151802
  27 H :    0.094450
  28 C :   -0.149543
  29 H :    0.109463
  30 H :    0.102777
  31 H :    0.147654
  32 H :    0.100858
  33 H :    0.103824
  34 H :    0.094369
  35 H :    0.120103
  36 H :    0.151574
Sum of atomic charges:   -0.0000000

LOEWDIN ATOMIC CHARGES
----------------------
   0 C :   -0.215185
   1 C :   -0.269340
   2 C :   -0.243656
   3 H :    0.138915
   4 H :    0.146506
   5 C :   -0.637473
   6 C :   -0.341192
   7 N :    0.108390
   8 N :    0.103026
   9 H :    0.156196
  10 H :    0.186008
  11 H :    0.187372
  12 H :    0.156755
  13 O :   -0.058038
  14 O :   -0.051755
  15 C :   -0.254141
  16 C :   -0.274723
  17 C :   -0.275886
  18 H :    0.135087
  19 H :    0.135830
  20 H :    0.133680
  21 H :    0.141364
  22 C :   -0.268204
  23 H :    0.139691
  24 H :    0.143128
  25 C :   -0.272341
  26 H :    0.150183
  27 H :    0.137789
  28 C :   -0.270589
  29 H :    0.139097
  30 H :    0.135852
  31 H :    0.141481
  32 H :    0.138825
  33 H :    0.138298
  34 H :    0.136105
  35 H :    0.148819
  36 H :    0.154125

  Mayer bond orders larger than 0.100000
B(  0-C ,  6-C ) :   1.0073 B(  0-C , 15-C ) :   0.9645 B(  0-C , 35-H ) :   0.9589
B(  0-C , 36-H ) :   0.9562 B(  1-C ,  2-C ) :   0.9900 B(  1-C , 17-C ) :   1.0238
B(  1-C , 20-H ) :   0.9563 B(  1-C , 21-H ) :   0.9473 B(  2-C ,  3-H ) :   0.9614
B(  2-C ,  4-H ) :   0.9353 B(  2-C ,  5-C ) :   0.9831 B(  5-C , 13-O ) :   1.6637
B(  5-C , 14-O ) :   1.6851 B(  6-C ,  7-N ) :   1.5057 B(  6-C ,  8-N ) :   1.5101
B(  7-N , 11-H ) :   0.9086 B(  7-N , 12-H ) :   0.7485 B(  8-N ,  9-H ) :   0.7561
B(  8-N , 10-H ) :   0.9053 B(  9-H , 13-O ) :   0.2016 B( 12-H , 14-O ) :   0.2085
B( 15-C , 22-C ) :   0.9583 B( 15-C , 23-H ) :   0.9751 B( 15-C , 24-H ) :   0.9534
B( 16-C , 17-C ) :   0.9774 B( 16-C , 28-C ) :   1.0039 B( 16-C , 31-H ) :   0.9636
B( 16-C , 32-H ) :   0.9550 B( 17-C , 18-H ) :   0.9551 B( 17-C , 19-H ) :   0.9585
B( 22-C , 25-C ) :   1.0128 B( 22-C , 26-H ) :   0.9588 B( 22-C , 27-H ) :   0.9492
B( 25-C , 28-C ) :   1.0004 B( 25-C , 29-H ) :   0.9591 B( 25-C , 30-H ) :   0.9564
B( 28-C , 33-H ) :   0.9583 B( 28-C , 34-H ) :   0.9628

Dispersion correction           -0.037733839
FINAL SINGLE POINT ENERGY      -691.906586181454

DIPOLE MOMENT
-------------
                                X             Y             Z
Electronic contribution:      3.44598       1.61287      13.01866
Nuclear contribution   :     -1.50655      -3.48027     -14.35034
                        -----------------------------------------
Total Dipole Moment    :      1.93943      -1.86740      -1.33168
                        -----------------------------------------
Magnitude (a.u.)       :      3.00365
Magnitude (Debye)      :      7.63468

Rotational constants in cm-1:     0.021781     0.017296     0.011403
Rotational constants in MHz :   652.971749   518.510612   341.853154

                             ****ORCA TERMINATED NORMALLY****
TOTAL RUN TIME: 0 days 0 hours 1 minutes 24 seconds 416 msec
