                         Program Version 5.0.0 -  RELEASE  -
|  1> !PBE0 D3BJ RIJCOSX def2-SVP def2/J TightSCF
|  2> *xyz 0 1
|  3> C         -0.91495        0.61511        2.50554
|  4> C         -0.05915        1.50352        3.41058
|  5> H          0.36536        2.34431        2.86116
|  6> H         -0.69226        1.92021        4.19898
|  7> C          1.08303        0.74964        4.08571
|  8> F          2.22817        1.26348        4.01983
|  9> O          0.81003       -0.34541        4.63627
| 10> H         -0.30401        0.20228        1.73015
| 11> H         -1.69811        1.19946        2.06954
| 12> H         -1.34124       -0.17772        3.08397
| 13> *
| 14>
| 15> %MaxCore 64000
| 16>
| 17> %pal nprocs 4
| 18> end
| 19>
| 20> %scf
| 21>   MaxIter 150
| 22> end
| 23>
| 24>
| 25>                          ****END OF INPUT****

CARTESIAN COORDINATES (ANGSTROEM)
---------------------------------
  C     -0.914950    0.615110    2.505540
  C     -0.059150    1.503520    3.410580
  H      0.365360    2.344310    2.861160
  H     -0.692260    1.920210    4.198980
  C      1.083030    0.749640    4.085710
  F      2.228170    1.263480    4.019830
  O      0.810030   -0.345410    4.636270
  H     -0.304010    0.202280    1.730150
  H     -1.698110    1.199460    2.069540
  H     -1.341240   -0.177720    3.083970

 Total Charge           Charge          ....    0
 Multiplicity           Mult            ....    1
 Number of Electrons    NEL             ....   40
 Basis Dimension        Dim             ....   95

ORBITAL ENERGIES
----------------

  NO   OCC          E(Eh)            E(eV)
   0   2.0000     -24.839212      -675.9093
   1   2.0000     -19.211670      -522.7761
   2   2.0000     -10.402641      -283.0703
   3   2.0000     -10.260746      -279.2091
   4   2.0000     -10.235055      -278.5100
   5   2.0000      -1.328328       -36.1456
   6   2.0000      -1.044932       -28.4340
   7   2.0000      -0.814869       -22.1737
   8   2.0000      -0.702231       -19.1087
   9   2.0000      -0.649163       -17.6646
  10   2.0000      -0.560554       -15.2535
  11   2.0000      -0.546544       -14.8722
  12   2.0000      -0.517312       -14.0768
  13   2.0000      -0.476998       -12.9798
  14   2.0000      -0.443551       -12.0696
  15   2.0000      -0.409292       -11.1374
  16   2.0000      -0.387331       -10.5398
  17   2.0000      -0.384392       -10.4598
  18   2.0000      -0.355216        -9.6659
  19   2.0000      -0.300559        -8.1786
  20   0.0000      -0.016653        -0.4532
  21   0.0000       0.071544         1.9468
  22   0.0000       0.114517         3.1162
  23   0.0000       0.120674         3.2837
  24   0.0000       0.137510         3.7418

MULLIKEN ATOMIC CHARGES
-----------------------
   0 C :   -0.050823
   1 C :   -0.154436
   2 H :    0.050236
   3 H :    0.084710
   4 C :    0.280260
   5 F :   -0.086802
   6 O :   -0.279600
   7 H :    0.046264
   8 H :    0.044683
   9 H :    0.065508
Sum of atomic charges:   -0.0000000

LOEWDIN ATOMIC CHARGES
----------------------
   0 C :   -0.046849
   1 C :   -0.083323
   2 H :    0.031533
   3 H :    0.055752
   4 C :    0.108211
   5 F :    0.040365
   6 O :   -0.201598
   7 H :    0.029748
   8 H :    0.030756
   9 H :    0.035405

  Mayer bond orders larger than 0.100000
B(  0-C ,  1-C ) :   1.0846 B(  0-C ,  7-H ) :   0.9784 B(  0-C ,  8-H ) :   0.9687
B(  0-C ,  9-H ) :   0.9681 B(  1-C ,  2-H ) :   0.9414 B(  1-C ,  3-H ) :   0.9276
B(  1-C ,  4-C ) :   0.9959 B(  4-C ,  5-F ) :   1.1849 B(  4-C ,  6-O ) :   2.0502

Dispersion correction           -0.005171926
FINAL SINGLE POINT ENERGY      -291.864278499296

DIPOLE MOMENT
-------------
                                X             Y             Z
Electronic contribution:      7.76914      -0.21018       4.14019
Nuclear contribution   :     -8.12386       1.06915      -4.71960
                        -----------------------------------------
Total Dipole Moment    :     -0.35473       0.85896      -0.57940
                        -----------------------------------------
Magnitude (a.u.)       :      1.09515
Magnitude (Debye)      :      2.78366

Rotational constants in cm-1:     0.309513     0.127560     0.099675
Rotational constants in MHz :  9278.979128  3824.146597  2988.174827

                             ****ORCA TERMINATED NORMALLY****
TOTAL RUN TIME: 0 days 0 hours 0 minutes 11 seconds 611 msec
