                         Program Version 5.0.0 -  RELEASE  -
|  1> !PBE0 D3BJ RIJCOSX def2-SVP def2/J TightSCF
|  2> *xyz 0 1
|  3> C         -0.91495        0.61511        2.50554
|  4> C         -0.05915        1.50352        3.41058
|  5> H          0.36536        2.34431        2.86116
|  6> H         -0.69226        1.92021        4.19898
|  7> C          1.08303        0.74964        4.08571
|  8> O          2.22817        1.26348        4.01983
|  9> F          0.81003       -0.34541        4.63627
| 10> H         -0.30401        0.20228        1.73015
| 11> H         -1.69811        1.19946        2.06954
| 12> H         -1.34124       -0.17772        3.08397
| 13> *
| 14>
| 15> %MaxCore 64000
| 16>
| 17> %pal nprocs 4
| 18> end
| 19>
| 20> %scf
| 21>   MaxIter 150
| 22> end
| 23>
| 24>
| 25>                          ****END OF INPUT****

CARTESIAN COORDINATES (ANGSTROEM)
---------------------------------
  C     -0.914950    0.615110    2.505540
  C     -0.059150    1.503520    3.410580
  H      0.365360    2.344310    2.861160
  H     -0.692260    1.920210    4.198980
  C      1.083030    0.749640    4.085710
  O      2.228170    1.263480    4.019830
  F      0.810030   -0.345410    4.636270
  H     -0.304010    0.202280    1.730150
  H     -1.698110    1.199460    2.069540
  H     -1.341240   -0.177720    3.083970

 Total Charge           Charge          ....    0
 Multiplicity           Mult            ....    1
 Number of Electrons    NEL             ....   40
 Basis Dimension        Dim             ....   95

ORBITAL ENERGIES
----------------

  NO   OCC          E(Eh)            E(eV)
   0   2.0000     -24.841057      -675.9595
   1   2.0000     -19.209941      -522.7291
   2   2.0000     -10.401640      -283.0430
   3   2.0000     -10.259831      -279.1842
   4   2.0000     -10.240351      -278.6541
   5   2.0000      -1.330222       -36.1972
   6   2.0000      -1.042456       -28.3667
   7   2.0000      -0.819114       -22.2892
   8   2.0000      -0.697957       -18.9924
   9   2.0000      -0.656078       -17.8528
  10   2.0000      -0.563457       -15.3325
  11   2.0000      -0.553363       -15.0578
  12   2.0000      -0.508363       -13.8333
  13   2.0000      -0.477615       -12.9966
  14   2.0000      -0.445575       -12.1247
  15   2.0000      -0.413233       -11.2446
  16   2.0000      -0.393599       -10.7104
  17   2.0000      -0.387922       -10.5559
  18   2.0000      -0.356652        -9.7050
  19   2.0000      -0.295060        -8.0290
  20   0.0000      -0.013405        -0.3648
  21   0.0000       0.066350         1.8055
  22   0.0000       0.112468         3.0604
  23   0.0000       0.121727         3.3124
  24   0.0000       0.139331         3.7914

MULLIKEN ATOMIC CHARGES
-----------------------
   0 C :   -0.074601
   1 C :   -0.146948
   2 H :    0.076388
   3 H :    0.073915
   4 C :    0.279074
   5 O :   -0.275421
   6 F :   -0.088687
   7 H :    0.054169
   8 H :    0.051283
   9 H :    0.050828
Sum of atomic charges:    0.0000000

LOEWDIN ATOMIC CHARGES
----------------------
   0 C :   -0.057914
   1 C :   -0.078824
   2 H :    0.048398
   3 H :    0.048031
   4 C :    0.106545
   5 O :   -0.199377
   6 F :    0.040569
   7 H :    0.030788
   8 H :    0.033567
   9 H :    0.028217

  Mayer bond orders larger than 0.100000
B(  0-C ,  1-C ) :   1.0632 B(  0-C ,  7-H ) :   0.9777 B(  0-C ,  8-H ) :   0.9683
B(  0-C ,  9-H ) :   0.9719 B(  1-C ,  2-H ) :   0.9510 B(  1-C ,  3-H ) :   0.9289
B(  1-C ,  4-C ) :   1.0052 B(  4-C ,  5-O ) :   2.0659 B(  4-C ,  6-F ) :   1.1742

Dispersion correction           -0.005136500
FINAL SINGLE POINT ENERGY      -291.863080923465

DIPOLE MOMENT
-------------
                                X             Y             Z
Electronic contribution:      5.42171      -2.85476       5.14001
Nuclear contribution   :     -6.57765       2.82334      -5.39171
                        -----------------------------------------
Total Dipole Moment    :     -1.15594      -0.03142      -0.25169
                        -----------------------------------------
Magnitude (a.u.)       :      1.18344
Magnitude (Debye)      :      3.00806

Rotational constants in cm-1:     0.294245     0.132994     0.101060
Rotational constants in MHz :  8821.228602  3987.049251  3029.696815

                             ****ORCA TERMINATED NORMALLY****
TOTAL RUN TIME: 0 days 0 hours 0 minutes 10 seconds 199 msec
