                         Program Version 5.0.0 -  RELEASE  -
|  1> !PBE0 D3BJ RIJCOSX def2-SVP def2/J TightSCF
|  2> *xyz 0 1
|  3> C          4.60295       -2.44010        2.63478
|  4> C          3.86085       -1.59157        3.62289
|  5> N          2.75650       -2.04616        4.16633
|  6> C          4.25433       -0.36291        3.86046
|  7> H          3.56526        0.31099        4.16898
|  8> H          5.05429       -0.01606        3.33784
|  9> H          2.43970       -2.97389        3.89740
| 10> H          2.06687       -1.41253        4.54981
| 11> C          3.74469       -2.58056        1.36188
| 12> H          5.56156       -1.97135        2.40708
| 13> H          4.81050       -3.42255        3.06310
| 14> H          4.26314       -3.18477        0.64702
| 15> H          3.56325       -1.61180        0.94535
| 16> H          2.81197       -3.04259        1.60980
| 17> *
| 18>
| 19> %MaxCore 64000
| 20>
| 21> %pal nprocs 4
| 22> end
| 23>
| 24> %scf
| 25>   MaxIter 150
| 26> end
| 27>
| 28>
| 29>                          ****END OF INPUT****

CARTESIAN COORDINATES (ANGSTROEM)
---------------------------------
  C      4.602950   -2.440100    2.634780
  C      3.860850   -1.591570    3.622890
  N      2.756500   -2.046160    4.166330
  C      4.254330   -0.362910    3.860460
  H      3.565260    0.310990    4.168980
  H      5.054290   -0.016060    3.337840
  H      2.439700   -2.973890    3.897400
  H      2.066870   -1.412530    4.549810
  C      3.744690   -2.580560    1.361880
  H      5.561560   -1.971350    2.407080
  H      4.810500   -3.422550    3.063100
  H      4.263140   -3.184770    0.647020
  H      3.563250   -1.611800    0.945350
  H      2.811970   -3.042590    1.609800

 Total Charge           Charge          ....    0
 Multiplicity           Mult            ....    1
 Number of Electrons    NEL             ....   40
 Basis Dimension        Dim             ....  115

ORBITAL ENERGIES
----------------

  NO   OCC          E(Eh)            E(eV)
   0   2.0000     -14.390038      -391.5728
   1   2.0000     -10.245434      -278.7924
   2   2.0000     -10.231438      -278.4116
   3   2.0000     -10.221221      -278.1336
   4   2.0000     -10.158063      -276.4149
   5   2.0000      -0.945725       -25.7345
   6   2.0000      -0.793692       -21.5975
   7   2.0000      -0.731143       -19.8954
   8   2.0000      -0.646316       -17.5872
   9   2.0000      -0.579945       -15.7811
  10   2.0000      -0.535994       -14.5851
  11   2.0000      -0.487531       -13.2664
  12   2.0000      -0.450120       -12.2484
  13   2.0000      -0.439392       -11.9565
  14   2.0000      -0.396985       -10.8025
  15   2.0000      -0.390017       -10.6129
  16   2.0000      -0.366132        -9.9630
  17   2.0000      -0.349366        -9.5067
  18   2.0000      -0.332457        -9.0466
  19   2.0000      -0.195698        -5.3252
  20   0.0000       0.056617         1.5406
  21   0.0000       0.062702         1.7062
  22   0.0000       0.109179         2.9709
  23   0.0000       0.111528         3.0348
  24   0.0000       0.126116         3.4318

MULLIKEN ATOMIC CHARGES
-----------------------
   0 C :   -0.007824
   1 C :   -0.148910
   2 N :   -0.108425
   3 C :   -0.061047
   4 H :   -0.027212
   5 H :   -0.018899
   6 H :    0.117947
   7 H :    0.127592
   8 C :   -0.036027
   9 H :    0.035549
  10 H :    0.031679
  11 H :    0.038821
  12 H :    0.038573
  13 H :    0.018181
Sum of atomic charges:    0.0000000

LOEWDIN ATOMIC CHARGES
----------------------
   0 C :   -0.035429
   1 C :   -0.001876
   2 N :   -0.005875
   3 C :   -0.182304
   4 H :   -0.003854
   5 H :    0.001652
   6 H :    0.070156
   7 H :    0.079453
   8 C :   -0.054277
   9 H :    0.037368
  10 H :    0.024051
  11 H :    0.025907
  12 H :    0.028766
  13 H :    0.016260

  Mayer bond orders larger than 0.100000
B(  0-C ,  1-C ) :   1.0347 B(  0-C ,  8-C ) :   1.0784 B(  0-C ,  9-H ) :   0.9342
B(  0-C , 10-H ) :   0.9333 B(  1-C ,  2-N ) :   1.2596 B(  1-C ,  3-C ) :   1.8566
B(  2-N ,  6-H ) :   0.9529 B(  2-N ,  7-H ) :   0.9479 B(  3-C ,  4-H ) :   0.9609
B(  3-C ,  5-H ) :   0.9418 B(  8-C , 11-H ) :   0.9698 B(  8-C , 12-H ) :   0.9689
B(  8-C , 13-H ) :   0.9721

Dispersion correction           -0.008975199
FINAL SINGLE POINT ENERGY      -212.149410708218

DIPOLE MOMENT
-------------
                                X             Y             Z
Electronic contribution:     -0.54857       0.28098       2.85228
Nuclear contribution   :     -0.12319      -0.83296      -3.13501
                        -----------------------------------------
Total Dipole Moment    :     -0.67176      -0.55198      -0.28273
                        -----------------------------------------
Magnitude (a.u.)       :      0.91427
Magnitude (Debye)      :      2.32388

Rotational constants in cm-1:     0.266453     0.134423     0.106086
Rotational constants in MHz :  7988.053142  4029.892766  3180.375228

                             ****ORCA TERMINATED NORMALLY****
TOTAL RUN TIME: 0 days 0 hours 0 minutes 13 seconds 548 msec
