                         Program Version 5.0.0 -  RELEASE  -
|  1> !PBE0 D3BJ RIJCOSX def2-TZVP def2/J TightSCF xyzfile
|  2>
|  3> *xyzfile 0 1 D1.xyz
|  4>
|  5> %MaxCore 64000
|  6>
|  7> %pal nprocs 18
|  8> end
|  9>
| 10> %scf
| 11>   MaxIter 150
| 12> end
| 13>
| 14>
| 15>                          ****END OF INPUT****

CARTESIAN COORDINATES (ANGSTROEM)
---------------------------------
  C      4.602954   -2.440100    2.634780
  C     -0.914947    0.615112    2.505538
  C     -0.059146    1.503524    3.410578
  H      0.365364    2.344315    2.861161
  H     -0.692261    1.920207    4.198985
  C      1.083027    0.749640    4.085705
  C      3.860851   -1.591565    3.622893
  C      2.756502   -2.046159    4.166333
  N      4.254325   -0.362905    3.860455
  H      3.565256    0.310994    4.168983
  H      5.054292   -0.016059    3.337838
  H      2.439696   -2.973894    3.897395
  H      2.066869   -1.412532    4.549813
  F      2.228167    1.263475    4.019826
  O      0.810034   -0.345411    4.636269
  C      3.744685   -2.580557    1.361882
  C      0.772139    0.636882    0.562129
  C     -0.130740   -0.193985    1.470763
  H     -0.840563   -0.760165    0.856377
  H      0.466691   -0.938942    2.006959
  H     -1.647961    1.245963    1.991076
  H     -1.478180   -0.081046    3.130424
  C      3.203721   -1.256004    0.826211
  H      2.898939   -3.239289    1.583074
  H      4.334962   -3.095523    0.600188
  C      2.107815   -1.442385   -0.216865
  H      2.786775   -0.672760    1.650711
  H      4.021008   -0.652993    0.414046
  C      1.390662   -0.145912   -0.602422
  H      1.372179   -2.152184    0.176151
  H      2.523302   -1.906787   -1.117115
  H      1.561361    1.100094    1.161831
  H      0.195516    1.468325    0.142758
  H      0.602893   -0.398214   -1.319716
  H      2.087247    0.508272   -1.137335
  H      5.561557   -1.971347    2.407084
  H      4.810498   -3.422552    3.063099

 Total Charge           Charge          ....    0
 Multiplicity           Mult            ....    1
 Number of Electrons    NEL             ....  118
 Basis Dimension        Dim             ....  597

ORBITAL ENERGIES
----------------

  NO   OCC          E(Eh)            E(eV)
   0   2.0000     -24.866602      -676.6546
   1   2.0000     -19.223871      -523.1081
   2   2.0000     -14.359358      -390.7380
   3   2.0000     -10.412893      -283.3492
   4   2.0000     -10.258566      -279.1498
   5   2.0000     -10.237270      -278.5703
   6   2.0000     -10.221556      -278.1427
   7   2.0000     -10.221233      -278.1339
   8   2.0000     -10.217133      -278.0223
   9   2.0000     -10.216593      -278.0076
  10   2.0000     -10.210094      -277.8308
  11   2.0000     -10.208457      -277.7862
  12   2.0000     -10.208096      -277.7764
  13   2.0000     -10.205878      -277.7161
  14   2.0000     -10.114981      -275.2426
  15   2.0000      -1.380104       -37.5545
  16   2.0000      -1.081195       -29.4208
  17   2.0000      -0.942361       -25.6429
  18   2.0000      -0.855090       -23.2682
  19   2.0000      -0.829650       -22.5759
  20   2.0000      -0.804355       -21.8876
  21   2.0000      -0.767018       -20.8716
  22   2.0000      -0.742328       -20.1998
  23   2.0000      -0.712604       -19.3910
  24   2.0000      -0.697890       -18.9905
  25   2.0000      -0.667148       -18.1540
  26   2.0000      -0.631776       -17.1915
  27   2.0000      -0.608300       -16.5527
  28   2.0000      -0.592657       -16.1270
  29   2.0000      -0.584740       -15.9116
  30   2.0000      -0.570773       -15.5315
  31   2.0000      -0.556024       -15.1302
  32   2.0000      -0.542651       -14.7663
  33   2.0000      -0.513336       -13.9686
  34   2.0000      -0.496291       -13.5048
  35   2.0000      -0.493870       -13.4389
  36   2.0000      -0.484014       -13.1707
  37   2.0000      -0.465148       -12.6573
  38   2.0000      -0.458549       -12.4777
  39   2.0000      -0.440973       -11.9995
  40   2.0000      -0.437756       -11.9119
  41   2.0000      -0.422479       -11.4962
  42   2.0000      -0.416938       -11.3455
  43   2.0000      -0.403348       -10.9757
  44   2.0000      -0.399626       -10.8744
  45   2.0000      -0.385070       -10.4783
  46   2.0000      -0.381705       -10.3867
  47   2.0000      -0.372535       -10.1372
  48   2.0000      -0.365009        -9.9324
  49   2.0000      -0.355890        -9.6842
  50   2.0000      -0.353084        -9.6079
  51   2.0000      -0.345233        -9.3943
  52   2.0000      -0.334724        -9.1083
  53   2.0000      -0.331336        -9.0161
  54   2.0000      -0.322787        -8.7835
  55   2.0000      -0.319841        -8.7033
  56   2.0000      -0.313947        -8.5429
  57   2.0000      -0.287713        -7.8291
  58   2.0000      -0.179179        -4.8757
  59   0.0000      -0.040258        -1.0955
  60   0.0000       0.032309         0.8792
  61   0.0000       0.049125         1.3368
  62   0.0000       0.052353         1.4246
  63   0.0000       0.058330         1.5872

MULLIKEN ATOMIC CHARGES
-----------------------
   0 C :   -0.176705
   1 C :   -0.162605
   2 C :   -0.217204
   3 H :    0.130780
   4 H :    0.147598
   5 C :    0.374889
   6 C :    0.088265
   7 C :   -0.409753
   8 N :   -0.425088
   9 H :    0.225277
  10 H :    0.219882
  11 H :    0.081664
  12 H :    0.147007
  13 F :   -0.126150
  14 O :   -0.314893
  15 C :   -0.181918
  16 C :   -0.271816
  17 C :   -0.274851
  18 H :    0.107636
  19 H :    0.159651
  20 H :    0.112124
  21 H :    0.123528
  22 C :   -0.241620
  23 H :    0.103538
  24 H :    0.092385
  25 C :   -0.183820
  26 H :    0.095702
  27 H :    0.082413
  28 C :   -0.147570
  29 H :    0.109066
  30 H :    0.101944
  31 H :    0.115596
  32 H :    0.104831
  33 H :    0.105037
  34 H :    0.095655
  35 H :    0.085475
  36 H :    0.124048
Sum of atomic charges:    0.0000000

LOEWDIN ATOMIC CHARGES
----------------------
   0 C :   -0.217899
   1 C :   -0.258174
   2 C :   -0.236011
   3 H :    0.144802
   4 H :    0.161974
   5 C :   -0.485144
   6 C :   -0.398734
   7 C :   -0.275718
   8 N :   -0.003450
   9 H :    0.153176
  10 H :    0.164038
  11 H :    0.104438
  12 H :    0.092205
  13 F :    0.332950
  14 O :    0.107809
  15 C :   -0.254836
  16 C :   -0.277366
  17 C :   -0.272658
  18 H :    0.142432
  19 H :    0.147547
  20 H :    0.142390
  21 H :    0.148047
  22 C :   -0.269804
  23 H :    0.140196
  24 H :    0.131946
  25 C :   -0.272893
  26 H :    0.142474
  27 H :    0.132912
  28 C :   -0.269702
  29 H :    0.139058
  30 H :    0.136361
  31 H :    0.132393
  32 H :    0.137724
  33 H :    0.138164
  34 H :    0.136962
  35 H :    0.132994
  36 H :    0.149399

  Mayer bond orders larger than 0.100000
B(  0-C ,  6-C ) :   0.9529 B(  0-C , 15-C ) :   0.9936 B(  0-C , 35-H ) :   0.9624
B(  0-C , 36-H ) :   0.9646 B(  1-C ,  2-C ) :   0.9898 B(  1-C , 17-C ) :   1.0118
B(  1-C , 20-H ) :   0.9548 B(  1-C , 21-H ) :   0.9499 B(  2-C ,  3-H ) :   0.9529
B(  2-C ,  4-H ) :   0.9267 B(  2-C ,  5-C ) :   1.0123 B(  5-C , 13-F ) :   1.0803
B(  5-C , 14-O ) :   2.0055 B(  6-C ,  7-C ) :   1.7962 B(  6-C ,  8-N ) :   1.1814
B(  7-C , 11-H ) :   0.9895 B(  7-C , 12-H ) :   0.9551 B(  8-N ,  9-H ) :   0.8964
B(  8-N , 10-H ) :   0.9236 B( 15-C , 22-C ) :   1.0136 B( 15-C , 23-H ) :   0.9605
B( 15-C , 24-H ) :   0.9530 B( 16-C , 17-C ) :   0.9757 B( 16-C , 28-C ) :   1.0142
B( 16-C , 31-H ) :   0.9633 B( 16-C , 32-H ) :   0.9549 B( 17-C , 18-H ) :   0.9547
B( 17-C , 19-H ) :   0.9585 B( 22-C , 25-C ) :   1.0160 B( 22-C , 26-H ) :   0.9666
B( 22-C , 27-H ) :   0.9527 B( 25-C , 28-C ) :   0.9931 B( 25-C , 29-H ) :   0.9604
B( 25-C , 30-H ) :   0.9580 B( 28-C , 33-H ) :   0.9602 B( 28-C , 34-H ) :   0.9614

Dispersion correction           -0.037672616
FINAL SINGLE POINT ENERGY      -699.770461866364

DIPOLE MOMENT
-------------
                                X             Y             Z
Electronic contribution:      1.20347       7.39487      14.97577
Nuclear contribution   :     -1.66567      -5.90236     -15.95042
                        -----------------------------------------
Total Dipole Moment    :     -0.46220       1.49251      -0.97466
                        -----------------------------------------
Magnitude (a.u.)       :      1.84151
Magnitude (Debye)      :      4.68075

Rotational constants in cm-1:     0.021600     0.017292     0.011381
Rotational constants in MHz :   647.565282   518.410024   341.193038

                             ****ORCA TERMINATED NORMALLY****
TOTAL RUN TIME: 0 days 0 hours 1 minutes 21 seconds 444 msec
