                         Program Version 5.0.0 -  RELEASE  -
|  1> !M062X D3Zero RIJCOSX def2-SVPD def2/J TightSCF
|  2> *xyz -1 1
|  3> C          0.96805        1.63064       -3.71575
|  4> C         -0.50835        1.72268       -4.12430
|  5> S         -1.32861        0.14674       -4.43578
|  6> H         -0.59151        2.29496       -5.04722
|  7> H         -1.11411        2.23561       -3.37436
|  8> O         -2.57135        0.47573       -5.06834
|  9> O         -1.51496       -0.40051       -3.06342
| 10> O         -0.37793       -0.62756       -5.20114
| 11> H          1.51840        1.12197       -4.47946
| 12> H          1.05062        1.08971       -2.79625
| 13> H          1.36450        2.61606       -3.58668
| 14> *
| 15> %MaxCore 64000
| 16>
| 17> %pal nprocs 4
| 18> end
| 19>
| 20> %scf
| 21>   MaxIter 150
| 22> end
| 23>
| 24>
| 25>                          ****END OF INPUT****

CARTESIAN COORDINATES (ANGSTROEM)
---------------------------------
  C      0.968050    1.630640   -3.715750
  C     -0.508350    1.722680   -4.124300
  S     -1.328610    0.146740   -4.435780
  H     -0.591510    2.294960   -5.047220
  H     -1.114110    2.235610   -3.374360
  O     -2.571350    0.475730   -5.068340
  O     -1.514960   -0.400510   -3.063420
  O     -0.377930   -0.627560   -5.201140
  H      1.518400    1.121970   -4.479460
  H      1.050620    1.089710   -2.796250
  H      1.364500    2.616060   -3.586680

 Total Charge           Charge          ....   -1
 Multiplicity           Mult            ....    1
 Number of Electrons    NEL             ....   58
 Basis Dimension        Dim             ....  176

ORBITAL ENERGIES
----------------

  NO   OCC          E(Eh)            E(eV)
   0   2.0000     -89.936466     -2447.2956
   1   2.0000     -19.422033      -528.5004
   2   2.0000     -19.418639      -528.4080
   3   2.0000     -19.402838      -527.9781
   4   2.0000     -10.410673      -283.2888
   5   2.0000     -10.407688      -283.2076
   6   2.0000      -8.259926      -224.7640
   7   2.0000      -6.185299      -168.3105
   8   2.0000      -6.185034      -168.3033
   9   2.0000      -6.184809      -168.2972
  10   2.0000      -1.051969       -28.6255
  11   2.0000      -0.911830       -24.8122
  12   2.0000      -0.879360       -23.9286
  13   2.0000      -0.719748       -19.5853
  14   2.0000      -0.588856       -16.0236
  15   2.0000      -0.462460       -12.5842
  16   2.0000      -0.397137       -10.8067
  17   2.0000      -0.387915       -10.5557
  18   2.0000      -0.355528        -9.6744
  19   2.0000      -0.344831        -9.3833
  20   2.0000      -0.330442        -8.9918
  21   2.0000      -0.293833        -7.9956
  22   2.0000      -0.278402        -7.5757
  23   2.0000      -0.228765        -6.2250
  24   2.0000      -0.227077        -6.1791
  25   2.0000      -0.192140        -5.2284
  26   2.0000      -0.176858        -4.8125
  27   2.0000      -0.162858        -4.4316
  28   2.0000      -0.137814        -3.7501
  29   0.0000       0.157954         4.2982
  30   0.0000       0.178439         4.8556
  31   0.0000       0.182069         4.9543
  32   0.0000       0.189411         5.1541
  33   0.0000       0.209199         5.6926

MULLIKEN ATOMIC CHARGES
-----------------------
   0 C :    0.720759
   1 C :   -0.323957
   2 S :    1.441102
   3 H :   -0.068026
   4 H :   -0.066910
   5 O :   -0.816562
   6 O :   -0.871124
   7 O :   -0.833546
   8 H :   -0.042549
   9 H :   -0.047476
  10 H :   -0.091711
Sum of atomic charges:   -1.0000000

LOEWDIN ATOMIC CHARGES
----------------------
   0 C :    0.105984
   1 C :   -0.133980
   2 S :    0.893335
   3 H :   -0.003485
   4 H :    0.003537
   5 O :   -0.584395
   6 O :   -0.617529
   7 O :   -0.587673
   8 H :   -0.024308
   9 H :   -0.016746
  10 H :   -0.034741

  Mayer bond orders larger than 0.100000
B(  0-C ,  1-C ) :   1.2914 B(  0-C ,  8-H ) :   0.8294 B(  0-C ,  9-H ) :   0.8231
B(  0-C , 10-H ) :   0.7571 B(  1-C ,  2-S ) :   0.8954 B(  1-C ,  3-H ) :   1.0073
B(  1-C ,  4-H ) :   0.9974 B(  1-C ,  8-H ) :   0.1982 B(  1-C ,  9-H ) :   0.1906
B(  1-C , 10-H ) :   0.2062 B(  2-S ,  5-O ) :   1.3122 B(  2-S ,  6-O ) :   1.2465
B(  2-S ,  7-O ) :   1.2760

Dispersion correction           -0.000146042
FINAL SINGLE POINT ENERGY      -702.625432990841

DIPOLE MOMENT
-------------
                                X             Y             Z
Electronic contribution:     -5.54435      -5.23444      -1.92928
Nuclear contribution   :      6.64523       6.80157       2.07300
                        -----------------------------------------
Total Dipole Moment    :      1.10088       1.56713       0.14372
                        -----------------------------------------
Magnitude (a.u.)       :      1.92054
Magnitude (Debye)      :      4.88164

Rotational constants in cm-1:     0.163070     0.082807     0.081541
Rotational constants in MHz :  4888.719902  2482.497026  2444.541148

                             ****ORCA TERMINATED NORMALLY****
TOTAL RUN TIME: 0 days 0 hours 0 minutes 23 seconds 524 msec
