                         Program Version 5.0.0 -  RELEASE  -
|  1> !M062X D3Zero RIJCOSX def2-SVPD def2/J TightSCF
|  2> *xyz 1 1
|  3> C          1.36401        0.46874       -2.81376
|  4> N          0.42884        0.32140       -1.65531
|  5> C          0.96805        1.63064       -3.71575
|  6> H          0.74858       -0.40054       -1.00134
|  7> H         -0.46105        0.02333       -2.07773
|  8> H          0.31026        1.20137       -1.13495
|  9> H          1.29485       -0.46874       -3.36468
| 10> H          2.37622        0.59740       -2.43149
| 11> H          1.65923        1.70213       -4.52942
| 12> H          0.98421        2.54058       -3.15304
| 13> H         -0.01744        1.46536       -4.09838
| 14> *
| 15> %MaxCore 64000
| 16>
| 17> %pal nprocs 4
| 18> end
| 19>
| 20> %scf
| 21>   MaxIter 150
| 22> end
| 23>
| 24>
| 25>                          ****END OF INPUT****

CARTESIAN COORDINATES (ANGSTROEM)
---------------------------------
  C      1.364010    0.468740   -2.813760
  N      0.428840    0.321400   -1.655310
  C      0.968050    1.630640   -3.715750
  H      0.748580   -0.400540   -1.001340
  H     -0.461050    0.023330   -2.077730
  H      0.310260    1.201370   -1.134950
  H      1.294850   -0.468740   -3.364680
  H      2.376220    0.597400   -2.431490
  H      1.659230    1.702130   -4.529420
  H      0.984210    2.540580   -3.153040
  H     -0.017440    1.465360   -4.098380

 Total Charge           Charge          ....    1
 Multiplicity           Mult            ....    1
 Number of Electrons    NEL             ....   26
 Basis Dimension        Dim             ....  124

ORBITAL ENERGIES
----------------

  NO   OCC          E(Eh)            E(eV)
   0   2.0000     -15.097104      -410.8131
   1   2.0000     -10.807167      -294.0780
   2   2.0000     -10.727881      -291.9205
   3   2.0000      -1.312631       -35.7185
   4   2.0000      -1.054166       -28.6853
   5   2.0000      -0.923923       -25.1412
   6   2.0000      -0.880047       -23.9473
   7   2.0000      -0.862990       -23.4832
   8   2.0000      -0.763388       -20.7728
   9   2.0000      -0.713734       -19.4217
  10   2.0000      -0.648815       -17.6552
  11   2.0000      -0.631332       -17.1794
  12   2.0000      -0.616563       -16.7775
  13   0.0000      -0.168562        -4.5868
  14   0.0000      -0.108138        -2.9426
  15   0.0000      -0.105938        -2.8827
  16   0.0000      -0.099337        -2.7031
  17   0.0000      -0.068386        -1.8609

MULLIKEN ATOMIC CHARGES
-----------------------
   0 C :    0.134741
   1 N :   -0.877245
   2 C :    0.552175
   3 H :    0.359266
   4 H :    0.459863
   5 H :    0.415914
   6 H :   -0.034731
   7 H :   -0.085206
   8 H :    0.027869
   9 H :    0.015642
  10 H :    0.031712
Sum of atomic charges:    1.0000000

LOEWDIN ATOMIC CHARGES
----------------------
   0 C :    0.054003
   1 N :    0.323033
   2 C :    0.174646
   3 H :    0.107158
   4 H :    0.107208
   5 H :    0.110263
   6 H :    0.052934
   7 H :    0.052122
   8 H :    0.016807
   9 H :    0.000888
  10 H :    0.000938

  Mayer bond orders larger than 0.100000
B(  0-C ,  1-N ) :   0.7630 B(  0-C ,  2-C ) :   1.3140 B(  0-C ,  6-H ) :   0.9300
B(  0-C ,  7-H ) :   0.9905 B(  0-C ,  8-H ) :   0.1839 B(  0-C ,  9-H ) :   0.1428
B(  0-C , 10-H ) :   0.1478 B(  1-N ,  3-H ) :   0.7629 B(  1-N ,  4-H ) :   0.6442
B(  1-N ,  5-H ) :   0.6998 B(  1-N ,  6-H ) :   0.1196 B(  2-C ,  8-H ) :   0.8256
B(  2-C ,  9-H ) :   0.8485 B(  2-C , 10-H ) :   0.8371

Dispersion correction           -0.000052849
FINAL SINGLE POINT ENERGY      -135.358951536060

DIPOLE MOMENT
-------------
                                X             Y             Z
Electronic contribution:     -0.34016      -0.94372       1.56049
Nuclear contribution   :     -0.20470       0.31427      -0.31587
                        -----------------------------------------
Total Dipole Moment    :     -0.54486      -0.62945       1.24462
                        -----------------------------------------
Magnitude (a.u.)       :      1.49738
Magnitude (Debye)      :      3.80605

Rotational constants in cm-1:     1.011480     0.279280     0.248378
Rotational constants in MHz : 30323.408050  8372.602834  7446.185305

                             ****ORCA TERMINATED NORMALLY****
TOTAL RUN TIME: 0 days 0 hours 0 minutes 12 seconds 180 msec
