                         Program Version 5.0.0 -  RELEASE  -
|  1> !M062X D3Zero RIJCOSX def2-SVPD def2/J TightSCF
|  2> *xyz 0 1
|  3> C          0.96805        1.63064       -3.71575
|  4> C         -0.50835        1.72268       -4.12430
|  5> S         -1.32861        0.14674       -4.43578
|  6> H         -0.59151        2.29496       -5.04722
|  7> H         -1.11411        2.23561       -3.37436
|  8> F         -2.57135        0.47573       -5.06834
|  9> O         -1.51496       -0.40051       -3.06342
| 10> O         -0.37793       -0.62756       -5.20114
| 11> H          1.51840        1.12197       -4.47946
| 12> H          1.05062        1.08971       -2.79625
| 13> H          1.36450        2.61606       -3.58668
| 14> *
| 15> %MaxCore 64000
| 16>
| 17> %pal nprocs 4
| 18> end
| 19>
| 20> %scf
| 21>   MaxIter 150
| 22> end
| 23>
| 24>
| 25>                          ****END OF INPUT****

CARTESIAN COORDINATES (ANGSTROEM)
---------------------------------
  C      0.968050    1.630640   -3.715750
  C     -0.508350    1.722680   -4.124300
  S     -1.328610    0.146740   -4.435780
  H     -0.591510    2.294960   -5.047220
  H     -1.114110    2.235610   -3.374360
  F     -2.571350    0.475730   -5.068340
  O     -1.514960   -0.400510   -3.063420
  O     -0.377930   -0.627560   -5.201140
  H      1.518400    1.121970   -4.479460
  H      1.050620    1.089710   -2.796250
  H      1.364500    2.616060   -3.586680

 Total Charge           Charge          ....    0
 Multiplicity           Mult            ....    1
 Number of Electrons    NEL             ....   58
 Basis Dimension        Dim             ....  176

ORBITAL ENERGIES
----------------

  NO   OCC          E(Eh)            E(eV)
   0   2.0000     -90.199237     -2454.4460
   1   2.0000     -25.386980      -690.8148
   2   2.0000     -19.655023      -534.8404
   3   2.0000     -19.638924      -534.4023
   4   2.0000     -10.615118      -288.8520
   5   2.0000     -10.571962      -287.6777
   6   2.0000      -8.523794      -231.9442
   7   2.0000      -6.452215      -175.5737
   8   2.0000      -6.446805      -175.4265
   9   2.0000      -6.445851      -175.4005
  10   2.0000      -1.528904       -41.6036
  11   2.0000      -1.226187       -33.3662
  12   2.0000      -1.115945       -30.3664
  13   2.0000      -0.913843       -24.8669
  14   2.0000      -0.841049       -22.8861
  15   2.0000      -0.768692       -20.9172
  16   2.0000      -0.698432       -19.0053
  17   2.0000      -0.689134       -18.7523
  18   2.0000      -0.642909       -17.4945
  19   2.0000      -0.567794       -15.4505
  20   2.0000      -0.565446       -15.3866
  21   2.0000      -0.522804       -14.2262
  22   2.0000      -0.501933       -13.6583
  23   2.0000      -0.476262       -12.9597
  24   2.0000      -0.459785       -12.5114
  25   2.0000      -0.453999       -12.3539
  26   2.0000      -0.407993       -11.1021
  27   2.0000      -0.387767       -10.5517
  28   2.0000      -0.379975       -10.3396
  29   0.0000       0.008593         0.2338
  30   0.0000       0.035740         0.9725
  31   0.0000       0.042295         1.1509
  32   0.0000       0.045011         1.2248
  33   0.0000       0.072665         1.9773

MULLIKEN ATOMIC CHARGES
-----------------------
   0 C :    0.684057
   1 C :   -0.413500
   2 S :    1.608186
   3 H :    0.013541
   4 H :    0.012001
   5 F :   -0.423738
   6 O :   -0.730565
   7 O :   -0.692817
   8 H :   -0.005380
   9 H :   -0.013720
  10 H :   -0.038068
Sum of atomic charges:    0.0000000

LOEWDIN ATOMIC CHARGES
----------------------
   0 C :    0.152121
   1 C :   -0.096921
   2 S :    1.158277
   3 H :    0.014469
   4 H :    0.022787
   5 F :   -0.261849
   6 O :   -0.502823
   7 O :   -0.477183
   8 H :   -0.006387
   9 H :    0.000977
  10 H :   -0.003467

  Mayer bond orders larger than 0.100000
B(  0-C ,  1-C ) :   1.3589 B(  0-C ,  8-H ) :   0.8305 B(  0-C ,  9-H ) :   0.8291
B(  0-C , 10-H ) :   0.7740 B(  1-C ,  2-S ) :   0.9464 B(  1-C ,  3-H ) :   0.9849
B(  1-C ,  4-H ) :   0.9918 B(  1-C ,  8-H ) :   0.1903 B(  1-C ,  9-H ) :   0.1822
B(  1-C , 10-H ) :   0.1945 B(  2-S ,  5-F ) :   0.6429 B(  2-S ,  6-O ) :   1.4630
B(  2-S ,  7-O ) :   1.5018

Dispersion correction           -0.000141148
FINAL SINGLE POINT ENERGY      -727.101424230201

DIPOLE MOMENT
-------------
                                X             Y             Z
Electronic contribution:     -8.28578      -5.06671      -3.23494
Nuclear contribution   :      8.31000       6.74109       2.87442
                        -----------------------------------------
Total Dipole Moment    :      0.02423       1.67437      -0.36052
                        -----------------------------------------
Magnitude (a.u.)       :      1.71292
Magnitude (Debye)      :      4.35390

Rotational constants in cm-1:     0.158705     0.080192     0.078179
Rotational constants in MHz :  4757.865601  2404.095079  2343.752507

                             ****ORCA TERMINATED NORMALLY****
TOTAL RUN TIME: 0 days 0 hours 0 minutes 25 seconds 243 msec
