                         Program Version 5.0.0 -  RELEASE  -
|  1> !M062X D3Zero RIJCOSX def2-SVPD def2/J TightSCF
|  2> *xyz 0 1
|  3> C          1.36401        0.46874       -2.81376
|  4> C          0.42884        0.32140       -1.65531
|  5> C          0.96805        1.63064       -3.71575
|  6> H          0.74858       -0.40054       -1.00134
|  7> H         -0.46105        0.02333       -2.07773
|  8> H          0.31026        1.20137       -1.13495
|  9> H          1.29485       -0.46874       -3.36468
| 10> H          2.37622        0.59740       -2.43149
| 11> H          1.65923        1.70213       -4.52942
| 12> H          0.98421        2.54058       -3.15304
| 13> H         -0.01744        1.46536       -4.09838
| 14> *
| 15> %MaxCore 64000
| 16>
| 17> %pal nprocs 4
| 18> end
| 19>
| 20> %scf
| 21>   MaxIter 150
| 22> end
| 23>
| 24>
| 25>                          ****END OF INPUT****

CARTESIAN COORDINATES (ANGSTROEM)
---------------------------------
  C      1.364010    0.468740   -2.813760
  C      0.428840    0.321400   -1.655310
  C      0.968050    1.630640   -3.715750
  H      0.748580   -0.400540   -1.001340
  H     -0.461050    0.023330   -2.077730
  H      0.310260    1.201370   -1.134950
  H      1.294850   -0.468740   -3.364680
  H      2.376220    0.597400   -2.431490
  H      1.659230    1.702130   -4.529420
  H      0.984210    2.540580   -3.153040
  H     -0.017440    1.465360   -4.098380

 Total Charge           Charge          ....    0
 Multiplicity           Mult            ....    1
 Number of Electrons    NEL             ....   26
 Basis Dimension        Dim             ....  124

ORBITAL ENERGIES
----------------

  NO   OCC          E(Eh)            E(eV)
   0   2.0000     -10.536816      -286.7213
   1   2.0000     -10.529087      -286.5110
   2   2.0000     -10.512566      -286.0615
   3   2.0000      -0.882531       -24.0149
   4   2.0000      -0.774062       -21.0633
   5   2.0000      -0.660843       -17.9825
   6   2.0000      -0.542184       -14.7536
   7   2.0000      -0.514056       -13.9882
   8   2.0000      -0.468156       -12.7392
   9   2.0000      -0.455903       -12.4058
  10   2.0000      -0.396941       -10.8013
  11   2.0000      -0.392776       -10.6880
  12   2.0000      -0.389159       -10.5896
  13   0.0000       0.045204         1.2301
  14   0.0000       0.070236         1.9112
  15   0.0000       0.079202         2.1552
  16   0.0000       0.110652         3.0110
  17   0.0000       0.127213         3.4616

MULLIKEN ATOMIC CHARGES
-----------------------
   0 C :   -0.666773
   1 C :    0.893602
   2 C :    0.598415
   3 H :   -0.203612
   4 H :   -0.111312
   5 H :   -0.178401
   6 H :   -0.058573
   7 H :   -0.141176
   8 H :   -0.080806
   9 H :   -0.020397
  10 H :   -0.030967
Sum of atomic charges:   -0.0000000

LOEWDIN ATOMIC CHARGES
----------------------
   0 C :   -0.124410
   1 C :    0.116912
   2 C :    0.116097
   3 H :   -0.034642
   4 H :   -0.030052
   5 H :   -0.029663
   6 H :    0.021091
   7 H :    0.018641
   8 H :   -0.021357
   9 H :   -0.016676
  10 H :   -0.015941

  Mayer bond orders larger than 0.100000
B(  0-C ,  1-C ) :   1.2756 B(  0-C ,  2-C ) :   1.2607 B(  0-C ,  3-H ) :   0.1924
B(  0-C ,  4-H ) :   0.2696 B(  0-C ,  5-H ) :   0.1930 B(  0-C ,  6-H ) :   0.9435
B(  0-C ,  7-H ) :   1.0085 B(  0-C ,  8-H ) :   0.1754 B(  0-C ,  9-H ) :   0.1627
B(  0-C , 10-H ) :   0.1883 B(  1-C ,  3-H ) :   0.7705 B(  1-C ,  4-H ) :   0.7263
B(  1-C ,  5-H ) :   0.7738 B(  1-C ,  6-H ) :   0.1104 B(  2-C ,  8-H ) :   0.8514
B(  2-C ,  9-H ) :   0.8399 B(  2-C , 10-H ) :   0.8346

Dispersion correction           -0.000051421
FINAL SINGLE POINT ENERGY      -118.964510014607

DIPOLE MOMENT
-------------
                                X             Y             Z
Electronic contribution:      0.36637      -0.18381      -0.01745
Nuclear contribution   :     -0.35842       0.15752       0.02695
                        -----------------------------------------
Total Dipole Moment    :      0.00795      -0.02628       0.00950
                        -----------------------------------------
Magnitude (a.u.)       :      0.02906
Magnitude (Debye)      :      0.07385

Rotational constants in cm-1:     1.019891     0.293671     0.260247
Rotational constants in MHz : 30575.551403  8804.039097  7802.009261

                             ****ORCA TERMINATED NORMALLY****
TOTAL RUN TIME: 0 days 0 hours 0 minutes 13 seconds 259 msec
