                         Program Version 5.0.0 -  RELEASE  -
|  1> !M062X D3Zero RIJCOSX def2-SVPD def2/J TightSCF
|  2> *xyz 0 1
|  3> C          0.96805        1.63064       -3.71575
|  4> C         -0.50835        1.72268       -4.12430
|  5> S         -1.32861        0.14674       -4.43578
|  6> H         -0.59151        2.29496       -5.04722
|  7> H         -1.11411        2.23561       -3.37436
|  8> O         -2.57135        0.47573       -5.06834
|  9> O         -1.51496       -0.40051       -3.06342
| 10> F         -0.37793       -0.62756       -5.20114
| 11> H          1.51840        1.12197       -4.47946
| 12> H          1.05062        1.08971       -2.79625
| 13> H          1.36450        2.61606       -3.58668
| 14> *
| 15> %MaxCore 64000
| 16>
| 17> %pal nprocs 4
| 18> end
| 19>
| 20> %scf
| 21>   MaxIter 150
| 22> end
| 23>
| 24>
| 25>                          ****END OF INPUT****

CARTESIAN COORDINATES (ANGSTROEM)
---------------------------------
  C      0.968050    1.630640   -3.715750
  C     -0.508350    1.722680   -4.124300
  S     -1.328610    0.146740   -4.435780
  H     -0.591510    2.294960   -5.047220
  H     -1.114110    2.235610   -3.374360
  O     -2.571350    0.475730   -5.068340
  O     -1.514960   -0.400510   -3.063420
  F     -0.377930   -0.627560   -5.201140
  H      1.518400    1.121970   -4.479460
  H      1.050620    1.089710   -2.796250
  H      1.364500    2.616060   -3.586680

 Total Charge           Charge          ....    0
 Multiplicity           Mult            ....    1
 Number of Electrons    NEL             ....   58
 Basis Dimension        Dim             ....  176

ORBITAL ENERGIES
----------------

  NO   OCC          E(Eh)            E(eV)
   0   2.0000     -90.198605     -2454.4288
   1   2.0000     -25.380952      -690.6508
   2   2.0000     -19.658694      -534.9403
   3   2.0000     -19.639056      -534.4059
   4   2.0000     -10.614914      -288.8465
   5   2.0000     -10.577212      -287.8206
   6   2.0000      -8.523126      -231.9261
   7   2.0000      -6.451595      -175.5568
   8   2.0000      -6.446183      -175.4096
   9   2.0000      -6.445161      -175.3817
  10   2.0000      -1.517808       -41.3016
  11   2.0000      -1.232602       -33.5408
  12   2.0000      -1.119028       -30.4503
  13   2.0000      -0.917748       -24.9732
  14   2.0000      -0.833521       -22.6812
  15   2.0000      -0.769667       -20.9437
  16   2.0000      -0.696481       -18.9522
  17   2.0000      -0.689604       -18.7651
  18   2.0000      -0.634342       -17.2613
  19   2.0000      -0.570222       -15.5165
  20   2.0000      -0.559038       -15.2122
  21   2.0000      -0.532039       -14.4775
  22   2.0000      -0.512567       -13.9477
  23   2.0000      -0.482180       -13.1208
  24   2.0000      -0.465895       -12.6776
  25   2.0000      -0.454674       -12.3723
  26   2.0000      -0.409407       -11.1405
  27   2.0000      -0.389206       -10.5908
  28   2.0000      -0.382989       -10.4217
  29   0.0000       0.007833         0.2131
  30   0.0000       0.037275         1.0143
  31   0.0000       0.041841         1.1386
  32   0.0000       0.045105         1.2274
  33   0.0000       0.073065         1.9882

MULLIKEN ATOMIC CHARGES
-----------------------
   0 C :    0.694895
   1 C :   -0.382093
   2 S :    1.578291
   3 H :    0.002975
   4 H :    0.007478
   5 O :   -0.673085
   6 O :   -0.731458
   7 F :   -0.428160
   8 H :   -0.018333
   9 H :   -0.011182
  10 H :   -0.039328
Sum of atomic charges:    0.0000000

LOEWDIN ATOMIC CHARGES
----------------------
   0 C :    0.136297
   1 C :   -0.084349
   2 S :    1.154275
   3 H :    0.018018
   4 H :    0.035761
   5 O :   -0.470394
   6 O :   -0.501626
   7 F :   -0.267525
   8 H :   -0.012532
   9 H :   -0.002850
  10 H :   -0.005076

  Mayer bond orders larger than 0.100000
B(  0-C ,  1-C ) :   1.3110 B(  0-C ,  8-H ) :   0.8292 B(  0-C ,  9-H ) :   0.8386
B(  0-C , 10-H ) :   0.7713 B(  1-C ,  2-S ) :   0.9694 B(  1-C ,  3-H ) :   1.0161
B(  1-C ,  4-H ) :   0.9980 B(  1-C ,  8-H ) :   0.1795 B(  1-C ,  9-H ) :   0.1816
B(  1-C , 10-H ) :   0.1976 B(  2-S ,  5-O ) :   1.5395 B(  2-S ,  6-O ) :   1.4773
B(  2-S ,  7-F ) :   0.6264

Dispersion correction           -0.000152802
FINAL SINGLE POINT ENERGY      -727.106414198250

DIPOLE MOMENT
-------------
                                X             Y             Z
Electronic contribution:     -4.55857      -6.92381      -3.44723
Nuclear contribution   :      6.02439       7.89075       3.01280
                        -----------------------------------------
Total Dipole Moment    :      1.46582       0.96694      -0.43443
                        -----------------------------------------
Magnitude (a.u.)       :      1.80896
Magnitude (Debye)      :      4.59802

Rotational constants in cm-1:     0.153652     0.082400     0.079295
Rotational constants in MHz :  4606.361242  2470.285703  2377.214112

                             ****ORCA TERMINATED NORMALLY****
TOTAL RUN TIME: 0 days 0 hours 0 minutes 24 seconds 207 msec
