                         Program Version 5.0.0 -  RELEASE  -
|  1> !CAM-B3LYP RIJCOSX def2-SVPD def2/J TightSCF
|  2> *xyz -1 1
|  3> C         -2.79070       -0.78527        5.70281
|  4> C         -2.45380        0.05510        6.94145
|  5> C         -2.07842        1.48042        6.56410
|  6> H         -1.62558       -0.38216        7.49891
|  7> H         -3.32527        0.08775        7.59917
|  8> O         -0.90125        1.85816        6.82810
|  9> O         -2.93658        2.17731        5.96415
| 10> H         -1.94052       -0.82114        5.05412
| 11> H         -3.61590       -0.34261        5.18514
| 12> H         -3.05063       -1.77815        6.00536
| 13> *
| 14> %MaxCore 64000
| 15>
| 16> %pal nprocs 4
| 17> end
| 18>
| 19> %scf
| 20>   MaxIter 150
| 21> end
| 22>
| 23>
| 24>                          ****END OF INPUT****

CARTESIAN COORDINATES (ANGSTROEM)
---------------------------------
  C     -2.790700   -0.785270    5.702810
  C     -2.453800    0.055100    6.941450
  C     -2.078420    1.480420    6.564100
  H     -1.625580   -0.382160    7.498910
  H     -3.325270    0.087750    7.599170
  O     -0.901250    1.858160    6.828100
  O     -2.936580    2.177310    5.964150
  H     -1.940520   -0.821140    5.054120
  H     -3.615900   -0.342610    5.185140
  H     -3.050630   -1.778150    6.005360

 Total Charge           Charge          ....   -1
 Multiplicity           Mult            ....    1
 Number of Electrons    NEL             ....   40
 Basis Dimension        Dim             ....  146

ORBITAL ENERGIES
----------------

  NO   OCC          E(Eh)            E(eV)
   0   2.0000     -18.953019      -515.7379
   1   2.0000     -18.951659      -515.7009
   2   2.0000     -10.148480      -276.1542
   3   2.0000     -10.099534      -274.8223
   4   2.0000     -10.086829      -274.4766
   5   2.0000      -0.893099       -24.3024
   6   2.0000      -0.796880       -21.6842
   7   2.0000      -0.684929       -18.6379
   8   2.0000      -0.550665       -14.9844
   9   2.0000      -0.394621       -10.7382
  10   2.0000      -0.365669        -9.9504
  11   2.0000      -0.329846        -8.9756
  12   2.0000      -0.302630        -8.2350
  13   2.0000      -0.285071        -7.7572
  14   2.0000      -0.279117        -7.5952
  15   2.0000      -0.247077        -6.7233
  16   2.0000      -0.232020        -6.3136
  17   2.0000      -0.114232        -3.1084
  18   2.0000      -0.111095        -3.0231
  19   2.0000      -0.096442        -2.6243
  20   0.0000       0.182932         4.9778
  21   0.0000       0.215881         5.8744
  22   0.0000       0.230626         6.2757
  23   0.0000       0.250385         6.8133
  24   0.0000       0.275697         7.5021

MULLIKEN ATOMIC CHARGES
-----------------------
   0 C :    0.720043
   1 C :   -0.103334
   2 C :    0.365564
   3 H :   -0.123675
   4 H :   -0.075268
   5 O :   -0.678455
   6 O :   -0.697914
   7 H :   -0.144406
   8 H :   -0.107845
   9 H :   -0.154709
Sum of atomic charges:   -1.0000000

LOEWDIN ATOMIC CHARGES
----------------------
   0 C :    0.105406
   1 C :   -0.039847
   2 C :   -0.313924
   3 H :    0.000125
   4 H :    0.008594
   5 O :   -0.338425
   6 O :   -0.328381
   7 H :   -0.022102
   8 H :   -0.027670
   9 H :   -0.043776

  Mayer bond orders larger than 0.100000
B(  0-C ,  1-C ) :   1.2643 B(  0-C ,  7-H ) :   0.8197 B(  0-C ,  8-H ) :   0.8049
B(  0-C ,  9-H ) :   0.8142 B(  1-C ,  2-C ) :   1.0232 B(  1-C ,  3-H ) :   0.9373
B(  1-C ,  4-H ) :   0.8643 B(  1-C ,  7-H ) :   0.1829 B(  1-C ,  8-H ) :   0.2013
B(  1-C ,  9-H ) :   0.1704 B(  2-C ,  3-H ) :   0.1988 B(  2-C ,  5-O ) :   1.4853
B(  2-C ,  6-O ) :   1.5196

FINAL SINGLE POINT ENERGY      -267.544721853129

DIPOLE MOMENT
-------------
                                X             Y             Z
Electronic contribution:      1.60802       5.47284       0.68771
Nuclear contribution   :     -2.24498      -7.51881      -0.57245
                        -----------------------------------------
Total Dipole Moment    :     -0.63696      -2.04597       0.11525
                        -----------------------------------------
Magnitude (a.u.)       :      2.14592
Magnitude (Debye)      :      5.45450

Rotational constants in cm-1:     0.305589     0.135336     0.107479
Rotational constants in MHz :  9161.317320  4057.276612  3222.126231

                             ****ORCA TERMINATED NORMALLY****
TOTAL RUN TIME: 0 days 0 hours 0 minutes 20 seconds 884 msec
