                         Program Version 5.0.0 -  RELEASE  -
|  1> !CAM-B3LYP RIJCOSX def2-SVPD def2/J TightSCF
|  2> *xyz 1 1
|  3> C         -0.69912        3.48945        3.75516
|  4> H         -0.96672        4.34901        3.14049
|  5> N         -1.08067        3.79296        5.15686
|  6> C          0.77696        3.13839        3.61741
|  7> H         -1.33146        2.65651        3.44632
|  8> H         -0.87449        4.76274        5.42734
|  9> H         -0.68079        3.13476        5.83900
| 10> H         -2.05755        3.53169        5.34620
| 11> H          0.99957        2.92898        2.59199
| 12> H          0.99576        2.27685        4.21303
| 13> H          1.37223        3.96279        3.95046
| 14> *
| 15> %MaxCore 64000
| 16>
| 17> %pal nprocs 4
| 18> end
| 19>
| 20> %scf
| 21>   MaxIter 150
| 22> end
| 23>
| 24>
| 25>                          ****END OF INPUT****

CARTESIAN COORDINATES (ANGSTROEM)
---------------------------------
  C     -0.699120    3.489450    3.755160
  H     -0.966720    4.349010    3.140490
  N     -1.080670    3.792960    5.156860
  C      0.776960    3.138390    3.617410
  H     -1.331460    2.656510    3.446320
  H     -0.874490    4.762740    5.427340
  H     -0.680790    3.134760    5.839000
  H     -2.057550    3.531690    5.346200
  H      0.999570    2.928980    2.591990
  H      0.995760    2.276850    4.213030
  H      1.372230    3.962790    3.950460

 Total Charge           Charge          ....    1
 Multiplicity           Mult            ....    1
 Number of Electrons    NEL             ....   26
 Basis Dimension        Dim             ....  124

ORBITAL ENERGIES
----------------

  NO   OCC          E(Eh)            E(eV)
   0   2.0000     -14.742076      -401.1523
   1   2.0000     -10.514037      -286.1015
   2   2.0000     -10.433840      -283.9192
   3   2.0000      -1.293537       -35.1989
   4   2.0000      -1.043600       -28.3978
   5   2.0000      -0.920639       -25.0518
   6   2.0000      -0.889631       -24.2081
   7   2.0000      -0.840271       -22.8649
   8   2.0000      -0.770086       -20.9551
   9   2.0000      -0.714082       -19.4312
  10   2.0000      -0.649719       -17.6798
  11   2.0000      -0.635217       -17.2851
  12   2.0000      -0.617026       -16.7901
  13   0.0000      -0.160714        -4.3733
  14   0.0000      -0.099613        -2.7106
  15   0.0000      -0.097383        -2.6499
  16   0.0000      -0.089125        -2.4252
  17   0.0000      -0.059952        -1.6314

MULLIKEN ATOMIC CHARGES
-----------------------
   0 C :    0.359904
   1 H :   -0.155590
   2 N :   -0.745522
   3 C :    0.805557
   4 H :   -0.113456
   5 H :    0.383919
   6 H :    0.357757
   7 H :    0.338276
   8 H :   -0.077587
   9 H :   -0.101588
  10 H :   -0.051669
Sum of atomic charges:    1.0000000

LOEWDIN ATOMIC CHARGES
----------------------
   0 C :    0.053121
   1 H :    0.054336
   2 N :    0.324278
   3 C :    0.173369
   4 H :    0.052246
   5 H :    0.115283
   6 H :    0.105491
   7 H :    0.107186
   8 H :    0.014477
   9 H :   -0.000977
  10 H :    0.001190

  Mayer bond orders larger than 0.100000
B(  0-C ,  1-H ) :   0.8989 B(  0-C ,  2-N ) :   0.7455 B(  0-C ,  3-C ) :   1.3058
B(  0-C ,  4-H ) :   0.8889 B(  0-C ,  8-H ) :   0.1952 B(  0-C ,  9-H ) :   0.1849
B(  0-C , 10-H ) :   0.1641 B(  1-H ,  2-N ) :   0.1225 B(  2-N ,  5-H ) :   0.7379
B(  2-N ,  6-H ) :   0.7845 B(  2-N ,  7-H ) :   0.7949 B(  3-C ,  8-H ) :   0.7995
B(  3-C ,  9-H ) :   0.8092 B(  3-C , 10-H ) :   0.7858

FINAL SINGLE POINT ENERGY      -135.357598145691

DIPOLE MOMENT
-------------
                                X             Y             Z
Electronic contribution:     -1.33584       0.57370       1.10485
Nuclear contribution   :      0.33986      -0.24565       0.10678
                        -----------------------------------------
Total Dipole Moment    :     -0.99599       0.32805       1.21163
                        -----------------------------------------
Magnitude (a.u.)       :      1.60239
Magnitude (Debye)      :      4.07295

Rotational constants in cm-1:     1.016237     0.277523     0.247812
Rotational constants in MHz : 30466.024354  8319.937961  7429.230177

                             ****ORCA TERMINATED NORMALLY****
TOTAL RUN TIME: 0 days 0 hours 0 minutes 15 seconds 513 msec
