                         Program Version 5.0.0 -  RELEASE  -
|  1> !CAM-B3LYP RIJCOSX def2-SVPD def2/J TightSCF
|  2> *xyz 0 1
|  3> C         -2.79070       -0.78527        5.70281
|  4> C         -2.45380        0.05510        6.94145
|  5> C         -2.07842        1.48042        6.56410
|  6> H         -1.62558       -0.38216        7.49891
|  7> H         -3.32527        0.08775        7.59917
|  8> F         -0.90125        1.85816        6.82810
|  9> O         -2.93658        2.17731        5.96415
| 10> H         -1.94052       -0.82114        5.05412
| 11> H         -3.61590       -0.34261        5.18514
| 12> H         -3.05063       -1.77815        6.00536
| 13> *
| 14> %MaxCore 64000
| 15>
| 16> %pal nprocs 4
| 17> end
| 18>
| 19> %scf
| 20>   MaxIter 150
| 21> end
| 22>
| 23>
| 24>                          ****END OF INPUT****

CARTESIAN COORDINATES (ANGSTROEM)
---------------------------------
  C     -2.790700   -0.785270    5.702810
  C     -2.453800    0.055100    6.941450
  C     -2.078420    1.480420    6.564100
  H     -1.625580   -0.382160    7.498910
  H     -3.325270    0.087750    7.599170
  F     -0.901250    1.858160    6.828100
  O     -2.936580    2.177310    5.964150
  H     -1.940520   -0.821140    5.054120
  H     -3.615900   -0.342610    5.185140
  H     -3.050630   -1.778150    6.005360

 Total Charge           Charge          ....    0
 Multiplicity           Mult            ....    1
 Number of Electrons    NEL             ....   40
 Basis Dimension        Dim             ....  146

ORBITAL ENERGIES
----------------

  NO   OCC          E(Eh)            E(eV)
   0   2.0000     -24.845869      -676.0905
   1   2.0000     -19.227834      -523.2160
   2   2.0000     -10.447960      -284.3034
   3   2.0000     -10.294988      -280.1409
   4   2.0000     -10.268336      -279.4156
   5   2.0000      -1.386442       -37.7270
   6   2.0000      -1.110034       -30.2056
   7   2.0000      -0.882835       -24.0232
   8   2.0000      -0.767163       -20.8756
   9   2.0000      -0.716351       -19.4929
  10   2.0000      -0.627830       -17.0841
  11   2.0000      -0.612402       -16.6643
  12   2.0000      -0.584168       -15.8960
  13   2.0000      -0.539758       -14.6876
  14   2.0000      -0.509229       -13.8568
  15   2.0000      -0.472782       -12.8650
  16   2.0000      -0.452240       -12.3061
  17   2.0000      -0.445112       -12.1121
  18   2.0000      -0.418550       -11.3893
  19   2.0000      -0.368059       -10.0154
  20   0.0000       0.010974         0.2986
  21   0.0000       0.043495         1.1835
  22   0.0000       0.073068         1.9883
  23   0.0000       0.084260         2.2928
  24   0.0000       0.104790         2.8515

MULLIKEN ATOMIC CHARGES
-----------------------
   0 C :    0.750129
   1 C :   -0.156874
   2 C :    0.655673
   3 H :   -0.091442
   4 H :   -0.012992
   5 F :   -0.356043
   6 O :   -0.460843
   7 H :   -0.122449
   8 H :   -0.091196
   9 H :   -0.113964
Sum of atomic charges:    0.0000000

LOEWDIN ATOMIC CHARGES
----------------------
   0 C :    0.145433
   1 C :    0.005454
   2 C :   -0.014205
   3 H :    0.023251
   4 H :    0.040774
   5 F :   -0.038466
   6 O :   -0.132606
   7 H :   -0.008740
   8 H :   -0.008354
   9 H :   -0.012541

  Mayer bond orders larger than 0.100000
B(  0-C ,  1-C ) :   1.2944 B(  0-C ,  7-H ) :   0.8156 B(  0-C ,  8-H ) :   0.8054
B(  0-C ,  9-H ) :   0.8193 B(  1-C ,  2-C ) :   1.0866 B(  1-C ,  3-H ) :   0.9418
B(  1-C ,  4-H ) :   0.8600 B(  1-C ,  7-H ) :   0.1695 B(  1-C ,  8-H ) :   0.1817
B(  1-C ,  9-H ) :   0.1620 B(  2-C ,  3-H ) :   0.1078 B(  2-C ,  5-F ) :   0.7735
B(  2-C ,  6-O ) :   1.8574

FINAL SINGLE POINT ENERGY      -292.079681241857

DIPOLE MOMENT
-------------
                                X             Y             Z
Electronic contribution:      3.96633       7.38458       1.50497
Nuclear contribution   :     -3.69486      -8.49563      -1.04945
                        -----------------------------------------
Total Dipole Moment    :      0.27148      -1.11105       0.45551
                        -----------------------------------------
Magnitude (a.u.)       :      1.23111
Magnitude (Debye)      :      3.12923

Rotational constants in cm-1:     0.293725     0.129218     0.102393
Rotational constants in MHz :  8805.653529  3873.869810  3069.666716

                             ****ORCA TERMINATED NORMALLY****
TOTAL RUN TIME: 0 days 0 hours 0 minutes 21 seconds 952 msec
