                         Program Version 5.0.0 -  RELEASE  -
|  1> !CAM-B3LYP RIJCOSX def2-SVPD def2/J TightSCF
|  2> *xyz 0 1
|  3> C         -0.69912        3.48945        3.75516
|  4> H         -0.96672        4.34901        3.14049
|  5> C         -1.08067        3.79296        5.15686
|  6> C          0.77696        3.13839        3.61741
|  7> H         -1.33146        2.65651        3.44632
|  8> H         -0.87449        4.76274        5.42734
|  9> H         -0.68079        3.13476        5.83900
| 10> H         -2.05755        3.53169        5.34620
| 11> H          0.99957        2.92898        2.59199
| 12> H          0.99576        2.27685        4.21303
| 13> H          1.37223        3.96279        3.95046
| 14> *
| 15> %MaxCore 64000
| 16>
| 17> %pal nprocs 4
| 18> end
| 19>
| 20> %scf
| 21>   MaxIter 150
| 22> end
| 23>
| 24>
| 25>                          ****END OF INPUT****

CARTESIAN COORDINATES (ANGSTROEM)
---------------------------------
  C     -0.699120    3.489450    3.755160
  H     -0.966720    4.349010    3.140490
  C     -1.080670    3.792960    5.156860
  C      0.776960    3.138390    3.617410
  H     -1.331460    2.656510    3.446320
  H     -0.874490    4.762740    5.427340
  H     -0.680790    3.134760    5.839000
  H     -2.057550    3.531690    5.346200
  H      0.999570    2.928980    2.591990
  H      0.995760    2.276850    4.213030
  H      1.372230    3.962790    3.950460

 Total Charge           Charge          ....    0
 Multiplicity           Mult            ....    1
 Number of Electrons    NEL             ....   26
 Basis Dimension        Dim             ....  124

ORBITAL ENERGIES
----------------

  NO   OCC          E(Eh)            E(eV)
   0   2.0000     -10.245544      -278.7954
   1   2.0000     -10.237117      -278.5661
   2   2.0000     -10.220346      -278.1098
   3   2.0000      -0.868496       -23.6330
   4   2.0000      -0.766287       -20.8517
   5   2.0000      -0.660315       -17.9681
   6   2.0000      -0.543919       -14.8008
   7   2.0000      -0.509771       -13.8716
   8   2.0000      -0.468412       -12.7461
   9   2.0000      -0.463920       -12.6239
  10   2.0000      -0.405839       -11.0434
  11   2.0000      -0.393611       -10.7107
  12   2.0000      -0.390378       -10.6227
  13   0.0000       0.056048         1.5251
  14   0.0000       0.083494         2.2720
  15   0.0000       0.090684         2.4676
  16   0.0000       0.116961         3.1827
  17   0.0000       0.137863         3.7514

MULLIKEN ATOMIC CHARGES
-----------------------
   0 C :   -0.380868
   1 H :   -0.196839
   2 C :    1.113513
   3 C :    0.826772
   4 H :   -0.118886
   5 H :   -0.285137
   6 H :   -0.307036
   7 H :   -0.269895
   8 H :   -0.156065
   9 H :   -0.098941
  10 H :   -0.126617
Sum of atomic charges:   -0.0000000

LOEWDIN ATOMIC CHARGES
----------------------
   0 C :   -0.113462
   1 H :    0.020847
   2 C :    0.109788
   3 C :    0.117449
   4 H :    0.019994
   5 H :   -0.025999
   6 H :   -0.035194
   7 H :   -0.036590
   8 H :   -0.022955
   9 H :   -0.017629
  10 H :   -0.016249

  Mayer bond orders larger than 0.100000
B(  0-C ,  1-H ) :   0.9277 B(  0-C ,  2-C ) :   1.2800 B(  0-C ,  3-C ) :   1.2449
B(  0-C ,  4-H ) :   0.8865 B(  0-C ,  5-H ) :   0.2382 B(  0-C ,  6-H ) :   0.2085
B(  0-C ,  7-H ) :   0.2221 B(  0-C ,  8-H ) :   0.2076 B(  0-C ,  9-H ) :   0.1682
B(  0-C , 10-H ) :   0.1922 B(  1-H ,  2-C ) :   0.1130 B(  2-C ,  4-H ) :   0.1221
B(  2-C ,  5-H ) :   0.6635 B(  2-C ,  6-H ) :   0.5872 B(  2-C ,  7-H ) :   0.5736
B(  3-C ,  8-H ) :   0.7837 B(  3-C ,  9-H ) :   0.8086 B(  3-C , 10-H ) :   0.7944
B(  6-H ,  7-H ) :   0.2815

FINAL SINGLE POINT ENERGY      -118.959794666329

DIPOLE MOMENT
-------------
                                X             Y             Z
Electronic contribution:     -0.14380       0.12000      -0.39604
Nuclear contribution   :      0.10024      -0.14218       0.41628
                        -----------------------------------------
Total Dipole Moment    :     -0.04355      -0.02218       0.02025
                        -----------------------------------------
Magnitude (a.u.)       :      0.05291
Magnitude (Debye)      :      0.13448

Rotational constants in cm-1:     1.024179     0.291605     0.259489
Rotational constants in MHz : 30704.103454  8742.106283  7779.285909

                             ****ORCA TERMINATED NORMALLY****
TOTAL RUN TIME: 0 days 0 hours 0 minutes 15 seconds 596 msec
