                         Program Version 5.0.0 -  RELEASE  -
|  1> !CAM-B3LYP RIJCOSX def2-SVPD def2/J TightSCF
|  2> *xyz 0 1
|  3> C         -2.79070       -0.78527        5.70281
|  4> C         -2.45380        0.05510        6.94145
|  5> C         -2.07842        1.48042        6.56410
|  6> H         -1.62558       -0.38216        7.49891
|  7> H         -3.32527        0.08775        7.59917
|  8> O         -0.90125        1.85816        6.82810
|  9> F         -2.93658        2.17731        5.96415
| 10> H         -1.94052       -0.82114        5.05412
| 11> H         -3.61590       -0.34261        5.18514
| 12> H         -3.05063       -1.77815        6.00536
| 13> *
| 14> %MaxCore 64000
| 15>
| 16> %pal nprocs 4
| 17> end
| 18>
| 19> %scf
| 20>   MaxIter 150
| 21> end
| 22>
| 23>
| 24>                          ****END OF INPUT****

CARTESIAN COORDINATES (ANGSTROEM)
---------------------------------
  C     -2.790700   -0.785270    5.702810
  C     -2.453800    0.055100    6.941450
  C     -2.078420    1.480420    6.564100
  H     -1.625580   -0.382160    7.498910
  H     -3.325270    0.087750    7.599170
  O     -0.901250    1.858160    6.828100
  F     -2.936580    2.177310    5.964150
  H     -1.940520   -0.821140    5.054120
  H     -3.615900   -0.342610    5.185140
  H     -3.050630   -1.778150    6.005360

 Total Charge           Charge          ....    0
 Multiplicity           Mult            ....    1
 Number of Electrons    NEL             ....   40
 Basis Dimension        Dim             ....  146

ORBITAL ENERGIES
----------------

  NO   OCC          E(Eh)            E(eV)
   0   2.0000     -24.849251      -676.1825
   1   2.0000     -19.225955      -523.1648
   2   2.0000     -10.447743      -284.2975
   3   2.0000     -10.294635      -280.1313
   4   2.0000     -10.272522      -279.5295
   5   2.0000      -1.391891       -37.8753
   6   2.0000      -1.105132       -30.0722
   7   2.0000      -0.886054       -24.1108
   8   2.0000      -0.764918       -20.8145
   9   2.0000      -0.723122       -19.6772
  10   2.0000      -0.632193       -17.2028
  11   2.0000      -0.619496       -16.8573
  12   2.0000      -0.577735       -15.7210
  13   2.0000      -0.540217       -14.7000
  14   2.0000      -0.509614       -13.8673
  15   2.0000      -0.475728       -12.9452
  16   2.0000      -0.456360       -12.4182
  17   2.0000      -0.447442       -12.1755
  18   2.0000      -0.420388       -11.4393
  19   2.0000      -0.361784        -9.8447
  20   0.0000       0.013608         0.3703
  21   0.0000       0.041922         1.1408
  22   0.0000       0.073483         1.9996
  23   0.0000       0.083204         2.2641
  24   0.0000       0.105332         2.8662

MULLIKEN ATOMIC CHARGES
-----------------------
   0 C :    0.739193
   1 C :   -0.128888
   2 C :    0.671031
   3 H :   -0.100771
   4 H :   -0.027327
   5 O :   -0.445052
   6 F :   -0.372579
   7 H :   -0.120277
   8 H :   -0.104551
   9 H :   -0.110780
Sum of atomic charges:    0.0000000

LOEWDIN ATOMIC CHARGES
----------------------
   0 C :    0.140840
   1 C :    0.008534
   2 C :   -0.018069
   3 H :    0.034505
   4 H :    0.035316
   5 O :   -0.138366
   6 F :   -0.030519
   7 H :   -0.006667
   8 H :   -0.013548
   9 H :   -0.012025

  Mayer bond orders larger than 0.100000
B(  0-C ,  1-C ) :   1.2713 B(  0-C ,  7-H ) :   0.8299 B(  0-C ,  8-H ) :   0.7946
B(  0-C ,  9-H ) :   0.8272 B(  1-C ,  2-C ) :   1.0584 B(  1-C ,  3-H ) :   0.9603
B(  1-C ,  4-H ) :   0.8601 B(  1-C ,  7-H ) :   0.1658 B(  1-C ,  8-H ) :   0.1749
B(  1-C ,  9-H ) :   0.1614 B(  2-C ,  3-H ) :   0.1470 B(  2-C ,  5-O ) :   1.8459
B(  2-C ,  6-F ) :   0.7556 B(  5-O ,  6-F ) :   0.1078

FINAL SINGLE POINT ENERGY      -292.077293201602

DIPOLE MOMENT
-------------
                                X             Y             Z
Electronic contribution:      0.55552       7.89721       0.06016
Nuclear contribution   :     -1.47571      -8.84360      -0.10748
                        -----------------------------------------
Total Dipole Moment    :     -0.92019      -0.94640      -0.04732
                        -----------------------------------------
Magnitude (a.u.)       :      1.32085
Magnitude (Debye)      :      3.35735

Rotational constants in cm-1:     0.283081     0.133379     0.103386
Rotational constants in MHz :  8486.545774  3998.599544  3099.448040

                             ****ORCA TERMINATED NORMALLY****
TOTAL RUN TIME: 0 days 0 hours 0 minutes 22 seconds 848 msec
