                         Program Version 5.0.0 -  RELEASE  -
|  1> !CAM-B3LYP RIJCOSX def2-SVPD def2/J TightSCF xyzfile
|  2>
|  3> *xyzfile 0 1 D1.xyz
|  4>
|  5> %MaxCore 64000
|  6>
|  7> %pal nprocs 4
|  8> end
|  9>
| 10> %scf
| 11>   MaxIter 150
| 12> end
| 13>
| 14>
| 15>                          ****END OF INPUT****

CARTESIAN COORDINATES (ANGSTROEM)
---------------------------------
  C     -0.699123    3.489451    3.755163
  H     -0.966716    4.349013    3.140491
  C     -1.080669    3.792957    5.156857
  C      0.776956    3.138391    3.617408
  H     -1.331455    2.656510    3.446323
  H      1.371398    3.888342    4.149744
  H      1.046926    3.232057    2.561331
  C      1.118917    1.731170    4.115155
  H      2.200573    1.654226    4.254882
  C      0.659466    0.635182    3.153306
  H      0.677024    1.576674    5.103150
  H      1.312288    0.638870    2.274207
  H     -0.339563    0.868049    2.772876
  C      0.639957   -0.771175    3.755619
  C     -0.341821   -0.965537    4.915046
  H      1.648266   -1.028665    4.097015
  H      0.398568   -1.482386    2.958453
  H     -0.279892   -2.005646    5.252547
  C     -1.789164   -0.639231    4.557496
  H     -0.032380   -0.352918    5.765118
  H     -2.107151   -1.270102    3.719619
  H     -1.856352    0.391636    4.197604
  C     -2.790700   -0.785275    5.702812
  H     -2.867308   -1.835651    6.001675
  H     -3.774554   -0.486577    5.334807
  C     -2.453797    0.055101    6.941445
  C     -2.078419    1.480421    6.564098
  H     -1.625584   -0.382163    7.498914
  H     -3.325274    0.087746    7.599175
  H     -0.874488    4.762737    5.427344
  H     -0.680793    3.134762    5.839000
  H     -2.057550    3.531691    5.346197
  F     -0.901252    1.858156    6.828104
  O     -2.936582    2.177309    5.964151

 Total Charge           Charge          ....    0
 Multiplicity           Mult            ....    1
 Number of Electrons    NEL             ....  104
 Basis Dimension        Dim             ....  434

ORBITAL ENERGIES
----------------

  NO   OCC          E(Eh)            E(eV)
   0   2.0000     -24.855906      -676.3636
   1   2.0000     -19.233075      -523.3586
   2   2.0000     -10.457220      -284.5554
   3   2.0000     -10.294858      -280.1373
   4   2.0000     -10.276354      -279.6338
   5   2.0000     -10.261370      -279.2261
   6   2.0000     -10.258397      -279.1452
   7   2.0000     -10.252681      -278.9896
   8   2.0000     -10.245500      -278.7942
   9   2.0000     -10.242658      -278.7169
  10   2.0000     -10.235215      -278.5144
  11   2.0000     -10.225731      -278.2563
  12   2.0000     -10.173364      -276.8313
  13   2.0000      -1.402372       -38.1605
  14   2.0000      -1.123022       -30.5590
  15   2.0000      -0.911472       -24.8024
  16   2.0000      -0.886498       -24.1228
  17   2.0000      -0.855313       -23.2742
  18   2.0000      -0.826763       -22.4974
  19   2.0000      -0.783955       -21.3325
  20   2.0000      -0.761386       -20.7184
  21   2.0000      -0.734693       -19.9920
  22   2.0000      -0.699871       -19.0445
  23   2.0000      -0.683818       -18.6076
  24   2.0000      -0.642499       -17.4833
  25   2.0000      -0.639665       -17.4062
  26   2.0000      -0.630496       -17.1567
  27   2.0000      -0.611332       -16.6352
  28   2.0000      -0.592648       -16.1268
  29   2.0000      -0.553251       -15.0547
  30   2.0000      -0.549531       -14.9535
  31   2.0000      -0.531958       -14.4753
  32   2.0000      -0.529540       -14.4095
  33   2.0000      -0.507464       -13.8088
  34   2.0000      -0.499795       -13.6001
  35   2.0000      -0.485077       -13.1996
  36   2.0000      -0.477565       -12.9952
  37   2.0000      -0.468669       -12.7531
  38   2.0000      -0.458298       -12.4709
  39   2.0000      -0.448489       -12.2040
  40   2.0000      -0.435365       -11.8469
  41   2.0000      -0.428968       -11.6728
  42   2.0000      -0.418921       -11.3994
  43   2.0000      -0.411037       -11.1849
  44   2.0000      -0.405170       -11.0252
  45   2.0000      -0.394103       -10.7241
  46   2.0000      -0.388717       -10.5775
  47   2.0000      -0.377441       -10.2707
  48   2.0000      -0.373821       -10.1722
  49   2.0000      -0.362573        -9.8661
  50   2.0000      -0.360138        -9.7999
  51   2.0000      -0.332890        -9.0584
  52   0.0000       0.000790         0.0215
  53   0.0000       0.044314         1.2058
  54   0.0000       0.059427         1.6171
  55   0.0000       0.062673         1.7054
  56   0.0000       0.069114         1.8807

MULLIKEN ATOMIC CHARGES
-----------------------
   0 C :    0.231904
   1 H :   -0.390377
   2 C :    2.281546
   3 C :    0.697416
   4 H :   -0.362513
   5 H :   -0.168750
   6 H :   -0.195394
   7 C :    0.878570
   8 H :   -0.064613
   9 C :    0.187675
  10 H :   -0.905529
  11 H :   -0.321584
  12 H :   -0.205614
  13 C :    0.868455
  14 C :    0.153888
  15 H :   -0.215398
  16 H :   -0.039184
  17 H :   -0.374067
  18 C :    0.591284
  19 H :   -0.114501
  20 H :   -0.123435
  21 H :   -0.759490
  22 C :    0.623272
  23 H :   -0.256049
  24 H :    0.012366
  25 C :    0.467319
  26 C :    0.488965
  27 H :    0.074645
  28 H :   -0.246060
  29 H :   -0.356629
  30 H :   -0.939983
  31 H :   -0.449589
  32 F :   -0.544481
  33 O :   -0.524068
Sum of atomic charges:    0.0000000

LOEWDIN ATOMIC CHARGES
----------------------
   0 C :   -0.037012
   1 H :    0.022099
   2 C :    0.133492
   3 C :   -0.026014
   4 H :    0.003189
   5 H :    0.024289
   6 H :    0.017086
   7 C :   -0.014387
   8 H :    0.025191
   9 C :   -0.030989
  10 H :   -0.015852
  11 H :    0.025176
  12 H :    0.000176
  13 C :   -0.026830
  14 C :   -0.027599
  15 H :    0.023375
  16 H :    0.022425
  17 H :    0.026870
  18 C :   -0.022502
  19 H :   -0.005123
  20 H :    0.034759
  21 H :   -0.000450
  22 C :   -0.006784
  23 H :    0.028019
  24 H :    0.031234
  25 C :    0.058423
  26 C :    0.041396
  27 H :    0.024978
  28 H :    0.042658
  29 H :   -0.017552
  30 H :   -0.097459
  31 H :   -0.099198
  32 F :   -0.047923
  33 O :   -0.109161

  Mayer bond orders larger than 0.100000
B(  0-C ,  1-H ) :   0.8021 B(  0-C ,  2-C ) :   0.7183 B(  0-C ,  3-C ) :   1.1569
B(  0-C ,  4-H ) :   0.6576 B(  0-C ,  5-H ) :   0.1523 B(  0-C ,  6-H ) :   0.1874
B(  0-C ,  7-C ) :   0.2170 B(  0-C , 10-H ) :  -0.1756 B(  0-C , 29-H ) :   0.1410
B(  0-C , 30-H ) :   0.6660 B(  0-C , 31-H ) :   0.4104 B(  1-H ,  5-H ) :   0.1158
B(  1-H ,  8-H ) :   0.1094 B(  1-H , 30-H ) :   0.1362 B(  2-C ,  3-C ) :   0.1066
B(  2-C ,  4-H ) :   0.2321 B(  2-C , 29-H ) :   0.3874 B(  2-C , 30-H ) :  -0.8056
B(  2-C , 32-F ) :  -0.1300 B(  3-C ,  4-H ) :   0.1296 B(  3-C ,  5-H ) :   0.6386
B(  3-C ,  6-H ) :   0.6750 B(  3-C ,  7-C ) :   1.1484 B(  3-C , 10-H ) :   0.2276
B(  3-C , 30-H ) :  -0.1577 B(  4-H ,  7-C ) :  -0.1133 B(  4-H , 10-H ) :   0.1118
B(  4-H , 12-H ) :   0.1160 B(  4-H , 21-H ) :   0.2252 B(  5-H ,  6-H ) :  -0.1589
B(  5-H ,  7-C ) :   0.1792 B(  5-H , 10-H ) :   0.1287 B(  6-H ,  7-C ) :   0.1276
B(  7-C ,  8-H ) :   0.6152 B(  7-C ,  9-C ) :   1.0623 B(  7-C , 10-H ) :   0.1703
B(  7-C , 11-H ) :   0.2156 B(  7-C , 12-H ) :   0.1077 B(  8-H ,  9-C ) :   0.2252
B(  9-C , 10-H ) :   0.2977 B(  9-C , 11-H ) :   0.8143 B(  9-C , 12-H ) :   0.8570
B(  9-C , 13-C ) :   1.1653 B(  9-C , 14-C ) :   0.1339 B(  9-C , 15-H ) :   0.1462
B(  9-C , 16-H ) :   0.2668 B( 10-H , 13-C ) :  -0.1096 B( 10-H , 19-H ) :   0.1244
B( 10-H , 30-H ) :   0.1137 B( 13-C , 14-C ) :   1.1248 B( 13-C , 15-H ) :   0.5986
B( 13-C , 16-H ) :   0.6298 B( 14-C , 15-H ) :   0.3274 B( 14-C , 17-H ) :   0.8629
B( 14-C , 18-C ) :   1.0938 B( 14-C , 19-H ) :   0.8400 B( 14-C , 20-H ) :   0.1802
B( 14-C , 21-H ) :   0.2978 B( 15-H , 16-H ) :  -0.1547 B( 17-H , 18-C ) :   0.1451
B( 18-C , 19-H ) :   0.1150 B( 18-C , 20-H ) :   0.6514 B( 18-C , 21-H ) :   0.4085
B( 18-C , 22-C ) :   1.1943 B( 18-C , 23-H ) :   0.1614 B( 18-C , 24-H ) :   0.2917
B( 18-C , 25-C ) :   0.1531 B( 21-H , 22-C ) :   0.1651 B( 22-C , 23-H ) :   0.7382
B( 22-C , 24-H ) :   0.6392 B( 22-C , 25-C ) :   1.1100 B( 22-C , 26-C ) :   0.1035
B( 22-C , 27-H ) :   0.1001 B( 22-C , 28-H ) :   0.1815 B( 23-H , 24-H ) :  -0.1688
B( 23-H , 25-C ) :   0.1446 B( 25-C , 26-C ) :   1.2293 B( 25-C , 27-H ) :   0.7795
B( 25-C , 28-H ) :   0.5789 B( 26-C , 27-H ) :   0.1745 B( 26-C , 28-H ) :   0.3199
B( 26-C , 30-H ) :   0.1113 B( 26-C , 32-F ) :   0.6656 B( 26-C , 33-O ) :   1.7356
B( 29-H , 30-H ) :   0.2291 B( 30-H , 31-H ) :   0.4804 B( 30-H , 32-F ) :   0.2924
B( 31-H , 33-O ) :   0.2137

FINAL SINGLE POINT ENERGY      -606.118288699372

DIPOLE MOMENT
-------------
                                X             Y             Z
Electronic contribution:     -5.46662       2.45818      10.84860
Nuclear contribution   :      5.54676      -3.70047     -10.28793
                        -----------------------------------------
Total Dipole Moment    :      0.08014      -1.24228       0.56067
                        -----------------------------------------
Magnitude (a.u.)       :      1.36530
Magnitude (Debye)      :      3.47031

Rotational constants in cm-1:     0.028503     0.023389     0.015214
Rotational constants in MHz :   854.502405   701.197575   456.108322

                             ****ORCA TERMINATED NORMALLY****
TOTAL RUN TIME: 0 days 0 hours 5 minutes 2 seconds 367 msec
