                         Program Version 5.0.0 -  RELEASE  -
|  1> !CAM-B3LYP RIJCOSX def2-TZVP def2/J TightSCF
|  2> *xyz -1 1
|  3> C          4.08422        1.74208       -2.11472
|  4> C          4.26524        2.50052       -0.79589
|  5> H          4.86853        3.39267       -0.98113
|  6> H          3.30764        2.82457       -0.38781
|  7> C          4.98224        1.65026        0.24742
|  8> O          4.36806        1.38927        1.31371
|  9> O          6.12892        1.23351       -0.04562
| 10> H          3.57911        2.36849       -2.81997
| 11> H          3.50424        0.85965       -1.94198
| 12> H          5.04288        1.46841       -2.50327
| 13> *
| 14> %MaxCore 64000
| 15> %pal nprocs 8
| 16> end
| 17> %scf
| 18>   MaxIter 150
| 19> end
| 20>
| 21>
| 22>                          ****END OF INPUT****

CARTESIAN COORDINATES (ANGSTROEM)
---------------------------------
  C      4.084220    1.742080   -2.114720
  C      4.265240    2.500520   -0.795890
  H      4.868530    3.392670   -0.981130
  H      3.307640    2.824570   -0.387810
  C      4.982240    1.650260    0.247420
  O      4.368060    1.389270    1.313710
  O      6.128920    1.233510   -0.045620
  H      3.579110    2.368490   -2.819970
  H      3.504240    0.859650   -1.941980
  H      5.042880    1.468410   -2.503270

 Total Charge           Charge          ....   -1
 Multiplicity           Mult            ....    1
 Number of Electrons    NEL             ....   40
 Basis Dimension        Dim             ....  185

ORBITAL ENERGIES
----------------

  NO   OCC          E(Eh)            E(eV)
   0   2.0000     -18.920920      -514.8644
   1   2.0000     -18.920716      -514.8589
   2   2.0000     -10.119366      -275.3620
   3   2.0000     -10.077003      -274.2092
   4   2.0000     -10.064390      -273.8660
   5   2.0000      -0.893058       -24.3013
   6   2.0000      -0.797925       -21.7126
   7   2.0000      -0.685521       -18.6540
   8   2.0000      -0.549846       -14.9621
   9   2.0000      -0.389650       -10.6029
  10   2.0000      -0.360423        -9.8076
  11   2.0000      -0.325461        -8.8562
  12   2.0000      -0.294407        -8.0112
  13   2.0000      -0.277751        -7.5580
  14   2.0000      -0.271307        -7.3827
  15   2.0000      -0.239153        -6.5077
  16   2.0000      -0.222681        -6.0594
  17   2.0000      -0.102795        -2.7972
  18   2.0000      -0.099098        -2.6966
  19   2.0000      -0.085733        -2.3329
  20   0.0000       0.220058         5.9881
  21   0.0000       0.261215         7.1080
  22   0.0000       0.284691         7.7468
  23   0.0000       0.286466         7.7951
  24   0.0000       0.304780         8.2935

MULLIKEN ATOMIC CHARGES
-----------------------
   0 C :   -0.333692
   1 C :   -0.125516
   2 H :    0.034801
   3 H :    0.041522
   4 C :    0.182268
   5 O :   -0.522298
   6 O :   -0.524033
   7 H :    0.056268
   8 H :    0.090032
   9 H :    0.100649
Sum of atomic charges:   -1.0000000

LOEWDIN ATOMIC CHARGES
----------------------
   0 C :   -0.323437
   1 C :   -0.288233
   2 H :    0.120175
   3 H :    0.117032
   4 C :   -0.700580
   5 O :   -0.121578
   6 O :   -0.117019
   7 H :    0.092872
   8 H :    0.108702
   9 H :    0.112067

  Mayer bond orders larger than 0.100000
B(  0-C ,  1-C ) :   0.9425 B(  0-C ,  7-H ) :   0.9764 B(  0-C ,  8-H ) :   0.9858
B(  0-C ,  9-H ) :   0.9742 B(  1-C ,  2-H ) :   0.9608 B(  1-C ,  3-H ) :   0.9603
B(  1-C ,  4-C ) :   0.9300 B(  4-C ,  5-O ) :   1.9044 B(  4-C ,  6-O ) :   1.8617

FINAL SINGLE POINT ENERGY      -267.830606336193

DIPOLE MOMENT
-------------
                                X             Y             Z
Electronic contribution:      2.44264      -1.48239       5.13725
Nuclear contribution   :     -3.31311       2.28398      -6.76358
                        -----------------------------------------
Total Dipole Moment    :     -0.87047       0.80160      -1.62633
                        -----------------------------------------
Magnitude (a.u.)       :      2.01128
Magnitude (Debye)      :      5.11226

Rotational constants in cm-1:     0.309287     0.135287     0.107346
Rotational constants in MHz :  9272.201029  4055.789113  3218.155789

                             ****ORCA TERMINATED NORMALLY****
TOTAL RUN TIME: 0 days 0 hours 0 minutes 23 seconds 572 msec
