                         Program Version 5.0.0 -  RELEASE  -
|  1> !CAM-B3LYP RIJCOSX def2-TZVP def2/J TightSCF
|  2> *xyz 1 1
|  3> C          3.91385       -1.65829        3.01513
|  4> N          5.03927       -0.90115        2.49282
|  5> C          6.21038       -1.41726        2.17824
|  6> N          6.53591       -2.67712        2.55608
|  7> N          7.07675       -0.70082        1.47891
|  8> H          7.95464       -1.12155        1.20755
|  9> H          6.75616        0.10664        0.96028
| 10> H          4.84217        0.01761        2.11519
| 11> H          5.99388       -3.12692        3.28278
| 12> C          3.13916       -2.37657        1.91061
| 13> H          3.26723       -0.93940        3.52069
| 14> H          4.24720       -2.35509        3.79006
| 15> H          7.49844       -2.97548        2.46878
| 16> H          2.82969       -1.66654        1.17238
| 17> H          2.27790       -2.85264        2.33072
| 18> H          3.76754       -3.11338        1.45548
| 19> *
| 20> %MaxCore 64000
| 21> %pal nprocs 8
| 22> end
| 23> %scf
| 24>   MaxIter 150
| 25> end
| 26>
| 27>
| 28>                          ****END OF INPUT****

CARTESIAN COORDINATES (ANGSTROEM)
---------------------------------
  C      3.913850   -1.658290    3.015130
  N      5.039270   -0.901150    2.492820
  C      6.210380   -1.417260    2.178240
  N      6.535910   -2.677120    2.556080
  N      7.076750   -0.700820    1.478910
  H      7.954640   -1.121550    1.207550
  H      6.756160    0.106640    0.960280
  H      4.842170    0.017610    2.115190
  H      5.993880   -3.126920    3.282780
  C      3.139160   -2.376570    1.910610
  H      3.267230   -0.939400    3.520690
  H      4.247200   -2.355090    3.790060
  H      7.498440   -2.975480    2.468780
  H      2.829690   -1.666540    1.172380
  H      2.277900   -2.852640    2.330720
  H      3.767540   -3.113380    1.455480

 Total Charge           Charge          ....    1
 Multiplicity           Mult            ....    1
 Number of Electrons    NEL             ....   48
 Basis Dimension        Dim             ....  246

ORBITAL ENERGIES
----------------

  NO   OCC          E(Eh)            E(eV)
   0   2.0000     -14.614337      -397.6763
   1   2.0000     -14.612906      -397.6374
   2   2.0000     -14.610478      -397.5713
   3   2.0000     -10.583578      -287.9938
   4   2.0000     -10.452016      -284.4138
   5   2.0000     -10.377170      -282.3771
   6   2.0000      -1.302109       -35.4322
   7   2.0000      -1.190805       -32.4034
   8   2.0000      -1.173846       -31.9420
   9   2.0000      -1.013139       -27.5689
  10   2.0000      -0.919609       -25.0238
  11   2.0000      -0.878981       -23.9183
  12   2.0000      -0.860200       -23.4072
  13   2.0000      -0.817688       -22.2504
  14   2.0000      -0.762621       -20.7520
  15   2.0000      -0.756027       -20.5725
  16   2.0000      -0.726229       -19.7617
  17   2.0000      -0.700946       -19.0737
  18   2.0000      -0.671854       -18.2821
  19   2.0000      -0.630262       -17.1503
  20   2.0000      -0.599167       -16.3042
  21   2.0000      -0.578969       -15.7546
  22   2.0000      -0.544481       -14.8161
  23   2.0000      -0.514288       -13.9945
  24   0.0000      -0.120289        -3.2732
  25   0.0000      -0.114007        -3.1023
  26   0.0000      -0.083524        -2.2728
  27   0.0000      -0.073502        -2.0001
  28   0.0000      -0.050512        -1.3745

MULLIKEN ATOMIC CHARGES
-----------------------
   0 C :   -0.182325
   1 N :   -0.237930
   2 C :    0.426835
   3 N :   -0.401186
   4 N :   -0.386941
   5 H :    0.280482
   6 H :    0.280727
   7 H :    0.252577
   8 H :    0.277556
   9 C :   -0.315121
  10 H :    0.172801
  11 H :    0.129597
  12 H :    0.273232
  13 H :    0.134277
  14 H :    0.162582
  15 H :    0.132839
Sum of atomic charges:    1.0000000

LOEWDIN ATOMIC CHARGES
----------------------
   0 C :   -0.281592
   1 N :    0.173889
   2 C :   -0.393544
   3 N :    0.048132
   4 N :    0.066229
   5 H :    0.198606
   6 H :    0.198941
   7 H :    0.211840
   8 H :    0.192907
   9 C :   -0.283082
  10 H :    0.151923
  11 H :    0.136914
  12 H :    0.194899
  13 H :    0.125485
  14 H :    0.135961
  15 H :    0.122493

  Mayer bond orders larger than 0.100000
B(  0-C ,  1-N ) :   0.8677 B(  0-C ,  9-C ) :   0.9416 B(  0-C , 10-H ) :   0.9638
B(  0-C , 11-H ) :   0.9757 B(  1-N ,  2-C ) :   1.4018 B(  1-N ,  7-H ) :   0.9072
B(  2-C ,  3-N ) :   1.3099 B(  2-C ,  4-N ) :   1.3332 B(  3-N ,  8-H ) :   0.8935
B(  3-N , 12-H ) :   0.9031 B(  4-N ,  5-H ) :   0.9005 B(  4-N ,  6-H ) :   0.8999
B(  9-C , 13-H ) :   0.9678 B(  9-C , 14-H ) :   0.9716 B(  9-C , 15-H ) :   0.9649

FINAL SINGLE POINT ENERGY      -284.363115072875

DIPOLE MOMENT
-------------
                                X             Y             Z
Electronic contribution:      4.72330       1.91854       0.07135
Nuclear contribution   :     -3.67981      -1.62355      -0.28562
                        -----------------------------------------
Total Dipole Moment    :      1.04349       0.29500      -0.21427
                        -----------------------------------------
Magnitude (a.u.)       :      1.10536
Magnitude (Debye)      :      2.80959

Rotational constants in cm-1:     0.222027     0.074735     0.065694
Rotational constants in MHz :  6656.200457  2240.503315  1969.451902

                             ****ORCA TERMINATED NORMALLY****
TOTAL RUN TIME: 0 days 0 hours 0 minutes 41 seconds 907 msec
