                         Program Version 5.0.0 -  RELEASE  -
|  1> !CAM-B3LYP RIJCOSX def2-TZVP def2/J TightSCF xyzfile
|  2>
|  3> *xyzfile 0 1 B.xyz
|  4>
|  5> %MaxCore 64000
|  6>
|  7> %pal nprocs 18
|  8> end
|  9>
| 10> %scf
| 11>   MaxIter 150
| 12> end
| 13>
| 14>
| 15>                          ****END OF INPUT****

CARTESIAN COORDINATES (ANGSTROEM)
---------------------------------
  C      3.913853   -1.658291    3.015134
  N      5.039266   -0.901154    2.492821
  C      4.084215    1.742081   -2.114724
  C      4.265245    2.500518   -0.795890
  H      4.868534    3.392674   -0.981134
  H      3.307640    2.824571   -0.387809
  C      4.982240    1.650257    0.247422
  C      6.210384   -1.417261    2.178244
  N      6.535913   -2.677122    2.556078
  N      7.076754   -0.700820    1.478906
  H      7.954643   -1.121554    1.207554
  H      6.756161    0.106637    0.960278
  H      4.842168    0.017609    2.115191
  H      5.993876   -3.126918    3.282784
  H      7.498441   -2.975482    2.468776
  O      4.368065    1.389270    1.313706
  O      6.128919    1.233512   -0.045620
  C      3.139159   -2.376572    1.910609
  H      3.267235   -0.939401    3.520693
  H      4.247195   -2.355095    3.790065
  C      1.997274    0.430918   -1.399218
  C      3.412746    0.376886   -1.965497
  H      4.047407   -0.246590   -1.326706
  H      3.390774   -0.118719   -2.942839
  H      5.068475    1.598504   -2.565728
  H      3.503356    2.363939   -2.804565
  C      2.399946   -1.389579    1.009490
  H      2.440750   -3.087118    2.362976
  H      3.844475   -2.970462    1.318677
  C      2.070177   -1.936705   -0.372401
  H      1.481611   -1.061542    1.509912
  H      3.008628   -0.490001    0.897451
  C      1.322238   -0.935775   -1.256413
  H      1.472747   -2.850902   -0.283997
  H      3.003539   -2.234041   -0.862535
  H      1.376444    1.058920   -2.047420
  H      2.015341    0.929780   -0.426535
  H      0.316648   -0.787213   -0.848278
  H      1.185611   -1.379252   -2.248613

 Total Charge           Charge          ....    0
 Multiplicity           Mult            ....    1
 Number of Electrons    NEL             ....  126
 Basis Dimension        Dim             ....  634

ORBITAL ENERGIES
----------------

  NO   OCC          E(Eh)            E(eV)
   0   2.0000     -19.115265      -520.1528
   1   2.0000     -19.113970      -520.1176
   2   2.0000     -14.454923      -393.3384
   3   2.0000     -14.419577      -392.3766
   4   2.0000     -14.413981      -392.2244
   5   2.0000     -10.406362      -283.1715
   6   2.0000     -10.304009      -280.3863
   7   2.0000     -10.300537      -280.2919
   8   2.0000     -10.249717      -278.9090
   9   2.0000     -10.227434      -278.3026
  10   2.0000     -10.226717      -278.2831
  11   2.0000     -10.223242      -278.1886
  12   2.0000     -10.214043      -277.9383
  13   2.0000     -10.212534      -277.8972
  14   2.0000     -10.211771      -277.8764
  15   2.0000     -10.203209      -277.6434
  16   2.0000      -1.126464       -30.6526
  17   2.0000      -1.089620       -29.6501
  18   2.0000      -1.017218       -27.6799
  19   2.0000      -1.002817       -27.2880
  20   2.0000      -0.990953       -26.9652
  21   2.0000      -0.894536       -24.3416
  22   2.0000      -0.869435       -23.6585
  23   2.0000      -0.839879       -22.8543
  24   2.0000      -0.798691       -21.7335
  25   2.0000      -0.759441       -20.6654
  26   2.0000      -0.739988       -20.1361
  27   2.0000      -0.709619       -19.3097
  28   2.0000      -0.690392       -18.7865
  29   2.0000      -0.679026       -18.4772
  30   2.0000      -0.650469       -17.7002
  31   2.0000      -0.643607       -17.5134
  32   2.0000      -0.613723       -16.7003
  33   2.0000      -0.594743       -16.1838
  34   2.0000      -0.590036       -16.0557
  35   2.0000      -0.569097       -15.4859
  36   2.0000      -0.541217       -14.7273
  37   2.0000      -0.537076       -14.6146
  38   2.0000      -0.529243       -14.4014
  39   2.0000      -0.525120       -14.2893
  40   2.0000      -0.510248       -13.8846
  41   2.0000      -0.492727       -13.4078
  42   2.0000      -0.489931       -13.3317
  43   2.0000      -0.484294       -13.1783
  44   2.0000      -0.475387       -12.9359
  45   2.0000      -0.467366       -12.7177
  46   2.0000      -0.450970       -12.2715
  47   2.0000      -0.437607       -11.9079
  48   2.0000      -0.431968       -11.7544
  49   2.0000      -0.420230       -11.4350
  50   2.0000      -0.412916       -11.2360
  51   2.0000      -0.405435       -11.0324
  52   2.0000      -0.391383       -10.6501
  53   2.0000      -0.383210       -10.4277
  54   2.0000      -0.378966       -10.3122
  55   2.0000      -0.372640       -10.1400
  56   2.0000      -0.362121        -9.8538
  57   2.0000      -0.357068        -9.7163
  58   2.0000      -0.350205        -9.5296
  59   2.0000      -0.337836        -9.1930
  60   2.0000      -0.295807        -8.0493
  61   2.0000      -0.286218        -7.7884
  62   2.0000      -0.282472        -7.6864
  63   0.0000       0.025643         0.6978
  64   0.0000       0.051540         1.4025
  65   0.0000       0.059155         1.6097
  66   0.0000       0.080376         2.1871
  67   0.0000       0.092610         2.5201

MULLIKEN ATOMIC CHARGES
-----------------------
   0 C :   -0.193315
   1 N :   -0.225994
   2 C :   -0.160708
   3 C :   -0.185543
   4 H :    0.100059
   5 H :    0.106890
   6 C :    0.316121
   7 C :    0.378733
   8 N :   -0.440377
   9 N :   -0.384116
  10 H :    0.223470
  11 H :    0.288852
  12 H :    0.272854
  13 H :    0.251492
  14 H :    0.242396
  15 O :   -0.534312
  16 O :   -0.528703
  17 C :   -0.150150
  18 H :    0.150182
  19 H :    0.109543
  20 C :   -0.250315
  21 C :   -0.230755
  22 H :    0.112435
  23 H :    0.089620
  24 H :    0.101998
  25 H :    0.087633
  26 C :   -0.272913
  27 H :    0.107236
  28 H :    0.108547
  29 C :   -0.213625
  30 H :    0.097016
  31 H :    0.151667
  32 C :   -0.169199
  33 H :    0.096821
  34 H :    0.110104
  35 H :    0.096443
  36 H :    0.143010
  37 H :    0.098639
  38 H :    0.098263
Sum of atomic charges:   -0.0000000

LOEWDIN ATOMIC CHARGES
----------------------
   0 C :   -0.272738
   1 N :    0.177410
   2 C :   -0.264496
   3 C :   -0.237384
   4 H :    0.141744
   5 H :    0.134834
   6 C :   -0.628753
   7 C :   -0.415853
   8 N :    0.004442
   9 N :    0.058130
  10 H :    0.174112
  11 H :    0.152465
  12 H :    0.173308
  13 H :    0.177595
  14 H :    0.177799
  15 O :   -0.064330
  16 O :   -0.051650
  17 C :   -0.266369
  18 H :    0.148607
  19 H :    0.122495
  20 C :   -0.269070
  21 C :   -0.267561
  22 H :    0.137468
  23 H :    0.132245
  24 H :    0.138912
  25 H :    0.130845
  26 C :   -0.268054
  27 H :    0.135965
  28 H :    0.137200
  29 C :   -0.273136
  30 H :    0.136734
  31 H :    0.147435
  32 C :   -0.267954
  33 H :    0.131848
  34 H :    0.133693
  35 H :    0.133951
  36 H :    0.140716
  37 H :    0.133860
  38 H :    0.133535

  Mayer bond orders larger than 0.100000
B(  0-C ,  1-N ) :   0.9216 B(  0-C , 17-C ) :   0.9061 B(  0-C , 18-H ) :   0.9752
B(  0-C , 19-H ) :   1.0021 B(  1-N ,  7-C ) :   1.4442 B(  1-N , 12-H ) :   0.7698
B(  2-C ,  3-C ) :   0.9418 B(  2-C , 21-C ) :   0.9704 B(  2-C , 24-H ) :   0.9716
B(  2-C , 25-H ) :   0.9750 B(  3-C ,  4-H ) :   0.9632 B(  3-C ,  5-H ) :   0.9925
B(  3-C ,  6-C ) :   0.9386 B(  6-C , 15-O ) :   1.6448 B(  6-C , 16-O ) :   1.6666
B(  7-C ,  8-N ) :   1.2186 B(  7-C ,  9-N ) :   1.4047 B(  8-N , 13-H ) :   0.9068
B(  8-N , 14-H ) :   0.9188 B(  9-N , 10-H ) :   0.9250 B(  9-N , 11-H ) :   0.7518
B( 11-H , 16-O ) :   0.2295 B( 12-H , 15-O ) :   0.2198 B( 17-C , 26-C ) :   0.9208
B( 17-C , 27-H ) :   0.9724 B( 17-C , 28-H ) :   0.9838 B( 20-C , 21-C ) :   0.9190
B( 20-C , 32-C ) :   0.9433 B( 20-C , 35-H ) :   0.9765 B( 20-C , 36-H ) :   0.9838
B( 21-C , 22-H ) :   0.9792 B( 21-C , 23-H ) :   0.9783 B( 26-C , 29-C ) :   0.9273
B( 26-C , 30-H ) :   0.9726 B( 26-C , 31-H ) :   0.9880 B( 29-C , 32-C ) :   0.9626
B( 29-C , 33-H ) :   0.9831 B( 29-C , 34-H ) :   0.9812 B( 32-C , 37-H ) :   0.9877
B( 32-C , 38-H ) :   0.9844

FINAL SINGLE POINT ENERGY      -747.700425982954

DIPOLE MOMENT
-------------
                                X             Y             Z
Electronic contribution:     12.33488       3.27483       7.69392
Nuclear contribution   :    -11.44764      -6.21818      -6.18483
                        -----------------------------------------
Total Dipole Moment    :      0.88724      -2.94334       1.50909
                        -----------------------------------------
Magnitude (a.u.)       :      3.42459
Magnitude (Debye)      :      8.70462

Rotational constants in cm-1:     0.020281     0.013510     0.009451
Rotational constants in MHz :   608.005987   405.034308   283.324538

                             ****ORCA TERMINATED NORMALLY****
TOTAL RUN TIME: 0 days 0 hours 2 minutes 41 seconds 714 msec
