                         Program Version 5.0.0 -  RELEASE  -
|  1> !CAM-B3LYP RIJCOSX def2-TZVP def2/J TightSCF
|  2> *xyz 0 1
|  3> C          4.08422        1.74208       -2.11472
|  4> C          4.26524        2.50052       -0.79589
|  5> H          4.86853        3.39267       -0.98113
|  6> H          3.30764        2.82457       -0.38781
|  7> C          4.98224        1.65026        0.24742
|  8> F          4.36806        1.38927        1.31371
|  9> O          6.12892        1.23351       -0.04562
| 10> H          3.57911        2.36849       -2.81997
| 11> H          3.50424        0.85965       -1.94198
| 12> H          5.04288        1.46841       -2.50327
| 13> *
| 14> %MaxCore 64000
| 15> %pal nprocs 8
| 16> end
| 17> %scf
| 18>   MaxIter 150
| 19> end
| 20>
| 21>
| 22>                          ****END OF INPUT****

CARTESIAN COORDINATES (ANGSTROEM)
---------------------------------
  C      4.084220    1.742080   -2.114720
  C      4.265240    2.500520   -0.795890
  H      4.868530    3.392670   -0.981130
  H      3.307640    2.824570   -0.387810
  C      4.982240    1.650260    0.247420
  F      4.368060    1.389270    1.313710
  O      6.128920    1.233510   -0.045620
  H      3.579110    2.368490   -2.819970
  H      3.504240    0.859650   -1.941980
  H      5.042880    1.468410   -2.503270

 Total Charge           Charge          ....    0
 Multiplicity           Mult            ....    1
 Number of Electrons    NEL             ....   40
 Basis Dimension        Dim             ....  185

ORBITAL ENERGIES
----------------

  NO   OCC          E(Eh)            E(eV)
   0   2.0000     -24.826359      -675.5596
   1   2.0000     -19.204509      -522.5813
   2   2.0000     -10.425900      -283.7032
   3   2.0000     -10.276599      -279.6405
   4   2.0000     -10.248406      -278.8733
   5   2.0000      -1.400884       -38.1200
   6   2.0000      -1.116377       -30.3782
   7   2.0000      -0.885762       -24.1028
   8   2.0000      -0.769833       -20.9482
   9   2.0000      -0.716569       -19.4988
  10   2.0000      -0.624607       -16.9964
  11   2.0000      -0.610312       -16.6074
  12   2.0000      -0.583138       -15.8680
  13   2.0000      -0.537656       -14.6304
  14   2.0000      -0.506117       -13.7722
  15   2.0000      -0.468187       -12.7400
  16   2.0000      -0.448139       -12.1945
  17   2.0000      -0.442342       -12.0367
  18   2.0000      -0.413264       -11.2455
  19   2.0000      -0.362281        -9.8582
  20   0.0000       0.019674         0.5353
  21   0.0000       0.071942         1.9576
  22   0.0000       0.109493         2.9795
  23   0.0000       0.125485         3.4146
  24   0.0000       0.136174         3.7055

MULLIKEN ATOMIC CHARGES
-----------------------
   0 C :   -0.355957
   1 C :   -0.205264
   2 H :    0.129825
   3 H :    0.112637
   4 C :    0.361376
   5 F :   -0.101898
   6 O :   -0.326290
   7 H :    0.123461
   8 H :    0.119091
   9 H :    0.143020
Sum of atomic charges:   -0.0000000

LOEWDIN ATOMIC CHARGES
----------------------
   0 C :   -0.286116
   1 C :   -0.258007
   2 H :    0.154799
   3 H :    0.138119
   4 C :   -0.495752
   5 F :    0.319569
   6 O :    0.062065
   7 H :    0.119368
   8 H :    0.119883
   9 H :    0.126072

  Mayer bond orders larger than 0.100000
B(  0-C ,  1-C ) :   0.9495 B(  0-C ,  7-H ) :   0.9748 B(  0-C ,  8-H ) :   0.9761
B(  0-C ,  9-H ) :   0.9707 B(  1-C ,  2-H ) :   0.9497 B(  1-C ,  3-H ) :   0.9639
B(  1-C ,  4-C ) :   0.9734 B(  4-C ,  5-F ) :   1.1659 B(  4-C ,  6-O ) :   2.0628

FINAL SINGLE POINT ENERGY      -292.402998797689

DIPOLE MOMENT
-------------
                                X             Y             Z
Electronic contribution:      1.90984      -2.03148       8.13329
Nuclear contribution   :     -2.87511       2.61564      -8.50037
                        -----------------------------------------
Total Dipole Moment    :     -0.96527       0.58415      -0.36708
                        -----------------------------------------
Magnitude (a.u.)       :      1.18648
Magnitude (Debye)      :      3.01578

Rotational constants in cm-1:     0.297822     0.128965     0.102219
Rotational constants in MHz :  8928.481997  3866.271686  3064.463504

                             ****ORCA TERMINATED NORMALLY****
TOTAL RUN TIME: 0 days 0 hours 0 minutes 26 seconds 488 msec
