                         Program Version 5.0.0 -  RELEASE  -
|  1> !CAM-B3LYP RIJCOSX def2-TZVP def2/J TightSCF
|  2> *xyz 0 1
|  3> C          3.91385       -1.65829        3.01513
|  4> C          5.03927       -0.90115        2.49282
|  5> C          6.21038       -1.41726        2.17824
|  6> N          6.53591       -2.67712        2.55608
|  7> N          7.07675       -0.70082        1.47891
|  8> H          7.95464       -1.12155        1.20755
|  9> H          6.75616        0.10664        0.96028
| 10> H          4.84217        0.01761        2.11519
| 11> H          5.99388       -3.12692        3.28278
| 12> C          3.13916       -2.37657        1.91061
| 13> H          3.26723       -0.93940        3.52069
| 14> H          4.24720       -2.35509        3.79006
| 15> H          7.49844       -2.97548        2.46878
| 16> H          2.82969       -1.66654        1.17238
| 17> H          2.27790       -2.85264        2.33072
| 18> H          3.76754       -3.11338        1.45548
| 19> *
| 20> %MaxCore 64000
| 21> %pal nprocs 8
| 22> end
| 23> %scf
| 24>   MaxIter 150
| 25> end
| 26>
| 27>
| 28>                          ****END OF INPUT****

CARTESIAN COORDINATES (ANGSTROEM)
---------------------------------
  C      3.913850   -1.658290    3.015130
  C      5.039270   -0.901150    2.492820
  C      6.210380   -1.417260    2.178240
  N      6.535910   -2.677120    2.556080
  N      7.076750   -0.700820    1.478910
  H      7.954640   -1.121550    1.207550
  H      6.756160    0.106640    0.960280
  H      4.842170    0.017610    2.115190
  H      5.993880   -3.126920    3.282780
  C      3.139160   -2.376570    1.910610
  H      3.267230   -0.939400    3.520690
  H      4.247200   -2.355090    3.790060
  H      7.498440   -2.975480    2.468780
  H      2.829690   -1.666540    1.172380
  H      2.277900   -2.852640    2.330720
  H      3.767540   -3.113380    1.455480

 Total Charge           Charge          ....    0
 Multiplicity           Mult            ....    1
 Number of Electrons    NEL             ....   48
 Basis Dimension        Dim             ....  246

ORBITAL ENERGIES
----------------

  NO   OCC          E(Eh)            E(eV)
   0   2.0000     -14.386700      -391.4820
   1   2.0000     -14.384545      -391.4234
   2   2.0000     -10.285559      -279.8843
   3   2.0000     -10.215547      -277.9792
   4   2.0000     -10.203533      -277.6522
   5   2.0000     -10.160659      -276.4856
   6   2.0000      -1.042309       -28.3627
   7   2.0000      -0.950160       -25.8552
   8   2.0000      -0.855235       -23.2721
   9   2.0000      -0.772525       -21.0215
  10   2.0000      -0.692387       -18.8408
  11   2.0000      -0.649214       -17.6660
  12   2.0000      -0.610366       -16.6089
  13   2.0000      -0.580964       -15.8088
  14   2.0000      -0.540049       -14.6955
  15   2.0000      -0.506146       -13.7729
  16   2.0000      -0.487377       -13.2622
  17   2.0000      -0.456034       -12.4093
  18   2.0000      -0.448809       -12.2127
  19   2.0000      -0.418568       -11.3898
  20   2.0000      -0.391716       -10.6591
  21   2.0000      -0.382709       -10.4141
  22   2.0000      -0.331171        -9.0116
  23   2.0000      -0.216464        -5.8903
  24   0.0000       0.056809         1.5458
  25   0.0000       0.088617         2.4114
  26   0.0000       0.095774         2.6061
  27   0.0000       0.119696         3.2571
  28   0.0000       0.124049         3.3756

MULLIKEN ATOMIC CHARGES
-----------------------
   0 C :   -0.211373
   1 C :   -0.323186
   2 C :    0.342403
   3 N :   -0.474406
   4 N :   -0.459360
   5 H :    0.211223
   6 H :    0.237996
   7 H :    0.076529
   8 H :    0.234609
   9 C :   -0.296716
  10 H :    0.093859
  11 H :    0.057081
  12 H :    0.208776
  13 H :    0.098317
  14 H :    0.097269
  15 H :    0.106979
Sum of atomic charges:    0.0000000

LOEWDIN ATOMIC CHARGES
----------------------
   0 C :   -0.305698
   1 C :   -0.281469
   2 C :   -0.448997
   3 N :   -0.030631
   4 N :   -0.015220
   5 H :    0.161146
   6 H :    0.177306
   7 H :    0.119746
   8 H :    0.171463
   9 C :   -0.302046
  10 H :    0.137475
  11 H :    0.123122
  12 H :    0.159145
  13 H :    0.113490
  14 H :    0.107340
  15 H :    0.113826

  Mayer bond orders larger than 0.100000
B(  0-C ,  1-C ) :   1.0172 B(  0-C ,  9-C ) :   0.9222 B(  0-C , 10-H ) :   0.9970
B(  0-C , 11-H ) :   0.9802 B(  1-C ,  2-C ) :   1.6857 B(  1-C ,  7-H ) :   1.0106
B(  2-C ,  3-N ) :   1.1232 B(  2-C ,  4-N ) :   1.1339 B(  3-N ,  8-H ) :   0.9220
B(  3-N , 12-H ) :   0.9323 B(  4-N ,  5-H ) :   0.9341 B(  4-N ,  6-H ) :   0.9249
B(  9-C , 13-H ) :   0.9821 B(  9-C , 14-H ) :   0.9817 B(  9-C , 15-H ) :   0.9806

FINAL SINGLE POINT ENERGY      -267.876626234383

DIPOLE MOMENT
-------------
                                X             Y             Z
Electronic contribution:      4.68688       1.21125      -0.05422
Nuclear contribution   :     -3.74303      -1.46908      -0.23637
                        -----------------------------------------
Total Dipole Moment    :      0.94385      -0.25783      -0.29059
                        -----------------------------------------
Magnitude (a.u.)       :      1.02067
Magnitude (Debye)      :      2.59434

Rotational constants in cm-1:     0.225937     0.074877     0.065953
Rotational constants in MHz :  6773.424301  2244.750632  1977.214101

                             ****ORCA TERMINATED NORMALLY****
TOTAL RUN TIME: 0 days 0 hours 0 minutes 43 seconds 827 msec
