                         Program Version 5.0.0 -  RELEASE  -
|  1> !CAM-B3LYP RIJCOSX def2-TZVP def2/J TightSCF
|  2> *xyz 0 1
|  3> C          4.08422        1.74208       -2.11472
|  4> C          4.26524        2.50052       -0.79589
|  5> H          4.86853        3.39267       -0.98113
|  6> H          3.30764        2.82457       -0.38781
|  7> C          4.98224        1.65026        0.24742
|  8> O          4.36806        1.38927        1.31371
|  9> F          6.12892        1.23351       -0.04562
| 10> H          3.57911        2.36849       -2.81997
| 11> H          3.50424        0.85965       -1.94198
| 12> H          5.04288        1.46841       -2.50327
| 13> *
| 14> %MaxCore 64000
| 15> %pal nprocs 8
| 16> end
| 17> %scf
| 18>   MaxIter 150
| 19> end
| 20>
| 21>
| 22>                          ****END OF INPUT****

CARTESIAN COORDINATES (ANGSTROEM)
---------------------------------
  C      4.084220    1.742080   -2.114720
  C      4.265240    2.500520   -0.795890
  H      4.868530    3.392670   -0.981130
  H      3.307640    2.824570   -0.387810
  C      4.982240    1.650260    0.247420
  O      4.368060    1.389270    1.313710
  F      6.128920    1.233510   -0.045620
  H      3.579110    2.368490   -2.819970
  H      3.504240    0.859650   -1.941980
  H      5.042880    1.468410   -2.503270

 Total Charge           Charge          ....    0
 Multiplicity           Mult            ....    1
 Number of Electrons    NEL             ....   40
 Basis Dimension        Dim             ....  185

ORBITAL ENERGIES
----------------

  NO   OCC          E(Eh)            E(eV)
   0   2.0000     -24.827570      -675.5925
   1   2.0000     -19.203963      -522.5664
   2   2.0000     -10.425423      -283.6902
   3   2.0000     -10.276274      -279.6316
   4   2.0000     -10.253049      -278.9996
   5   2.0000      -1.403566       -38.1930
   6   2.0000      -1.113241       -30.2928
   7   2.0000      -0.889800       -24.2127
   8   2.0000      -0.767454       -20.8835
   9   2.0000      -0.722097       -19.6492
  10   2.0000      -0.627841       -17.0844
  11   2.0000      -0.616134       -16.7659
  12   2.0000      -0.576155       -15.6780
  13   2.0000      -0.538021       -14.6403
  14   2.0000      -0.506900       -13.7935
  15   2.0000      -0.471757       -12.8372
  16   2.0000      -0.452872       -12.3233
  17   2.0000      -0.445231       -12.1154
  18   2.0000      -0.416399       -11.3308
  19   2.0000      -0.357323        -9.7232
  20   0.0000       0.023344         0.6352
  21   0.0000       0.068157         1.8546
  22   0.0000       0.108164         2.9433
  23   0.0000       0.127116         3.4590
  24   0.0000       0.140334         3.8187

MULLIKEN ATOMIC CHARGES
-----------------------
   0 C :   -0.360499
   1 C :   -0.202223
   2 H :    0.117842
   3 H :    0.135571
   4 C :    0.353594
   5 O :   -0.325021
   6 F :   -0.102870
   7 H :    0.128019
   8 H :    0.130339
   9 H :    0.125247
Sum of atomic charges:   -0.0000000

LOEWDIN ATOMIC CHARGES
----------------------
   0 C :   -0.292355
   1 C :   -0.253692
   2 H :    0.147284
   3 H :    0.150993
   4 C :   -0.499045
   5 O :    0.056527
   6 F :    0.326531
   7 H :    0.121291
   8 H :    0.122347
   9 H :    0.120117

  Mayer bond orders larger than 0.100000
B(  0-C ,  1-C ) :   0.9376 B(  0-C ,  7-H ) :   0.9749 B(  0-C ,  8-H ) :   0.9739
B(  0-C ,  9-H ) :   0.9729 B(  1-C ,  2-H ) :   0.9474 B(  1-C ,  3-H ) :   0.9689
B(  1-C ,  4-C ) :   0.9902 B(  4-C ,  5-O ) :   2.0804 B(  4-C ,  6-F ) :   1.1554

FINAL SINGLE POINT ENERGY      -292.402293360540

DIPOLE MOMENT
-------------
                                X             Y             Z
Electronic contribution:      4.83769      -2.28066       5.84266
Nuclear contribution   :     -4.79499       2.78546      -7.01827
                        -----------------------------------------
Total Dipole Moment    :      0.04269       0.50480      -1.17562
                        -----------------------------------------
Magnitude (a.u.)       :      1.28012
Magnitude (Debye)      :      3.25382

Rotational constants in cm-1:     0.286098     0.133492     0.103343
Rotational constants in MHz :  8577.003657  4001.981591  3098.148068

                             ****ORCA TERMINATED NORMALLY****
TOTAL RUN TIME: 0 days 0 hours 0 minutes 26 seconds 624 msec
