                         Program Version 5.0.0 -  RELEASE  -
|  1> !CAM-B3LYP RIJCOSX def2-TZVP def2/J TightSCF
|  2> *xyz 0 1
|  3> C          3.91385       -1.65829        3.01513
|  4> N          5.03927       -0.90115        2.49282
|  5> C          6.21038       -1.41726        2.17824
|  6> C          6.53591       -2.67712        2.55608
|  7> N          7.07675       -0.70082        1.47891
|  8> H          7.95464       -1.12155        1.20755
|  9> H          6.75616        0.10664        0.96028
| 10> H          4.84217        0.01761        2.11519
| 11> H          5.99388       -3.12692        3.28278
| 12> C          3.13916       -2.37657        1.91061
| 13> H          3.26723       -0.93940        3.52069
| 14> H          4.24720       -2.35509        3.79006
| 15> H          7.49844       -2.97548        2.46878
| 16> H          2.82969       -1.66654        1.17238
| 17> H          2.27790       -2.85264        2.33072
| 18> H          3.76754       -3.11338        1.45548
| 19> *
| 20> %MaxCore 64000
| 21> %pal nprocs 8
| 22> end
| 23> %scf
| 24>   MaxIter 150
| 25> end
| 26>
| 27>
| 28>                          ****END OF INPUT****

CARTESIAN COORDINATES (ANGSTROEM)
---------------------------------
  C      3.913850   -1.658290    3.015130
  N      5.039270   -0.901150    2.492820
  C      6.210380   -1.417260    2.178240
  C      6.535910   -2.677120    2.556080
  N      7.076750   -0.700820    1.478910
  H      7.954640   -1.121550    1.207550
  H      6.756160    0.106640    0.960280
  H      4.842170    0.017610    2.115190
  H      5.993880   -3.126920    3.282780
  C      3.139160   -2.376570    1.910610
  H      3.267230   -0.939400    3.520690
  H      4.247200   -2.355090    3.790060
  H      7.498440   -2.975480    2.468780
  H      2.829690   -1.666540    1.172380
  H      2.277900   -2.852640    2.330720
  H      3.767540   -3.113380    1.455480

 Total Charge           Charge          ....    0
 Multiplicity           Mult            ....    1
 Number of Electrons    NEL             ....   48
 Basis Dimension        Dim             ....  246

ORBITAL ENERGIES
----------------

  NO   OCC          E(Eh)            E(eV)
   0   2.0000     -14.391474      -391.6119
   1   2.0000     -14.388700      -391.5364
   2   2.0000     -10.292781      -280.0808
   3   2.0000     -10.275843      -279.6199
   4   2.0000     -10.222445      -278.1669
   5   2.0000     -10.150534      -276.2101
   6   2.0000      -1.056774       -28.7563
   7   2.0000      -0.971277       -26.4298
   8   2.0000      -0.835131       -22.7251
   9   2.0000      -0.785214       -21.3668
  10   2.0000      -0.718980       -19.5644
  11   2.0000      -0.638110       -17.3639
  12   2.0000      -0.622725       -16.9452
  13   2.0000      -0.591480       -16.0950
  14   2.0000      -0.535668       -14.5763
  15   2.0000      -0.509262       -13.8577
  16   2.0000      -0.486991       -13.2517
  17   2.0000      -0.465626       -12.6703
  18   2.0000      -0.445653       -12.1268
  19   2.0000      -0.432650       -11.7730
  20   2.0000      -0.429493       -11.6871
  21   2.0000      -0.410222       -11.1627
  22   2.0000      -0.315573        -8.5872
  23   2.0000      -0.220625        -6.0035
  24   0.0000       0.056259         1.5309
  25   0.0000       0.086743         2.3604
  26   0.0000       0.101855         2.7716
  27   0.0000       0.113514         3.0889
  28   0.0000       0.127460         3.4684

MULLIKEN ATOMIC CHARGES
-----------------------
   0 C :   -0.120188
   1 N :   -0.298459
   2 C :    0.335335
   3 C :   -0.510659
   4 N :   -0.455226
   5 H :    0.242483
   6 H :    0.209553
   7 H :    0.187173
   8 H :    0.075993
   9 C :   -0.311214
  10 H :    0.111584
  11 H :    0.117777
  12 H :    0.073473
  13 H :    0.090588
  14 H :    0.108005
  15 H :    0.143783
Sum of atomic charges:   -0.0000000

LOEWDIN ATOMIC CHARGES
----------------------
   0 C :   -0.296252
   1 N :    0.118496
   2 C :   -0.459591
   3 C :   -0.366078
   4 N :   -0.009799
   5 H :    0.179145
   6 H :    0.160410
   7 H :    0.178220
   8 H :    0.094347
   9 C :   -0.304788
  10 H :    0.128629
  11 H :    0.135152
  12 H :    0.092279
  13 H :    0.110943
  14 H :    0.115466
  15 H :    0.123422

  Mayer bond orders larger than 0.100000
B(  0-C ,  1-N ) :   0.9261 B(  0-C ,  9-C ) :   0.9391 B(  0-C , 10-H ) :   0.9829
B(  0-C , 11-H ) :   0.9736 B(  1-N ,  2-C ) :   1.2003 B(  1-N ,  7-H ) :   0.9357
B(  2-C ,  3-C ) :   1.6382 B(  2-C ,  4-N ) :   1.1472 B(  3-C ,  8-H ) :   1.0122
B(  3-C , 12-H ) :   0.9994 B(  4-N ,  5-H ) :   0.9259 B(  4-N ,  6-H ) :   0.9282
B(  9-C , 13-H ) :   0.9763 B(  9-C , 14-H ) :   0.9767 B(  9-C , 15-H ) :   0.9743

FINAL SINGLE POINT ENERGY      -267.868387227652

DIPOLE MOMENT
-------------
                                X             Y             Z
Electronic contribution:      3.06637       2.87199      -0.23852
Nuclear contribution   :     -3.42552      -1.84584      -0.22295
                        -----------------------------------------
Total Dipole Moment    :     -0.35916       1.02615      -0.46148
                        -----------------------------------------
Magnitude (a.u.)       :      1.18108
Magnitude (Debye)      :      3.00206

Rotational constants in cm-1:     0.233526     0.075277     0.067092
Rotational constants in MHz :  7000.931279  2256.752901  2011.361214

                             ****ORCA TERMINATED NORMALLY****
TOTAL RUN TIME: 0 days 0 hours 0 minutes 42 seconds 952 msec
