                         Program Version 5.0.0 -  RELEASE  -
|  1> !CAM-B3LYP RIJCOSX def2-TZVP def2/J TightSCF
|  2> *xyz 0 1
|  3> C          3.91385       -1.65829        3.01513
|  4> N          5.03927       -0.90115        2.49282
|  5> C          6.21038       -1.41726        2.17824
|  6> N          6.53591       -2.67712        2.55608
|  7> C          7.07675       -0.70082        1.47891
|  8> H          7.95464       -1.12155        1.20755
|  9> H          6.75616        0.10664        0.96028
| 10> H          4.84217        0.01761        2.11519
| 11> H          5.99388       -3.12692        3.28278
| 12> C          3.13916       -2.37657        1.91061
| 13> H          3.26723       -0.93940        3.52069
| 14> H          4.24720       -2.35509        3.79006
| 15> H          7.49844       -2.97548        2.46878
| 16> H          2.82969       -1.66654        1.17238
| 17> H          2.27790       -2.85264        2.33072
| 18> H          3.76754       -3.11338        1.45548
| 19> *
| 20> %MaxCore 64000
| 21> %pal nprocs 8
| 22> end
| 23> %scf
| 24>   MaxIter 150
| 25> end
| 26>
| 27>
| 28>                          ****END OF INPUT****

CARTESIAN COORDINATES (ANGSTROEM)
---------------------------------
  C      3.913850   -1.658290    3.015130
  N      5.039270   -0.901150    2.492820
  C      6.210380   -1.417260    2.178240
  N      6.535910   -2.677120    2.556080
  C      7.076750   -0.700820    1.478910
  H      7.954640   -1.121550    1.207550
  H      6.756160    0.106640    0.960280
  H      4.842170    0.017610    2.115190
  H      5.993880   -3.126920    3.282780
  C      3.139160   -2.376570    1.910610
  H      3.267230   -0.939400    3.520690
  H      4.247200   -2.355090    3.790060
  H      7.498440   -2.975480    2.468780
  H      2.829690   -1.666540    1.172380
  H      2.277900   -2.852640    2.330720
  H      3.767540   -3.113380    1.455480

 Total Charge           Charge          ....    0
 Multiplicity           Mult            ....    1
 Number of Electrons    NEL             ....   48
 Basis Dimension        Dim             ....  246

ORBITAL ENERGIES
----------------

  NO   OCC          E(Eh)            E(eV)
   0   2.0000     -14.387880      -391.5141
   1   2.0000     -14.386702      -391.4821
   2   2.0000     -10.289844      -280.0009
   3   2.0000     -10.284479      -279.8549
   4   2.0000     -10.230434      -278.3843
   5   2.0000     -10.149990      -276.1953
   6   2.0000      -1.051863       -28.6226
   7   2.0000      -0.963883       -26.2286
   8   2.0000      -0.853092       -23.2138
   9   2.0000      -0.782020       -21.2799
  10   2.0000      -0.707370       -19.2485
  11   2.0000      -0.673582       -18.3291
  12   2.0000      -0.607284       -16.5250
  13   2.0000      -0.568292       -15.4640
  14   2.0000      -0.546336       -14.8666
  15   2.0000      -0.509058       -13.8522
  16   2.0000      -0.501463       -13.6455
  17   2.0000      -0.473240       -12.8775
  18   2.0000      -0.447457       -12.1759
  19   2.0000      -0.437330       -11.9003
  20   2.0000      -0.426694       -11.6109
  21   2.0000      -0.422526       -11.4975
  22   2.0000      -0.319435        -8.6923
  23   2.0000      -0.220413        -5.9977
  24   0.0000       0.059070         1.6074
  25   0.0000       0.084117         2.2889
  26   0.0000       0.096688         2.6310
  27   0.0000       0.111565         3.0358
  28   0.0000       0.128133         3.4867

MULLIKEN ATOMIC CHARGES
-----------------------
   0 C :   -0.157750
   1 N :   -0.286565
   2 C :    0.359866
   3 N :   -0.474625
   4 C :   -0.508504
   5 H :    0.071281
   6 H :    0.077776
   7 H :    0.215040
   8 H :    0.212998
   9 C :   -0.290117
  10 H :    0.118597
  11 H :    0.093298
  12 H :    0.235245
  13 H :    0.104285
  14 H :    0.106368
  15 H :    0.122809
Sum of atomic charges:   -0.0000000

LOEWDIN ATOMIC CHARGES
----------------------
   0 C :   -0.313357
   1 N :    0.121385
   2 C :   -0.451724
   3 N :   -0.026487
   4 C :   -0.347347
   5 H :    0.095399
   6 H :    0.095684
   7 H :    0.194901
   8 H :    0.157722
   9 C :   -0.305298
  10 H :    0.131318
  11 H :    0.123565
  12 H :    0.175382
  13 H :    0.115414
  14 H :    0.114734
  15 H :    0.118710

  Mayer bond orders larger than 0.100000
B(  0-C ,  1-N ) :   0.9510 B(  0-C ,  9-C ) :   0.9262 B(  0-C , 10-H ) :   0.9845
B(  0-C , 11-H ) :   0.9849 B(  1-N ,  2-C ) :   1.2078 B(  1-N ,  7-H ) :   0.9298
B(  2-C ,  3-N ) :   1.1214 B(  2-C ,  4-C ) :   1.6451 B(  3-N ,  8-H ) :   0.9250
B(  3-N , 12-H ) :   0.9279 B(  4-C ,  5-H ) :   1.0157 B(  4-C ,  6-H ) :   1.0088
B(  9-C , 13-H ) :   0.9752 B(  9-C , 14-H ) :   0.9743 B(  9-C , 15-H ) :   0.9746

FINAL SINGLE POINT ENERGY      -267.868954133800

DIPOLE MOMENT
-------------
                                X             Y             Z
Electronic contribution:      2.52009       0.90170       0.98320
Nuclear contribution   :     -3.31079      -1.42658      -0.45147
                        -----------------------------------------
Total Dipole Moment    :     -0.79070      -0.52489       0.53173
                        -----------------------------------------
Magnitude (a.u.)       :      1.08786
Magnitude (Debye)      :      2.76513

Rotational constants in cm-1:     0.225507     0.077571     0.068070
Rotational constants in MHz :  6760.542142  2325.533779  2040.680522

                             ****ORCA TERMINATED NORMALLY****
TOTAL RUN TIME: 0 days 0 hours 0 minutes 43 seconds 746 msec
