                         Program Version 5.0.0 -  RELEASE  -
|  1> !CAM-B3LYP RIJCOSX def2-TZVP def2/J TightSCF xyzfile
|  2>
|  3> *xyzfile 0 1 D1.xyz
|  4>
|  5> %MaxCore 64000
|  6>
|  7> %pal nprocs 18
|  8> end
|  9>
| 10> %scf
| 11>   MaxIter 150
| 12> end
| 13>
| 14>
| 15>                          ****END OF INPUT****

CARTESIAN COORDINATES (ANGSTROEM)
---------------------------------
  C      3.913853   -1.658291    3.015134
  C      5.039266   -0.901154    2.492821
  C      4.084215    1.742081   -2.114724
  C      4.265245    2.500518   -0.795890
  H      4.868534    3.392674   -0.981134
  H      3.307640    2.824571   -0.387809
  C      4.982240    1.650257    0.247422
  C      6.210384   -1.417261    2.178244
  N      6.535913   -2.677122    2.556078
  N      7.076754   -0.700820    1.478906
  H      7.954643   -1.121554    1.207554
  H      6.756161    0.106637    0.960278
  H      4.842168    0.017609    2.115191
  H      5.993876   -3.126918    3.282784
  H      7.498441   -2.975482    2.468776
  F      4.368065    1.389270    1.313706
  O      6.128919    1.233512   -0.045620
  C      3.139159   -2.376572    1.910609
  H      3.267235   -0.939401    3.520693
  H      4.247195   -2.355095    3.790065
  C      1.997274    0.430918   -1.399218
  C      3.412746    0.376886   -1.965497
  H      4.047407   -0.246590   -1.326706
  H      3.390774   -0.118719   -2.942839
  H      5.068475    1.598504   -2.565728
  H      3.503356    2.363939   -2.804565
  C      2.399946   -1.389579    1.009490
  H      2.440750   -3.087118    2.362976
  H      3.844475   -2.970462    1.318677
  C      2.070177   -1.936705   -0.372401
  H      1.481611   -1.061542    1.509912
  H      3.008628   -0.490001    0.897451
  C      1.322238   -0.935775   -1.256413
  H      1.472747   -2.850902   -0.283997
  H      3.003539   -2.234041   -0.862535
  H      1.376444    1.058920   -2.047420
  H      2.015341    0.929780   -0.426535
  H      0.316648   -0.787213   -0.848278
  H      1.185611   -1.379252   -2.248613

 Total Charge           Charge          ....    0
 Multiplicity           Mult            ....    1
 Number of Electrons    NEL             ....  126
 Basis Dimension        Dim             ....  634

ORBITAL ENERGIES
----------------

  NO   OCC          E(Eh)            E(eV)
   0   2.0000     -24.840520      -675.9449
   1   2.0000     -19.227122      -523.1966
   2   2.0000     -14.370252      -391.0344
   3   2.0000     -14.344226      -390.3262
   4   2.0000     -10.447157      -284.2816
   5   2.0000     -10.281869      -279.7839
   6   2.0000     -10.265977      -279.3514
   7   2.0000     -10.261275      -279.2235
   8   2.0000     -10.245053      -278.7821
   9   2.0000     -10.239791      -278.6389
  10   2.0000     -10.233563      -278.4694
  11   2.0000     -10.225520      -278.2505
  12   2.0000     -10.218627      -278.0630
  13   2.0000     -10.209842      -277.8239
  14   2.0000     -10.204437      -277.6769
  15   2.0000     -10.135597      -275.8036
  16   2.0000      -1.420086       -38.6425
  17   2.0000      -1.144619       -31.1467
  18   2.0000      -1.019039       -27.7295
  19   2.0000      -0.926613       -25.2144
  20   2.0000      -0.916385       -24.9361
  21   2.0000      -0.886646       -24.1269
  22   2.0000      -0.857049       -23.3215
  23   2.0000      -0.827447       -22.5160
  24   2.0000      -0.788930       -21.4679
  25   2.0000      -0.766746       -20.8642
  26   2.0000      -0.739834       -20.1319
  27   2.0000      -0.713698       -19.4207
  28   2.0000      -0.681420       -18.5424
  29   2.0000      -0.663163       -18.0456
  30   2.0000      -0.644155       -17.5283
  31   2.0000      -0.634461       -17.2646
  32   2.0000      -0.632613       -17.2143
  33   2.0000      -0.626369       -17.0444
  34   2.0000      -0.599010       -16.2999
  35   2.0000      -0.585211       -15.9244
  36   2.0000      -0.559268       -15.2184
  37   2.0000      -0.551806       -15.0154
  38   2.0000      -0.548358       -14.9216
  39   2.0000      -0.530258       -14.4291
  40   2.0000      -0.516236       -14.0475
  41   2.0000      -0.505563       -13.7571
  42   2.0000      -0.496227       -13.5030
  43   2.0000      -0.485884       -13.2216
  44   2.0000      -0.482901       -13.1404
  45   2.0000      -0.476305       -12.9609
  46   2.0000      -0.458752       -12.4833
  47   2.0000      -0.455329       -12.3901
  48   2.0000      -0.437082       -11.8936
  49   2.0000      -0.431547       -11.7430
  50   2.0000      -0.429054       -11.6752
  51   2.0000      -0.425810       -11.5869
  52   2.0000      -0.413811       -11.2604
  53   2.0000      -0.402464       -10.9516
  54   2.0000      -0.399683       -10.8759
  55   2.0000      -0.387184       -10.5358
  56   2.0000      -0.375200       -10.2097
  57   2.0000      -0.371620       -10.1123
  58   2.0000      -0.367096        -9.9892
  59   2.0000      -0.361439        -9.8352
  60   2.0000      -0.354773        -9.6539
  61   2.0000      -0.306958        -8.3528
  62   2.0000      -0.197948        -5.3864
  63   0.0000       0.000953         0.0259
  64   0.0000       0.065579         1.7845
  65   0.0000       0.075491         2.0542
  66   0.0000       0.083914         2.2834
  67   0.0000       0.086409         2.3513

MULLIKEN ATOMIC CHARGES
-----------------------
   0 C :   -0.249759
   1 C :   -0.393698
   2 C :   -0.173769
   3 C :   -0.237136
   4 H :    0.148166
   5 H :    0.143012
   6 C :    0.403664
   7 C :    0.328873
   8 N :   -0.473057
   9 N :   -0.463388
  10 H :    0.192564
  11 H :    0.253496
  12 H :    0.116301
  13 H :    0.228173
  14 H :    0.205440
  15 F :   -0.095781
  16 O :   -0.361650
  17 C :   -0.101546
  18 H :    0.084730
  19 H :    0.078836
  20 C :   -0.240168
  21 C :   -0.283540
  22 H :    0.151131
  23 H :    0.110883
  24 H :    0.129601
  25 H :    0.114483
  26 C :   -0.208762
  27 H :    0.079400
  28 H :    0.096987
  29 C :   -0.225850
  30 H :    0.095083
  31 H :    0.067928
  32 C :   -0.171209
  33 H :    0.103713
  34 H :    0.115692
  35 H :    0.105306
  36 H :    0.119397
  37 H :    0.103715
  38 H :    0.102738
Sum of atomic charges:    0.0000000

LOEWDIN ATOMIC CHARGES
----------------------
   0 C :   -0.287891
   1 C :   -0.297000
   2 C :   -0.254170
   3 C :   -0.226536
   4 H :    0.159343
   5 H :    0.144001
   6 C :   -0.468840
   7 C :   -0.453765
   8 N :   -0.034017
   9 N :   -0.018051
  10 H :    0.154243
  11 H :    0.144796
  12 H :    0.113387
  13 H :    0.168259
  14 H :    0.157052
  15 F :    0.346878
  16 O :    0.085340
  17 C :   -0.258880
  18 H :    0.139359
  19 H :    0.124836
  20 C :   -0.271434
  21 C :   -0.266282
  22 H :    0.143132
  23 H :    0.140451
  24 H :    0.145335
  25 H :    0.140834
  26 C :   -0.268079
  27 H :    0.124922
  28 H :    0.137267
  29 C :   -0.271685
  30 H :    0.133248
  31 H :    0.132774
  32 C :   -0.267095
  33 H :    0.135428
  34 H :    0.134600
  35 H :    0.135467
  36 H :    0.132390
  37 H :    0.135886
  38 H :    0.134496

  Mayer bond orders larger than 0.100000
B(  0-C ,  1-C ) :   0.9951 B(  0-C , 17-C ) :   0.9050 B(  0-C , 18-H ) :   0.9942
B(  0-C , 19-H ) :   1.0034 B(  1-C ,  7-C ) :   1.6351 B(  1-C , 12-H ) :   1.0334
B(  2-C ,  3-C ) :   0.9320 B(  2-C , 21-C ) :   0.9549 B(  2-C , 24-H ) :   0.9752
B(  2-C , 25-H ) :   0.9739 B(  3-C ,  4-H ) :   0.9561 B(  3-C ,  5-H ) :   0.9791
B(  3-C ,  6-C ) :   0.9543 B(  6-C , 15-F ) :   1.1444 B(  6-C , 16-O ) :   1.9201
B(  7-C ,  8-N ) :   1.1234 B(  7-C ,  9-N ) :   1.1909 B(  8-N , 13-H ) :   0.9216
B(  8-N , 14-H ) :   0.9332 B(  9-N , 10-H ) :   0.9384 B(  9-N , 11-H ) :   0.8594
B( 11-H , 16-O ) :   0.1181 B( 17-C , 26-C ) :   0.9803 B( 17-C , 27-H ) :   0.9734
B( 17-C , 28-H ) :   0.9793 B( 20-C , 21-C ) :   0.9096 B( 20-C , 32-C ) :   0.9547
B( 20-C , 35-H ) :   0.9765 B( 20-C , 36-H ) :   0.9824 B( 21-C , 22-H ) :   0.9792
B( 21-C , 23-H ) :   0.9769 B( 26-C , 29-C ) :   0.9357 B( 26-C , 30-H ) :   0.9695
B( 26-C , 31-H ) :   0.9847 B( 29-C , 32-C ) :   0.9495 B( 29-C , 33-H ) :   0.9835
B( 29-C , 34-H ) :   0.9866 B( 32-C , 37-H ) :   0.9864 B( 32-C , 38-H ) :   0.9859

FINAL SINGLE POINT ENERGY      -755.573839200078

DIPOLE MOMENT
-------------
                                X             Y             Z
Electronic contribution:     11.36539       8.95362       5.89074
Nuclear contribution   :    -11.48003      -8.36271      -6.78621
                        -----------------------------------------
Total Dipole Moment    :     -0.11464       0.59090      -0.89547
                        -----------------------------------------
Magnitude (a.u.)       :      1.07897
Magnitude (Debye)      :      2.74252

Rotational constants in cm-1:     0.020055     0.013548     0.009477
Rotational constants in MHz :   601.234832   406.162779   284.104317

                             ****ORCA TERMINATED NORMALLY****
TOTAL RUN TIME: 0 days 0 hours 1 minutes 58 seconds 466 msec
