                         Program Version 5.0.0 -  RELEASE  -
|  1> !CAM-B3LYP RIJCOSX def2-TZVP def2/J TightSCF xyzfile
|  2>
|  3> *xyzfile 0 1 D2.xyz
|  4>
|  5> %MaxCore 64000
|  6>
|  7> %pal nprocs 18
|  8> end
|  9>
| 10> %scf
| 11>   MaxIter 150
| 12> end
| 13>
| 14>
| 15>                          ****END OF INPUT****

CARTESIAN COORDINATES (ANGSTROEM)
---------------------------------
  C      3.913853   -1.658291    3.015134
  N      5.039266   -0.901154    2.492821
  C      4.084215    1.742081   -2.114724
  C      4.265245    2.500518   -0.795890
  H      4.868534    3.392674   -0.981134
  H      3.307640    2.824571   -0.387809
  C      4.982240    1.650257    0.247422
  C      6.210384   -1.417261    2.178244
  C      6.535913   -2.677122    2.556078
  N      7.076754   -0.700820    1.478906
  H      7.954643   -1.121554    1.207554
  H      6.756161    0.106637    0.960278
  H      4.842168    0.017609    2.115191
  H      5.993876   -3.126918    3.282784
  H      7.498441   -2.975482    2.468776
  F      4.368065    1.389270    1.313706
  O      6.128919    1.233512   -0.045620
  C      3.139159   -2.376572    1.910609
  H      3.267235   -0.939401    3.520693
  H      4.247195   -2.355095    3.790065
  C      1.997274    0.430918   -1.399218
  C      3.412746    0.376886   -1.965497
  H      4.047407   -0.246590   -1.326706
  H      3.390774   -0.118719   -2.942839
  H      5.068475    1.598504   -2.565728
  H      3.503356    2.363939   -2.804565
  C      2.399946   -1.389579    1.009490
  H      2.440750   -3.087118    2.362976
  H      3.844475   -2.970462    1.318677
  C      2.070177   -1.936705   -0.372401
  H      1.481611   -1.061542    1.509912
  H      3.008628   -0.490001    0.897451
  C      1.322238   -0.935775   -1.256413
  H      1.472747   -2.850902   -0.283997
  H      3.003539   -2.234041   -0.862535
  H      1.376444    1.058920   -2.047420
  H      2.015341    0.929780   -0.426535
  H      0.316648   -0.787213   -0.848278
  H      1.185611   -1.379252   -2.248613

 Total Charge           Charge          ....    0
 Multiplicity           Mult            ....    1
 Number of Electrons    NEL             ....  126
 Basis Dimension        Dim             ....  634

ORBITAL ENERGIES
----------------

  NO   OCC          E(Eh)            E(eV)
   0   2.0000     -24.869695      -676.7388
   1   2.0000     -19.243466      -523.6413
   2   2.0000     -14.368102      -390.9759
   3   2.0000     -14.345822      -390.3697
   4   2.0000     -10.463863      -284.7362
   5   2.0000     -10.294549      -280.1289
   6   2.0000     -10.271366      -279.4981
   7   2.0000     -10.269407      -279.4448
   8   2.0000     -10.262721      -279.2628
   9   2.0000     -10.255104      -279.0556
  10   2.0000     -10.249989      -278.9164
  11   2.0000     -10.243349      -278.7357
  12   2.0000     -10.236989      -278.5626
  13   2.0000     -10.235367      -278.5185
  14   2.0000     -10.226427      -278.2752
  15   2.0000     -10.130054      -275.6528
  16   2.0000      -1.447709       -39.3942
  17   2.0000      -1.160897       -31.5896
  18   2.0000      -1.033607       -28.1259
  19   2.0000      -0.946196       -25.7473
  20   2.0000      -0.928095       -25.2547
  21   2.0000      -0.896135       -24.3851
  22   2.0000      -0.860513       -23.4157
  23   2.0000      -0.826108       -22.4795
  24   2.0000      -0.796266       -21.6675
  25   2.0000      -0.772827       -21.0297
  26   2.0000      -0.758696       -20.6452
  27   2.0000      -0.734701       -19.9922
  28   2.0000      -0.698667       -19.0117
  29   2.0000      -0.676710       -18.4142
  30   2.0000      -0.667129       -18.1535
  31   2.0000      -0.657020       -17.8784
  32   2.0000      -0.644418       -17.5355
  33   2.0000      -0.626541       -17.0491
  34   2.0000      -0.607933       -16.5427
  35   2.0000      -0.584707       -15.9107
  36   2.0000      -0.569751       -15.5037
  37   2.0000      -0.560533       -15.2529
  38   2.0000      -0.559569       -15.2267
  39   2.0000      -0.540498       -14.7077
  40   2.0000      -0.525019       -14.2865
  41   2.0000      -0.517369       -14.0783
  42   2.0000      -0.504590       -13.7306
  43   2.0000      -0.497933       -13.5495
  44   2.0000      -0.488105       -13.2820
  45   2.0000      -0.477973       -13.0063
  46   2.0000      -0.471309       -12.8250
  47   2.0000      -0.460177       -12.5221
  48   2.0000      -0.449014       -12.2183
  49   2.0000      -0.444119       -12.0851
  50   2.0000      -0.437001       -11.8914
  51   2.0000      -0.429507       -11.6875
  52   2.0000      -0.425712       -11.5842
  53   2.0000      -0.416336       -11.3291
  54   2.0000      -0.409867       -11.1531
  55   2.0000      -0.403989       -10.9931
  56   2.0000      -0.394091       -10.7238
  57   2.0000      -0.382777       -10.4159
  58   2.0000      -0.382468       -10.4075
  59   2.0000      -0.380635       -10.3576
  60   2.0000      -0.374684       -10.1957
  61   2.0000      -0.290154        -7.8955
  62   2.0000      -0.200007        -5.4425
  63   0.0000      -0.015516        -0.4222
  64   0.0000       0.055129         1.5001
  65   0.0000       0.074708         2.0329
  66   0.0000       0.077023         2.0959
  67   0.0000       0.083403         2.2695

MULLIKEN ATOMIC CHARGES
-----------------------
   0 C :   -0.170230
   1 N :   -0.306570
   2 C :   -0.176891
   3 C :   -0.238999
   4 H :    0.154439
   5 H :    0.145766
   6 C :    0.394812
   7 C :    0.327338
   8 C :   -0.538361
   9 N :   -0.468548
  10 H :    0.223582
  11 H :    0.235749
  12 H :    0.200291
  13 H :    0.068555
  14 H :    0.068093
  15 F :   -0.122316
  16 O :   -0.340818
  17 C :   -0.104859
  18 H :    0.113461
  19 H :    0.133000
  20 C :   -0.238966
  21 C :   -0.286161
  22 H :    0.148202
  23 H :    0.116940
  24 H :    0.135366
  25 H :    0.118970
  26 C :   -0.242426
  27 H :    0.096350
  28 H :    0.131496
  29 C :   -0.226299
  30 H :    0.098368
  31 H :    0.048445
  32 C :   -0.173878
  33 H :    0.110774
  34 H :    0.124499
  35 H :    0.110099
  36 H :    0.115622
  37 H :    0.106993
  38 H :    0.108110
Sum of atomic charges:   -0.0000000

LOEWDIN ATOMIC CHARGES
----------------------
   0 C :   -0.276331
   1 N :    0.115540
   2 C :   -0.252399
   3 C :   -0.225647
   4 H :    0.161488
   5 H :    0.144578
   6 C :   -0.474019
   7 C :   -0.463087
   8 C :   -0.382400
   9 N :   -0.014714
  10 H :    0.171766
  11 H :    0.134731
  12 H :    0.160987
  13 H :    0.090892
  14 H :    0.089828
  15 F :    0.337475
  16 O :    0.094768
  17 C :   -0.263380
  18 H :    0.130585
  19 H :    0.136753
  20 C :   -0.271466
  21 C :   -0.265768
  22 H :    0.142059
  23 H :    0.142413
  24 H :    0.146870
  25 H :    0.142452
  26 C :   -0.274714
  27 H :    0.133610
  28 H :    0.146821
  29 C :   -0.269569
  30 H :    0.134244
  31 H :    0.125852
  32 C :   -0.266002
  33 H :    0.137759
  34 H :    0.137179
  35 H :    0.136900
  36 H :    0.130890
  37 H :    0.136681
  38 H :    0.136377

  Mayer bond orders larger than 0.100000
B(  0-C ,  1-N ) :   0.9576 B(  0-C , 17-C ) :   0.9104 B(  0-C , 18-H ) :   0.9919
B(  0-C , 19-H ) :   0.9867 B(  1-N ,  7-C ) :   1.1972 B(  1-N , 12-H ) :   0.9191
B(  2-C ,  3-C ) :   0.9307 B(  2-C , 21-C ) :   0.9529 B(  2-C , 24-H ) :   0.9754
B(  2-C , 25-H ) :   0.9733 B(  3-C ,  4-H ) :   0.9553 B(  3-C ,  5-H ) :   0.9769
B(  3-C ,  6-C ) :   0.9576 B(  6-C , 15-F ) :   1.0989 B(  6-C , 16-O ) :   1.9474
B(  7-C ,  8-C ) :   1.6070 B(  7-C ,  9-N ) :   1.1808 B(  8-C , 13-H ) :   1.0062
B(  8-C , 14-H ) :   1.0017 B(  9-N , 10-H ) :   0.9345 B(  9-N , 11-H ) :   0.8697
B( 11-H , 16-O ) :   0.1071 B( 17-C , 26-C ) :   0.9534 B( 17-C , 27-H ) :   0.9747
B( 17-C , 28-H ) :   0.9728 B( 20-C , 21-C ) :   0.9052 B( 20-C , 32-C ) :   0.9523
B( 20-C , 35-H ) :   0.9761 B( 20-C , 36-H ) :   0.9837 B( 21-C , 22-H ) :   0.9797
B( 21-C , 23-H ) :   0.9768 B( 26-C , 29-C ) :   0.9370 B( 26-C , 30-H ) :   0.9658
B( 26-C , 31-H ) :   0.9901 B( 29-C , 32-C ) :   0.9459 B( 29-C , 33-H ) :   0.9838
B( 29-C , 34-H ) :   0.9860 B( 32-C , 37-H ) :   0.9870 B( 32-C , 38-H ) :   0.9854

FINAL SINGLE POINT ENERGY      -755.571730743827

DIPOLE MOMENT
-------------
                                X             Y             Z
Electronic contribution:      9.74631      10.60114       5.49315
Nuclear contribution   :    -11.22009      -8.67117      -6.77523
                        -----------------------------------------
Total Dipole Moment    :     -1.47378       1.92997      -1.28208
                        -----------------------------------------
Magnitude (a.u.)       :      2.74601
Magnitude (Debye)      :      6.97980

Rotational constants in cm-1:     0.020086     0.013778     0.009581
Rotational constants in MHz :   602.172053   413.051122   287.243919

                             ****ORCA TERMINATED NORMALLY****
TOTAL RUN TIME: 0 days 0 hours 1 minutes 46 seconds 542 msec
