                         Program Version 5.0.0 -  RELEASE  -
|  1> !CAM-B3LYP RIJCOSX def2-TZVP def2/J TightSCF xyzfile
|  2>
|  3> *xyzfile 0 1 D3.xyz
|  4>
|  5> %MaxCore 64000
|  6>
|  7> %pal nprocs 18
|  8> end
|  9>
| 10> %scf
| 11>   MaxIter 150
| 12> end
| 13>
| 14>
| 15>                          ****END OF INPUT****

CARTESIAN COORDINATES (ANGSTROEM)
---------------------------------
  C      3.913853   -1.658291    3.015134
  N      5.039266   -0.901154    2.492821
  C      4.084215    1.742081   -2.114724
  C      4.265245    2.500518   -0.795890
  H      4.868534    3.392674   -0.981134
  H      3.307640    2.824571   -0.387809
  C      4.982240    1.650257    0.247422
  C      6.210384   -1.417261    2.178244
  N      6.535913   -2.677122    2.556078
  C      7.076754   -0.700820    1.478906
  H      7.954643   -1.121554    1.207554
  H      6.756161    0.106637    0.960278
  H      4.842168    0.017609    2.115191
  H      5.993876   -3.126918    3.282784
  H      7.498441   -2.975482    2.468776
  F      4.368065    1.389270    1.313706
  O      6.128919    1.233512   -0.045620
  C      3.139159   -2.376572    1.910609
  H      3.267235   -0.939401    3.520693
  H      4.247195   -2.355095    3.790065
  C      1.997274    0.430918   -1.399218
  C      3.412746    0.376886   -1.965497
  H      4.047407   -0.246590   -1.326706
  H      3.390774   -0.118719   -2.942839
  H      5.068475    1.598504   -2.565728
  H      3.503356    2.363939   -2.804565
  C      2.399946   -1.389579    1.009490
  H      2.440750   -3.087118    2.362976
  H      3.844475   -2.970462    1.318677
  C      2.070177   -1.936705   -0.372401
  H      1.481611   -1.061542    1.509912
  H      3.008628   -0.490001    0.897451
  C      1.322238   -0.935775   -1.256413
  H      1.472747   -2.850902   -0.283997
  H      3.003539   -2.234041   -0.862535
  H      1.376444    1.058920   -2.047420
  H      2.015341    0.929780   -0.426535
  H      0.316648   -0.787213   -0.848278
  H      1.185611   -1.379252   -2.248613

 Total Charge           Charge          ....    0
 Multiplicity           Mult            ....    1
 Number of Electrons    NEL             ....  126
 Basis Dimension        Dim             ....  634

ORBITAL ENERGIES
----------------

  NO   OCC          E(Eh)            E(eV)
   0   2.0000     -24.850759      -676.2235
   1   2.0000     -19.213232      -522.8186
   2   2.0000     -14.367213      -390.9517
   3   2.0000     -14.363981      -390.8638
   4   2.0000     -10.438703      -284.0516
   5   2.0000     -10.279608      -279.7224
   6   2.0000     -10.270532      -279.4754
   7   2.0000     -10.265073      -279.3268
   8   2.0000     -10.259885      -279.1857
   9   2.0000     -10.246529      -278.8222
  10   2.0000     -10.244376      -278.7636
  11   2.0000     -10.240794      -278.6662
  12   2.0000     -10.236923      -278.5608
  13   2.0000     -10.236681      -278.5543
  14   2.0000     -10.233007      -278.4543
  15   2.0000     -10.113179      -275.1936
  16   2.0000      -1.428879       -38.8818
  17   2.0000      -1.132191       -30.8085
  18   2.0000      -1.032646       -28.0997
  19   2.0000      -0.946909       -25.7667
  20   2.0000      -0.918086       -24.9824
  21   2.0000      -0.891601       -24.2617
  22   2.0000      -0.861168       -23.4336
  23   2.0000      -0.822804       -22.3896
  24   2.0000      -0.796112       -21.6633
  25   2.0000      -0.770069       -20.9546
  26   2.0000      -0.745895       -20.2968
  27   2.0000      -0.722985       -19.6734
  28   2.0000      -0.687443       -18.7063
  29   2.0000      -0.676337       -18.4041
  30   2.0000      -0.658004       -17.9052
  31   2.0000      -0.647752       -17.6262
  32   2.0000      -0.638418       -17.3722
  33   2.0000      -0.621890       -16.9225
  34   2.0000      -0.604196       -16.4410
  35   2.0000      -0.580294       -15.7906
  36   2.0000      -0.561859       -15.2889
  37   2.0000      -0.554537       -15.0897
  38   2.0000      -0.543694       -14.7947
  39   2.0000      -0.532555       -14.4916
  40   2.0000      -0.526635       -14.3305
  41   2.0000      -0.511829       -13.9276
  42   2.0000      -0.501528       -13.6473
  43   2.0000      -0.497496       -13.5376
  44   2.0000      -0.486450       -13.2370
  45   2.0000      -0.469722       -12.7818
  46   2.0000      -0.464431       -12.6378
  47   2.0000      -0.456279       -12.4160
  48   2.0000      -0.444251       -12.0887
  49   2.0000      -0.436704       -11.8833
  50   2.0000      -0.431911       -11.7529
  51   2.0000      -0.430675       -11.7193
  52   2.0000      -0.420910       -11.4535
  53   2.0000      -0.414409       -11.2767
  54   2.0000      -0.408053       -11.1037
  55   2.0000      -0.401169       -10.9164
  56   2.0000      -0.393784       -10.7154
  57   2.0000      -0.381853       -10.3907
  58   2.0000      -0.379835       -10.3358
  59   2.0000      -0.376031       -10.2323
  60   2.0000      -0.335930        -9.1411
  61   2.0000      -0.301684        -8.2093
  62   2.0000      -0.196034        -5.3344
  63   0.0000       0.006165         0.1678
  64   0.0000       0.063434         1.7261
  65   0.0000       0.074513         2.0276
  66   0.0000       0.078690         2.1413
  67   0.0000       0.083027         2.2593

MULLIKEN ATOMIC CHARGES
-----------------------
   0 C :   -0.211038
   1 N :   -0.297017
   2 C :   -0.173169
   3 C :   -0.240129
   4 H :    0.149426
   5 H :    0.136463
   6 C :    0.377359
   7 C :    0.344366
   8 N :   -0.480588
   9 C :   -0.530804
  10 H :    0.058243
  11 H :    0.112332
  12 H :    0.227655
  13 H :    0.205794
  14 H :    0.230339
  15 F :   -0.137784
  16 O :   -0.295533
  17 C :   -0.097328
  18 H :    0.119818
  19 H :    0.112273
  20 C :   -0.240604
  21 C :   -0.286096
  22 H :    0.154547
  23 H :    0.112348
  24 H :    0.133626
  25 H :    0.112839
  26 C :   -0.233339
  27 H :    0.093088
  28 H :    0.115578
  29 C :   -0.227554
  30 H :    0.100713
  31 H :    0.056292
  32 C :   -0.172582
  33 H :    0.107607
  34 H :    0.126056
  35 H :    0.108308
  36 H :    0.115958
  37 H :    0.105449
  38 H :    0.107089
Sum of atomic charges:    0.0000000

LOEWDIN ATOMIC CHARGES
----------------------
   0 C :   -0.294732
   1 N :    0.115884
   2 C :   -0.253298
   3 C :   -0.229632
   4 H :    0.159497
   5 H :    0.141014
   6 C :   -0.482572
   7 C :   -0.464209
   8 N :   -0.034850
   9 C :   -0.346900
  10 H :    0.090620
  11 H :    0.086084
  12 H :    0.173229
  13 H :    0.153460
  14 H :    0.172332
  15 F :    0.329412
  16 O :    0.114119
  17 C :   -0.267269
  18 H :    0.133336
  19 H :    0.125024
  20 C :   -0.271435
  21 C :   -0.265954
  22 H :    0.143666
  23 H :    0.140931
  24 H :    0.147126
  25 H :    0.140245
  26 C :   -0.271804
  27 H :    0.131881
  28 H :    0.142366
  29 C :   -0.269935
  30 H :    0.135006
  31 H :    0.129481
  32 C :   -0.266190
  33 H :    0.136502
  34 H :    0.137615
  35 H :    0.136519
  36 H :    0.131175
  37 H :    0.136016
  38 H :    0.136241

  Mayer bond orders larger than 0.100000
B(  0-C ,  1-N ) :   0.9733 B(  0-C , 17-C ) :   0.8825 B(  0-C , 18-H ) :   0.9930
B(  0-C , 19-H ) :   1.0031 B(  1-N ,  7-C ) :   1.2006 B(  1-N , 12-H ) :   0.9137
B(  2-C ,  3-C ) :   0.9351 B(  2-C , 21-C ) :   0.9574 B(  2-C , 24-H ) :   0.9732
B(  2-C , 25-H ) :   0.9742 B(  3-C ,  4-H ) :   0.9584 B(  3-C ,  5-H ) :   0.9772
B(  3-C ,  6-C ) :   0.9557 B(  6-C , 15-F ) :   1.0696 B(  6-C , 16-O ) :   2.0120
B(  7-C ,  8-N ) :   1.0974 B(  7-C ,  9-C ) :   1.6440 B(  8-N , 13-H ) :   0.9261
B(  8-N , 14-H ) :   0.9296 B(  9-C , 10-H ) :   1.0113 B(  9-C , 11-H ) :   1.0208
B( 17-C , 26-C ) :   0.9509 B( 17-C , 27-H ) :   0.9690 B( 17-C , 28-H ) :   0.9773
B( 20-C , 21-C ) :   0.9058 B( 20-C , 32-C ) :   0.9510 B( 20-C , 35-H ) :   0.9764
B( 20-C , 36-H ) :   0.9849 B( 21-C , 22-H ) :   0.9778 B( 21-C , 23-H ) :   0.9771
B( 26-C , 29-C ) :   0.9373 B( 26-C , 30-H ) :   0.9674 B( 26-C , 31-H ) :   0.9902
B( 29-C , 32-C ) :   0.9493 B( 29-C , 33-H ) :   0.9835 B( 29-C , 34-H ) :   0.9846
B( 32-C , 37-H ) :   0.9876 B( 32-C , 38-H ) :   0.9848

FINAL SINGLE POINT ENERGY      -755.551419900224

DIPOLE MOMENT
-------------
                                X             Y             Z
Electronic contribution:      9.46094       8.66915       6.70457
Nuclear contribution   :    -11.12616      -8.32792      -6.96231
                        -----------------------------------------
Total Dipole Moment    :     -1.66522       0.34123      -0.25774
                        -----------------------------------------
Magnitude (a.u.)       :      1.71925
Magnitude (Debye)      :      4.36998

Rotational constants in cm-1:     0.020226     0.013574     0.009520
Rotational constants in MHz :   606.360011   406.923773   285.390769

                             ****ORCA TERMINATED NORMALLY****
TOTAL RUN TIME: 0 days 0 hours 2 minutes 31 seconds 940 msec
