                         Program Version 5.0.0 -  RELEASE  -
|  1> !CAM-B3LYP RIJCOSX def2-TZVP def2/J TightSCF xyzfile
|  2>
|  3> *xyzfile 0 1 D4.xyz
|  4>
|  5> %MaxCore 64000
|  6>
|  7> %pal nprocs 18
|  8> end
|  9>
| 10> %scf
| 11>   MaxIter 150
| 12> end
| 13>
| 14>
| 15>                          ****END OF INPUT****

CARTESIAN COORDINATES (ANGSTROEM)
---------------------------------
  C      3.913853   -1.658291    3.015134
  C      5.039266   -0.901154    2.492821
  C      4.084215    1.742081   -2.114724
  C      4.265245    2.500518   -0.795890
  H      4.868534    3.392674   -0.981134
  H      3.307640    2.824571   -0.387809
  C      4.982240    1.650257    0.247422
  C      6.210384   -1.417261    2.178244
  N      6.535913   -2.677122    2.556078
  N      7.076754   -0.700820    1.478906
  H      7.954643   -1.121554    1.207554
  H      6.756161    0.106637    0.960278
  H      4.842168    0.017609    2.115191
  H      5.993876   -3.126918    3.282784
  H      7.498441   -2.975482    2.468776
  O      4.368065    1.389270    1.313706
  F      6.128919    1.233512   -0.045620
  C      3.139159   -2.376572    1.910609
  H      3.267235   -0.939401    3.520693
  H      4.247195   -2.355095    3.790065
  C      1.997274    0.430918   -1.399218
  C      3.412746    0.376886   -1.965497
  H      4.047407   -0.246590   -1.326706
  H      3.390774   -0.118719   -2.942839
  H      5.068475    1.598504   -2.565728
  H      3.503356    2.363939   -2.804565
  C      2.399946   -1.389579    1.009490
  H      2.440750   -3.087118    2.362976
  H      3.844475   -2.970462    1.318677
  C      2.070177   -1.936705   -0.372401
  H      1.481611   -1.061542    1.509912
  H      3.008628   -0.490001    0.897451
  C      1.322238   -0.935775   -1.256413
  H      1.472747   -2.850902   -0.283997
  H      3.003539   -2.234041   -0.862535
  H      1.376444    1.058920   -2.047420
  H      2.015341    0.929780   -0.426535
  H      0.316648   -0.787213   -0.848278
  H      1.185611   -1.379252   -2.248613

 Total Charge           Charge          ....    0
 Multiplicity           Mult            ....    1
 Number of Electrons    NEL             ....  126
 Basis Dimension        Dim             ....  634

ORBITAL ENERGIES
----------------

  NO   OCC          E(Eh)            E(eV)
   0   2.0000     -24.854494      -676.3252
   1   2.0000     -19.216956      -522.9199
   2   2.0000     -14.369082      -391.0026
   3   2.0000     -14.360252      -390.7623
   4   2.0000     -10.441412      -284.1253
   5   2.0000     -10.280342      -279.7423
   6   2.0000     -10.263781      -279.2917
   7   2.0000     -10.263243      -279.2771
   8   2.0000     -10.246501      -278.8215
   9   2.0000     -10.235867      -278.5321
  10   2.0000     -10.229831      -278.3679
  11   2.0000     -10.220769      -278.1213
  12   2.0000     -10.209234      -277.8074
  13   2.0000     -10.204409      -277.6761
  14   2.0000     -10.197629      -277.4916
  15   2.0000     -10.125811      -275.5373
  16   2.0000      -1.433688       -39.0126
  17   2.0000      -1.133517       -30.8446
  18   2.0000      -1.023059       -27.8388
  19   2.0000      -0.932886       -25.3851
  20   2.0000      -0.917491       -24.9662
  21   2.0000      -0.882840       -24.0233
  22   2.0000      -0.852792       -23.2057
  23   2.0000      -0.823384       -22.4054
  24   2.0000      -0.789565       -21.4851
  25   2.0000      -0.764797       -20.8112
  26   2.0000      -0.746530       -20.3141
  27   2.0000      -0.710421       -19.3315
  28   2.0000      -0.681638       -18.5483
  29   2.0000      -0.665946       -18.1213
  30   2.0000      -0.652101       -17.7446
  31   2.0000      -0.646380       -17.5889
  32   2.0000      -0.625606       -17.0236
  33   2.0000      -0.615054       -16.7365
  34   2.0000      -0.603298       -16.4166
  35   2.0000      -0.582038       -15.8381
  36   2.0000      -0.556310       -15.1380
  37   2.0000      -0.552473       -15.0336
  38   2.0000      -0.549041       -14.9402
  39   2.0000      -0.527410       -14.3516
  40   2.0000      -0.517930       -14.0936
  41   2.0000      -0.505358       -13.7515
  42   2.0000      -0.495702       -13.4887
  43   2.0000      -0.480110       -13.0645
  44   2.0000      -0.475509       -12.9393
  45   2.0000      -0.469175       -12.7669
  46   2.0000      -0.460193       -12.5225
  47   2.0000      -0.451654       -12.2901
  48   2.0000      -0.444448       -12.0940
  49   2.0000      -0.438905       -11.9432
  50   2.0000      -0.428480       -11.6595
  51   2.0000      -0.425711       -11.5842
  52   2.0000      -0.406254       -11.0547
  53   2.0000      -0.397736       -10.8229
  54   2.0000      -0.395851       -10.7717
  55   2.0000      -0.390596       -10.6287
  56   2.0000      -0.371268       -10.1027
  57   2.0000      -0.365008        -9.9324
  58   2.0000      -0.359693        -9.7877
  59   2.0000      -0.355058        -9.6616
  60   2.0000      -0.326866        -8.8945
  61   2.0000      -0.313048        -8.5185
  62   2.0000      -0.194970        -5.3054
  63   0.0000       0.006892         0.1876
  64   0.0000       0.060591         1.6488
  65   0.0000       0.073136         1.9901
  66   0.0000       0.085398         2.3238
  67   0.0000       0.087792         2.3890

MULLIKEN ATOMIC CHARGES
-----------------------
   0 C :   -0.252127
   1 C :   -0.406680
   2 C :   -0.207800
   3 C :   -0.230201
   4 H :    0.139880
   5 H :    0.156755
   6 C :    0.390308
   7 C :    0.329259
   8 N :   -0.474364
   9 N :   -0.471750
  10 H :    0.199702
  11 H :    0.233585
  12 H :    0.173674
  13 H :    0.230926
  14 H :    0.201398
  15 O :   -0.320342
  16 F :   -0.135242
  17 C :   -0.104676
  18 H :    0.089120
  19 H :    0.072980
  20 C :   -0.245360
  21 C :   -0.255302
  22 H :    0.134717
  23 H :    0.110877
  24 H :    0.123840
  25 H :    0.118065
  26 C :   -0.231884
  27 H :    0.077667
  28 H :    0.091688
  29 C :   -0.221743
  30 H :    0.090547
  31 H :    0.111338
  32 C :   -0.173028
  33 H :    0.101263
  34 H :    0.108801
  35 H :    0.102749
  36 H :    0.138168
  37 H :    0.103316
  38 H :    0.099877
Sum of atomic charges:   -0.0000000

LOEWDIN ATOMIC CHARGES
----------------------
   0 C :   -0.284828
   1 C :   -0.280118
   2 C :   -0.262954
   3 C :   -0.225602
   4 H :    0.152029
   5 H :    0.155315
   6 C :   -0.481325
   7 C :   -0.461050
   8 N :   -0.037214
   9 N :   -0.027103
  10 H :    0.155808
  11 H :    0.152573
  12 H :    0.114457
  13 H :    0.169480
  14 H :    0.154908
  15 O :    0.099399
  16 F :    0.339568
  17 C :   -0.259409
  18 H :    0.141673
  19 H :    0.122747
  20 C :   -0.269480
  21 C :   -0.265828
  22 H :    0.140449
  23 H :    0.139788
  24 H :    0.139416
  25 H :    0.141885
  26 C :   -0.266858
  27 H :    0.124127
  28 H :    0.135549
  29 C :   -0.273136
  30 H :    0.133159
  31 H :    0.140337
  32 C :   -0.267414
  33 H :    0.134389
  34 H :    0.132435
  35 H :    0.134778
  36 H :    0.138705
  37 H :    0.136165
  38 H :    0.133182

  Mayer bond orders larger than 0.100000
B(  0-C ,  1-C ) :   0.9964 B(  0-C , 17-C ) :   0.9092 B(  0-C , 18-H ) :   0.9943
B(  0-C , 19-H ) :   1.0031 B(  1-C ,  7-C ) :   1.6553 B(  1-C , 12-H ) :   1.0041
B(  2-C ,  3-C ) :   0.9194 B(  2-C , 21-C ) :   0.9389 B(  2-C , 24-H ) :   0.9858
B(  2-C , 25-H ) :   0.9726 B(  3-C ,  4-H ) :   0.9573 B(  3-C ,  5-H ) :   0.9850
B(  3-C ,  6-C ) :   0.9625 B(  6-C , 15-O ) :   1.9910 B(  6-C , 16-F ) :   1.0624
B(  7-C ,  8-N ) :   1.1138 B(  7-C ,  9-N ) :   1.1488 B(  8-N , 13-H ) :   0.9210
B(  8-N , 14-H ) :   0.9346 B(  9-N , 10-H ) :   0.9372 B(  9-N , 11-H ) :   0.9056
B( 17-C , 26-C ) :   0.9730 B( 17-C , 27-H ) :   0.9738 B( 17-C , 28-H ) :   0.9784
B( 20-C , 21-C ) :   0.9129 B( 20-C , 32-C ) :   0.9536 B( 20-C , 35-H ) :   0.9752
B( 20-C , 36-H ) :   0.9801 B( 21-C , 22-H ) :   0.9813 B( 21-C , 23-H ) :   0.9767
B( 26-C , 29-C ) :   0.9281 B( 26-C , 30-H ) :   0.9731 B( 26-C , 31-H ) :   0.9882
B( 29-C , 32-C ) :   0.9512 B( 29-C , 33-H ) :   0.9834 B( 29-C , 34-H ) :   0.9876
B( 32-C , 37-H ) :   0.9853 B( 32-C , 38-H ) :   0.9870

FINAL SINGLE POINT ENERGY      -755.560732685619

DIPOLE MOMENT
-------------
                                X             Y             Z
Electronic contribution:     14.35718       8.76242       3.65797
Nuclear contribution   :    -13.61164      -8.17416      -5.14068
                        -----------------------------------------
Total Dipole Moment    :      0.74554       0.58825      -1.48271
                        -----------------------------------------
Magnitude (a.u.)       :      1.76077
Magnitude (Debye)      :      4.47552

Rotational constants in cm-1:     0.019858     0.013613     0.009401
Rotational constants in MHz :   595.331791   408.100423   281.843625

                             ****ORCA TERMINATED NORMALLY****
TOTAL RUN TIME: 0 days 0 hours 1 minutes 57 seconds 567 msec
