                         Program Version 5.0.0 -  RELEASE  -
|  1> !CAM-B3LYP RIJCOSX def2-TZVP def2/J TightSCF xyzfile
|  2>
|  3> *xyzfile 0 1 D5.xyz
|  4>
|  5> %MaxCore 64000
|  6>
|  7> %pal nprocs 18
|  8> end
|  9>
| 10> %scf
| 11>   MaxIter 150
| 12> end
| 13>
| 14>
| 15>                          ****END OF INPUT****

CARTESIAN COORDINATES (ANGSTROEM)
---------------------------------
  C      3.913853   -1.658291    3.015134
  N      5.039266   -0.901154    2.492821
  C      4.084215    1.742081   -2.114724
  C      4.265245    2.500518   -0.795890
  H      4.868534    3.392674   -0.981134
  H      3.307640    2.824571   -0.387809
  C      4.982240    1.650257    0.247422
  C      6.210384   -1.417261    2.178244
  C      6.535913   -2.677122    2.556078
  N      7.076754   -0.700820    1.478906
  H      7.954643   -1.121554    1.207554
  H      6.756161    0.106637    0.960278
  H      4.842168    0.017609    2.115191
  H      5.993876   -3.126918    3.282784
  H      7.498441   -2.975482    2.468776
  O      4.368065    1.389270    1.313706
  F      6.128919    1.233512   -0.045620
  C      3.139159   -2.376572    1.910609
  H      3.267235   -0.939401    3.520693
  H      4.247195   -2.355095    3.790065
  C      1.997274    0.430918   -1.399218
  C      3.412746    0.376886   -1.965497
  H      4.047407   -0.246590   -1.326706
  H      3.390774   -0.118719   -2.942839
  H      5.068475    1.598504   -2.565728
  H      3.503356    2.363939   -2.804565
  C      2.399946   -1.389579    1.009490
  H      2.440750   -3.087118    2.362976
  H      3.844475   -2.970462    1.318677
  C      2.070177   -1.936705   -0.372401
  H      1.481611   -1.061542    1.509912
  H      3.008628   -0.490001    0.897451
  C      1.322238   -0.935775   -1.256413
  H      1.472747   -2.850902   -0.283997
  H      3.003539   -2.234041   -0.862535
  H      1.376444    1.058920   -2.047420
  H      2.015341    0.929780   -0.426535
  H      0.316648   -0.787213   -0.848278
  H      1.185611   -1.379252   -2.248613

 Total Charge           Charge          ....    0
 Multiplicity           Mult            ....    1
 Number of Electrons    NEL             ....  126
 Basis Dimension        Dim             ....  634

ORBITAL ENERGIES
----------------

  NO   OCC          E(Eh)            E(eV)
   0   2.0000     -24.872011      -676.8018
   1   2.0000     -19.244708      -523.6751
   2   2.0000     -14.363309      -390.8455
   3   2.0000     -14.353133      -390.5686
   4   2.0000     -10.464869      -284.7636
   5   2.0000     -10.295039      -280.1423
   6   2.0000     -10.275418      -279.6083
   7   2.0000     -10.270057      -279.4625
   8   2.0000     -10.257169      -279.1118
   9   2.0000     -10.253396      -279.0091
  10   2.0000     -10.246260      -278.8149
  11   2.0000     -10.239409      -278.6285
  12   2.0000     -10.231523      -278.4139
  13   2.0000     -10.224467      -278.2219
  14   2.0000     -10.219158      -278.0774
  15   2.0000     -10.130506      -275.6651
  16   2.0000      -1.451250       -39.4905
  17   2.0000      -1.159918       -31.5630
  18   2.0000      -1.031713       -28.0743
  19   2.0000      -0.948943       -25.8221
  20   2.0000      -0.930571       -25.3221
  21   2.0000      -0.893015       -24.3002
  22   2.0000      -0.855674       -23.2841
  23   2.0000      -0.825000       -22.4494
  24   2.0000      -0.788971       -21.4690
  25   2.0000      -0.774611       -21.0782
  26   2.0000      -0.760154       -20.6848
  27   2.0000      -0.729823       -19.8595
  28   2.0000      -0.697672       -18.9846
  29   2.0000      -0.671853       -18.2821
  30   2.0000      -0.669357       -18.2141
  31   2.0000      -0.667693       -18.1689
  32   2.0000      -0.632776       -17.2187
  33   2.0000      -0.627190       -17.0667
  34   2.0000      -0.607711       -16.5367
  35   2.0000      -0.579510       -15.7693
  36   2.0000      -0.573079       -15.5943
  37   2.0000      -0.563156       -15.3243
  38   2.0000      -0.559201       -15.2166
  39   2.0000      -0.538328       -14.6486
  40   2.0000      -0.521644       -14.1947
  41   2.0000      -0.515103       -14.0167
  42   2.0000      -0.501729       -13.6527
  43   2.0000      -0.491193       -13.3661
  44   2.0000      -0.483730       -13.1630
  45   2.0000      -0.481906       -13.1133
  46   2.0000      -0.470036       -12.7903
  47   2.0000      -0.458749       -12.4832
  48   2.0000      -0.455306       -12.3895
  49   2.0000      -0.444375       -12.0921
  50   2.0000      -0.435364       -11.8469
  51   2.0000      -0.426730       -11.6119
  52   2.0000      -0.422152       -11.4873
  53   2.0000      -0.414122       -11.2688
  54   2.0000      -0.407766       -11.0959
  55   2.0000      -0.404880       -11.0173
  56   2.0000      -0.389004       -10.5853
  57   2.0000      -0.381089       -10.3700
  58   2.0000      -0.376183       -10.2365
  59   2.0000      -0.372563       -10.1380
  60   2.0000      -0.367083        -9.9888
  61   2.0000      -0.290271        -7.8987
  62   2.0000      -0.200152        -5.4464
  63   0.0000      -0.014167        -0.3855
  64   0.0000       0.051297         1.3959
  65   0.0000       0.077087         2.0976
  66   0.0000       0.077299         2.1034
  67   0.0000       0.085274         2.3204

MULLIKEN ATOMIC CHARGES
-----------------------
   0 C :   -0.160976
   1 N :   -0.309157
   2 C :   -0.211787
   3 C :   -0.232481
   4 H :    0.147880
   5 H :    0.161025
   6 C :    0.403373
   7 C :    0.324165
   8 C :   -0.536650
   9 N :   -0.470154
  10 H :    0.230520
  11 H :    0.212219
  12 H :    0.226945
  13 H :    0.072494
  14 H :    0.065628
  15 O :   -0.355973
  16 F :   -0.120364
  17 C :   -0.108313
  18 H :    0.113894
  19 H :    0.126036
  20 C :   -0.244173
  21 C :   -0.258773
  22 H :    0.132273
  23 H :    0.117321
  24 H :    0.130467
  25 H :    0.123438
  26 C :   -0.266453
  27 H :    0.092972
  28 H :    0.124310
  29 C :   -0.221988
  30 H :    0.092981
  31 H :    0.095994
  32 C :   -0.176021
  33 H :    0.108092
  34 H :    0.117045
  35 H :    0.107488
  36 H :    0.135058
  37 H :    0.106586
  38 H :    0.105063
Sum of atomic charges:    0.0000000

LOEWDIN ATOMIC CHARGES
----------------------
   0 C :   -0.275457
   1 N :    0.119985
   2 C :   -0.260487
   3 C :   -0.222277
   4 H :    0.155013
   5 H :    0.156481
   6 C :   -0.473891
   7 C :   -0.463528
   8 C :   -0.381888
   9 N :   -0.020369
  10 H :    0.173609
  11 H :    0.141313
  12 H :    0.156358
  13 H :    0.092530
  14 H :    0.088607
  15 O :    0.083419
  16 F :    0.346339
  17 C :   -0.264648
  18 H :    0.132675
  19 H :    0.133997
  20 C :   -0.269589
  21 C :   -0.265189
  22 H :    0.139501
  23 H :    0.141924
  24 H :    0.141282
  25 H :    0.143951
  26 C :   -0.273688
  27 H :    0.132194
  28 H :    0.144634
  29 C :   -0.271240
  30 H :    0.133897
  31 H :    0.133957
  32 C :   -0.266318
  33 H :    0.136617
  34 H :    0.134821
  35 H :    0.136152
  36 H :    0.137340
  37 H :    0.137002
  38 H :    0.134970

  Mayer bond orders larger than 0.100000
B(  0-C ,  1-N ) :   0.9643 B(  0-C , 17-C ) :   0.9164 B(  0-C , 18-H ) :   0.9889
B(  0-C , 19-H ) :   0.9878 B(  1-N ,  7-C ) :   1.2237 B(  1-N , 12-H ) :   0.8778
B(  2-C ,  3-C ) :   0.9182 B(  2-C , 21-C ) :   0.9368 B(  2-C , 24-H ) :   0.9857
B(  2-C , 25-H ) :   0.9718 B(  3-C ,  4-H ) :   0.9561 B(  3-C ,  5-H ) :   0.9828
B(  3-C ,  6-C ) :   0.9628 B(  6-C , 15-O ) :   1.9388 B(  6-C , 16-F ) :   1.0892
B(  7-C ,  8-C ) :   1.6140 B(  7-C ,  9-N ) :   1.1490 B(  8-C , 13-H ) :   1.0098
B(  8-C , 14-H ) :   1.0007 B(  9-N , 10-H ) :   0.9304 B(  9-N , 11-H ) :   0.9104
B( 17-C , 26-C ) :   0.9469 B( 17-C , 27-H ) :   0.9749 B( 17-C , 28-H ) :   0.9729
B( 20-C , 21-C ) :   0.9080 B( 20-C , 32-C ) :   0.9519 B( 20-C , 35-H ) :   0.9750
B( 20-C , 36-H ) :   0.9810 B( 21-C , 22-H ) :   0.9817 B( 21-C , 23-H ) :   0.9765
B( 26-C , 29-C ) :   0.9292 B( 26-C , 30-H ) :   0.9696 B( 26-C , 31-H ) :   0.9936
B( 29-C , 32-C ) :   0.9478 B( 29-C , 33-H ) :   0.9839 B( 29-C , 34-H ) :   0.9872
B( 32-C , 37-H ) :   0.9858 B( 32-C , 38-H ) :   0.9867

FINAL SINGLE POINT ENERGY      -755.571275586829

DIPOLE MOMENT
-------------
                                X             Y             Z
Electronic contribution:     12.77943      10.43786       3.19991
Nuclear contribution   :    -13.35170      -8.48261      -5.12969
                        -----------------------------------------
Total Dipole Moment    :     -0.57227       1.95524      -1.92978
                        -----------------------------------------
Magnitude (a.u.)       :      2.80616
Magnitude (Debye)      :      7.13268

Rotational constants in cm-1:     0.019886     0.013843     0.009504
Rotational constants in MHz :   596.157485   415.004628   284.931121

                             ****ORCA TERMINATED NORMALLY****
TOTAL RUN TIME: 0 days 0 hours 2 minutes 23 seconds 187 msec
