                         Program Version 5.0.0 -  RELEASE  -
|  1> !wB97X-D3 RIJCOSX def2-SVPD def2/J TightSCF CPCM(Water)
|  2> *xyz -1 1
|  3> C          3.84189       -6.95161       -3.63283
|  4> S          4.31812       -6.91593       -5.36869
|  5> O          5.40615       -5.89948       -5.51297
|  6> O          3.11191       -6.44508       -6.04379
|  7> O          4.76340       -8.23942       -5.69863
|  8> H          3.06224       -7.67071       -3.49159
|  9> H          3.49217       -5.98401       -3.33897
| 10> H          4.68822       -7.22131       -3.03626
| 11> *
| 12>
| 13> %MaxCore 64000
| 14>
| 15> %pal nprocs 8
| 16> end
| 17>
| 18> %scf
| 19>   MaxIter 150
| 20> end
| 21>
| 22>
| 23>                          ****END OF INPUT****

CARTESIAN COORDINATES (ANGSTROEM)
---------------------------------
  C      3.841890   -6.951610   -3.632830
  S      4.318120   -6.915930   -5.368690
  O      5.406150   -5.899480   -5.512970
  O      3.111910   -6.445080   -6.043790
  O      4.763400   -8.239420   -5.698630
  H      3.062240   -7.670710   -3.491590
  H      3.492170   -5.984010   -3.338970
  H      4.688220   -7.221310   -3.036260

 Total Charge           Charge          ....   -1
 Multiplicity           Mult            ....    1
 Number of Electrons    NEL             ....   50
 Basis Dimension        Dim             ....  140

ORBITAL ENERGIES
----------------

  NO   OCC          E(Eh)            E(eV)
   0   2.0000     -89.157258     -2426.0923
   1   2.0000     -19.213068      -522.8142
   2   2.0000     -19.204260      -522.5745
   3   2.0000     -19.199600      -522.4477
   4   2.0000     -10.291721      -280.0520
   5   2.0000      -8.231251      -223.9837
   6   2.0000      -6.191081      -168.4679
   7   2.0000      -6.190995      -168.4655
   8   2.0000      -6.189578      -168.4270
   9   2.0000      -1.229309       -33.4512
  10   2.0000      -1.090339       -29.6696
  11   2.0000      -1.061982       -28.8980
  12   2.0000      -0.848868       -23.0989
  13   2.0000      -0.667423       -18.1615
  14   2.0000      -0.584432       -15.9032
  15   2.0000      -0.563992       -15.3470
  16   2.0000      -0.561401       -15.2765
  17   2.0000      -0.511608       -13.9216
  18   2.0000      -0.508501       -13.8370
  19   2.0000      -0.438503       -11.9323
  20   2.0000      -0.435583       -11.8528
  21   2.0000      -0.394946       -10.7470
  22   2.0000      -0.381358       -10.3773
  23   2.0000      -0.380083       -10.3426
  24   2.0000      -0.346459        -9.4276
  25   0.0000       0.079663         2.1677
  26   0.0000       0.103170         2.8074
  27   0.0000       0.103949         2.8286
  28   0.0000       0.104389         2.8406
  29   0.0000       0.152983         4.1629

MULLIKEN ATOMIC CHARGES
-----------------------
   0 C :    0.371729
   1 S :    1.065361
   2 O :   -0.840107
   3 O :   -0.805848
   4 O :   -0.769850
   5 H :    0.001548
   6 H :   -0.005580
   7 H :   -0.017253
Sum of atomic charges:   -1.0000000

LOEWDIN ATOMIC CHARGES
----------------------
   0 C :    0.082709
   1 S :    0.836950
   2 O :   -0.642582
   3 O :   -0.625050
   4 O :   -0.601544
   5 H :   -0.015661
   6 H :   -0.016931
   7 H :   -0.017890

  Mayer bond orders larger than 0.100000
B(  0-C ,  1-S ) :   0.9692 B(  0-C ,  5-H ) :   0.9277 B(  0-C ,  6-H ) :   0.9325
B(  0-C ,  7-H ) :   0.9374 B(  1-S ,  2-O ) :   1.2785 B(  1-S ,  3-O ) :   1.3224
B(  1-S ,  4-O ) :   1.3530 B(  1-S ,  6-H ) :   0.1079 B(  1-S ,  7-H ) :   0.1027

Dispersion correction           -0.001521422
FINAL SINGLE POINT ENERGY      -663.518695728900

DIPOLE MOMENT
-------------
                                X             Y             Z
Electronic contribution:      0.88561      -0.15902      -3.43995
Nuclear contribution   :     -1.53523      -0.17928       5.57610
                        -----------------------------------------
Total Dipole Moment    :     -0.64963      -0.33830       2.13615
                        -----------------------------------------
Magnitude (a.u.)       :      2.25823
Magnitude (Debye)      :      5.73996

Rotational constants in cm-1:     0.172657     0.156250     0.152500
Rotational constants in MHz :  5176.120042  4684.252187  4571.835124

                             ****ORCA TERMINATED NORMALLY****
TOTAL RUN TIME: 0 days 0 hours 0 minutes 10 seconds 220 msec
